Membrane in water
40167
    1TCq1    O1    1   2.104   1.352  11.735 -0.1160  0.5726  0.1186
    1TCq1    C1    2   1.989   1.398  11.795 -0.1517  0.1184 -0.0481
    1TCq1    O2    3   1.886   1.413  11.736  0.2579 -0.0864 -0.4399
    1TCq1    C2    4   2.007   1.348  11.928  0.0185 -0.6903  0.0514
    1TCq1    C3    5   2.118   1.389  12.000  0.1404  0.4517  0.0212
    1TCq1    C4    6   2.145   1.332  12.125  0.2854 -0.1436  0.9179
    1TCq1    C5    7   2.047   1.244  12.170  0.2885 -0.1228  0.6690
    1TCq1    C6    8   1.935   1.213  12.097 -0.5502 -0.2859  0.3914
    1TCq1    C7    9   1.912   1.269  11.974 -0.4672  0.3576 -0.2709
    1TCq1    C8   10   1.865   1.093  12.134  0.0169  0.4169 -0.0213
    1TCq1    O4   11   1.744   1.081  12.114  0.5266  0.1534  0.2038
    1TCq1    C9   12   2.251   1.374  12.210 -0.4924  0.7663 -0.5462
    1TCq1    O5   13   2.268   1.307  12.314 -0.1435  0.1577 -0.5528
    1TCq1    O6   14   2.343   1.438  12.149  0.6989 -0.5658  0.5152
    1TCq1    H1   15   2.150   1.326  11.817  0.0882 -1.0868 -0.5349
    1TCq1    H2   16   2.177   1.468  11.954  1.7803 -0.5006  0.4640
    1TCq1    H3   17   2.057   1.202  12.270 -0.5527 -0.9329  0.4177
    1TCq1    H4   18   1.830   1.238  11.910 -1.7570  1.7320  0.6985
    2MPD2     C   19   1.852   0.665  12.422  0.0249  0.2420  0.4846
    2MPD2    C1   20   1.752   0.737  12.364 -0.2079  0.0182  0.1427
    2MPD2    C2   21   1.776   0.851  12.287 -0.4891  1.1390 -0.3380
    2MPD2    C3   22   1.910   0.886  12.261  0.3768  0.2923  1.3625
    2MPD2    C4   23   2.009   0.804  12.309 -1.1189  0.8014 -0.0777
    2MPD2    C5   24   1.979   0.698  12.389  0.3591  0.2886 -0.1722
    2MPD2     H   25   1.686   0.906  12.262 -1.1899  0.6621  1.1195
    2MPD2    H1   26   2.114   0.823  12.287 -0.4385  0.3085  2.7704
    2MPD2    H2   27   1.834   0.581  12.488 -0.2329 -1.3817 -1.6560
    2MPD2    H3   28   2.065   0.638  12.416 -0.1416 -0.1358  0.4888
    2MPD2     N   29   1.952   1.000  12.189  0.2390 -0.0862  0.8300
    2MPD2    H5   30   2.052   1.017  12.186  0.7133 -3.1986 -1.6094
    2MPD2    N1   31   1.615   0.706  12.399 -0.0487  0.3198 -0.3173
    2MPD2    H7   32   1.548   0.767  12.352 -0.6294  0.2173  0.3824
    3TCq1    O1   33   0.701   2.303  10.249 -0.4082 -0.2185  0.4828
    3TCq1    C1   34   0.717   2.430  10.285 -0.3046 -0.5134  0.0925
    3TCq1    O2   35   0.671   2.523  10.224 -0.3636 -0.4601  0.4590
    3TCq1    C2   36   0.768   2.446  10.417  0.0684 -0.3892  0.7106
    3TCq1    C3   37   0.775   2.567  10.481 -0.3151  0.1039  0.6606
    3TCq1    C4   38   0.800   2.576  10.620 -0.9120 -0.3560  0.1831
    3TCq1    C5   39   0.806   2.466  10.700 -0.6296 -0.2457  0.0218
    3TCq1    C6   40   0.795   2.348  10.634 -1.1817 -0.1326 -0.3577
    3TCq1    C7   41   0.774   2.335  10.495 -0.4325  0.1565  0.2967
    3TCq1    C8   42   0.783   2.232  10.716 -0.1221 -0.4437  0.3613
    3TCq1    O4   43   0.815   2.124  10.667  0.5966  0.1835 -0.1323
    3TCq1    C9   44   0.827   2.697  10.680 -0.4626 -0.1247  0.0639
    3TCq1    O5   45   0.780   2.795  10.618  0.0131  0.0911  0.1962
    3TCq1    O6   46   0.837   2.704  10.812 -0.9127  0.0734  0.0958
    3TCq1    H1   47   0.762   2.240  10.295 -0.1738 -0.3086  0.0470
    3TCq1    H2   48   0.769   2.664  10.434  1.6256 -0.8468 -1.5470
    3TCq1    H3   49   0.836   2.473  10.805  0.5292 -1.9532 -0.1826
    3TCq1    H4   50   0.744   2.234  10.468  0.4313  0.3815 -1.4955
    4MPD2     C   51   0.608   2.019  11.141  0.2166  0.2774 -0.1428
    4MPD2    C1   52   0.554   2.141  11.135  0.0912  0.5413  0.8339
    4MPD2    C2   53   0.595   2.224  11.033 -0.4760 -0.3455 -0.2911
    4MPD2    C3   54   0.673   2.174  10.929 -0.1559  0.5090  0.5362
    4MPD2    C4   55   0.703   2.042  10.924 -0.0707 -0.0028  0.4977
    4MPD2    C5   56   0.676   1.963  11.036  0.8582  0.1360  0.1024
    4MPD2     H   57   0.584   2.331  11.034 -0.4707 -0.3689  1.9065
    4MPD2    H1   58   0.763   1.990  10.850 -0.9518 -1.2498  0.6542
    4MPD2    H2   59   0.601   1.961  11.232  0.7170  0.2205 -0.1360
    4MPD2    H3   60   0.719   1.864  11.038 -0.3818 -0.4684 -3.2855
    4MPD2     N   61   0.717   2.264  10.834 -0.2849 -0.5772  0.2998
    4MPD2    H5   62   0.690   2.361  10.849  0.5558 -0.0127 -1.7549
    4MPD2    N1   63   0.466   2.184  11.242 -0.2950 -0.2519 -0.1130
    4MPD2    H7   64   0.461   2.120  11.321  1.7490  1.4325  1.4018
    5TCq1    O1   65   2.305   3.535  11.457 -0.1410  0.4776  0.3542
    5TCq1    C1   66   2.277   3.629  11.551  0.6166  0.0900  0.3821
    5TCq1    O2   67   2.349   3.647  11.652  0.5353 -0.2773 -0.4282
    5TCq1    C2   68   2.201   3.735  11.487  0.2239  0.2282  0.5432
    5TCq1    C3   69   2.224   3.870  11.510 -0.3284 -0.0705  0.3736
    5TCq1    C4   70   2.140   3.970  11.467  0.2255  0.0812 -0.3615
    5TCq1    C5   71   2.019   3.934  11.415  0.9409 -0.2747  0.7220
    5TCq1    C6   72   1.992   3.804  11.402 -0.3683  0.0176 -0.0237
    5TCq1    C7   73   2.082   3.701  11.424  0.0758 -0.3931 -0.5519
    5TCq1    C8   74   1.869   3.768  11.329  0.3442  0.2352  0.1883
    5TCq1    O4   75   1.833   3.650  11.344 -0.4880  0.3495 -0.0293
    5TCq1    C9   76   2.164   4.107  11.502 -0.0140  0.0013 -0.2570
    5TCq1    O5   77   2.246   4.129  11.592 -0.4068  0.3920 -0.7310
    5TCq1    O6   78   2.085   4.189  11.457 -0.0705  0.1412 -0.4393
    5TCq1    H1   79   2.241   3.526  11.384 -2.5927 -0.2619  2.5857
    5TCq1    H2   80   2.315   3.897  11.561 -1.6614  3.0622  1.1257
    5TCq1    H3   81   1.938   4.005  11.417 -0.0845 -1.4114 -0.1772
    5TCq1    H4   82   2.057   3.598  11.403  2.1183 -0.8394 -0.7903
    6MPD2     C   83   1.700   3.987  11.077 -0.5670 -0.0042 -0.2106
    6MPD2    C1   84   1.720   3.874  11.153 -0.8354 -0.1332 -0.7930
    6MPD2    C2   85   1.629   3.765  11.139 -0.1787 -0.4074  1.0496
    6MPD2    C3   86   1.520   3.783  11.055  0.6086 -0.2839 -0.9656
    6MPD2    C4   87   1.507   3.897  10.985  0.0706  0.2810 -0.4451
    6MPD2    C5   88   1.595   4.001  10.988  0.2784  0.2436 -0.0166
    6MPD2     H   89   1.635   3.678  11.203  0.5305 -1.3910 -0.3689
    6MPD2    H1   90   1.419   3.901  10.921  0.5598  0.6482 -1.0983
    6MPD2    H2   91   1.777   4.063  11.087 -0.4942 -0.0815 -0.1877
    6MPD2    H3   92   1.578   4.086  10.923 -1.7470  1.2784  1.8724
    6MPD2     N   93   1.424   3.675  11.044  0.0152  0.0234  0.0224
    6MPD2    H5   94   1.457   3.588  11.086  2.4392  0.4088 -1.0911
    6MPD2    N1   95   1.831   3.878  11.246 -0.2003 -0.2991 -0.4698
    6MPD2    H7   96   1.881   3.966  11.253  0.4255 -0.7642  0.7768
    7TCq1    O1   97   3.180   2.926  13.314 -0.6177  0.1238  0.2019
    7TCq1    C1   98   3.246   2.939  13.199 -0.0939  0.5592  0.0937
    7TCq1    O2   99   3.240   3.043  13.129  0.0994 -0.2391  0.1277
    7TCq1    C2  100   3.253   2.811  13.133  0.3765  0.7906  0.5074
    7TCq1    C3  101   3.188   2.787  13.021 -0.0371  0.7224 -0.5177
    7TCq1    C4  102   3.181   2.657  12.972 -0.2575  0.0387  0.1666
    7TCq1    C5  103   3.230   2.559  13.043 -0.0425  0.4018 -0.5082
    7TCq1    C6  104   3.299   2.591  13.159  0.0405  0.0007  0.0548
    7TCq1    C7  105   3.312   2.716  13.208  0.2883  0.0557  0.3072
    7TCq1    C8  106   3.351   2.488  13.240  0.0805 -0.0382  0.3057
    7TCq1    O4  107   3.447   2.516  13.312  1.2459  0.3700 -0.3328
    7TCq1    C9  108   3.137   2.634  12.843 -0.5632  0.3475  0.7538
    7TCq1    O5  109   3.105   2.737  12.777  0.6303  0.4541  0.0687
    7TCq1    O6  110   3.172   2.524  12.793  0.2714 -0.5814 -0.2690
    7TCq1    H1  111   3.179   2.837  13.355  0.6531 -1.1190 -2.4518
    7TCq1    H2  112   3.157   2.873  12.963 -0.5119 -1.5030 -3.5700
    7TCq1    H3  113   3.210   2.459  13.007 -3.1307  1.3403 -1.3921
    7TCq1    H4  114   3.370   2.738  13.297 -0.3230 -0.7827  0.9289
    8MPD2     C  115   3.463   1.976  13.229 -0.3033  0.0871  0.6800
    8MPD2    C1  116   3.519   2.076  13.306 -0.6144  0.3640 -0.1772
    8MPD2    C2  117   3.465   2.207  13.300 -0.5223 -0.0300  0.1603
    8MPD2    C3  118   3.352   2.239  13.228 -0.4401  0.0204 -0.0916
    8MPD2    C4  119   3.292   2.129  13.165 -0.0529 -0.4562 -1.0553
    8MPD2    C5  120   3.342   2.005  13.168 -0.1571  0.0134  0.1328
    8MPD2     H  121   3.524   2.284  13.349 -1.1305  0.0523  0.7612
    8MPD2    H1  122   3.202   2.148  13.107 -1.6034 -2.1767  0.7768
    8MPD2    H2  123   3.498   1.873  13.224  1.1682  0.6203 -0.0287
    8MPD2    H3  124   3.292   1.926  13.112  1.2473 -0.3110 -0.6557
    8MPD2     N  125   3.301   2.367  13.203 -0.5221 -0.0764  0.3579
    8MPD2    H5  126   3.218   2.380  13.145 -0.6764 -0.8661  0.4012
    8MPD2    N1  127   3.639   2.038  13.375  0.2774  0.2581  0.1157
    8MPD2    H7  128   3.658   1.938  13.374 -2.3624 -0.2418  0.8814
    9TCq1    O1  129   1.453   2.426  10.811 -0.1011  0.6227 -0.1246
    9TCq1    C1  130   1.490   2.307  10.763  0.3846 -0.0740  0.0456
    9TCq1    O2  131   1.493   2.262  10.649 -0.4030 -0.3587 -0.4770
    9TCq1    C2  132   1.507   2.219  10.879  0.3637  0.0869  0.2586
    9TCq1    C3  133   1.578   2.271  10.989 -0.2956 -0.9464 -0.0510
    9TCq1    C4  134   1.605   2.191  11.094  0.0499  0.0055  0.0405
    9TCq1    C5  135   1.559   2.062  11.093  0.1172  0.3270  0.6663
    9TCq1    C6  136   1.476   2.017  10.994  1.0212 -0.1828  0.3317
    9TCq1    C7  137   1.457   2.093  10.879  0.3415 -0.4398 -0.1582
    9TCq1    C8  138   1.437   1.868  10.985  0.1400 -0.5073 -0.7637
    9TCq1    O4  139   1.416   1.812  10.877  0.1208 -0.1645  0.2143
    9TCq1    C9  140   1.711   2.234  11.189  0.6460  0.7243  0.6695
    9TCq1    O5  141   1.761   2.157  11.275  0.1489 -0.0098 -0.6776
    9TCq1    O6  142   1.749   2.353  11.179  0.2185 -0.1453 -0.4153
    9TCq1    H1  143   1.413   2.429  10.901  1.5425 -2.0668  0.6771
    9TCq1    H2  144   1.620   2.371  10.988 -0.1739 -1.0029 -1.5743
    9TCq1    H3  145   1.604   1.997  11.166 -0.4860  1.5335  2.1217
    9TCq1    H4  146   1.382   2.063  10.806  0.8470 -0.2484 -0.7515
   10MPD2     C  147   1.405   1.574  11.062 -0.1439 -0.2141  0.3841
   10MPD2    C1  148   1.433   1.680  11.145  0.4339  0.1655  0.0276
   10MPD2    C2  149   1.450   1.645  11.280  0.0488 -0.1227  1.0263
   10MPD2    C3  150   1.434   1.515  11.326  0.2841 -0.1499  0.8678
   10MPD2    C4  151   1.407   1.411  11.239  0.1011  0.4352 -0.3100
   10MPD2    C5  152   1.397   1.448  11.108 -0.1159 -0.2761  0.4511
   10MPD2     H  153   1.470   1.725  11.350 -1.0564  0.1098  1.0766
   10MPD2    H1  154   1.408   1.305  11.261  0.7179  0.2560 -1.2281
   10MPD2    H2  155   1.377   1.591  10.958 -1.1263 -2.8202  0.2147
   10MPD2    H3  156   1.379   1.376  11.029  0.1598  0.6381 -0.4335
   10MPD2     N  157   1.434   1.487  11.462 -0.0446  0.8776  0.2509
   10MPD2    H5  158   1.428   1.388  11.485 -3.5940  1.3199  1.2010
   10MPD2    N1  159   1.445   1.813  11.115 -0.2586 -0.1251  0.2471
   10MPD2    H7  160   1.467   1.880  11.188 -2.2607  0.9981 -0.1681
   11TCq1    O1  161   2.418   1.642  13.748 -0.0339 -0.3255  0.1826
   11TCq1    C1  162   2.390   1.518  13.792  0.6856  0.4468  0.0143
   11TCq1    O2  163   2.317   1.440  13.735  0.0574  0.2569 -0.1204
   11TCq1    C2  164   2.391   1.522  13.939  1.1518  0.1091 -0.7725
   11TCq1    C3  165   2.488   1.595  13.995  0.3361  0.5515 -0.2976
   11TCq1    C4  166   2.470   1.634  14.126 -0.0550  0.3819  0.1806
   11TCq1    C5  167   2.356   1.602  14.197 -0.3404  0.4336  0.6776
   11TCq1    C6  168   2.263   1.521  14.135  0.2890 -0.8498 -0.0763
   11TCq1    C7  169   2.280   1.481  14.005 -1.0708  0.3211  0.0073
   11TCq1    C8  170   2.167   1.452  14.230  0.2743 -0.2205 -0.4516
   11TCq1    O4  171   2.180   1.490  14.343  0.2446 -0.3414  0.4013
   11TCq1    C9  172   2.566   1.719  14.187  0.7732 -0.0790  1.0133
   11TCq1    O5  173   2.689   1.698  14.168 -0.2862  0.2980  0.5498
   11TCq1    O6  174   2.517   1.802  14.271  0.1485  0.7477  0.2029
   11TCq1    H1  175   2.441   1.711  13.815 -1.7770 -0.4207  0.8915
   11TCq1    H2  176   2.566   1.639  13.935 -0.5390  0.7360 -1.3045
   11TCq1    H3  177   2.357   1.637  14.300  0.7252  0.5449  0.6316
   11TCq1    H4  178   2.200   1.423  13.959 -0.7352 -1.4571  1.6622
   12MPD2     C  179   2.105   1.207  14.365  0.3850 -0.3141  0.8752
   12MPD2    C1  180   2.062   1.231  14.240 -0.0182  0.5911  0.2249
   12MPD2    C2  181   2.001   1.130  14.165 -0.6019  0.3882  0.1299
   12MPD2    C3  182   1.990   1.004  14.228  0.1079  0.5881  0.1368
   12MPD2    C4  183   2.024   0.987  14.361  0.5729  0.3775  0.3649
   12MPD2    C5  184   2.086   1.085  14.434  0.2003  0.6452  0.0213
   12MPD2     H  185   1.967   1.156  14.066 -0.2049 -0.7999 -0.3129
   12MPD2    H1  186   2.005   0.897  14.420  2.8625 -0.9984 -1.0131
   12MPD2    H2  187   2.139   1.281  14.436  0.3030  2.1207 -1.6433
   12MPD2    H3  188   2.101   1.074  14.541 -0.8056  0.1247  0.1149
   12MPD2     N  189   1.947   0.900  14.142 -0.1422  0.3805 -0.3333
   12MPD2    H5  190   1.936   0.924  14.044 -0.0732  2.4143  0.1567
   12MPD2    N1  191   2.099   1.352  14.171  1.1950 -0.5797 -0.2686
   12MPD2    H7  192   2.092   1.355  14.070 -2.5216  1.3285  0.0509
   13TCq1    O1  193   1.717   0.435  11.002  0.4587 -0.2023  0.9653
   13TCq1    C1  194   1.750   0.419  11.127 -0.1245 -0.2864 -0.3720
   13TCq1    O2  195   1.827   0.338  11.171 -0.4266 -0.1921 -0.9403
   13TCq1    C2  196   1.646   0.483  11.213  0.0156  0.2718 -0.7424
   13TCq1    C3  197   1.588   0.403  11.304 -0.8224 -0.6883  0.0090
   13TCq1    C4  198   1.459   0.419  11.341 -0.1853  0.2364  0.0888
   13TCq1    C5  199   1.395   0.533  11.292 -0.4522 -0.2662 -0.2892
   13TCq1    C6  200   1.448   0.612  11.193  0.3961 -0.1318  0.4650
   13TCq1    C7  201   1.580   0.591  11.159 -0.1932  0.1432  0.4237
   13TCq1    C8  202   1.379   0.739  11.160 -0.0154  0.7320  0.5983
   13TCq1    O4  203   1.315   0.775  11.256  0.0066  0.5013 -0.1413
   13TCq1    C9  204   1.406   0.331  11.448  1.2055 -0.4077  0.8102
   13TCq1    O5  205   1.474   0.231  11.496  0.3296 -0.3531 -0.4917
   13TCq1    O6  206   1.307   0.372  11.505 -0.2394 -0.1925 -0.9013
   13TCq1    H1  207   1.629   0.478  10.995  0.1820 -0.7185  1.2750
   13TCq1    H2  208   1.634   0.311  11.338 -0.2293 -0.3399  0.1463
   13TCq1    H3  209   1.295   0.550  11.329 -0.4391 -1.3416  0.2114
   13TCq1    H4  210   1.624   0.646  11.077 -0.2237  0.7290  0.8054
   14MPD2     C  211   1.441   0.934  10.856 -0.5340 -0.4516 -0.0733
   14MPD2    C1  212   1.386   0.911  10.979  0.0472  0.0639  0.1886
   14MPD2    C2  213   1.302   1.003  11.038 -0.4715 -0.2744  0.5901
   14MPD2    C3  214   1.263   1.122  10.972 -0.5698 -0.2368  0.1398
   14MPD2    C4  215   1.330   1.151  10.853 -0.2679  0.3136 -0.4019
   14MPD2    C5  216   1.411   1.054  10.805 -0.1794 -0.4345  0.0934
   14MPD2     H  217   1.259   0.982  11.136  0.6018 -0.1280  1.0976
   14MPD2    H1  218   1.311   1.231  10.783 -1.7151 -0.6516 -1.1183
   14MPD2    H2  219   1.518   0.885  10.799 -0.1528  1.0831 -0.8678
   14MPD2    H3  220   1.453   1.077  10.708  0.7523  1.0317  0.8515
   14MPD2     N  221   1.164   1.203  11.033  0.2095  0.0060  0.2068
   14MPD2    H5  222   1.133   1.170  11.124 -1.6787 -0.1376 -0.4874
   14MPD2    N1  223   1.425   0.793  11.043  0.3921  0.4148  0.6159
   14MPD2    H7  224   1.490   0.735  10.991 -0.5880 -0.4625  0.3839
   15TCq1    O1  225   3.216   0.293   2.032  0.0542  0.2033 -0.2403
   15TCq1    C1  226   3.174   0.194   1.949  0.3545 -0.3552 -0.8062
   15TCq1    O2  227   3.211   0.075   1.956 -0.2256 -0.7175  0.0967
   15TCq1    C2  228   3.152   0.248   1.813 -0.3335 -0.3160 -0.2486
   15TCq1    C3  229   3.063   0.340   1.794  0.1274 -0.7359  0.6576
   15TCq1    C4  230   3.035   0.373   1.666 -0.3378  0.0332 -0.6695
   15TCq1    C5  231   3.083   0.304   1.561  0.3896  0.7750 -0.3394
   15TCq1    C6  232   3.151   0.193   1.590  0.6689  0.3177  0.1138
   15TCq1    C7  233   3.198   0.165   1.717  0.2985  0.3082  0.2375
   15TCq1    C8  234   3.213   0.113   1.487  0.3984 -0.1125  0.2873
   15TCq1    O4  235   3.237   4.724   1.517 -0.2993  0.1493 -0.4302
   15TCq1    C9  236   2.950   0.484   1.643  0.2485  0.6396  0.1932
   15TCq1    O5  237   2.940   0.533   1.529  0.3791 -0.4146 -0.2575
   15TCq1    O6  238   2.879   0.526   1.738  0.6358  0.1318  0.2258
   15TCq1    H1  239   3.207   0.379   1.986 -0.5814 -0.0141 -0.5104
   15TCq1    H2  240   3.021   0.392   1.879 -2.7569 -0.2854 -1.0473
   15TCq1    H3  241   3.039   0.331   1.466  0.4056  2.4091  0.1179
   15TCq1    H4  242   3.273   0.088   1.735  0.8127  0.6729 -0.3356
   16MPD2     C  243   3.229   0.221   1.140 -0.3147 -0.4372 -0.5437
   16MPD2    C1  244   3.257   0.142   1.250 -0.5339  0.1889 -0.3919
   16MPD2    C2  245   3.320   0.017   1.230  0.4010 -0.2374  0.0832
   16MPD2    C3  246   3.375   4.711   1.103  0.2366 -0.2872  0.5999
   16MPD2    C4  247   3.341   0.068   0.995  0.4892 -0.0404  0.2191
   16MPD2    C5  248   3.271   0.181   1.016  0.1021 -0.1011  0.2802
   16MPD2     H  249   3.351   4.670   1.306 -0.8057  0.2224  1.0202
   16MPD2    H1  250   3.374   0.052   0.893 -1.1618  0.9543 -0.4619
   16MPD2    H2  251   3.189   0.322   1.140 -2.8727 -1.4696 -0.0990
   16MPD2    H3  252   3.269   0.243   0.927  0.7809  1.8438  1.6190
   16MPD2     N  253   3.446   4.587   1.082  0.0130 -0.9665  0.0967
   16MPD2    H5  254   3.437   4.518   1.155  0.0493  0.2220  1.2163
   16MPD2    N1  255   3.209   0.181   1.373 -0.0314 -0.1911  0.1799
   16MPD2    H7  256   3.168   0.274   1.373  0.3423  0.0060 -3.7575
   17TCq1    O1  257   0.464   1.659  11.070 -0.3260  0.0288  0.4088
   17TCq1    C1  258   0.554   1.580  11.137 -0.2996 -0.5518  0.3136
   17TCq1    O2  259   0.554   1.552  11.255  0.7129  0.2459  0.6241
   17TCq1    C2  260   0.611   1.487  11.039  0.0385 -0.1908  0.2851
   17TCq1    C3  261   0.662   1.543  10.919 -0.1100  0.0476  0.6449
   17TCq1    C4  262   0.729   1.451  10.845 -0.1809 -0.2737  0.3603
   17TCq1    C5  263   0.753   1.319  10.887 -0.3992 -0.5674 -0.3865
   17TCq1    C6  264   0.705   1.284  11.010  0.0655  0.3075 -0.3324
   17TCq1    C7  265   0.627   1.363  11.083  0.6110 -0.1628 -0.4484
   17TCq1    C8  266   0.741   1.157  11.066  0.0490 -0.3647  0.5107
   17TCq1    O4  267   0.684   1.125  11.170 -0.0457  0.3594  0.1879
   17TCq1    C9  268   0.783   1.493  10.722  0.2808  0.1292 -0.2557
   17TCq1    O5  269   0.777   1.618  10.701 -0.1959  0.5710 -0.1193
   17TCq1    O6  270   0.846   1.417  10.650  0.1362 -0.2494  0.3352
   17TCq1    H1  271   0.478   1.672  10.973  0.2651 -2.2343  0.1927
   17TCq1    H2  272   0.658   1.646  10.885 -2.3063  0.2931  1.6332
   17TCq1    H3  273   0.809   1.257  10.818 -2.1231 -1.1078 -1.3253
   17TCq1    H4  274   0.585   1.330  11.178  0.0971 -1.5269 -1.1477
   18MPD2     C  275   0.861   0.898  11.158 -0.1220 -0.1078 -0.7131
   18MPD2    C1  276   0.878   0.959  11.033 -0.8782  0.0825 -0.4727
   18MPD2    C2  277   0.951   0.896  10.934  0.3207 -0.2588  0.2130
   18MPD2    C3  278   1.012   0.770  10.959  1.1401  0.0261  0.2236
   18MPD2    C4  279   0.998   0.707  11.081 -1.0469 -0.5334  0.5495
   18MPD2    C5  280   0.929   0.773  11.178 -0.9131  0.1083  0.0353
   18MPD2     H  281   0.961   0.938  10.834  1.1690  0.8060  0.7524
   18MPD2    H1  282   1.044   0.613  11.109  0.3382 -0.6825 -2.2467
   18MPD2    H2  283   0.809   0.950  11.237  1.0443 -1.3103  0.8506
   18MPD2    H3  284   0.917   0.733  11.278 -0.5385 -0.1993 -0.0448
   18MPD2     N  285   1.079   0.701  10.853 -0.0430 -0.2765 -0.0431
   18MPD2    H5  286   1.125   0.613  10.875 -0.0772 -0.2091  0.3055
   18MPD2    N1  287   0.822   1.082  10.991 -0.3448  0.3399  0.2277
   18MPD2    H7  288   0.839   1.119  10.898 -1.7543 -0.7493 -0.4544
   19TMC2    C1  289   2.996   1.169  14.004 -0.5848 -0.2156 -0.1929
   19TMC2    C2  290   2.922   1.245  13.915  0.2371 -0.3435 -0.3608
   19TMC2    C3  291   2.835   1.187  13.833 -0.3645  0.5901  0.4928
   19TMC2    C4  292   2.961   1.040  14.021  0.0196  0.4218  0.2934
   19TMC2    C5  293   2.868   0.988  13.940 -0.8423  0.5506  0.4376
   19TMC2    C6  294   2.800   1.057  13.846  0.4974  0.6306 -0.3795
   19TMC2     C  295   3.130   1.217  14.013  0.0836  0.5686  0.3038
   19TMC2     O  296   3.153   1.328  13.966  0.0985  0.1609 -0.5540
   19TMC2     H  297   2.940   1.352  13.911 -1.2819 -0.0812 -0.3954
   19TMC2    H1  298   3.005   0.982  14.102 -0.6728 -0.1006  0.2892
   19TMC2    H2  299   2.735   1.004  13.778  0.2557  0.1358  0.2430
   19TMC2    C7  300   2.823   0.854  13.975  0.0191  0.0364  0.1527
   19TMC2    C8  301   2.750   1.268  13.752  0.1706 -0.4529 -0.0272
   19TMC2    O1  302   2.899   0.772  14.030 -0.7097  0.3440 -0.2540
   19TMC2    O2  303   2.675   1.209  13.672  0.2800  0.9592  0.3771
   19TMC2    O5  304   2.696   1.366  13.825 -0.4373 -0.7011 -0.0053
   19TMC2    H5  305   2.759   1.401  13.892 -1.5074 -0.9874  1.1485
   20MPD2     C  306   3.420   1.261  14.026 -0.9412 -0.0962 -0.5153
   20MPD2    C1  307   3.357   1.146  14.069  0.0247 -0.0585 -0.2451
   20MPD2    C2  308   3.438   1.042  14.121  0.0835 -0.0846 -0.0877
   20MPD2    C3  309   3.575   1.056  14.122  0.5643 -0.6172 -0.1398
   20MPD2    C4  310   3.636   1.163  14.063 -0.9147  0.1670  0.5548
   20MPD2    C5  311   3.558   1.265  14.019  0.7468 -0.1544 -0.4989
   20MPD2     H  312   3.390   0.967  14.184  0.2596 -0.7294 -0.7163
   20MPD2    H1  313   3.744   1.163  14.050 -0.9836 -4.3971 -0.0940
   20MPD2    H2  314   3.365   1.343  13.982 -0.1808  1.4562  1.3840
   20MPD2    H3  315   3.598   1.348  13.962  3.2262  0.7915  2.6186
   20MPD2     N  316   3.655   0.973  14.196 -0.0607 -0.0242  0.3716
   20MPD2    H5  317   3.753   0.998  14.205  0.4315 -1.1592 -1.8185
   20MPD2    N1  318   3.213   1.125  14.064 -0.2044  0.4898 -0.0688
   20MPD2    H7  319   3.179   1.034  14.091  0.0918  0.3601 -0.1288
   21MPD2     C  320   1.203   1.753  14.711  0.1347 -0.2447 -0.3746
   21MPD2    C1  321   1.200   1.617  14.694 -0.1305  0.5802  0.3472
   21MPD2    C2  322   1.077   1.553  14.712  0.4091 -0.3770  0.2166
   21MPD2    C3  323   0.966   1.621  14.764 -0.4796 -0.5243  0.5188
   21MPD2    C4  324   0.976   1.756  14.790 -0.1116 -0.3377  0.5904
   21MPD2    C5  325   1.093   1.820  14.760 -0.1498 -0.4896  0.1686
   21MPD2     H  326   1.075   1.445  14.704 -1.4576 -0.3014 -0.2791
   21MPD2    H1  327   0.895   1.814  14.833 -0.8412 -0.1989 -0.9694
   21MPD2    H2  328   1.293   1.808  14.688  1.3699 -1.4512  1.5622
   21MPD2    H3  329   1.103   1.927  14.775 -2.4778 -0.1885 -0.4767
   21MPD2     N  330   0.854   1.554  14.806  0.8225  0.9525  0.0055
   21MPD2    H5  331   0.776   1.612  14.834  1.1415  0.9652  0.8637
   21MPD2    N1  332   1.315   1.544  14.649  0.1027  0.4802  0.8337
   21MPD2    H7  333   1.296   1.445  14.638 -2.1726  0.8386  1.4416
   22TCq2    C1  334   0.832   1.417  14.815 -0.4522  0.0926  0.2653
   22TCq2    O2  335   0.912   1.331  14.823 -0.9603  0.4065  0.2309
   22TCq2    C2  336   0.702   1.403  14.882  0.0480  0.2441  0.7481
   22TCq2    C3  337   0.695   1.331  14.997 -0.0827  0.4304  0.0894
   22TCq2    C4  338   0.569   1.304  15.050 -0.8310 -0.0339  0.1822
   22TCq2    C5  339   0.453   1.346  14.985  1.0724  0.0271 -0.5983
   22TCq2    C6  340   0.467   1.423  14.873 -0.1993 -0.4706  0.1271
   22TCq2    C7  341   0.591   1.459  14.818 -0.2290 -0.0075 -0.3399
   22TCq2    C8  342   0.353   1.477  14.811  0.4315  1.3630 -0.0618
   22TCq2    O4  343   0.242   1.437  14.840  0.6832 -0.2588  0.2477
   22TCq2    C9  344   0.552   1.242  15.179  0.1420 -0.0688  0.6352
   22TCq2    O5  345   0.657   1.185  15.222 -0.3473 -0.0084  0.5780
   22TCq2    O6  346   0.437   1.226  15.229 -0.4667 -0.0297  0.4733
   22TCq2    H2  347   0.783   1.295  15.048  0.0568  0.6625  0.0116
   22TCq2    H3  348   0.356   1.324  15.028  0.7021  1.7214 -0.5365
   22TCq2    H4  349   0.606   1.491  14.715  0.2237 -0.2651 -0.3518
   23MPD2     C  350   2.741   1.943  14.696  0.8089  0.2501 -0.3744
   23MPD2    C1  351   2.719   2.010  14.819  0.3764  0.5580  0.8462
   23MPD2    C2  352   2.651   2.135  14.815  1.0751 -0.4691 -0.2324
   23MPD2    C3  353   2.621   2.202  14.695 -0.8388  0.0925  0.0645
   23MPD2    C4  354   2.663   2.142  14.575  0.4294  0.1031 -0.4101
   23MPD2    C5  355   2.726   2.011  14.576  0.7482  0.0442 -0.1090
   23MPD2     H  356   2.627   2.182  14.910 -1.3525  0.6162 -1.4124
   23MPD2    H1  357   2.639   2.190  14.481  0.3567  0.4866 -0.1937
   23MPD2    H2  358   2.781   1.843  14.695  0.1912 -0.0227  1.0120
   23MPD2    H3  359   2.726   1.960  14.480 -2.8574  2.4681 -1.4012
   23MPD2     N  360   2.537   2.314  14.698  0.2986  0.9814  0.3484
   23MPD2    H5  361   2.515   2.362  14.611 -0.4024 -1.4411 -0.7944
   23MPD2    N1  362   2.739   1.947  14.938 -0.2354 -0.0238 -0.4468
   23MPD2    H7  363   2.714   2.006  15.017  1.7293 -1.7834  1.5047
   24TCq2    C1  364   2.447   2.335  14.801  0.2340  0.1593  0.5679
   24TCq2    O2  365   2.413   2.260  14.894 -0.2801  0.3156  0.6770
   24TCq2    C2  366   2.353   2.440  14.772 -0.2472  0.2453  0.4367
   24TCq2    C3  367   2.366   2.530  14.670 -0.8202  0.7524  0.6027
   24TCq2    C4  368   2.251   2.594  14.627  0.5832 -0.0622 -0.2561
   24TCq2    C5  369   2.132   2.584  14.695 -0.0724 -0.1155 -0.7746
   24TCq2    C6  370   2.125   2.501  14.800  0.3849 -0.5299 -0.3359
   24TCq2    C7  371   2.232   2.424  14.840  0.1371  0.5624 -0.4101
   24TCq2    C8  372   2.001   2.450  14.866 -0.4789 -0.8049  0.1043
   24TCq2    O4  373   1.995   2.359  14.946 -0.1618  0.0532  0.3741
   24TCq2    C9  374   2.253   2.682  14.511  0.1402 -0.6135  0.2935
   24TCq2    O5  375   2.346   2.680  14.424  0.1302 -0.1543 -0.4342
   24TCq2    O6  376   2.138   2.722  14.486 -0.4128  0.2580 -0.1232
   24TCq2    H2  377   2.459   2.540  14.615 -1.1022  1.2377  0.2069
   24TCq2    H3  378   2.044   2.637  14.659 -1.0432 -1.6545 -0.6458
   24TCq2    H4  379   2.210   2.350  14.916 -0.6342  0.4850 -0.7152
   25TMC2    C1  380   0.396   0.677  11.771 -0.2065 -0.5469  0.7579
   25TMC2    C2  381   0.488   0.779  11.788 -0.2108 -0.8581  0.1031
   25TMC2    C3  382   0.514   0.823  11.916  0.2548 -0.7539 -0.0072
   25TMC2    C4  383   0.325   0.627  11.880  0.1571  0.4756  0.6909
   25TMC2    C5  384   0.357   0.671  12.003 -0.6516  0.4067  0.3756
   25TMC2    C6  385   0.454   0.756  12.026  0.0633  0.0386 -0.3095
   25TMC2     C  386   0.351   0.648  11.638 -0.4115  1.1145  0.4329
   25TMC2     O  387   0.379   0.724  11.551 -0.6005 -0.1576  0.0183
   25TMC2     H  388   0.551   0.805  11.704 -0.9441  1.9174  0.4137
   25TMC2    H1  389   0.247   0.553  11.863 -0.4939  0.9377  1.6404
   25TMC2    H2  390   0.473   0.798  12.124 -1.2849 -2.1845  0.8873
   25TMC2    C7  391   0.294   0.618  12.120 -0.1070  0.0055  0.0859
   25TMC2    C8  392   0.645   0.881  11.939 -0.7889  0.2720 -0.5350
   25TMC2    O1  393   0.350   0.639  12.229 -0.0734 -0.1437 -0.0463
   25TMC2    O2  394   0.748   0.854  11.874  0.0958 -0.8891 -0.1591
   25TMC2    O5  395   0.611   0.995  11.998 -0.0273  0.2452  0.6344
   25TMC2    H5  396   0.514   0.997  12.014  0.1273  1.7984  1.4422
   26MPD2     C  397   0.165   0.371  11.263  0.7158  0.3264 -0.1395
   26MPD2    C1  398   0.208   0.281  11.361  0.4035  0.2545  0.2018
   26MPD2    C2  399   0.258   0.326  11.484 -0.3537  0.0740 -0.2960
   26MPD2    C3  400   0.261   0.465  11.499  0.3723 -0.2371 -0.1651
   26MPD2    C4  401   0.199   0.547  11.415 -0.0261 -0.4411 -0.2193
   26MPD2    C5  402   0.149   0.504  11.290  0.4244  0.1422 -0.4488
   26MPD2     H  403   0.290   0.251  11.556  2.5356  1.2395 -0.3668
   26MPD2    H1  404   0.182   0.654  11.427 -0.2497 -0.7691  2.4086
   26MPD2    H2  405   0.137   0.340  11.163  0.9891 -0.9030  0.1651
   26MPD2    H3  406   0.101   0.565  11.214 -3.1716  0.8902  2.4119
   26MPD2     N  407   0.309   0.516  11.623  0.2423  0.2952  0.2751
   26MPD2    H5  408   0.350   0.457  11.694  1.7723  2.1373  0.9173
   26MPD2    N1  409   0.215   0.145  11.327  0.2177  0.4016 -0.3456
   26MPD2    H7  410   0.177   0.120  11.236 -0.2142  1.2791 -0.4045
   27TMC2    C1  411   3.714   3.388  12.306  0.6767 -0.2794 -0.4088
   27TMC2    C2  412   3.720   3.451  12.184  0.0109  0.1077 -0.1066
   27TMC2    C3  413   3.841   3.490  12.128 -0.0785  0.9926 -0.0590
   27TMC2    C4  414   3.833   3.341  12.363  0.3550  0.1335  0.3407
   27TMC2    C5  415   3.949   3.390  12.314  0.4955  0.1595  0.2781
   27TMC2    C6  416   3.953   3.458  12.196 -0.9769  0.0322  0.2183
   27TMC2     C  417   3.589   3.386  12.378 -0.2913  0.7882 -0.1405
   27TMC2     O  418   3.512   3.475  12.359  0.6429 -0.5881  0.0073
   27TMC2     H  419   3.628   3.487  12.140  0.1940 -0.1136 -0.6617
   27TMC2    H1  420   3.836   3.286  12.456  0.5713 -1.2730 -0.4935
   27TMC2    H2  421   4.046   3.486  12.149  0.4094 -0.2507  2.7398
   27TMC2    C7  422   4.071   3.324  12.346  0.2681  0.3643 -0.3453
   27TMC2    C8  423   3.844   3.562  12.005 -0.0649 -0.0703  0.1602
   27TMC2    O1  424   4.173   3.373  12.309  0.3076 -0.6258 -0.2085
   27TMC2    O2  425   3.951   3.606  11.963 -0.8779  0.1884 -0.4808
   27TMC2    O5  426   3.767   3.481  11.931 -0.0635 -0.0106 -0.2720
   27TMC2    H5  427   3.678   3.462  11.968  0.4230  0.0878  0.9491
   28MPD2     C  428   3.261   3.150  12.690 -0.1630  0.8410 -0.0268
   28MPD2    C1  429   3.367   3.068  12.672  0.4286 -0.7056 -0.7394
   28MPD2    C2  430   3.469   3.106  12.591  0.2306  0.4081  0.6625
   28MPD2    C3  431   3.470   3.232  12.529  0.4953 -0.6182  0.2086
   28MPD2    C4  432   3.364   3.319  12.555  0.7585  0.2219  0.4009
   28MPD2    C5  433   3.263   3.274  12.633  0.3960  0.0898 -0.7405
   28MPD2     H  434   3.560   3.047  12.579  0.8577  1.2731  1.1347
   28MPD2    H1  435   3.343   3.415  12.509  0.9265  0.8916  1.7395
   28MPD2    H2  436   3.173   3.119  12.745 -1.2483  2.1380 -1.0466
   28MPD2    H3  437   3.178   3.341  12.646 -1.7474 -3.0792  1.5809
   28MPD2     N  438   3.577   3.269  12.450 -0.0042  0.8090  0.8540
   28MPD2    H5  439   3.654   3.203  12.446  0.4234  1.4967 -2.5436
   28MPD2    N1  440   3.368   2.942  12.738  0.2184  0.1328 -0.6562
   28MPD2    H7  441   3.318   2.928  12.825 -1.1998 -1.7406 -1.7547
   29MPD2     C  442   4.194   4.148  13.787 -0.6507  0.0524 -0.0260
   29MPD2    C1  443   4.207   4.114  13.921  0.1224  0.3601  0.0881
   29MPD2    C2  444   4.222   4.222  14.009  1.5844 -0.7012 -0.5060
   29MPD2    C3  445   4.184   4.352  13.968 -0.3249  0.1001 -0.2314
   29MPD2    C4  446   4.165   4.379  13.836  0.4317  0.2288 -0.3101
   29MPD2    C5  447   4.178   4.276  13.745 -0.3490 -0.8386  0.4534
   29MPD2     H  448   4.240   4.210  14.116  2.2001  1.0020 -0.4063
   29MPD2    H1  449   4.148   4.479  13.797  0.0049 -0.4739 -1.8971
   29MPD2    H2  450   4.215   4.078  13.707  0.5540  1.4895 -0.9814
   29MPD2    H3  451   4.183   4.311  13.642 -1.7459 -0.8543  0.3860
   29MPD2     N  452   4.186   4.465  14.056 -0.1183  0.0737  0.1166
   29MPD2    H5  453   4.174   4.557  14.014 -0.1757 -0.1930 -0.4426
   29MPD2    N1  454   4.235   3.984  13.971 -0.2382  0.3405  0.5640
   29MPD2    H7  455   4.263   3.974  14.068 -0.3772 -0.8035  0.4830
   30TCq2    C1  456   4.196   4.461  14.194 -0.3274 -0.1806 -0.6502
   30TCq2    O2  457   4.189   4.367  14.272 -0.1493 -0.3575  0.2458
   30TCq2    C2  458   4.180   4.596  14.248  0.3973 -0.8085  0.1428
   30TCq2    C3  459   4.183   4.597  14.384  0.3106 -0.2100  0.3156
   30TCq2    C4  460   4.150   4.714  14.447  0.5718 -0.2654  0.0286
   30TCq2    C5  461   4.132   0.104  14.373  0.1872 -0.1752 -0.2684
   30TCq2    C6  462   4.131   0.094  14.237  0.1776 -0.4821 -0.1764
   30TCq2    C7  463   4.159   4.704  14.171 -0.0966  0.6356 -0.2560
   30TCq2    C8  464   4.130   0.216  14.165  0.1898 -0.8832 -0.7037
   30TCq2    O4  465   4.062   0.225  14.064 -0.2497  0.0798  0.3604
   30TCq2    C9  466   4.129   4.712  14.593 -0.1916  0.9020 -0.1560
   30TCq2    O5  467   4.140   4.606  14.661  0.0160 -0.6689  0.2914
   30TCq2    O6  468   4.102   0.100  14.650 -0.3614  0.2528  0.2986
   30TCq2    H2  469   4.210   4.512  14.446  1.1640 -1.0749 -1.2429
   30TCq2    H3  470   4.089   0.192  14.421 -3.1505 -0.2454 -3.1500
   30TCq2    H4  471   4.166   4.699  14.063  2.1221 -1.6637  0.0020
   31MPD2     C  472   2.357   3.611  14.694 -1.4252 -0.5177 -0.0201
   31MPD2    C1  473   2.235   3.665  14.652 -0.4652 -0.1915  0.3765
   31MPD2    C2  474   2.122   3.642  14.723  0.2093  0.6843 -0.0911
   31MPD2    C3  475   2.123   3.562  14.831 -0.5286 -0.0956 -0.1888
   31MPD2    C4  476   2.241   3.510  14.872 -0.0973  0.4826  0.2675
   31MPD2    C5  477   2.357   3.539  14.807 -0.5698  0.6154  0.5029
   31MPD2     H  478   2.034   3.694  14.688  0.4559  2.0772  1.3375
   31MPD2    H1  479   2.237   3.458  14.967  0.0420 -1.5431 -0.8456
   31MPD2    H2  480   2.449   3.621  14.638  0.2875  0.7837  3.0455
   31MPD2    H3  481   2.447   3.488  14.841  0.2325 -0.4888 -3.2359
   31MPD2     N  482   2.014   3.543  14.922  0.8614 -0.4601  0.4142
   31MPD2    H5  483   2.028   3.486  15.005  0.1202 -1.6399 -0.2527
   31MPD2    N1  484   2.239   3.730  14.528  0.1359  0.5931 -0.3838
   31MPD2    H7  485   2.331   3.730  14.487 -0.5909 -0.6657 -2.0339
   32TCq2    C1  486   1.888   3.591  14.890  0.1159 -0.0640 -0.4106
   32TCq2    O2  487   1.851   3.670  14.804 -0.6152  0.1101 -0.3631
   32TCq2    C2  488   1.785   3.560  14.987  0.4290  0.4570  0.2867
   32TCq2    C3  489   1.652   3.601  14.954 -0.5915 -0.3603 -0.7331
   32TCq2    C4  490   1.541   3.551  15.023  0.3292  0.3989  0.1848
   32TCq2    C5  491   1.561   3.457  15.118  0.4625  0.4604 -0.1167
   32TCq2    C6  492   1.689   3.419  15.147  0.5845  0.9226 -0.4303
   32TCq2    C7  493   1.802   3.461  15.076  0.2031  0.1161  0.1543
   32TCq2    C8  494   1.716   3.356  15.280 -0.6315 -0.3665 -0.3535
   32TCq2    O4  495   1.821   3.298  15.298  0.1645  0.0110 -0.2032
   32TCq2    C9  496   1.410   3.591  14.986 -0.1551 -0.3821 -0.9761
   32TCq2    O5  497   1.403   3.662  14.881  0.6375 -0.0993 -0.1462
   32TCq2    O6  498   1.318   3.523  15.033  0.2633 -0.4448  0.1924
   32TCq2    H2  499   1.636   3.668  14.871  2.0274 -0.8212 -1.6107
   32TCq2    H3  500   1.471   3.419  15.167  0.1226 -0.2111 -1.2610
   32TCq2    H4  501   1.900   3.416  15.090  0.1819 -0.0188 -0.1246
   33MPD2     C  502   0.995   0.491  10.162  0.7617  0.0644  0.0600
   33MPD2    C1  503   1.109   0.562  10.173  0.5182 -0.2412  0.9939
   33MPD2    C2  504   1.154   0.622  10.063  0.4092 -0.1436 -0.2254
   33MPD2    C3  505   1.072   0.629   9.944 -0.0948  0.2945 -0.1238
   33MPD2    C4  506   0.960   0.555   9.941 -0.0128 -0.3066  0.3246
   33MPD2    C5  507   0.921   0.492  10.054  0.1276  0.0840 -0.3090
   33MPD2     H  508   1.244   0.683  10.062 -0.0962  0.5884 -1.3182
   33MPD2    H1  509   0.905   0.526   9.852 -0.1863  0.9403  0.0280
   33MPD2    H2  510   0.960   0.438  10.250 -2.5848  0.3336 -1.1328
   33MPD2    H3  511   0.838   0.425  10.040  1.5776 -2.0844  1.4823
   33MPD2     N  512   1.112   0.697   9.822  0.1939  0.3984 -0.0434
   33MPD2    H5  513   1.044   0.698   9.746 -1.2958 -2.3931  1.2289
   33MPD2    N1  514   1.176   0.573  10.296  0.0581  0.0570 -0.3195
   33MPD2    H7  515   1.123   0.529  10.370  0.5663  0.1108  0.0729
   34TCq2    C1  516   1.221   0.778   9.812 -0.7770 -0.1947  0.1176
   34TCq2    O2  517   1.313   0.793   9.892  0.3332 -0.1269  0.2835
   34TCq2    C2  518   1.248   0.841   9.684 -0.6782  0.4073  0.7953
   34TCq2    C3  519   1.198   0.789   9.568  0.7353 -0.1599 -0.1176
   34TCq2    C4  520   1.266   0.813   9.449 -0.0999 -0.9576  0.0834
   34TCq2    C5  521   1.372   0.897   9.442 -0.2016 -0.3592 -0.3659
   34TCq2    C6  522   1.406   0.956   9.561  0.0176 -0.2478 -0.2854
   34TCq2    C7  523   1.339   0.936   9.680 -0.0500  0.7519 -0.1222
   34TCq2    C8  524   1.513   1.057   9.555  0.5012 -0.4659  0.0310
   34TCq2    O4  525   1.547   1.098   9.444 -0.0180  0.4132  0.8519
   34TCq2    C9  526   1.214   0.749   9.328 -0.9054 -0.3366 -0.0508
   34TCq2    O5  527   1.269   0.781   9.217 -0.0474 -0.0311 -0.3072
   34TCq2    O6  528   1.110   0.675   9.341  0.0594  0.1216 -0.3048
   34TCq2    H2  529   1.119   0.715   9.574 -0.7647  1.5337  0.8143
   34TCq2    H3  530   1.413   0.928   9.347  4.1240  0.8625  1.9213
   34TCq2    H4  531   1.361   0.978   9.777 -2.9182  3.8306 -0.8023
   35MPD2     C  532   3.697   3.216  11.740 -0.3287  0.4283 -0.0978
   35MPD2    C1  533   3.572   3.209  11.780 -0.1302  0.6700 -0.2061
   35MPD2    C2  534   3.474   3.196  11.685  0.1419 -0.3849  0.4196
   35MPD2    C3  535   3.506   3.162  11.556 -0.2706 -0.3529  0.1893
   35MPD2    C4  536   3.637   3.175  11.513 -0.3529 -0.3479  0.0890
   35MPD2    C5  537   3.736   3.195  11.610 -0.3544 -0.0912  0.5697
   35MPD2     H  538   3.367   3.199  11.701  0.4457  2.1348  1.8643
   35MPD2    H1  539   3.674   3.160  11.412 -3.1829 -1.7284 -0.7549
   35MPD2    H2  540   3.773   3.241  11.813  0.7315 -3.9705  0.3482
   35MPD2    H3  541   3.841   3.200  11.582  0.0076 -1.2228  1.6941
   35MPD2     N  542   3.394   3.139  11.479  0.6514 -0.6355  0.0867
   35MPD2    H5  543   3.311   3.127  11.537 -0.9913  0.5772 -2.0514
   35MPD2    N1  544   3.548   3.209  11.918  0.3391 -0.2367  0.5331
   35MPD2    H7  545   3.631   3.206  11.976 -0.6662  1.7009  2.0955
   36TCq2    C1  546   3.393   3.112  11.345  0.0064 -0.1300  0.4541
   36TCq2    O2  547   3.457   3.166  11.257 -0.2577  0.7546  0.1862
   36TCq2    C2  548   3.269   3.047  11.310 -0.1883 -0.4129  0.2821
   36TCq2    C3  549   3.206   3.079  11.196  0.0793 -0.3657  0.7698
   36TCq2    C4  550   3.095   3.004  11.167 -0.3903  0.4373 -1.0063
   36TCq2    C5  551   3.050   2.911  11.258  0.1150  0.2783  0.6939
   36TCq2    C6  552   3.113   2.884  11.371  0.5820  0.1197  0.5882
   36TCq2    C7  553   3.229   2.948  11.401 -0.4689 -0.0400  0.2156
   36TCq2    C8  554   3.097   2.757  11.429  0.3625 -0.5214 -0.2570
   36TCq2    O4  555   3.030   2.677  11.360  0.0237  0.3560 -0.2695
   36TCq2    C9  556   3.019   3.035  11.044  0.0570  0.5306  0.4739
   36TCq2    O5  557   2.898   2.993  11.044  0.1121 -0.6296  0.0283
   36TCq2    O6  558   3.067   3.115  10.965 -0.1357 -0.3269  0.5318
   36TCq2    H2  559   3.241   3.163  11.136 -1.2822 -2.0504 -2.4176
   36TCq2    H3  560   2.962   2.854  11.229  1.4570 -1.3718 -0.1248
   36TCq2    H4  561   3.296   2.928  11.484 -1.9558  0.7548  1.6392
   37TMC2    C1  562   0.633   1.745  12.146 -0.6002 -0.4538  0.0178
   37TMC2    C2  563   0.657   1.614  12.183  0.3481 -0.0736  0.3955
   37TMC2    C3  564   0.753   1.549  12.113  0.0659 -0.3107 -0.4105
   37TMC2    C4  565   0.696   1.811  12.039  0.1956  0.0307 -0.1889
   37TMC2    C5  566   0.778   1.727  11.967 -0.1539 -0.5985 -0.1423
   37TMC2    C6  567   0.810   1.597  12.002  0.6005 -0.2088  0.6521
   37TMC2     C  568   0.541   1.813  12.234 -0.3514  0.4951  0.6108
   37TMC2     O  569   0.474   1.743  12.307  0.3438 -0.0195  0.2367
   37TMC2     H  570   0.606   1.562  12.264 -0.7479  0.8886  0.3223
   37TMC2    H1  571   0.657   1.905  12.001 -0.4143  1.0290  2.9189
   37TMC2    H2  572   0.895   1.543  11.963 -0.5502 -0.0359 -2.1038
   37TMC2    C7  573   0.835   1.783  11.844 -0.1661  0.0305  0.1449
   37TMC2    C8  574   0.832   1.461  12.197  0.3022 -0.5330 -1.0415
   37TMC2    O1  575   0.815   1.898  11.812  0.0105 -0.3080  0.6442
   37TMC2    O2  576   0.934   1.508  12.248  0.0821  0.3421 -0.8267
   37TMC2    O5  577   0.762   1.348  12.228  0.1106  0.2313  0.3684
   37TMC2    H5  578   0.670   1.340  12.195 -0.7262 -2.4170  3.2993
   38MPD2     C  579   0.350   2.215  12.486  0.1259  1.0072 -0.0577
   38MPD2    C1  580   0.433   2.269  12.387  0.0620 -0.2090 -0.6488
   38MPD2    C2  581   0.506   2.175  12.309 -0.0094 -0.0852 -0.4438
   38MPD2    C3  582   0.493   2.042  12.327 -0.1746  0.7369 -0.5927
   38MPD2    C4  583   0.417   1.997  12.435 -0.0261  0.6163 -0.0452
   38MPD2    C5  584   0.340   2.080  12.506 -0.0941  0.0647  0.8345
   38MPD2     H  585   0.588   2.212  12.248 -1.7972  1.5916 -1.8325
   38MPD2    H1  586   0.400   1.896  12.469 -3.6299  2.1261  2.5948
   38MPD2    H2  587   0.282   2.281  12.539 -0.3911  0.5355 -0.1441
   38MPD2    H3  588   0.277   2.026  12.576 -2.7348 -1.1611 -2.4442
   38MPD2     N  589   0.550   1.952  12.232 -0.1524  0.1497  0.2300
   38MPD2    H5  590   0.602   1.997  12.157 -2.0915 -0.1550 -1.2823
   38MPD2    N1  591   0.469   2.407  12.374 -0.7690  0.2250  0.4673
   38MPD2    H7  592   0.552   2.426  12.319 -1.8458  0.8634 -0.9608
   39MPD2     C  593   4.264   3.691   1.531 -0.4247  0.1479 -0.5116
   39MPD2    C1  594   4.145   3.658   1.594  0.0896 -0.5293 -0.3741
   39MPD2    C2  595   4.014   3.689   1.545  0.2100  0.3140 -0.2174
   39MPD2    C3  596   4.002   3.733   1.410 -0.1443  0.1180  0.2599
   39MPD2    C4  597   4.127   3.739   1.336 -0.7295 -0.1781  0.3384
   39MPD2    C5  598   4.243   3.726   1.395  0.0043 -0.0880 -0.4323
   39MPD2     H  599   3.930   3.676   1.612  0.0792 -0.4413 -0.5262
   39MPD2    H1  600   4.132   3.786   1.238 -2.5591 -2.1998 -0.7143
   39MPD2    H2  601   4.365   3.676   1.569 -0.8981  0.3210  0.7950
   39MPD2    H3  602   4.328   3.752   1.333 -0.2387 -0.6756 -1.0021
   39MPD2     N  603   3.889   3.799   1.357  0.3656 -0.0915  0.1193
   39MPD2    H5  604   3.898   3.816   1.257  0.1551  0.4618  0.1949
   39MPD2    N1  605   4.158   3.592   1.720  0.3322  0.1631 -0.4510
   39MPD2    H7  606   4.256   3.570   1.736 -0.6339 -2.5346  1.8050
   40TCq2    C1  607   4.062   3.574   1.814 -0.0113 -0.6245  0.1506
   40TCq2    O2  608   3.944   3.602   1.813 -0.2040  0.2307 -0.0818
   40TCq2    C2  609   4.128   3.508   1.927 -0.4291 -0.2448 -0.3307
   40TCq2    C3  610   4.078   3.536   2.055  0.6765  0.0442 -0.4122
   40TCq2    C4  611   4.145   3.486   2.165  0.2881  0.2932 -0.4807
   40TCq2    C5  612   4.270   3.435   2.154  0.8718  0.3991  0.4112
   40TCq2    C6  613   4.323   3.414   2.027  0.3088  0.4207  0.2039
   40TCq2    C7  614   4.258   3.460   1.916  0.0539 -0.7666 -0.3874
   40TCq2    C8  615   4.466   3.374   2.024  0.0222 -0.1214  0.1574
   40TCq2    O4  616   4.502   3.291   2.106  0.0292  0.3406 -0.4198
   40TCq2    C9  617   4.089   3.522   2.293  0.9715 -0.7750 -0.6428
   40TCq2    O5  618   3.967   3.542   2.299 -0.0657  0.3257 -0.5943
   40TCq2    O6  619   4.165   3.502   2.394  0.0866 -0.0475 -0.1410
   40TCq2    H2  620   3.984   3.589   2.068  1.7070  1.2983  2.0857
   40TCq2    H3  621   4.326   3.399   2.239  1.2193 -0.8944 -0.3664
   40TCq2    H4  622   4.303   3.434   1.820  1.3512 -0.6392  0.1761
   41TMC2    C1  623   2.714   2.652  13.645  0.4790  0.2103  0.2935
   41TMC2    C2  624   2.669   2.773  13.693 -0.0666  0.3104  0.1781
   41TMC2    C3  625   2.566   2.829  13.629  0.0515 -0.7334  0.3556
   41TMC2    C4  626   2.662   2.585  13.540  0.2630  0.3058 -0.9199
   41TMC2    C5  627   2.557   2.644  13.479  0.4294 -0.1668  0.1549
   41TMC2    C6  628   2.501   2.761  13.529  0.0850  0.5466 -0.5459
   41TMC2     C  629   2.827   2.595  13.711 -0.1280  0.3502 -0.9218
   41TMC2     O  630   2.910   2.543  13.634 -0.2663 -0.0348 -0.5466
   41TMC2     H  631   2.728   2.820  13.770 -0.7937  2.5729 -0.6332
   41TMC2    H1  632   2.701   2.486  13.521  0.1319  0.0288  0.2768
   41TMC2    H2  633   2.402   2.791  13.498  0.0811  2.0893  0.9275
   41TMC2    C7  634   2.472   2.576  13.381 -0.0614 -0.5074  0.0034
   41TMC2    C8  635   2.508   2.943  13.696  0.5600 -0.5564  0.4208
   41TMC2    O1  636   2.348   2.585  13.387  0.2222  0.0820  0.0401
   41TMC2    O2  637   2.550   2.965  13.807  0.1283  0.2342 -0.1903
   41TMC2    O5  638   2.490   3.035  13.599 -0.2937 -0.0399 -0.1078
   41TMC2    H5  639   2.494   2.991  13.511 -0.4550  0.2694 -0.2699
   42MPD2     C  640   3.007   2.460  13.893  0.6369  0.0759 -0.5506
   42MPD2    C1  641   2.884   2.505  13.931  0.5573 -0.6108  0.3927
   42MPD2    C2  642   2.844   2.522  14.061 -0.2418  1.0789 -0.5412
   42MPD2    C3  643   2.928   2.474  14.162 -0.0500 -0.1144 -0.0719
   42MPD2    C4  644   3.045   2.410  14.123 -0.4540  0.2631  0.1296
   42MPD2    C5  645   3.093   2.414  13.995 -0.7354  0.1537  0.3240
   42MPD2     H  646   2.756   2.578  14.090  0.8501  1.1740  2.6241
   42MPD2    H1  647   3.113   2.368  14.197 -0.2513 -2.4004 -1.5710
   42MPD2    H2  648   3.042   2.449  13.791  0.1694  1.1580 -0.8218
   42MPD2    H3  649   3.190   2.369  13.978  0.2746  1.1151  3.6661
   42MPD2     N  650   2.899   2.482  14.302  0.7104  0.4415  0.2927
   42MPD2    H5  651   2.969   2.441  14.363  0.1548  1.6437  1.7530
   42MPD2    N1  652   2.801   2.575  13.840  0.1580 -0.7871  0.2480
   42MPD2    H7  653   2.721   2.623  13.880  0.8133  2.1829 -1.9825
   43MPD2     C  654   4.021   0.170   0.649  1.0231 -0.3368  0.2688
   43MPD2    C1  655   4.122   0.087   0.698 -0.8300  0.0664 -0.3279
   43MPD2    C2  656   4.156   0.101   0.837  0.1943  0.0776 -1.1383
   43MPD2    C3  657   4.078   0.183   0.923 -0.0835 -0.3174  0.3521
   43MPD2    C4  658   3.975   0.256   0.868  0.1167  0.4587  0.2208
   43MPD2    C5  659   3.954   0.249   0.734 -0.6251 -0.0211 -0.0690
   43MPD2     H  660   4.249   0.059   0.875  0.0946  1.4891  0.6410
   43MPD2    H1  661   3.922   0.339   0.914  0.5827  1.3098 -0.8028
   43MPD2    H2  662   3.988   0.169   0.546 -1.1293  1.1195  0.9471
   43MPD2    H3  663   3.872   0.309   0.695 -0.7388 -0.5247 -0.6059
   43MPD2     N  664   4.098   0.194   1.063  0.1040 -0.1157  0.1972
   43MPD2    H5  665   4.037   0.257   1.115 -1.8514 -0.8102 -1.2845
   43MPD2    N1  666   4.202   0.004   0.612  0.2982  0.0160  0.4942
   43MPD2    H7  667   4.279   4.681   0.658  1.4879  2.1572  0.7387
   44TCq2    C1  668   4.171   0.525   1.453 -0.0289 -0.2149 -0.3570
   44TCq2    O2  669   4.095   0.587   1.381  0.1840 -0.4847 -0.0306
   44TCq2    C2  670   4.240   0.405   1.406 -0.6720  0.6999  0.0249
   44TCq2    C3  671   4.338   0.346   1.477  0.2589 -0.1697 -0.0020
   44TCq2    C4  672   4.367   0.214   1.450 -0.0996  0.2750  0.2610
   44TCq2    C5  673   4.325   0.145   1.343 -0.1516  0.1568  0.2614
   44TCq2    C6  674   4.236   0.208   1.263 -0.3580  0.3115  0.4866
   44TCq2    C7  675   4.182   0.335   1.296  0.6998  0.4503 -0.5967
   44TCq2    C8  676   4.211   0.143   1.132  0.6252 -0.1149  0.7336
   44TCq2    O4  677   4.305   0.074   1.090 -0.3461  0.3168 -0.1364
   44TCq2    C9  678   4.471   0.151   1.527 -1.1633 -0.5792  0.1053
   44TCq2    O5  679   4.521   0.046   1.477 -0.4063 -0.0970  0.0963
   44TCq2    O6  680   4.506   0.206   1.633  0.0287 -0.7163  0.2519
   44TCq2    H2  681   4.394   0.398   1.553  0.0857  1.1185 -0.7521
   44TCq2    H3  682   4.349   0.043   1.316  0.5246  0.4105 -0.0875
   44TCq2    H4  683   4.096   0.377   1.245  1.3792  1.5511 -0.8370
   45TMC2    C1  684   4.365   3.935   9.295 -0.0684 -0.0988 -0.8436
   45TMC2    C2  685   4.243   3.961   9.350 -0.4833  0.4295 -0.4371
   45TMC2    C3  686   4.247   4.050   9.454  0.0847  0.1759 -0.2531
   45TMC2    C4  687   4.483   3.980   9.356 -0.6244  0.4917 -0.0019
   45TMC2    C5  688   4.477   4.063   9.463 -0.2383 -0.3524  0.2043
   45TMC2    C6  689   4.357   4.097   9.518  0.0098  0.1231 -0.1544
   45TMC2     C  690   4.375   3.816   9.215  0.5624  0.6434 -0.0950
   45TMC2     O  691   4.484   3.761   9.206 -0.2278  0.1320  0.4398
   45TMC2     H  692   4.146   3.927   9.318  0.3024 -3.4286  1.3373
   45TMC2    H1  693   4.579   3.935   9.332 -1.2957 -0.7016 -0.4756
   45TMC2    H2  694   4.352   4.156   9.609  2.4939 -0.2068  0.2141
   45TMC2    C7  695   4.589   4.074   9.551  0.8932 -0.6739  0.3514
   45TMC2    C8  696   4.119   4.075   9.527 -0.0926 -0.8706  0.3981
   45TMC2    O1  697   4.564   4.065   9.671 -0.6353  0.7658  0.2827
   45TMC2    O2  698   4.026   3.995   9.536 -0.0867  0.2033  0.1720
   45TMC2    O5  699   4.111   4.207   9.549  0.0756  0.0087  0.2617
   45TMC2    H5  700   4.183   4.266   9.519  1.0860 -0.2294  2.2414
   46MPD2     C  701   4.341   3.556   9.083 -0.2897  0.1372 -0.5108
   46MPD2    C1  702   4.234   3.630   9.135 -0.2267  0.2701  0.4036
   46MPD2    C2  703   4.109   3.573   9.136 -0.0826 -0.0106  0.3099
   46MPD2    C3  704   4.087   3.442   9.102  0.5935  0.4495  0.2722
   46MPD2    C4  705   4.190   3.367   9.054 -0.0954 -0.2077 -0.2404
   46MPD2    C5  706   4.314   3.428   9.042  0.1154  0.1005 -0.2156
   46MPD2     H  707   4.027   3.636   9.169  0.1359  0.9463 -0.9538
   46MPD2    H1  708   4.189   3.269   9.007  0.5781 -0.1651 -0.3476
   46MPD2    H2  709   4.441   3.593   9.064 -1.1282  2.1902 -0.9823
   46MPD2    H3  710   4.397   3.369   9.003 -0.9844 -0.5952 -1.5134
   46MPD2     N  711   3.958   3.391   9.120 -0.0338  0.1986  0.3956
   46MPD2    H5  712   3.888   3.453   9.158  1.2676  1.1787  1.1710
   46MPD2    N1  713   4.253   3.760   9.185  0.7231  1.0136 -0.1980
   46MPD2    H7  714   4.170   3.812   9.213  1.9786  0.5736  4.3792
   47TMC2    C1  715   2.148   3.643  10.127 -0.0510 -0.7190 -0.3966
   47TMC2    C2  716   2.119   3.732  10.226  0.7633 -0.1918 -0.4167
   47TMC2    C3  717   2.015   3.821  10.214 -0.4309  0.0245  0.9145
   47TMC2    C4  718   2.063   3.626  10.024 -0.0069 -0.4066  0.0116
   47TMC2    C5  719   1.967   3.722  10.008  0.0446 -1.0781  0.2208
   47TMC2    C6  720   1.944   3.821  10.101 -0.8813 -0.2406  0.6751
   47TMC2     C  721   2.266   3.559  10.134 -0.0916 -0.1370  0.1846
   47TMC2     O  722   2.370   3.602  10.183  0.3900  0.2847 -0.5882
   47TMC2     H  723   2.175   3.732  10.319 -1.5758 -1.2933  0.9811
   47TMC2    H1  724   2.064   3.545   9.952 -1.3069 -2.1798  1.9811
   47TMC2    H2  725   1.858   3.885  10.084 -1.6107 -1.2692  0.5065
   47TMC2    C7  726   1.881   3.704   9.894 -0.4105 -0.4898 -0.7830
   47TMC2    C8  727   2.020   3.933  10.304 -0.5169 -0.3687  0.4764
   47TMC2    O1  728   1.855   3.590   9.852 -0.1111  0.2831 -0.5788
   47TMC2    O2  729   2.110   3.957  10.382  0.4479 -0.2822 -0.6305
   47TMC2    O5  730   1.889   3.967  10.321 -0.3618  0.2499 -0.2717
   47TMC2    H5  731   1.829   3.892  10.299  0.3693  0.0329 -1.5601
   48MPD2     C  732   2.490   3.380  10.051 -0.1942  0.9667  0.1663
   48MPD2    C1  733   2.362   3.361  10.008 -0.3346  0.0744  0.3752
   48MPD2    C2  734   2.325   3.254   9.930 -0.8285  0.7964 -0.2459
   48MPD2    C3  735   2.424   3.157   9.894 -0.3148  0.1937  0.2406
   48MPD2    C4  736   2.552   3.182   9.934 -0.8535  1.1277 -1.3653
   48MPD2    C5  737   2.586   3.297  10.002  0.5366  0.5619  0.6548
   48MPD2     H  738   2.226   3.250   9.887 -0.0281 -1.6233 -1.8484
   48MPD2    H1  739   2.638   3.122   9.905 -1.0372  0.3828 -0.3830
   48MPD2    H2  740   2.514   3.462  10.118 -1.5509  1.3637  0.1753
   48MPD2    H3  741   2.689   3.316  10.032  0.0961  2.6345  0.8339
   48MPD2     N  742   2.377   3.050   9.818  0.5499  0.1717  1.0350
   48MPD2    H5  743   2.279   3.053   9.792  1.6934 -1.6786 -3.5287
   48MPD2    N1  744   2.254   3.447  10.050 -0.5236 -0.8237 -0.0412
   48MPD2    H7  745   2.164   3.419  10.010 -1.3123  2.5996 -0.6186
   49MPD2     C  746   0.410   1.017   9.799  0.1050  0.2802 -0.8555
   49MPD2    C1  747   0.426   0.942   9.915 -0.5256 -0.6458  0.1039
   49MPD2    C2  748   0.448   1.007  10.037 -0.0047 -0.5303  0.7272
   49MPD2    C3  749   0.446   1.145  10.039 -0.8172 -0.1160  1.0402
   49MPD2    C4  750   0.451   1.223   9.925 -0.0220  0.1967  0.0023
   49MPD2    C5  751   0.429   1.160   9.805  0.3367  0.5518  0.1505
   49MPD2     H  752   0.474   0.949  10.125  0.4192  0.7709  1.4600
   49MPD2    H1  753   0.450   1.332   9.921  1.1593  0.2472  1.2467
   49MPD2    H2  754   0.394   0.977   9.699 -3.7751  1.5961 -0.7423
   49MPD2    H3  755   0.417   1.224   9.719  2.0369 -0.1693 -0.6409
   49MPD2     N  756   0.446   1.220  10.160  0.7871 -0.4186 -1.0666
   49MPD2    H5  757   0.462   1.320  10.150  1.7826 -0.3327  1.4423
   49MPD2    N1  758   0.437   0.807   9.919 -0.5199  0.5397 -0.5633
   49MPD2    H7  759   0.470   0.768  10.007  0.7260  0.1766 -1.1898
   50TCq2    C1  760   0.403   0.720   9.822 -0.2270 -0.1880 -0.6018
   50TCq2    O2  761   0.363   0.742   9.707 -0.3836 -0.2131 -0.3475
   50TCq2    C2  762   0.426   0.579   9.863  0.6017 -0.1357 -0.2991
   50TCq2    C3  763   0.417   0.487   9.758  0.3648  0.5083 -0.0365
   50TCq2    C4  764   0.410   0.351   9.786  0.9293 -0.2353 -0.0559
   50TCq2    C5  765   0.418   0.309   9.917  0.3776 -0.1640 -0.0372
   50TCq2    C6  766   0.424   0.405  10.016 -0.2349  0.2278 -0.5570
   50TCq2    C7  767   0.411   0.537   9.994  0.0684  0.5744 -0.2055
   50TCq2    C8  768   0.446   0.355  10.152  0.1977 -0.2974  0.3362
   50TCq2    O4  769   0.391   0.249  10.175  0.6539 -0.0503 -0.1586
   50TCq2    C9  770   0.425   0.253   9.683 -0.3191  0.1162 -0.2652
   50TCq2    O5  771   0.459   0.133   9.708  0.7718 -0.1030  0.3554
   50TCq2    O6  772   0.393   0.292   9.565  0.4386 -0.3376 -0.4524
   50TCq2    H2  773   0.412   0.527   9.657 -2.3615  1.2763  0.3824
   50TCq2    H3  774   0.423   0.203   9.936 -3.2819  0.1541  2.6481
   50TCq2    H4  775   0.405   0.607  10.077 -0.1171 -0.5573  0.7324
   51MPD2     C  776   1.740   4.155   1.339  0.5488 -0.3054  0.0539
   51MPD2    C1  777   1.608   4.126   1.357 -0.4400 -0.0868 -0.5077
   51MPD2    C2  778   1.510   4.220   1.342  0.2988  0.3860 -0.2512
   51MPD2    C3  779   1.549   4.345   1.293 -0.4881 -0.5138  0.6774
   51MPD2    C4  780   1.680   4.368   1.263 -0.0273  0.3036 -0.6553
   51MPD2    C5  781   1.773   4.275   1.284  0.0661  0.5927 -0.6669
   51MPD2     H  782   1.412   4.186   1.371  0.7067  0.6920  1.5241
   51MPD2    H1  783   1.711   4.468   1.235 -0.8783  0.6301 -0.4146
   51MPD2    H2  784   1.816   4.079   1.355 -0.8939 -1.2481  2.4153
   51MPD2    H3  785   1.877   4.293   1.263 -0.1494  2.2695 -0.2727
   51MPD2     N  786   1.459   4.458   1.284 -0.5910 -0.4047 -0.2603
   51MPD2    H5  787   1.492   4.540   1.234 -1.4354 -0.3329 -0.7012
   51MPD2    N1  788   1.566   3.998   1.385  0.3715  0.2385 -0.6775
   51MPD2    H7  789   1.471   3.973   1.357  0.8338 -0.9220 -1.2315
   52TCq2    C1  790   1.327   4.464   1.328  0.3989  0.1021  0.2812
   52TCq2    O2  791   1.253   4.374   1.366 -0.3942  0.4948  0.5655
   52TCq2    C2  792   1.296   4.600   1.325 -0.5442 -0.1644  0.4822
   52TCq2    C3  793   1.165   4.621   1.302  0.5703  0.1580 -0.1123
   52TCq2    C4  794   1.126   0.021   1.281 -0.2233 -0.2617 -0.6576
   52TCq2    C5  795   1.212   0.128   1.283 -0.3125  0.1246 -0.2433
   52TCq2    C6  796   1.339   0.103   1.318  0.3048  0.8621  0.2412
   52TCq2    C7  797   1.392   4.705   1.337 -0.5378 -0.0818 -0.2185
   52TCq2    C8  798   1.405   0.209   1.405  0.3765  0.0010 -0.0595
   52TCq2    O4  799   1.513   0.178   1.445  0.6893 -0.7121 -0.4412
   52TCq2    C9  800   0.982   0.041   1.271 -0.5215 -0.0983  1.0181
   52TCq2    O5  801   0.947   0.160   1.258 -0.6752 -0.0981 -0.1468
   52TCq2    O6  802   0.904   4.670   1.283  0.2167 -0.0620  0.5231
   52TCq2    H2  803   1.092   4.541   1.291  1.2687 -0.4065 -0.6295
   52TCq2    H3  804   1.179   0.223   1.243 -0.7987  0.1064  0.1044
   52TCq2    H4  805   1.492   4.682   1.374 -0.5238  0.7291  0.2436
   53TMC2    C1  806   1.200   2.217  11.374 -0.7212  0.2657 -0.0155
   53TMC2    C2  807   1.257   2.270  11.259  0.1108 -0.3760  0.0669
   53TMC2    C3  808   1.268   2.406  11.242 -0.6413 -0.0413  0.3336
   53TMC2    C4  809   1.133   2.297  11.463 -0.4678 -0.5377 -0.0206
   53TMC2    C5  810   1.143   2.436  11.444  0.1563 -0.0575 -0.0485
   53TMC2    C6  811   1.211   2.490  11.335  0.1004  0.5878  0.4706
   53TMC2     C  812   1.216   2.076  11.399 -0.2806 -0.7710 -0.0784
   53TMC2     O  813   1.282   2.010  11.324  0.1731 -0.3382  0.1133
   53TMC2     H  814   1.299   2.203  11.185  2.1693  0.4262  0.5017
   53TMC2    H1  815   1.093   2.263  11.558 -1.5704  0.6978 -0.0425
   53TMC2    H2  816   1.226   2.595  11.314  0.1985  0.8467  1.8938
   53TMC2    C7  817   1.099   2.521  11.552 -1.0796  0.8729 -0.5501
   53TMC2    C8  818   1.311   2.463  11.119 -0.2753  0.9736  0.2432
   53TMC2    O1  819   1.032   2.464  11.637  0.4893 -0.0188 -0.1266
   53TMC2    O2  820   1.302   2.403  11.014 -0.1329 -0.8348 -0.1599
   53TMC2    O5  821   1.384   2.570  11.136 -0.0582  0.0015 -0.5873
   53TMC2    H5  822   1.397   2.589  11.231  0.8322 -0.3190 -0.6487
   54MPD2     C  823   1.161   1.785  11.438  0.1613  0.1573 -0.0738
   54MPD2    C1  824   1.121   1.886  11.521  0.1726 -0.1735 -0.4150
   54MPD2    C2  825   1.042   1.849  11.633 -1.3657 -0.4714 -0.1493
   54MPD2    C3  826   1.005   1.721  11.664  0.2615  0.1575  0.0936
   54MPD2    C4  827   1.052   1.624  11.581 -0.1089  0.3463  0.2771
   54MPD2    C5  828   1.124   1.657  11.466  0.0551  0.4252  0.3033
   54MPD2     H  829   1.011   1.923  11.706  1.8761  1.7421 -1.0275
   54MPD2    H1  830   1.041   1.517  11.600 -1.5410  0.3836 -0.3590
   54MPD2    H2  831   1.221   1.803  11.350  0.0319 -3.0532 -0.8105
   54MPD2    H3  832   1.151   1.578  11.396 -0.4041  1.0642 -0.6062
   54MPD2     N  833   0.919   1.692  11.778 -0.7277 -1.1448 -0.1959
   54MPD2    H5  834   0.906   1.595  11.808 -1.6605 -0.9760 -0.0779
   54MPD2    N1  835   1.136   2.025  11.499 -0.6631 -0.9120 -0.4590
   54MPD2    H7  836   1.078   2.094  11.547 -0.3178  0.6956 -2.3349
   55MPD2     C  837   2.564   3.739   0.218 -0.3045 -0.0699  0.4594
   55MPD2    C1  838   2.662   3.794   0.301  0.2488  1.0456  0.3125
   55MPD2    C2  839   2.755   3.874   0.243 -0.1295  0.1364 -0.0524
   55MPD2    C3  840   2.759   3.915   0.112  0.6790 -0.2326 -0.1447
   55MPD2    C4  841   2.652   3.865   0.031 -0.0226  0.4788  0.4271
   55MPD2    C5  842   2.564   3.772   0.087 -0.1240  0.3281 -0.7610
   55MPD2     H  843   2.836   3.902   0.310 -0.7117  0.5211  0.4900
   55MPD2    H1  844   2.642   3.883  17.624 -0.6840  2.1968  0.7704
   55MPD2    H2  845   2.481   3.681   0.257 -0.3393  0.2055  0.7968
   55MPD2    H3  846   2.485   3.738   0.021  0.1135  1.1540 -1.4831
   55MPD2     N  847   2.862   4.007   0.081  0.3476 -0.1675 -0.5077
   55MPD2    H5  848   2.928   4.025   0.155  0.8185  0.1898 -1.0183
   55MPD2    N1  849   2.647   3.769   0.443 -0.1724  0.1715  0.3918
   55MPD2    H7  850   2.578   3.697   0.462  1.5804 -0.8921  2.6129
   56TCq2    C1  851   2.690   3.852   0.536  0.9706 -0.0211 -1.3233
   56TCq2    O2  852   2.741   3.963   0.525 -0.0719 -0.4912 -0.0989
   56TCq2    C2  853   2.673   3.797   0.673 -0.3928  0.0891 -0.3924
   56TCq2    C3  854   2.635   3.665   0.692  0.4425 -0.5333  0.4515
   56TCq2    C4  855   2.562   3.637   0.805 -0.2028  0.6913  0.2264
   56TCq2    C5  856   2.535   3.735   0.895 -0.0281  0.1078  0.7566
   56TCq2    C6  857   2.583   3.857   0.875  0.0627 -0.0224  0.2350
   56TCq2    C7  858   2.654   3.896   0.768  0.2555 -0.9416 -0.4819
   56TCq2    C8  859   2.514   3.958   0.960 -0.2804  0.5452  0.4723
   56TCq2    O4  860   2.510   3.944   1.080  0.0294  0.6887 -0.2473
   56TCq2    C9  861   2.526   3.502   0.825 -0.2614 -0.2297 -0.7239
   56TCq2    O5  862   2.524   3.429   0.727  0.3467  0.5953  0.0343
   56TCq2    O6  863   2.473   3.487   0.937  0.6017 -0.0098 -0.1205
   56TCq2    H2  864   2.663   3.586   0.623  0.3202  1.3126 -1.7167
   56TCq2    H3  865   2.462   3.715   0.974  1.4761  0.2894  2.2020
   56TCq2    H4  866   2.695   3.996   0.752 -0.4327 -0.8076 -1.4078
   57TMC2    C1  867   1.476   1.465  13.924  0.1532 -0.2115 -0.0094
   57TMC2    C2  868   1.588   1.464  14.010  0.0735  0.1303  0.0635
   57TMC2    C3  869   1.714   1.486  13.944  0.3130  0.0014  0.6690
   57TMC2    C4  870   1.488   1.503  13.792 -0.1166 -0.1893  0.1371
   57TMC2    C5  871   1.611   1.533  13.740 -0.1676 -0.5151  0.1046
   57TMC2    C6  872   1.728   1.516  13.814 -0.3631 -0.5511 -0.5625
   57TMC2     C  873   1.349   1.435  13.982 -0.1425  0.5545 -0.0382
   57TMC2     O  874   1.334   1.431  14.103 -0.1600 -0.1050 -0.2517
   57TMC2     H  875   1.577   1.428  14.112 -1.0266  0.5768  0.1003
   57TMC2    H1  876   1.401   1.530  13.733  0.5897  1.3441 -0.2073
   57TMC2    H2  877   1.820   1.559  13.776  1.4282 -1.9103  2.2613
   57TMC2    C7  878   1.621   1.560  13.595  0.1199  0.2369  0.2077
   57TMC2    C8  879   1.844   1.464  14.011  0.2306 -0.1088 -0.0322
   57TMC2    O1  880   1.527   1.622  13.541 -0.3573  0.1076  0.2570
   57TMC2    O2  881   1.940   1.419  13.947  0.6397  0.0917  0.1918
   57TMC2    O5  882   1.827   1.478  14.148  0.5835 -0.0596  0.3234
   57TMC2    H5  883   1.750   1.535  14.171 -0.2479 -0.5419 -1.3007
   58MPD2     C  884   0.851   1.350  13.909 -0.6000  0.2749 -0.3415
   58MPD2    C1  885   0.918   1.378  14.028  0.2346 -0.1420 -0.4475
   58MPD2    C2  886   1.047   1.415  14.017  0.4220 -0.1324 -0.2224
   58MPD2    C3  887   1.118   1.390  13.898 -0.0819 -0.3516 -0.9055
   58MPD2    C4  888   1.053   1.360  13.781 -1.0459  0.3564  0.1518
   58MPD2    C5  889   0.915   1.350  13.792  0.0840  0.5304 -0.3838
   58MPD2     H  890   1.088   1.450  14.112  2.8359 -0.8031 -0.9995
   58MPD2    H1  891   1.090   1.336  13.682 -0.7862  1.2433  0.0365
   58MPD2    H2  892   0.748   1.318  13.904 -0.5710 -0.1262  1.4197
   58MPD2    H3  893   0.855   1.328  13.704 -2.1011 -0.9840  1.4773
   58MPD2     N  894   1.259   1.410  13.883  1.0405  0.3400  0.1624
   58MPD2    H5  895   1.293   1.398  13.788  0.9606  1.9878 -0.0818
   58MPD2    N1  896   0.850   1.393  14.158 -0.8648 -0.0801 -0.0338
   58MPD2    H7  897   0.904   1.414  14.241  0.2405  0.2162 -0.8342
   59MPD2     C  898   4.044   2.851  13.060  0.2192  0.6284  0.1237
   59MPD2    C1  899   4.077   2.724  13.109 -0.2343 -0.4872 -0.1256
   59MPD2    C2  900   4.163   2.706  13.216  0.4837  0.7803 -0.0656
   59MPD2    C3  901   4.232   2.821  13.258  0.3803  0.3877 -0.1712
   59MPD2    C4  902   4.198   2.949  13.215 -0.3327 -0.3138  0.5589
   59MPD2    C5  903   4.098   2.958  13.121 -0.5404  0.0316 -0.2161
   59MPD2     H  904   4.178   2.602  13.242  0.7599  0.5379 -1.1886
   59MPD2    H1  905   4.250   3.037  13.253  0.7483 -0.7266  0.0556
   59MPD2    H2  906   3.974   2.875  12.981 -0.5913 -0.4139  0.5144
   59MPD2    H3  907   4.074   3.056  13.083 -3.2788 -0.2009  0.8869
   59MPD2     N  908   4.339   2.816  13.344  0.2907  0.0474  0.0442
   59MPD2    H5  909   4.387   2.901  13.374 -1.5852  0.9688  0.4521
   59MPD2    N1  910   4.030   2.610  13.044 -0.5020  0.3446 -0.5827
   59MPD2    H7  911   4.050   2.518  13.082 -0.3662 -0.3842 -2.3864
   60TCq2    C1  912   3.959   2.608  12.922  0.3272  0.8523  0.2681
   60TCq2    O2  913   3.919   2.701  12.853  0.4288  0.0486  0.4083
   60TCq2    C2  914   3.940   2.480  12.851 -0.1358  0.0281  0.0890
   60TCq2    C3  915   4.009   2.376  12.898  0.9966  0.7229 -0.3006
   60TCq2    C4  916   3.992   2.255  12.836 -0.0956 -0.0813  0.8158
   60TCq2    C5  917   3.910   2.244  12.727 -0.2799  0.3205  0.9404
   60TCq2    C6  918   3.862   2.359  12.667 -0.1662  0.3685 -0.4006
   60TCq2    C7  919   3.871   2.478  12.733  0.1899  0.3343  0.1304
   60TCq2    C8  920   3.766   2.334  12.561  0.1090 -0.7617 -0.1970
   60TCq2    O4  921   3.721   2.220  12.549 -0.8732  0.5921 -0.0316
   60TCq2    C9  922   4.050   2.130  12.895 -0.6451  0.7007  0.5391
   60TCq2    O5  923   4.007   2.025  12.841 -0.2424 -0.0187  0.2114
   60TCq2    O6  924   4.129   2.138  12.992  0.1892 -0.2917 -0.1104
   60TCq2    H2  925   4.077   2.370  12.983 -0.8437 -2.5591  0.9657
   60TCq2    H3  926   3.879   2.147  12.689  1.3548 -0.0509  0.5182
   60TCq2    H4  927   3.815   2.567  12.707  0.9360  1.0142  0.8385
   61MPD2     C  928   2.958   2.874  14.186 -0.5033  0.1169  0.2386
   61MPD2    C1  929   3.040   2.966  14.249  0.9121  0.4956 -0.2115
   61MPD2    C2  930   3.023   3.096  14.211 -0.2584  0.2708 -0.2479
   61MPD2    C3  931   2.942   3.129  14.105 -0.4431 -0.0470 -0.0404
   61MPD2    C4  932   2.865   3.035  14.043 -0.1644 -0.0694 -0.6405
   61MPD2    C5  933   2.871   2.909  14.086  0.2857  0.4241  0.1138
   61MPD2     H  934   3.086   3.174  14.251  2.1285 -1.8995  0.2642
   61MPD2    H1  935   2.781   3.058  13.979 -1.2856 -0.2626  0.7815
   61MPD2    H2  936   2.960   2.769  14.209  0.2087 -0.1851 -1.2096
   61MPD2    H3  937   2.806   2.829  14.053 -0.8404  1.1903  0.4741
   61MPD2     N  938   2.932   3.264  14.072  0.0729  0.6976 -0.1428
   61MPD2    H5  939   2.844   3.298  14.035 -0.8347 -2.8137 -1.2112
   61MPD2    N1  940   3.131   2.931  14.349  0.0536 -0.0994  0.1789
   61MPD2    H7  941   3.191   3.005  14.384 -1.4056  1.2947 -0.3067
   62TCq2    C1  942   3.165   2.800  14.381  0.7995  0.9627  0.3247
   62TCq2    O2  943   3.126   2.692  14.330 -0.4623 -0.2635 -0.2764
   62TCq2    C2  944   3.245   2.801  14.498 -1.2239 -0.0769 -0.6838
   62TCq2    C3  945   3.268   2.671  14.553 -0.0918  0.1964 -0.0377
   62TCq2    C4  946   3.308   2.667  14.686 -0.6419 -0.5884  0.0329
   62TCq2    C5  947   3.317   2.781  14.764  0.0066 -0.1182  0.8451
   62TCq2    C6  948   3.288   2.903  14.705  0.1372  0.1745  0.1108
   62TCq2    C7  949   3.257   2.916  14.573 -0.2228 -0.4264 -0.8877
   62TCq2    C8  950   3.297   3.025  14.775 -0.1792 -0.0023  0.2456
   62TCq2    O4  951   3.349   3.118  14.715  0.1837  0.1582 -0.2920
   62TCq2    C9  952   3.323   2.536  14.745  0.5310  0.8648  0.1971
   62TCq2    O5  953   3.289   2.432  14.682  0.4983  0.0835 -0.3098
   62TCq2    O6  954   3.354   2.534  14.865 -0.7379 -0.3179 -0.3200
   62TCq2    H2  955   3.239   2.580  14.502 -1.4568 -0.2303  1.5032
   62TCq2    H3  956   3.342   2.770  14.869 -2.2036 -0.8553  1.3115
   62TCq2    H4  957   3.259   3.018  14.537  2.3492 -1.1381 -2.7891
   63TMC2    C1  958   1.591   3.488  10.046 -0.0184 -0.2683  0.7241
   63TMC2    C2  959   1.641   3.419   9.944 -0.2277 -0.1846  1.0441
   63TMC2    C3  960   1.581   3.438   9.817 -0.1693 -0.2854  0.3997
   63TMC2    C4  961   1.496   3.576  10.020  0.5163 -0.3381  0.0924
   63TMC2    C5  962   1.458   3.612   9.890 -0.4493 -0.3291  0.8878
   63TMC2    C6  963   1.492   3.537   9.782 -1.1048  0.0882 -0.0267
   63TMC2     C  964   1.618   3.463  10.181  0.7209 -0.2442 -0.5645
   63TMC2     O  965   1.588   3.547  10.260 -0.0861  0.4220 -0.3864
   63TMC2     H  966   1.728   3.355   9.958 -0.5088  0.0099  3.7218
   63TMC2    H1  967   1.455   3.637  10.100 -1.3874 -0.1072 -1.0609
   63TMC2    H2  968   1.464   3.561   9.680 -0.0078 -2.3500 -0.8876
   63TMC2    C7  969   1.384   3.729   9.874  0.5691 -0.3976  0.2115
   63TMC2    C8  970   1.636   3.362   9.709 -0.1972 -0.9381  0.2279
   63TMC2    O1  971   1.336   3.778   9.974 -0.8711  0.0704 -0.0181
   63TMC2    O2  972   1.617   3.386   9.590  0.1283  0.1405  0.7164
   63TMC2    O5  973   1.659   3.236   9.757 -0.0807  0.8807 -0.3393
   63TMC2    H5  974   1.654   3.228   9.855 -0.1871  1.7568 -0.2681
   64MPD2     C  975   1.845   3.203  10.562  0.2661  0.0174  0.2152
   64MPD2    C1  976   1.876   3.142  10.443  0.7051  0.2418 -0.0680
   64MPD2    C2  977   1.814   3.188  10.327  0.2810 -0.0992 -0.8022
   64MPD2    C3  978   1.728   3.296  10.325 -0.7963  0.2401  0.5127
   64MPD2    C4  979   1.707   3.362  10.447 -0.5909 -0.6211  0.8832
   64MPD2    C5  980   1.772   3.320  10.563  0.3415 -0.4850 -0.9036
   64MPD2     H  981   1.836   3.128  10.239 -0.9087  0.7650 -1.6978
   64MPD2    H1  982   1.636   3.443  10.457  1.7139  1.5851 -0.5970
   64MPD2    H2  983   1.875   3.175  10.662  0.3444  1.0320  0.4718
   64MPD2    H3  984   1.765   3.366  10.661 -3.7619  0.4639 -1.6119
   64MPD2     N  985   1.686   3.344  10.199  0.1796 -0.1350  0.4620
   64MPD2    H5  986   1.720   3.299  10.115  0.6828  0.5733  0.2838
   64MPD2    N1  987   1.960   3.031  10.440 -1.2551 -0.6510 -0.0493
   64MPD2    H7  988   1.982   2.986  10.352 -2.0214 -1.2994  0.0822
   65MPD2     C  989   4.209   2.250  15.750  0.5310  0.7302  0.3679
   65MPD2    C1  990   4.184   2.267  15.618 -0.5584  0.0760  0.2588
   65MPD2    C2  991   4.128   2.167  15.539 -0.1515  0.2693  0.3204
   65MPD2    C3  992   4.081   2.052  15.597 -0.2025  0.4218 -0.3738
   65MPD2    C4  993   4.113   2.031  15.731 -0.1708  0.0044 -0.3230
   65MPD2    C5  994   4.166   2.129  15.807  0.7792 -0.5217 -0.3668
   65MPD2     H  995   4.111   2.185  15.433  1.5806 -0.0816 -0.0148
   65MPD2    H1  996   4.104   1.932  15.772  2.2466  0.7178  1.9584
   65MPD2    H2  997   4.252   2.326  15.814  0.6013  1.7292 -0.8665
   65MPD2    H3  998   4.173   2.104  15.912 -0.0588  1.6650  0.2014
   65MPD2     N  999   4.011   1.954  15.526 -0.0862  0.2635 -0.1194
   65MPD2    H5 1000   3.963   1.878  15.574 -0.4230  1.6101  1.6586
   65MPD2    N1 1001   4.208   2.385  15.552 -0.0441 -0.5456 -0.1601
   65MPD2    H7 1002   4.174   2.396  15.457  0.3832 -1.3818 -0.4103
   66TCq2    C1 1003   4.283   2.488  15.604  1.1581  0.4313  0.0240
   66TCq2    O2 1004   4.336   2.511  15.710  0.4570  0.1006  0.3144
   66TCq2    C2 1005   4.283   2.599  15.515 -0.5460 -0.1554 -0.9666
   66TCq2    C3 1006   4.279   2.579  15.373  0.4983  0.2387  1.0934
   66TCq2    C4 1007   4.305   2.683  15.295  0.3007 -0.2332 -0.1635
   66TCq2    C5 1008   4.342   2.807  15.346  0.1073  0.2660 -0.4534
   66TCq2    C6 1009   4.349   2.822  15.482  0.6873  0.6703  0.8353
   66TCq2    C7 1010   4.311   2.724  15.571 -0.6195 -0.2636  0.5591
   66TCq2    C8 1011   4.351   2.964  15.525  0.2367 -0.7701  0.1362
   66TCq2    O4 1012   4.388   3.049  15.444 -0.0264 -0.2481  0.7067
   66TCq2    C9 1013   4.280   2.678  15.152 -0.4262 -0.4889 -0.7939
   66TCq2    O5 1014   4.222   2.574  15.112  0.2898 -0.2702  0.1020
   66TCq2    O6 1015   4.278   2.790  15.091 -0.2511  0.6160  0.1064
   66TCq2    H2 1016   4.285   2.477  15.335  0.7584  0.9703 -0.8268
   66TCq2    H3 1017   4.376   2.884  15.277  0.0433 -1.4265 -2.3801
   66TCq2    H4 1018   4.327   2.736  15.678  0.7774  2.8044  0.0156
   67MPD2     C 1019   3.762   1.918  13.862 -0.0840  0.1952 -0.0257
   67MPD2    C1 1020   3.718   2.005  13.961 -0.4141  0.4348 -0.1205
   67MPD2    C2 1021   3.580   2.052  13.958 -0.5866  0.5696 -0.1279
   67MPD2    C3 1022   3.492   2.004  13.864  0.4928  0.0199 -0.1157
   67MPD2    C4 1023   3.540   1.920  13.764  0.2151 -0.0118 -0.1583
   67MPD2    C5 1024   3.672   1.879  13.764 -0.6006  0.2755  0.2396
   67MPD2     H 1025   3.547   2.124  14.032  3.0915  0.6570  1.4402
   67MPD2    H1 1026   3.476   1.900  13.679  0.8497  0.9836 -0.8724
   67MPD2    H2 1027   3.866   1.888  13.857 -1.1994 -3.5611 -1.0349
   67MPD2    H3 1028   3.706   1.821  13.679 -0.7233 -0.4128  0.6669
   67MPD2     N 1029   3.351   2.023  13.876 -0.0979 -0.0215  0.4650
   67MPD2    H5 1030   3.296   1.968  13.811 -1.0645 -0.6628  1.8179
   67MPD2    N1 1031   3.797   2.042  14.072  0.3712  0.0966 -0.1881
   67MPD2    H7 1032   3.750   2.089  14.149  1.3508 -0.8827  1.0099
   68TCq2    C1 1033   3.928   2.023  14.088 -0.1529  0.8993  0.5492
   68TCq2    O2 1034   4.006   1.948  14.030  0.0717  0.0349 -0.7351
   68TCq2    C2 1035   3.982   2.103  14.197 -0.3637 -0.6975  0.1982
   68TCq2    C3 1036   3.922   2.208  14.251 -0.3484  0.4768  0.0860
   68TCq2    C4 1037   3.961   2.259  14.372  0.3115  0.4015  0.1042
   68TCq2    C5 1038   4.077   2.214  14.434  0.1187 -1.3183 -0.5533
   68TCq2    C6 1039   4.145   2.112  14.369 -0.1077  0.1043  0.7255
   68TCq2    C7 1040   4.098   2.058  14.258 -0.2488  0.4824 -0.1495
   68TCq2    C8 1041   4.272   2.062  14.430 -0.4154  0.2617  0.4937
   68TCq2    O4 1042   4.330   1.970  14.376  0.3107  0.2964  0.2929
   68TCq2    C9 1043   3.880   2.359  14.439 -0.1434  0.7577  0.5612
   68TCq2    O5 1044   3.917   2.391  14.553  0.1568  0.1090  0.2753
   68TCq2    O6 1045   3.777   2.389  14.374  0.2389  0.3649 -0.2986
   68TCq2    H2 1046   3.830   2.236  14.200 -1.8459 -2.2358  1.3312
   68TCq2    H3 1047   4.105   2.266  14.525  0.0994 -1.1427 -0.6496
   68TCq2    H4 1048   4.153   1.976  14.213 -0.0959  0.4219  0.1521
   69TMC2    C1 1049   0.619   3.090  12.860  0.6289  0.1975  0.2218
   69TMC2    C2 1050   0.567   3.192  12.936  0.7394 -0.1721  0.5704
   69TMC2    C3 1051   0.511   3.305  12.884 -0.6365  0.0907  0.1705
   69TMC2    C4 1052   0.617   3.112  12.724  0.0874  0.1338  0.0630
   69TMC2    C5 1053   0.571   3.230  12.672 -0.1137 -0.0229  1.0703
   69TMC2    C6 1054   0.508   3.327  12.750  0.0133 -0.4000  0.8036
   69TMC2     C 1055   0.741   3.032  12.908 -0.3262  0.3665  0.2959
   69TMC2     O 1056   0.746   2.993  13.026  0.3681 -0.1046 -0.3952
   69TMC2     H 1057   0.592   3.190  13.042  1.8050 -0.1442  0.3189
   69TMC2    H1 1058   0.655   3.026  12.671  0.7004 -0.5051  1.5444
   69TMC2    H2 1059   0.484   3.428  12.721 -0.0047 -1.0218 -1.4122
   69TMC2    C7 1060   0.658   3.253  12.559 -0.2896  0.3483 -0.5956
   69TMC2    C8 1061   0.449   3.402  12.976  0.4487 -0.2406 -0.3642
   69TMC2    O1 1062   0.759   3.182  12.556  0.0975 -0.0106  0.3362
   69TMC2    O2 1063   0.355   3.470  12.944  0.5887 -1.2870 -0.3485
   69TMC2    O5 1064   0.533   3.429  13.073  0.2843  0.4465 -0.0187
   69TMC2    H5 1065   0.616   3.382  13.053  0.6240  0.9289  0.2703
   70MPD2     C 1066   1.066   3.073  12.747 -0.6368  0.0525 -0.3263
   70MPD2    C1 1067   0.981   3.027  12.837 -0.2490 -0.2455 -0.5158
   70MPD2    C2 1068   1.030   2.961  12.947  0.0100 -0.2400 -0.0737
   70MPD2    C3 1069   1.169   2.947  12.962  0.2196  0.4636 -0.2612
   70MPD2    C4 1070   1.252   3.000  12.866 -0.0730  0.0343 -1.1929
   70MPD2    C5 1071   1.199   3.060  12.759 -0.0717 -0.6692  0.0463
   70MPD2     H 1072   0.964   2.926  13.026  0.0356 -0.2024 -0.0356
   70MPD2    H1 1073   1.358   2.987  12.880 -0.4541  1.5323  2.9331
   70MPD2    H2 1074   1.038   3.119  12.653 -1.2701 -0.4358 -0.3738
   70MPD2    H3 1075   1.254   3.117  12.684  1.4631 -2.1543  0.0386
   70MPD2     N 1076   1.225   2.882  13.072 -1.1625 -0.2730 -0.3341
   70MPD2    H5 1077   1.325   2.863  13.066 -0.6711  2.0069  0.5250
   70MPD2    N1 1078   0.837   3.047  12.816  0.7805 -0.4977  0.6767
   70MPD2    H7 1079   0.816   3.099  12.731  0.8246 -2.8013 -0.7427
   71TMC2    C1 1080   4.114   3.372   1.287  0.4660 -0.1589 -0.4595
   71TMC2    C2 1081   4.249   3.378   1.321 -0.3039 -1.0906  0.1879
   71TMC2    C3 1082   4.282   3.334   1.443 -0.8036  0.0267 -0.2066
   71TMC2    C4 1083   4.019   3.320   1.366 -0.2746  0.8454  1.0338
   71TMC2    C5 1084   4.053   3.291   1.499 -0.5818  0.2680 -0.0177
   71TMC2    C6 1085   4.181   3.308   1.536  0.0622  0.0488 -0.3428
   71TMC2     C 1086   4.095   3.355   1.147 -0.3888 -0.1261 -0.3199
   71TMC2     O 1087   4.134   3.439   1.071 -0.4454 -0.0031 -0.3709
   71TMC2     H 1088   4.327   3.403   1.251 -1.4138  0.1756 -0.6075
   71TMC2    H1 1089   3.916   3.306   1.337  0.2772  0.3275 -0.6393
   71TMC2    H2 1090   4.209   3.279   1.637  0.5217  0.9810 -0.2053
   71TMC2    C7 1091   3.958   3.257   1.601 -0.4107 -0.2201 -0.0561
   71TMC2    C8 1092   4.409   3.376   1.497 -0.0555  0.4945 -0.1302
   71TMC2    O1 1093   3.997   3.251   1.721  0.4259  0.6612  0.2992
   71TMC2    O2 1094   4.430   3.433   1.605 -0.8306  0.4368  0.1551
   71TMC2    O5 1095   4.513   3.334   1.419 -0.0446 -0.2810 -0.0968
   71TMC2    H5 1096   4.480   3.279   1.345 -3.8214  0.1868  1.2727
   72MPD2     C 1097   3.860   3.093   0.763  0.4852 -0.7490  0.4060
   72MPD2    C1 1098   3.918   3.220   0.759 -0.3898 -0.6217 -0.3843
   72MPD2    C2 1099   3.986   3.261   0.871 -0.0803  0.0897 -0.5881
   72MPD2    C3 1100   3.979   3.190   0.992  0.2603 -0.1002 -0.1766
   72MPD2    C4 1101   3.930   3.061   0.990  0.0648  0.2092  0.5308
   72MPD2    C5 1102   3.874   3.012   0.876  0.2974 -0.0362 -0.0793
   72MPD2     H 1103   4.040   3.355   0.877 -0.7084  0.3931  0.2409
   72MPD2    H1 1104   3.924   3.005   1.082 -1.0511  0.4142  0.5835
   72MPD2    H2 1105   3.805   3.046   0.682 -1.7805 -0.9906  2.0896
   72MPD2    H3 1106   3.819   2.919   0.878  2.2732 -1.2387 -0.6293
   72MPD2     N 1107   4.023   3.243   1.116  0.4791 -0.1635 -0.3269
   72MPD2    H5 1108   3.985   3.191   1.195  1.5902 -0.9941 -0.3428
   72MPD2    N1 1109   3.912   3.308   0.648  0.0525 -0.2434  0.2894
   72MPD2    H7 1110   3.945   3.404   0.661  1.8407 -1.1751  2.6589
   73TMC2    C1 1111   3.264   0.402  13.883 -0.4731  0.1925  0.7044
   73TMC2    C2 1112   3.190   0.336  13.979  0.2612  0.2980  0.2682
   73TMC2    C3 1113   3.258   0.270  14.081  0.7328 -1.1012 -0.1988
   73TMC2    C4 1114   3.393   0.429  13.895  0.1486  1.0926 -0.0722
   73TMC2    C5 1115   3.462   0.375  14.000  1.2439  0.0841  0.0650
   73TMC2    C6 1116   3.392   0.294  14.091  0.5804 -1.2641  0.4778
   73TMC2     C 1117   3.204   0.505  13.801  0.1500 -0.5284 -0.7666
   73TMC2     O 1118   3.283   0.554  13.722 -0.2464  0.0200  0.2712
   73TMC2     H 1119   3.082   0.345  13.972  0.0815 -2.8065 -0.9481
   73TMC2    H1 1120   3.453   0.477  13.818  2.2464 -1.1355  0.1941
   73TMC2    H2 1121   3.440   0.255  14.180  0.7503 -2.4597 -0.1375
   73TMC2    C7 1122   3.576   0.457  14.035 -0.4502  0.6660 -0.2979
   73TMC2    C8 1123   3.190   0.219  14.191  0.3633  0.1969  0.3467
   73TMC2    O1 1124   3.680   0.405  14.072  0.0023  0.4387 -0.8074
   73TMC2    O2 1125   3.212   0.254  14.306 -0.0713 -0.4630 -0.1320
   73TMC2    O5 1126   3.072   0.165  14.144  0.4185 -0.7732  0.0280
   73TMC2    H5 1127   3.086   0.133  14.053  0.7141  0.1605 -0.2626
   74MPD2     C 1128   2.886   0.844  13.619 -0.7394 -0.1754  0.5195
   74MPD2    C1 1129   3.016   0.863  13.655  0.2848 -0.5714 -0.1012
   74MPD2    C2 1130   3.076   0.753  13.717 -0.1964  0.0044  0.1759
   74MPD2    C3 1131   3.008   0.642  13.756  0.2513  0.1191 -0.0435
   74MPD2    C4 1132   2.875   0.642  13.746  0.3196  0.0628  0.1692
   74MPD2    C5 1133   2.819   0.736  13.663 -0.3098 -0.1471 -0.5501
   74MPD2     H 1134   3.183   0.756  13.737 -0.4962 -0.4466  1.8787
   74MPD2    H1 1135   2.815   0.557  13.777  0.1084 -0.4724 -1.7085
   74MPD2    H2 1136   2.827   0.920  13.567 -2.0660 -0.2851  1.8523
   74MPD2    H3 1137   2.718   0.714  13.630 -0.1260  0.6271 -1.6196
   74MPD2     N 1138   3.070   0.532  13.819 -0.0049 -1.0666  0.7124
   74MPD2    H5 1139   3.015   0.462  13.869 -0.2102 -1.2520  0.2293
   74MPD2    N1 1140   3.085   0.981  13.616  0.0047  0.1411 -0.6383
   74MPD2    H7 1141   3.041   1.052  13.558 -1.4413  0.3816  0.7332
   75TCq2    C1 1142   3.279   2.077  13.982 -0.5117  0.2132  0.0736
   75TCq2    O2 1143   3.312   2.126  14.088 -0.2745  0.0319 -0.4338
   75TCq2    C2 1144   3.139   2.083  13.959  0.5266  0.4746  0.2811
   75TCq2    C3 1145   3.068   2.063  14.070  0.0656  0.6717  0.0295
   75TCq2    C4 1146   2.930   2.076  14.058 -0.1905  0.1598  0.4806
   75TCq2    C5 1147   2.871   2.114  13.939  0.0675  0.2574 -0.6653
   75TCq2    C6 1148   2.941   2.121  13.826  0.1678 -0.4961  0.5037
   75TCq2    C7 1149   3.080   2.108  13.834  0.0036 -0.9858  0.0921
   75TCq2    C8 1150   2.871   2.166  13.706  0.0537  0.4019 -0.5074
   75TCq2    O4 1151   2.936   2.155  13.603  0.7855 -0.0485  0.3217
   75TCq2    C9 1152   2.848   2.062  14.174  0.4234 -0.4468  0.0045
   75TCq2    O5 1153   2.730   2.101  14.173  0.1249 -0.3927  0.3202
   75TCq2    O6 1154   2.907   1.985  14.261 -0.1867 -0.0033  0.0868
   75TCq2    H2 1155   3.113   2.037  14.165  0.7425 -1.2523 -0.8088
   75TCq2    H3 1156   2.763   2.107  13.952  0.0788 -0.9858 -1.2121
   75TCq2    H4 1157   3.146   2.121  13.749  1.5729 -1.4505  1.2434
   76MPD2     C 1158   1.734   2.855  12.284 -0.2660  0.0765  0.2158
   76MPD2    C1 1159   1.697   2.877  12.155 -0.1152  0.2527  0.1926
   76MPD2    C2 1160   1.765   2.824  12.052 -0.2134 -0.2819 -0.1477
   76MPD2    C3 1161   1.876   2.746  12.082 -0.4977 -0.2482  0.2590
   76MPD2    C4 1162   1.920   2.729  12.213  0.4390  0.2548  0.2233
   76MPD2    C5 1163   1.847   2.783  12.314  0.6551 -0.7073 -0.4492
   76MPD2     H 1164   1.734   2.839  11.950 -1.1164 -2.1764 -0.1460
   76MPD2    H1 1165   2.006   2.667  12.235  0.6802  0.2719 -0.7074
   76MPD2    H2 1166   1.684   2.902  12.369 -2.1367 -0.9402 -0.3108
   76MPD2    H3 1167   1.887   2.783  12.415 -0.0765  0.2839 -0.1613
   76MPD2     N 1168   1.952   2.680  11.979  0.3051  0.7918 -0.0575
   76MPD2    H5 1169   2.034   2.626  12.006 -0.6043  0.0197  1.1241
   76MPD2    N1 1170   1.583   2.961  12.119 -0.2092 -0.0407  0.2457
   76MPD2    H7 1171   1.549   2.955  12.024 -0.2903  1.5227  0.1689
   77TCq2    C1 1172   1.925   2.666  11.844  0.2991  0.6843 -0.4374
   77TCq2    O2 1173   1.823   2.704  11.787  0.0753  0.1524 -0.6451
   77TCq2    C2 1174   2.020   2.576  11.779  0.1807  0.8126  0.3675
   77TCq2    C3 1175   1.982   2.507  11.663 -0.6022 -0.1438 -0.2227
   77TCq2    C4 1176   2.075   2.432  11.593 -0.5676 -0.2594 -0.7858
   77TCq2    C5 1177   2.208   2.444  11.618  0.0119 -1.0411 -0.2774
   77TCq2    C6 1178   2.243   2.530  11.716  0.2708 -0.7843  0.1461
   77TCq2    C7 1179   2.154   2.588  11.804  0.3734 -0.0966 -0.1480
   77TCq2    C8 1180   2.386   2.551  11.731  0.6008  0.4368  0.4297
   77TCq2    O4 1181   2.453   2.510  11.639 -0.1703  0.6895  0.9049
   77TCq2    C9 1182   2.030   2.351  11.482  0.0697  0.1984  0.1246
   77TCq2    O5 1183   1.907   2.338  11.472 -0.0807 -0.6622  0.0188
   77TCq2    O6 1184   2.111   2.282  11.412 -0.1166 -0.0737  0.3688
   77TCq2    H2 1185   1.876   2.506  11.639  0.0787 -1.6533 -3.1691
   77TCq2    H3 1186   2.282   2.377  11.574  1.7346  0.8492 -0.2140
   77TCq2    H4 1187   2.189   2.649  11.886  0.4454  1.2287 -1.1663
   78MPD1     C 1188   4.379   1.410   2.008 -0.3333 -0.2838 -0.0595
   78MPD1    C1 1189   4.382   1.535   1.955  0.0253  0.4226  0.6482
   78MPD1    C2 1190   4.477   1.619   2.014  0.1614  0.4435 -0.0017
   78MPD1    C3 1191   4.576   1.577   2.099  0.3741  0.0085 -0.2269
   78MPD1    C4 1192   4.580   1.447   2.127 -0.1349  0.5869  0.4513
   78MPD1    C5 1193   4.477   1.359   2.088  0.2619  0.0156  0.1917
   78MPD1     H 1194   4.477   1.721   1.976  0.0503  0.6257  0.4892
   78MPD1    H1 1195   4.654   1.412   2.198  1.4878  0.8605 -1.0997
   78MPD1    H2 1196   4.303   1.333   1.995 -1.8959  0.9814  1.6514
   78MPD1    H3 1197   4.473   1.260   2.134  1.1934  0.6701  1.6981
   78MPD1     N 1198   4.680   1.657   2.142  0.2326 -0.2727  0.0062
   78MPD1    H5 1199   0.011   1.617   2.217  0.9746  0.6820 -0.0224
   78MPD1    N1 1200   4.272   1.575   1.877 -0.4225  0.7152  0.0360
   78MPD1    H6 1201   4.312   1.637   1.806  0.8929  0.3172  0.4378
   78MPD1    H7 1202   4.235   1.495   1.827  1.6199 -0.7851  0.9534
   79TCq2    C1 1203   4.694   1.793   2.112 -0.1148  0.1274  0.6602
   79TCq2    O2 1204   4.621   1.870   2.045 -0.3813  0.4204 -0.2237
   79TCq2    C2 1205   0.084   1.848   2.182 -0.6011  0.3683  0.6615
   79TCq2    C3 1206   0.194   1.770   2.199 -0.2964 -0.4212  0.5706
   79TCq2    C4 1207   0.316   1.831   2.219 -0.0394 -0.5841  0.2321
   79TCq2    C5 1208   0.324   1.964   2.233  0.1570 -0.7530  0.0797
   79TCq2    C6 1209   0.211   2.047   2.224  0.1005 -0.2584 -0.5030
   79TCq2    C7 1210   0.093   1.983   2.189 -0.0120 -0.3645 -0.2092
   79TCq2    C8 1211   0.208   2.184   2.264  0.1445  0.3511  0.2695
   79TCq2    O4 1212   0.315   2.236   2.304  0.0581  0.0756 -0.0431
   79TCq2    C9 1213   0.431   1.743   2.237 -0.3697 -0.1922 -0.4045
   79TCq2    O5 1214   0.544   1.800   2.241 -0.0852  0.2805  1.0823
   79TCq2    O6 1215   0.414   1.623   2.260 -0.6648  0.0766 -0.3833
   79TCq2    H2 1216   0.192   1.662   2.191 -1.0461 -0.5291  2.2074
   79TCq2    H3 1217   0.420   2.010   2.254  0.9963 -2.3774 -0.2592
   79TCq2    H4 1218   0.005   2.035   2.153  0.1025 -0.6133 -0.8511
   80MPD2     C 1219   1.287   2.732  12.197  0.5772 -0.0689  0.1437
   80MPD2    C1 1220   1.198   2.654  12.134  0.7341  0.4844 -0.0050
   80MPD2    C2 1221   1.072   2.648  12.193  0.2939 -0.5941 -0.2092
   80MPD2    C3 1222   1.032   2.740  12.288 -0.2405  0.2408 -0.0308
   80MPD2    C4 1223   1.131   2.809  12.354 -0.7611  0.2221  0.1404
   80MPD2    C5 1224   1.256   2.808  12.308 -0.2462  0.4688 -0.4491
   80MPD2     H 1225   0.998   2.589  12.140  1.4848 -1.8111 -0.5212
   80MPD2    H1 1226   1.105   2.869  12.440 -0.6172  1.0717 -0.4024
   80MPD2    H2 1227   1.385   2.741  12.153  1.3570 -2.4094  1.3799
   80MPD2    H3 1228   1.328   2.874  12.356 -0.7671 -0.1474  1.1874
   80MPD2     N 1229   0.905   2.753  12.343  0.5152 -0.3234 -0.6159
   80MPD2    H5 1230   0.900   2.829  12.411 -1.5482 -0.7087 -0.3605
   80MPD2    N1 1231   1.232   2.576  12.021 -0.2525  0.0405 -0.5121
   80MPD2    H7 1232   1.161   2.511  11.987 -0.7123  0.7079 -0.8298
   81TCq2    C1 1233   1.334   2.601  11.933 -0.4178 -0.2287 -0.3677
   81TCq2    O2 1234   1.415   2.694  11.924 -0.1342  0.5973 -0.0126
   81TCq2    C2 1235   1.338   2.496  11.838 -0.9151  0.2207  0.7218
   81TCq2    C3 1236   1.406   2.516  11.725 -0.2343 -0.8098 -0.1212
   81TCq2    C4 1237   1.445   2.408  11.653  0.7716  0.2000 -0.0003
   81TCq2    C5 1238   1.401   2.280  11.683  0.3143  0.3471  0.1161
   81TCq2    C6 1239   1.324   2.267  11.793  0.7557  0.0310 -0.1420
   81TCq2    C7 1240   1.296   2.369  11.881 -0.3182 -0.1826  0.4147
   81TCq2    C8 1241   1.306   2.124  11.822  0.0069  0.4937 -0.0208
   81TCq2    O4 1242   1.378   2.054  11.758  0.4885 -0.3821  0.3248
   81TCq2    C9 1243   1.541   2.424  11.541 -0.8598 -0.1368 -0.1292
   81TCq2    O5 1244   1.574   2.317  11.485  0.0272 -0.1230 -0.2314
   81TCq2    O6 1245   1.591   2.537  11.528  0.0878 -0.3251 -0.1411
   81TCq2    H2 1246   1.448   2.614  11.703 -0.5162 -0.2014  1.9819
   81TCq2    H3 1247   1.438   2.201  11.618  3.1545  0.5660  1.4684
   81TCq2    H4 1248   1.256   2.342  11.978  0.5807 -1.0642  0.5399
   82MPD2     C 1249   4.353   2.360  10.507  0.2381  0.1366  0.0818
   82MPD2    C1 1250   4.276   2.248  10.517  0.6366  0.8083 -0.0818
   82MPD2    C2 1251   4.332   2.146  10.589  0.6456  0.2167 -0.5440
   82MPD2    C3 1252   4.442   2.165  10.676  0.3157  0.2218 -0.8024
   82MPD2    C4 1253   4.496   2.292  10.673 -0.6658 -0.0938  0.1393
   82MPD2    C5 1254   4.465   2.386  10.578  0.2102  0.6312  0.6989
   82MPD2     H 1255   4.301   2.042  10.582 -1.4855  0.6692  2.1873
   82MPD2    H1 1256   4.589   2.303  10.726  0.3870 -0.5512 -1.5872
   82MPD2    H2 1257   4.318   2.439  10.441  0.7534 -0.8739 -1.4047
   82MPD2    H3 1258   4.516   2.480  10.564  1.1762  0.2464  1.6075
   82MPD2     N 1259   4.478   2.069  10.775  0.3384  0.1238  0.0851
   82MPD2    H5 1260   4.562   2.085  10.831  0.7932 -0.0589 -0.5498
   82MPD2    N1 1261   4.163   2.241  10.433 -0.4061  0.1654  0.1041
   82MPD2    H7 1262   4.165   2.310  10.359 -2.1905 -0.4537 -0.5099
   83TCq2    C1 1263   4.393   1.966  10.814 -0.1884 -1.1566 -0.5422
   83TCq2    O2 1264   4.283   1.935  10.768  0.5686  0.6892 -0.5220
   83TCq2    C2 1265   4.432   1.880  10.923 -0.5821  0.4399  0.3722
   83TCq2    C3 1266   4.563   1.883  10.972  0.2828  0.4445 -0.6935
   83TCq2    C4 1267   4.594   1.797  11.070 -0.7603  0.7927  0.0240
   83TCq2    C5 1268   4.508   1.712  11.122 -0.1881  0.4485  0.9753
   83TCq2    C6 1269   4.383   1.704  11.072  1.2771  0.2718  0.0717
   83TCq2    C7 1270   4.344   1.786  10.969  0.2390 -0.0521 -0.1178
   83TCq2    C8 1271   4.296   1.604  11.121 -0.1318  0.4286  0.1942
   83TCq2    O4 1272   4.307   1.567  11.240  0.1960  0.2039  0.6272
   83TCq2    C9 1273   0.008   1.794  11.102 -0.4061 -0.1848 -0.2573
   83TCq2    O5 1274   0.028   1.707  11.187  0.0506  0.4691 -0.4107
   83TCq2    O6 1275   0.098   1.853  11.037 -0.3332  0.0669 -0.4507
   83TCq2    H2 1276   4.630   1.963  10.945  0.6567  0.0140 -1.0353
   83TCq2    H3 1277   4.535   1.644  11.202  1.5024  0.5200  0.4734
   83TCq2    H4 1278   4.244   1.785  10.927  0.0607 -4.1524  0.4652
   84TCq2    C1 1279   0.412   1.165  10.284 -0.2604 -0.2577 -0.1166
   84TCq2    O2 1280   0.372   1.053  10.312 -0.4406 -0.1596  0.0803
   84TCq2    C2 1281   0.403   1.251  10.395  0.7860 -0.2017  0.2130
   84TCq2    C3 1282   0.465   1.370  10.393 -0.2979  0.6319 -0.6897
   84TCq2    C4 1283   0.463   1.445  10.507 -0.1745 -0.1496 -0.3578
   84TCq2    C5 1284   0.395   1.409  10.613 -0.0347  0.1980  0.1037
   84TCq2    C6 1285   0.331   1.286  10.609 -0.0591 -1.0709  0.3552
   84TCq2    C7 1286   0.330   1.200  10.501 -0.1459 -0.2719  0.4804
   84TCq2    C8 1287   0.253   1.241  10.727 -0.1091  0.7150  0.2756
   84TCq2    O4 1288   0.296   1.280  10.831  0.0778  0.2023  0.1151
   84TCq2    C9 1289   0.528   1.574  10.499  0.1080 -0.4939  0.0377
   84TCq2    O5 1290   0.625   1.582  10.417  0.2358 -0.5875 -0.8307
   84TCq2    O6 1291   0.480   1.680  10.551 -0.2194 -0.0403  0.0186
   84TCq2    H2 1292   0.526   1.403  10.310 -0.5613  0.1492 -1.0719
   84TCq2    H3 1293   0.406   1.473  10.700 -0.5321  0.6401 -0.1589
   84TCq2    H4 1294   0.283   1.103  10.496  1.8680 -1.2588  1.0570
   85MPD2     C 1295   1.630   3.060  16.621 -0.3875  0.3966  0.0823
   85MPD2    C1 1296   1.528   3.091  16.535  0.2499 -0.1274 -0.1278
   85MPD2    C2 1297   1.554   3.199  16.452  0.1064 -0.2481 -0.4754
   85MPD2    C3 1298   1.679   3.265  16.452 -0.4994  0.4852  0.1391
   85MPD2    C4 1299   1.785   3.221  16.526  0.0222 -0.2922  0.2430
   85MPD2    C5 1300   1.755   3.119  16.613 -0.2368 -0.6119  0.0788
   85MPD2     H 1301   1.480   3.243  16.386 -1.0105  2.9799  3.0113
   85MPD2    H1 1302   1.887   3.257  16.526 -0.1185  0.1045 -0.2798
   85MPD2    H2 1303   1.623   2.978  16.691  2.9114 -2.0716 -2.4753
   85MPD2    H3 1304   1.829   3.085  16.684 -1.4430 -0.5043  1.3825
   85MPD2     N 1305   1.686   3.377  16.367 -0.9678  0.3282 -0.3458
   85MPD2    H5 1306   1.605   3.405  16.312 -1.4018  0.6059  0.4310
   85MPD2    N1 1307   1.403   3.022  16.530 -0.2385 -0.7157  0.2707
   85MPD2    H7 1308   1.347   3.024  16.445 -1.2866  2.1756  1.0466
   86TCq2    C1 1309   1.802   3.452  16.351  0.7918  0.0066  0.7120
   86TCq2    O2 1310   1.912   3.458  16.404  0.3736  0.5730 -0.0237
   86TCq2    C2 1311   1.781   3.559  16.257 -0.1813 -0.4927 -0.3639
   86TCq2    C3 1312   1.664   3.626  16.250  0.1011 -0.2335 -0.6239
   86TCq2    C4 1313   1.661   3.734  16.166  0.0619  0.5560 -0.8549
   86TCq2    C5 1314   1.777   3.779  16.096 -0.1506 -0.1311 -0.4678
   86TCq2    C6 1315   1.893   3.706  16.107 -0.8152  0.8229  0.5294
   86TCq2    C7 1316   1.896   3.588  16.183 -0.4695  0.3720 -0.0700
   86TCq2    C8 1317   2.005   3.721  16.014 -0.4376 -0.9734 -0.1177
   86TCq2    O4 1318   2.077   3.617  16.004 -0.3998  0.0171  0.5629
   86TCq2    C9 1319   1.545   3.809  16.148  1.1614  0.2900 -0.3711
   86TCq2    O5 1320   1.569   3.921  16.093  0.0791  0.0074  0.7516
   86TCq2    O6 1321   1.433   3.780  16.199  0.6365 -0.5404  0.1123
   86TCq2    H2 1322   1.571   3.608  16.304 -0.1082  3.1276  0.1683
   86TCq2    H3 1323   1.777   3.871  16.040  1.1136 -0.0115 -0.2577
   86TCq2    H4 1324   1.986   3.531  16.200 -0.5165  0.0799 -0.8159
   87MPD2     C 1325   4.134   2.179   1.945  0.0004  0.4880  0.6795
   87MPD2    C1 1326   4.036   2.161   1.850  0.0449 -0.3304  0.6618
   87MPD2    C2 1327   3.953   2.269   1.811  0.1052  0.2973 -0.3404
   87MPD2    C3 1328   3.957   2.389   1.883 -0.2934  0.4665 -0.8155
   87MPD2    C4 1329   4.059   2.393   1.981  0.2479  0.2045 -0.3646
   87MPD2    C5 1330   4.152   2.296   2.005  0.3060 -0.1976  0.3245
   87MPD2     H 1331   3.880   2.254   1.732  0.4113 -1.4839 -0.3044
   87MPD2    H1 1332   4.078   2.488   2.030 -0.2818  0.3675 -0.4787
   87MPD2    H2 1333   4.198   2.105   1.991 -0.4986 -0.6000 -0.3796
   87MPD2    H3 1334   4.229   2.315   2.078  1.6515  0.4531 -1.2522
   87MPD2     N 1335   3.879   2.500   1.856 -0.0819 -0.0482  0.0312
   87MPD2    H5 1336   3.912   2.589   1.893  0.4956 -0.4841  0.5770
   87MPD2    N1 1337   4.018   2.025   1.810  0.6583 -0.1614 -0.2570
   87MPD2    H7 1338   4.072   1.953   1.856 -0.3869 -0.7338  0.0748
   88TCq2    C1 1339   3.928   1.982   1.723 -0.0024  0.2126  0.0205
   88TCq2    O2 1340   3.850   2.047   1.653 -0.4335  0.4411  0.4076
   88TCq2    C2 1341   3.954   1.842   1.685  0.0166  0.0880  0.0615
   88TCq2    C3 1342   3.954   1.747   1.780  0.3182  1.1623 -0.0518
   88TCq2    C4 1343   3.952   1.616   1.746  0.5210 -0.3548  0.1416
   88TCq2    C5 1344   3.937   1.570   1.617  0.0070 -0.3985 -0.0757
   88TCq2    C6 1345   3.934   1.671   1.524  0.6726  0.8694 -0.1525
   88TCq2    C7 1346   3.946   1.807   1.554  0.3529 -0.7748  0.2590
   88TCq2    C8 1347   3.937   1.630   1.378 -0.2023  0.3901 -0.4703
   88TCq2    O4 1348   3.989   1.702   1.292  0.1103  0.0490  0.3136
   88TCq2    C9 1349   3.943   1.510   1.845  0.3918  0.0508  0.4913
   88TCq2    O5 1350   3.912   1.394   1.811  0.5032 -0.3667 -0.2534
   88TCq2    O6 1351   3.944   1.551   1.968 -0.4143  0.0733  0.3177
   88TCq2    H2 1352   3.958   1.774   1.885  0.8359  2.2890 -0.3654
   88TCq2    H3 1353   3.941   1.464   1.598  0.3618 -0.3677 -0.1762
   88TCq2    H4 1354   3.925   1.882   1.478 -3.9284 -2.0160  0.1846
   89MPD2     C 1355   0.040   3.408   2.035  0.1225 -0.5271  0.0250
   89MPD2    C1 1356   4.681   3.481   1.953 -0.0743 -0.2171 -0.3550
   89MPD2    C2 1357   0.016   3.566   1.860 -0.0678 -0.0325  0.7173
   89MPD2    C3 1358   0.150   3.602   1.864 -0.0544  0.4045  0.6349
   89MPD2    C4 1359   0.225   3.512   1.934 -0.2697  0.2112 -0.6203
   89MPD2    C5 1360   0.173   3.429   2.024 -0.3037 -0.0062 -0.4247
   89MPD2     H 1361   4.665   3.611   1.797  0.9512  0.0625 -0.4264
   89MPD2    H1 1362   0.334   3.518   1.929 -0.4420  0.3016 -3.8741
   89MPD2    H2 1363   4.720   3.335   2.102 -2.5670  0.2753 -0.9093
   89MPD2    H3 1364   0.246   3.363   2.070 -0.2554 -0.2731 -0.8931
   89MPD2     N 1365   0.202   3.712   1.798  0.1752  0.0183  0.3421
   89MPD2    H5 1366   0.147   3.782   1.748 -0.2625 -0.2115  0.5080
   89MPD2    N1 1367   4.542   3.464   1.951 -0.3012 -0.0008  0.3690
   89MPD2    H7 1368   4.492   3.538   1.901  3.3533  2.2572  0.0700
   90TCq2    C1 1369   0.328   3.766   1.815  1.0365  0.2791 -0.5269
   90TCq2    O2 1370   0.423   3.740   1.888  0.0400  0.4791 -0.5815
   90TCq2    C2 1371   0.356   3.863   1.718  0.5293  0.2351 -0.0051
   90TCq2    C3 1372   0.485   3.870   1.685 -0.1714 -0.1808 -0.2375
   90TCq2    C4 1373   0.523   3.934   1.573  0.4922 -0.2598  0.0326
   90TCq2    C5 1374   0.427   3.994   1.494 -0.4331  0.4672  0.7376
   90TCq2    C6 1375   0.294   3.977   1.525 -0.8215 -0.1835  1.2482
   90TCq2    C7 1376   0.255   3.916   1.640 -0.5633 -0.2721  0.0577
   90TCq2    C8 1377   0.190   4.037   1.438 -0.3147 -0.1697  0.5776
   90TCq2    O4 1378   0.075   4.048   1.479  0.3801  0.2837 -0.0020
   90TCq2    C9 1379   0.655   3.927   1.536  0.6094  0.1696 -0.2067
   90TCq2    O5 1380   0.677   3.973   1.421 -0.8751  1.1519 -0.1217
   90TCq2    O6 1381   0.744   3.893   1.615 -0.7150 -0.2941  0.1465
   90TCq2    H2 1382   0.562   3.828   1.749 -0.5315  0.1720  0.4251
   90TCq2    H3 1383   0.449   4.056   1.408 -2.9844 -0.3620 -0.4981
   90TCq2    H4 1384   0.152   3.913   1.673 -0.6862  0.7580 -0.2422
   91TMC2    C1 1385   1.416   4.217  16.904  0.8313 -0.2189 -0.1103
   91TMC2    C2 1386   1.491   4.282  16.812  0.4116 -0.9105  0.0695
   91TMC2    C3 1387   1.426   4.345  16.703  0.2872 -0.1709  0.2171
   91TMC2    C4 1388   1.280   4.220  16.898  0.7364  0.0159 -0.5257
   91TMC2    C5 1389   1.220   4.282  16.790 -0.2192  0.2144  0.2107
   91TMC2    C6 1390   1.291   4.339  16.690  0.3156 -0.1202 -0.3520
   91TMC2     C 1391   1.478   4.120  16.993 -0.2928  0.0584 -0.5315
   91TMC2     O 1392   1.423   4.085  17.096  0.3066 -0.1767  0.4830
   91TMC2     H 1393   1.597   4.299  16.827  0.5773 -1.2987 -0.6767
   91TMC2    H1 1394   1.217   4.169  16.970  0.0737  2.3556  0.5611
   91TMC2    H2 1395   1.242   4.400  16.615 -2.1781 -0.5730  0.9181
   91TMC2    C7 1396   1.087   4.224  16.760  0.2453 -0.1116 -0.8967
   91TMC2    C8 1397   1.514   4.388  16.598  0.8545 -0.1762  0.1698
   91TMC2    O1 1398   1.023   4.180  16.858  0.1772  0.0731 -0.0598
   91TMC2    O2 1399   1.630   4.416  16.625 -0.1311 -1.0675  0.3725
   91TMC2    O5 1400   1.457   4.377  16.478  0.4127  0.0015  0.4641
   91TMC2    H5 1401   1.369   4.335  16.473  1.2860 -1.7006 -0.6443
   92MPD2     C 1402   1.650   3.881  17.046 -0.2618 -0.2343 -0.0598
   92MPD2    C1 1403   1.687   3.981  16.965  0.2868 -0.2083 -0.5025
   92MPD2    C2 1404   1.811   3.975  16.896  0.4244 -0.1748 -0.3548
   92MPD2    C3 1405   1.901   3.879  16.922 -0.5063 -0.2220 -0.6029
   92MPD2    C4 1406   1.870   3.788  17.016  0.4777  0.0347  0.1143
   92MPD2    C5 1407   1.748   3.795  17.085 -0.0842 -0.0548 -0.0546
   92MPD2     H 1408   1.836   4.053  16.824 -2.1273  0.0611 -0.9586
   92MPD2    H1 1409   1.933   3.705  17.047  3.6143  2.4270  0.1118
   92MPD2    H2 1410   1.557   3.887  17.102  0.0728  0.4403  0.4270
   92MPD2    H3 1411   1.731   3.720  17.161 -1.6983  1.5162  1.1429
   92MPD2     N 1412   2.020   3.882  16.853 -0.2608  0.1778 -0.6587
   92MPD2    H5 1413   2.039   3.971  16.807 -0.4318  0.2496 -0.5879
   92MPD2    N1 1414   1.596   4.080  16.926 -0.0408  0.0064 -0.4792
   92MPD2    H7 1415   1.617   4.118  16.834  2.4549 -0.9196 -0.2855
   93MPD2     C 1416   2.752   0.353  13.548 -0.3013 -0.6934  0.1029
   93MPD2    C1 1417   2.799   0.225  13.537  0.3096 -0.4389  0.6676
   93MPD2    C2 1418   2.712   0.128  13.591  0.5000  0.2249  0.1132
   93MPD2    C3 1419   2.598   0.163  13.658 -0.1609 -0.1349  0.5889
   93MPD2    C4 1420   2.557   0.294  13.676  0.0973  0.5211  0.5621
   93MPD2    C5 1421   2.634   0.390  13.618  0.6888 -0.1915 -0.2040
   93MPD2     H 1422   2.732   0.024  13.566  1.2647  0.5147 -0.4805
   93MPD2    H1 1423   2.458   0.329  13.703  0.7816  1.1986  2.1467
   93MPD2    H2 1424   2.809   0.433  13.502 -0.9925 -0.0116  0.4262
   93MPD2    H3 1425   2.609   0.495  13.628 -2.5776 -1.1043  0.9975
   93MPD2     N 1426   2.525   0.051  13.706  0.3513  0.2333 -0.3060
   93MPD2    H5 1427   2.554   4.690  13.658  0.6682  0.6062 -0.7744
   93MPD2    N1 1428   2.928   0.193  13.495 -0.0599  0.0561 -0.2370
   93MPD2    H7 1429   2.947   0.095  13.475  1.2178  0.1193  0.6801
   94TCq2    C1 1430   3.038   0.280  13.508 -0.0036 -0.4869  0.8886
   94TCq2    O2 1431   3.052   0.402  13.489  0.5419 -0.4643 -0.3343
   94TCq2    C2 1432   3.159   0.210  13.544  0.3383  0.3656  0.5552
   94TCq2    C3 1433   3.139   0.125  13.650 -0.0362 -0.5739 -0.2344
   94TCq2    C4 1434   3.242   0.080  13.725 -0.7329  0.4014 -0.3304
   94TCq2    C5 1435   3.370   0.129  13.702 -1.1429 -0.3352 -0.5556
   94TCq2    C6 1436   3.384   0.226  13.608  0.1019 -0.9866  0.5619
   94TCq2    C7 1437   3.277   0.270  13.530  0.0028 -0.4652  1.0648
   94TCq2    C8 1438   3.513   0.290  13.612 -0.0049 -0.1115  0.2987
   94TCq2    O4 1439   3.604   0.219  13.652 -0.0721  0.5076 -0.7502
   94TCq2    C9 1440   3.223   0.015  13.858 -0.4254 -0.4736  0.5535
   94TCq2    O5 1441   3.310   4.661  13.904  0.2913 -0.4773  0.3424
   94TCq2    O6 1442   3.111   0.048  13.911  0.2961  0.6120 -0.1584
   94TCq2    H2 1443   3.041   0.083  13.671  0.1352 -0.1418  1.4423
   94TCq2    H3 1444   3.451   0.105  13.771 -0.5879 -1.0481 -1.4493
   94TCq2    H4 1445   3.282   0.357  13.464  0.1113 -0.4824  1.0506
   95TMC2    C1 1446   3.162   1.486  15.965 -0.3454  0.1264 -0.4953
   95TMC2    C2 1447   3.199   1.353  15.979  0.0963  0.1485  0.8845
   95TMC2    C3 1448   3.133   1.278  16.076  0.5995 -0.2269 -0.2314
   95TMC2    C4 1449   3.068   1.546  16.050 -0.1460  0.6423 -0.5977
   95TMC2    C5 1450   3.002   1.462  16.135 -0.1131 -0.5131 -0.0819
   95TMC2    C6 1451   3.031   1.325  16.152 -0.5041  0.2121  0.0651
   95TMC2     C 1452   3.261   1.569  15.891 -0.0780  0.7715  0.5614
   95TMC2     O 1453   3.329   1.508  15.805  0.3753  0.8325  0.1085
   95TMC2     H 1454   3.268   1.307  15.911 -0.5276 -0.0019  0.3517
   95TMC2    H1 1455   3.049   1.652  16.045 -1.1758  0.3853 -2.1952
   95TMC2    H2 1456   2.983   1.265  16.229 -0.2487  0.3407  0.3227
   95TMC2    C7 1457   2.883   1.519  16.213  0.0094  0.5553 -0.0377
   95TMC2    C8 1458   3.188   1.151  16.098  0.4856 -0.3720  0.1987
   95TMC2    O1 1459   2.812   1.435  16.268 -0.4866 -0.0446 -0.2115
   95TMC2    O2 1460   3.211   1.074  16.007 -0.1769 -0.8427  0.5142
   95TMC2    O5 1461   3.207   1.123  16.232  0.1987 -0.5495  0.4847
   95TMC2    H5 1462   3.200   1.212  16.273 -0.3582  0.4078 -1.7120
   96MPD2     C 1463   3.431   2.023  15.761 -0.3804 -0.2309  0.2651
   96MPD2    C1 1464   3.434   1.902  15.686 -0.3372 -0.3778 -0.3772
   96MPD2    C2 1465   3.382   1.788  15.749 -0.5429 -0.0876 -0.2618
   96MPD2    C3 1466   3.322   1.797  15.872 -0.2529 -0.4145  0.0295
   96MPD2    C4 1467   3.313   1.920  15.931 -0.5520 -0.4244 -0.0263
   96MPD2    C5 1468   3.361   2.037  15.872  0.6059 -0.0555 -0.2176
   96MPD2     H 1469   3.393   1.693  15.698  0.2478 -0.5247  0.7044
   96MPD2    H1 1470   3.258   1.941  16.022  2.7124  0.9695  1.6228
   96MPD2    H2 1471   3.472   2.113  15.716 -0.4741 -0.5720 -0.5086
   96MPD2    H3 1472   3.349   2.142  15.898  0.7807  0.2631 -1.4142
   96MPD2     N 1473   3.257   1.693  15.932 -0.3414  0.3736 -0.1508
   96MPD2    H5 1474   3.189   1.717  16.004  0.9839  0.8299  0.9350
   96MPD2    N1 1475   3.523   1.901  15.579 -0.5089  0.3474  0.5671
   96MPD2    H7 1476   3.574   1.983  15.548 -0.0874 -1.2921 -3.0103
   97MPD2     C 1477   1.407   3.837   0.906 -0.5000  0.0782 -0.3089
   97MPD2    C1 1478   1.271   3.841   0.889 -0.4317  0.5957 -0.1411
   97MPD2    C2 1479   1.218   3.901   0.774  0.3867 -0.3538 -0.4667
   97MPD2    C3 1480   1.303   3.938   0.671  0.3450 -0.5536  0.9862
   97MPD2    C4 1481   1.433   3.928   0.693 -0.5994 -1.2047  0.4202
   97MPD2    C5 1482   1.492   3.879   0.806 -0.2131 -0.7326  0.0546
   97MPD2     H 1483   1.111   3.905   0.757  0.3572 -0.7656 -0.3791
   97MPD2    H1 1484   1.505   3.956   0.617  0.8440 -1.7176  1.5933
   97MPD2    H2 1485   1.457   3.811   0.999 -1.3661  0.3743  0.2334
   97MPD2    H3 1486   1.598   3.859   0.804 -0.1565 -0.5430  1.1891
   97MPD2     N 1487   1.261   3.984   0.549 -0.0310 -0.2165  0.2747
   97MPD2    H5 1488   1.331   4.018   0.484 -2.3631 -0.5195 -2.4317
   97MPD2    N1 1489   1.196   3.798   1.000 -0.3327  0.1422 -0.0783
   97MPD2    H7 1490   1.235   3.780   1.091 -2.5581 -1.7358  0.5278
   98TCq2    C1 1491   1.130   3.998   0.503  0.1509  0.0071 -0.2813
   98TCq2    O2 1492   1.026   3.968   0.562 -0.4625  0.3306  0.0021
   98TCq2    C2 1493   1.122   4.061   0.372 -0.0735 -0.0052 -0.3643
   98TCq2    C3 1494   1.005   4.128   0.337 -0.4627  0.1045 -0.0994
   98TCq2    C4 1495   0.997   4.202   0.220 -0.1449 -0.5398  0.5304
   98TCq2    C5 1496   1.108   4.202   0.143  0.1249  0.1937 -0.7471
   98TCq2    C6 1497   1.231   4.153   0.195 -0.1605 -0.3302 -0.8707
   98TCq2    C7 1498   1.240   4.081   0.303 -0.1031 -0.5098 -0.4753
   98TCq2    C8 1499   1.359   4.173   0.129 -0.0155 -0.1265  0.0372
   98TCq2    O4 1500   1.458   4.118   0.169  0.2097  0.2678  0.3821
   98TCq2    C9 1501   0.876   4.269   0.186  0.4604 -0.6521  0.0069
   98TCq2    O5 1502   0.895   4.364   0.106 -0.6638 -0.5679  0.0431
   98TCq2    O6 1503   0.766   4.210   0.212  0.2911 -0.7279 -0.3531
   98TCq2    H2 1504   0.925   4.132   0.409 -0.0572 -1.4388  0.4290
   98TCq2    H3 1505   1.102   4.254   0.049 -0.5140 -1.9885 -1.9090
   98TCq2    H4 1506   1.328   4.017   0.309 -0.3865 -0.7967  0.6414
   99MPD2     C 1507   4.052   0.875   1.796 -0.4959  0.3702  0.0725
   99MPD2    C1 1508   4.090   0.759   1.860  0.2428 -0.5281  0.0712
   99MPD2    C2 1509   4.139   0.658   1.786 -0.0772 -0.3109  0.2040
   99MPD2    C3 1510   4.151   0.664   1.647  0.1742 -0.5618  0.3392
   99MPD2    C4 1511   4.116   0.780   1.583 -0.0069 -0.1851  0.0211
   99MPD2    C5 1512   4.056   0.877   1.660 -0.3978 -0.0269  0.0528
   99MPD2     H 1513   4.164   0.564   1.833  1.0078  0.0193  0.2857
   99MPD2    H1 1514   4.136   0.798   1.478  1.0920 -1.9330 -0.0751
   99MPD2    H2 1515   4.023   0.967   1.845 -2.1457 -0.1284  0.0171
   99MPD2    H3 1516   4.028   0.969   1.611  1.8123 -0.0166 -1.1484
   99MPD2     N 1517   4.195   0.545   1.587  0.0580 -0.0567 -0.3421
   99MPD2    H5 1518   4.234   0.465   1.637 -0.6992 -1.1248 -1.4710
   99MPD2    N1 1519   4.071   0.739   2.001 -0.2347 -0.1711  0.1610
   99MPD2    H7 1520   4.088   0.646   2.037  2.3152 -0.1303 -0.9598
  100TCq2    C1 1521   4.040   0.828   2.094  0.5818 -0.3447 -0.1508
  100TCq2    O2 1522   4.019   0.949   2.088  0.0482  0.3003 -0.4715
  100TCq2    C2 1523   4.026   0.759   2.223  0.4450  0.2588  0.4687
  100TCq2    C3 1524   4.050   0.841   2.330  0.0335 -0.0555  0.6760
  100TCq2    C4 1525   4.062   0.779   2.456  0.3292 -0.5366 -0.6287
  100TCq2    C5 1526   4.043   0.647   2.466  0.3897 -0.2986  0.2057
  100TCq2    C6 1527   4.006   0.568   2.357  0.5091  0.0821 -0.8345
  100TCq2    C7 1528   4.006   0.624   2.231  0.6950 -0.5759  0.0901
  100TCq2    C8 1529   3.944   0.441   2.376 -0.3381  0.7931 -0.2448
  100TCq2    O4 1530   3.977   0.374   2.475  0.2862 -0.2590  0.2389
  100TCq2    C9 1531   4.093   0.860   2.570  0.1664  0.0156  0.7629
  100TCq2    O5 1532   4.094   0.983   2.546  0.3357  0.0803  0.0149
  100TCq2    O6 1533   4.096   0.803   2.676 -0.0223  0.2711  0.2964
  100TCq2    H2 1534   4.064   0.948   2.320  0.2073 -0.3651 -2.3726
  100TCq2    H3 1535   4.033   0.598   2.562  1.6597 -0.5708  0.2033
  100TCq2    H4 1536   3.997   0.558   2.145  1.3569 -0.0061 -0.4141
  101MPD2     C 1537   0.265   3.024  12.806  0.0002 -0.5622 -0.3970
  101MPD2    C1 1538   0.176   3.103  12.875 -0.0804  0.7359 -0.8162
  101MPD2    C2 1539   0.117   3.060  12.985 -0.0889 -0.0306 -0.1122
  101MPD2    C3 1540   0.139   2.933  13.039 -0.0261 -0.3503 -0.4375
  101MPD2    C4 1541   0.220   2.850  12.962  0.0081 -0.0964  0.2999
  101MPD2    C5 1542   0.298   2.906  12.861  0.2338 -0.1009  0.6044
  101MPD2     H 1543   0.053   3.126  13.041  0.7274  0.4068  0.2966
  101MPD2    H1 1544   0.235   2.745  12.984  1.0582  0.2073  1.0054
  101MPD2    H2 1545   0.314   3.055  12.714  0.1668 -1.6126 -0.6610
  101MPD2    H3 1546   0.365   2.837  12.809 -0.6545 -0.0459 -0.6175
  101MPD2     N 1547   0.063   2.880  13.142 -0.3134 -0.4303  0.0402
  101MPD2    H5 1548   4.696   2.921  13.153 -0.1164  0.6346 -2.1545
  101MPD2    N1 1549   0.154   3.233  12.824  0.1913  0.3947 -0.5061
  101MPD2    H7 1550   0.206   3.260  12.741 -0.2257  0.7567 -0.6440
  102TCq2    C1 1551   0.256   3.522  12.482  0.0255  0.0459 -0.6483
  102TCq2    O2 1552   0.358   3.471  12.529  0.6321  0.6501 -0.4762
  102TCq2    C2 1553   0.144   3.528  12.577 -0.3289  0.3849  0.5810
  102TCq2    C3 1554   0.021   3.566  12.532  0.3865  0.2216 -0.6666
  102TCq2    C4 1555   4.646   3.558  12.624 -0.2791  0.7503 -0.4520
  102TCq2    C5 1556   4.662   3.489  12.744  0.6190  0.1357 -0.4666
  102TCq2    C6 1557   0.059   3.441  12.779 -0.5604 -0.3307 -0.7783
  102TCq2    C7 1558   0.162   3.467  12.698 -0.2922  0.8110  0.5977
  102TCq2    C8 1559   0.051   3.322  12.861 -0.0736 -0.2772 -0.0408
  102TCq2    O4 1560   4.686   3.307  12.941 -0.1133 -0.3368  0.6227
  102TCq2    C9 1561   4.523   3.606  12.588  0.4186 -0.3951 -0.6336
  102TCq2    O5 1562   4.444   3.638  12.679  0.2530  0.2743 -0.1138
  102TCq2    O6 1563   4.499   3.612  12.468 -0.4637  0.0599  0.2438
  102TCq2    H2 1564   4.723   3.636  12.452 -0.0473 -0.6166 -1.2793
  102TCq2    H3 1565   4.576   3.463  12.805  2.2845  0.0579  1.8754
  102TCq2    H4 1566   0.262   3.432  12.725 -0.7394 -2.4259 -2.0130
  103TMC2    C1 1567   2.700   2.709  12.463 -0.2011 -0.2027 -0.1435
  103TMC2    C2 1568   2.791   2.815  12.460 -0.2062 -0.2378 -0.1301
  103TMC2    C3 1569   2.862   2.834  12.567  1.1311  0.8792 -0.8438
  103TMC2    C4 1570   2.666   2.643  12.570 -0.1828  0.4292 -0.3932
  103TMC2    C5 1571   2.725   2.684  12.683  0.0235 -0.4359  0.3060
  103TMC2    C6 1572   2.823   2.779  12.683  0.1207  0.0941  0.2338
  103TMC2     C 1573   2.638   2.675  12.332 -0.0834 -0.9524  0.1697
  103TMC2     O 1574   2.517   2.656  12.330 -0.0111 -0.3492 -0.0835
  103TMC2     H 1575   2.813   2.858  12.363 -1.0364  3.1884  1.1923
  103TMC2    H1 1576   2.589   2.567  12.561 -0.3697  0.6068 -0.2935
  103TMC2    H2 1577   2.880   2.793  12.774 -0.1766 -0.3205  0.4852
  103TMC2    C7 1578   2.697   2.607  12.803 -0.6440 -0.4070 -0.7176
  103TMC2    C8 1579   2.956   2.950  12.557  0.1877  0.5391 -0.3427
  103TMC2    O1 1580   2.789   2.616  12.883  0.5880  0.1319  0.1916
  103TMC2    O2 1581   2.940   3.039  12.476 -0.3335 -0.2674 -0.2542
  103TMC2    O5 1582   3.016   2.957  12.678  0.7098 -0.1142 -0.2725
  103TMC2    H5 1583   3.021   2.873  12.728  2.1543 -0.7809 -1.5352
  104MPD2     C 1584   2.804   2.634  12.006 -0.1421 -0.0194 -0.1097
  104MPD2    C1 1585   2.699   2.639  12.094  0.1550 -0.0250 -0.8806
  104MPD2    C2 1586   2.572   2.627  12.049  0.0790  0.5994  0.5083
  104MPD2    C3 1587   2.555   2.610  11.907  0.0082 -0.4087 -0.4996
  104MPD2    C4 1588   2.658   2.604  11.825 -1.1416 -0.1354 -0.1890
  104MPD2    C5 1589   2.783   2.616  11.875 -0.0105 -0.2331  0.7074
  104MPD2     H 1590   2.480   2.638  12.105 -2.1918 -1.0557 -2.9133
  104MPD2    H1 1591   2.649   2.583  11.719  0.0527 -1.2401 -0.0716
  104MPD2    H2 1592   2.900   2.663  12.050 -0.0946  1.3394 -1.1110
  104MPD2    H3 1593   2.863   2.612  11.802 -0.9599 -2.4327 -0.2310
  104MPD2     N 1594   2.421   2.587  11.861  0.4240 -0.7809  0.4554
  104MPD2    H5 1595   2.353   2.572  11.935 -0.9731 -1.2945 -0.9442
  104MPD2    N1 1596   2.727   2.672  12.226 -0.2547 -0.0824  0.5491
  104MPD2    H7 1597   2.821   2.668  12.266 -0.3251 -0.3056  0.6876
  105MPD2     C 1598   0.030   1.300   0.045 -0.0967  0.4614  0.9120
  105MPD2    C1 1599   4.685   1.418   0.028 -0.4126  0.4899 -0.3279
  105MPD2    C2 1600   4.603   1.466   0.126  1.0302  0.2922  0.5358
  105MPD2    C3 1601   4.564   1.382   0.237 -0.0953  0.1612 -0.2572
  105MPD2    C4 1602   4.635   1.263   0.251 -0.0970  0.0212  0.0122
  105MPD2    C5 1603   0.019   1.234   0.166 -0.0308  0.4678 -0.2676
  105MPD2     H 1604   4.546   1.557   0.113 -0.1411 -0.6134 -0.6202
  105MPD2    H1 1605   4.628   1.207   0.344 -0.3060 -0.6807 -0.4214
  105MPD2    H2 1606   0.126   1.284  17.696  0.0657  2.1571  0.6818
  105MPD2    H3 1607   0.088   1.153   0.187  0.0419  0.4603 -0.5303
  105MPD2     N 1608   4.458   1.415   0.326 -0.1838 -0.3068  0.2771
  105MPD2    H5 1609   4.420   1.508   0.316  2.1006  0.2198 -3.4713
  105MPD2    N1 1610   4.717   1.504  17.622  0.4291  0.2809  0.3597
  105MPD2    H7 1611   4.700   1.599  17.653 -1.1205  0.5472 -1.3717
  106TCq2    C1 1612   4.406   1.340   0.428 -0.3020  0.0454  0.6429
  106TCq2    O2 1613   4.432   1.228   0.465 -0.0602  0.2958  0.0343
  106TCq2    C2 1614   4.309   1.412   0.517  0.1706  0.4961  0.4483
  106TCq2    C3 1615   4.267   1.540   0.483  0.0897 -0.2697 -0.4503
  106TCq2    C4 1616   4.171   1.603   0.571  0.3721 -0.6873 -0.0313
  106TCq2    C5 1617   4.118   1.533   0.679 -0.1768 -0.2078  0.1896
  106TCq2    C6 1618   4.160   1.404   0.694 -0.1427 -0.0063 -0.0409
  106TCq2    C7 1619   4.255   1.346   0.625  0.7303  0.3515  0.4146
  106TCq2    C8 1620   4.104   1.326   0.799 -1.3982  0.1892  0.5912
  106TCq2    O4 1621   4.078   1.212   0.768  0.1003 -0.1179 -0.3075
  106TCq2    C9 1622   4.131   1.743   0.557  0.3455  0.1208 -0.3826
  106TCq2    O5 1623   4.180   1.810   0.463  0.2831 -0.2697  0.1797
  106TCq2    O6 1624   4.058   1.783   0.650  0.1994  0.4809 -0.4663
  106TCq2    H2 1625   4.315   1.608   0.413  0.5934 -0.2071 -0.0463
  106TCq2    H3 1626   4.047   1.573   0.751 -0.7775  0.5234 -0.8120
  106TCq2    H4 1627   4.281   1.246   0.656  0.3331  0.5255  1.2970
  107TMC2    C1 1628   4.706   1.175  11.561  0.2343  0.0075  0.2380
  107TMC2    C2 1629   4.720   1.066  11.640  0.1047  0.4178  0.5617
  107TMC2    C3 1630   0.015   0.940  11.576 -0.2824  0.6572 -0.0471
  107TMC2    C4 1631   4.701   1.164  11.423 -0.4007 -0.2817 -0.6366
  107TMC2    C5 1632   4.694   1.037  11.364 -0.4480  0.2543  0.2668
  107TMC2    C6 1633   4.707   0.925  11.441  0.0788  0.3017  0.3003
  107TMC2     C 1634   4.680   1.298  11.630  0.3747 -0.7780  0.1933
  107TMC2     O 1635   4.703   1.296  11.751  0.5986 -0.3145 -0.8683
  107TMC2     H 1636   0.001   1.077  11.748  1.1757 -1.4795  0.6867
  107TMC2    H1 1637   4.703   1.252  11.359  1.0589 -0.6257 -1.0551
  107TMC2    H2 1638   4.694   0.829  11.391 -0.4925  0.4532  0.1624
  107TMC2    C7 1639   4.648   1.014  11.233 -0.8894 -0.1246  0.7726
  107TMC2    C8 1640   0.037   0.819  11.646  0.1423  0.6674  0.1158
  107TMC2    O1 1641   4.577   0.913  11.221 -0.0960  0.4054  0.4942
  107TMC2    O2 1642   4.704   0.711  11.636 -0.3674  0.3295 -0.6242
  107TMC2    O5 1643   0.114   0.868  11.745 -0.2807  0.6270 -0.0505
  107TMC2    H5 1644   0.170   0.943  11.715  0.4508 -0.2077 -0.7733
  108MPD2     C 1645   4.597   1.615  11.477 -0.3161 -0.4253 -0.5420
  108MPD2    C1 1646   4.617   1.530  11.578  0.1794 -0.0347 -0.1495
  108MPD2    C2 1647   4.604   1.577  11.709  0.1829  0.2240 -0.4990
  108MPD2    C3 1648   4.565   1.705  11.736 -0.1493  0.3765  0.7047
  108MPD2    C4 1649   4.542   1.792  11.633 -0.0382  0.4582  1.0474
  108MPD2    C5 1650   4.556   1.743  11.503 -0.3266 -0.5460  0.5719
  108MPD2     H 1651   4.628   1.505  11.787  0.0044  1.9303  1.1449
  108MPD2    H1 1652   4.521   1.893  11.666 -1.4322  0.0613  1.3844
  108MPD2    H2 1653   4.596   1.578  11.375  0.8458  0.3567 -0.8385
  108MPD2    H3 1654   4.530   1.813  11.425 -1.8011 -1.2893  0.3947
  108MPD2     N 1655   4.545   1.758  11.869 -0.6895 -0.1768 -0.1743
  108MPD2    H5 1656   4.518   1.856  11.878 -0.4332 -0.1300  0.0947
  108MPD2    N1 1657   4.661   1.402  11.540  0.0942  0.4096 -0.0321
  108MPD2    H7 1658   4.645   1.383  11.441 -3.9733 -0.9267  0.8656
  109MPD2     C 1659   0.949   2.784   2.210  0.2023 -0.3447  0.6168
  109MPD2    C1 1660   0.893   2.904   2.183  0.0465 -0.5647 -0.2850
  109MPD2    C2 1661   0.978   3.015   2.168  0.0347 -0.5844 -0.5655
  109MPD2    C3 1662   1.117   3.002   2.182  0.1888  1.2622  0.1024
  109MPD2    C4 1663   1.172   2.875   2.209  0.2953 -0.2705  0.2844
  109MPD2    C5 1664   1.084   2.772   2.221 -0.2871  0.2869  1.3380
  109MPD2     H 1665   0.928   3.104   2.133  0.1691  0.0566  0.8739
  109MPD2    H1 1666   1.276   2.853   2.233 -0.1607 -0.1636  2.3278
  109MPD2    H2 1667   0.881   2.700   2.219  1.8248 -1.7460 -0.1168
  109MPD2    H3 1668   1.127   2.679   2.257  0.3992  0.3674  0.7324
  109MPD2     N 1669   1.210   3.112   2.153  0.0234  0.2221 -0.0971
  109MPD2    H5 1670   1.178   3.206   2.132  0.9629  0.8074  1.1093
  109MPD2    N1 1671   0.750   2.901   2.165 -0.8065 -0.2855 -0.3385
  109MPD2    H7 1672   0.704   2.811   2.158 -0.2282 -0.6998  1.0700
  110TCq2    C1 1673   1.347   3.113   2.166 -0.4054 -0.2072  0.7218
  110TCq2    O2 1674   1.420   3.021   2.194 -0.5967 -0.2817  0.4553
  110TCq2    C2 1675   1.410   3.243   2.135 -0.3048 -0.5168 -0.6768
  110TCq2    C3 1676   1.545   3.250   2.163 -0.4745  0.2987  0.0058
  110TCq2    C4 1677   1.614   3.366   2.119 -1.2290  0.2591  0.5112
  110TCq2    C5 1678   1.544   3.465   2.051 -0.1500 -0.4915  0.4637
  110TCq2    C6 1679   1.413   3.456   2.022  0.3426  0.2695  0.4697
  110TCq2    C7 1680   1.342   3.336   2.057 -1.3758  0.3552 -0.0252
  110TCq2    C8 1681   1.356   3.530   1.912  0.6918 -0.9483  0.0930
  110TCq2    O4 1682   1.256   3.486   1.857 -0.1271 -0.3185 -0.6263
  110TCq2    C9 1683   1.756   3.376   2.143  0.2734 -0.6945  0.5120
  110TCq2    O5 1684   1.795   3.296   2.227  0.3219  0.3540  0.0139
  110TCq2    O6 1685   1.806   3.483   2.097 -0.1936 -0.0714  0.6283
  110TCq2    H2 1686   1.596   3.173   2.219 -0.0211 -0.2268 -1.1369
  110TCq2    H3 1687   1.596   3.551   2.010  1.0161 -1.2208  0.4164
  110TCq2    H4 1688   1.239   3.320   2.025 -0.7371 -0.8090 -1.4973
  111TMC2    C1 1689   4.653   3.299  11.399  0.1574 -0.6104  0.1838
  111TMC2    C2 1690   4.667   3.417  11.450 -0.1763 -0.1640 -0.2671
  111TMC2    C3 1691   0.014   3.429  11.565 -0.5493 -0.0224 -0.7789
  111TMC2    C4 1692   4.711   3.187  11.452  0.3592 -0.0085  0.3145
  111TMC2    C5 1693   0.055   3.196  11.572 -0.8063  0.2465  0.3562
  111TMC2    C6 1694   0.075   3.317  11.623  0.0177  0.0096 -0.5761
  111TMC2     C 1695   4.596   3.272  11.268 -0.2672  0.6601 -0.3076
  111TMC2     O 1696   4.619   3.170  11.209 -0.6254  0.2578  0.3544
  111TMC2     H 1697   4.622   3.503  11.401  1.6784 -0.2178 -2.0604
  111TMC2    H1 1698   4.677   3.092  11.412  1.4271  0.6130 -2.0686
  111TMC2    H2 1699   0.142   3.332  11.707  0.2653 -2.7325 -0.2970
  111TMC2    C7 1700   0.159   3.103  11.601 -0.7378 -0.2278 -0.0257
  111TMC2    C8 1701   0.036   3.559  11.626  0.3680  0.3051  0.0853
  111TMC2    O1 1702   0.222   3.128  11.701 -0.1037 -0.1165 -0.3290
  111TMC2    O2 1703   0.075   3.568  11.739  0.0764  0.5403  0.7471
  111TMC2    O5 1704   0.031   3.663  11.532 -0.3990  0.0494 -0.0408
  111TMC2    H5 1705   0.020   3.640  11.437  0.7463 -0.7471  0.0202
  112MPD2     C 1706   4.271   3.400  10.891  0.1962 -0.4058  0.8148
  112MPD2    C1 1707   4.377   3.308  10.889 -0.2757 -0.2042 -0.5771
  112MPD2    C2 1708   4.454   3.290  11.007  0.3868  0.1910 -0.6903
  112MPD2    C3 1709   4.422   3.371  11.123 -0.4821  0.3830  0.3100
  112MPD2    C4 1710   4.316   3.463  11.119  0.1954 -0.0016  0.0888
  112MPD2    C5 1711   4.242   3.475  11.003 -0.0020 -0.3643  0.1901
  112MPD2     H 1712   4.551   3.242  11.006  0.3118  0.0042  1.9324
  112MPD2    H1 1713   4.300   3.523  11.209 -1.8424  0.0264 -0.2816
  112MPD2    H2 1714   4.225   3.430  10.798  0.1673  2.9531  1.9024
  112MPD2    H3 1715   4.168   3.553  10.989  1.0555  0.5707 -0.1565
  112MPD2     N 1716   4.495   3.366  11.240 -0.2182 -0.1533  0.7335
  112MPD2    H5 1717   4.461   3.428  11.312  2.6934  1.2398  0.9175
  112MPD2    N1 1718   4.412   3.248  10.771 -0.5375 -0.7625  0.1172
  112MPD2    H7 1719   4.504   3.204  10.771 -0.7786 -1.2476  0.9175
  113MPD2     C 1720   2.947   1.114   1.157 -0.4310  0.6637 -1.1658
  113MPD2    C1 1721   3.050   1.022   1.176 -0.4140  0.5657 -0.5156
  113MPD2    C2 1722   3.054   0.916   1.091  0.2703  0.1612 -0.0986
  113MPD2    C3 1723   2.962   0.898   0.987 -0.8879  0.0323  0.2725
  113MPD2    C4 1724   2.863   0.993   0.972  0.1156 -0.3666  0.4184
  113MPD2    C5 1725   2.862   1.104   1.050  0.0663  0.2975 -0.0638
  113MPD2     H 1726   3.118   0.828   1.099  0.2161 -0.0343 -1.7553
  113MPD2    H1 1727   2.787   0.980   0.895 -1.7407  1.5664  1.9420
  113MPD2    H2 1728   2.929   1.197   1.225 -0.3155 -0.1329 -0.1661
  113MPD2    H3 1729   2.788   1.178   1.024  0.0460  0.9405  1.8247
  113MPD2     N 1730   2.954   0.782   0.902  0.4544 -0.3082 -0.0850
  113MPD2    H5 1731   2.864   0.773   0.855  0.9995 -0.0416 -1.1792
  113MPD2    N1 1732   3.146   1.024   1.279 -0.4868  0.3572 -0.4357
  113MPD2    H7 1733   3.219   0.954   1.272 -0.7716  0.1826 -1.7778
  114TCq2    C1 1734   3.034   0.672   0.901 -0.4063  0.1933 -0.5085
  114TCq2    O2 1735   3.128   0.647   0.976 -0.0842 -0.5875 -0.1515
  114TCq2    C2 1736   2.970   0.567   0.819  1.0223  0.1237 -0.2120
  114TCq2    C3 1737   2.887   0.603   0.716  0.4673 -0.3455  0.6910
  114TCq2    C4 1738   2.794   0.511   0.665 -0.9356  0.3381 -0.5211
  114TCq2    C5 1739   2.807   0.379   0.696 -0.0720 -0.1197 -0.4256
  114TCq2    C6 1740   2.894   0.349   0.801  0.4725  0.3409  0.0204
  114TCq2    C7 1741   2.973   0.438   0.866 -0.2374 -0.2793  0.3168
  114TCq2    C8 1742   2.899   0.205   0.839 -0.4581  0.5923  0.2614
  114TCq2    O4 1743   2.903   0.114   0.758 -0.6266  0.0111 -0.3559
  114TCq2    C9 1744   2.694   0.556   0.569  0.3326 -0.7367  0.8140
  114TCq2    O5 1745   2.725   0.677   0.538  0.2366 -0.0280 -0.9032
  114TCq2    O6 1746   2.601   0.481   0.524 -0.7129  0.7566  0.2003
  114TCq2    H2 1747   2.903   0.696   0.664  0.2994 -1.2508 -0.9734
  114TCq2    H3 1748   2.741   0.305   0.651  1.1045 -2.8561  2.3911
  114TCq2    H4 1749   3.052   0.410   0.934  0.3682 -0.1610 -0.3359
  115TMC2    C1 1750   4.059   3.868   0.145 -0.1236 -0.9853 -0.1441
  115TMC2    C2 1751   4.153   3.922   0.226 -0.0659  0.5602 -0.1644
  115TMC2    C3 1752   4.169   4.051   0.230  0.4088 -0.8686 -0.5708
  115TMC2    C4 1753   3.979   3.943   0.067  0.7459  0.7618 -0.2644
  115TMC2    C5 1754   4.014   4.073   0.057  0.9731  0.7845 -0.2316
  115TMC2    C6 1755   4.107   4.133   0.136  0.3525 -0.5127  0.3016
  115TMC2     C 1756   4.051   3.729   0.136  0.7426  0.1699 -0.3275
  115TMC2     O 1757   4.011   3.695   0.026 -0.5987 -0.3918 -0.0689
  115TMC2     H 1758   4.213   3.865   0.296 -0.4698  0.7684  0.3513
  115TMC2    H1 1759   3.907   3.899  17.699  0.4881 -0.0655  0.5513
  115TMC2    H2 1760   4.102   4.241   0.138  2.2521 -0.3822 -1.3000
  115TMC2    C7 1761   3.944   4.147  17.652  0.2614  0.2172 -0.7988
  115TMC2    C8 1762   4.295   4.098   0.282 -0.1192  0.2702 -0.0930
  115TMC2    O1 1763   3.834   4.105  17.627 -0.7602  0.4604  0.4212
  115TMC2    O2 1764   4.392   4.025   0.274  0.0986 -0.0173  0.8464
  115TMC2    O5 1765   4.293   4.232   0.268  0.0542  0.0187  0.0132
  115TMC2    H5 1766   4.208   4.272   0.296 -1.0438 -0.1636 -2.9810
  116MPD2     C 1767   4.164   3.245   0.271  0.2573 -0.9172 -0.4994
  116MPD2    C1 1768   4.102   3.289   0.153  0.0131 -0.7941 -0.1025
  116MPD2    C2 1769   4.082   3.430   0.146  0.1137 -0.1146 -0.3629
  116MPD2    C3 1770   4.115   3.514   0.248 -0.1410 -0.2980 -0.5237
  116MPD2    C4 1771   4.164   3.463   0.369 -0.3555  0.1143 -0.6914
  116MPD2    C5 1772   4.186   3.328   0.378 -0.3151  0.2668 -0.3097
  116MPD2     H 1773   4.039   3.472   0.056 -1.3187  0.0105  0.3926
  116MPD2    H1 1774   4.178   3.525   0.456 -1.8578  1.5042 -1.4457
  116MPD2    H2 1775   4.162   3.138   0.288 -0.8291 -0.6138  1.2318
  116MPD2    H3 1776   4.223   3.278   0.466 -0.0821  2.0376  0.5941
  116MPD2     N 1777   4.101   3.655   0.240  0.3593 -0.6375  0.0828
  116MPD2    H5 1778   4.112   3.710   0.324  4.0693  0.7992 -1.3636
  116MPD2    N1 1779   4.082   3.203   0.046  0.2630 -0.0677  0.5704
  116MPD2    H7 1780   4.103   3.105   0.060 -1.5623 -0.9044 -2.5257
  117TMC2    C1 1781   2.600   0.015  14.094 -0.4919 -0.9068  0.3133
  117TMC2    C2 1782   2.658   4.654  14.008 -0.9510 -0.2771  0.1669
  117TMC2    C3 1783   2.764   4.698  13.944 -0.2203 -0.0340  0.5526
  117TMC2    C4 1784   2.635   0.146  14.099  0.2331 -0.6488  0.2494
  117TMC2    C5 1785   2.748   0.186  14.036  0.3497 -0.3446  0.0678
  117TMC2    C6 1786   2.814   0.096  13.967 -0.5116 -0.4290 -0.4465
  117TMC2     C 1787   2.479   4.703  14.169  0.4773 -0.1110 -0.1422
  117TMC2     O 1788   2.462   4.596  14.225  0.2083 -0.1523 -0.2705
  117TMC2     H 1789   2.624   4.552  13.994  1.5177 -1.0807  0.0219
  117TMC2    H1 1790   2.589   0.217  14.167  1.3627  0.2716  0.0468
  117TMC2    H2 1791   2.894   0.138  13.908 -0.9417  2.2820  0.8992
  117TMC2    C7 1792   2.745   0.320  13.985  0.6718 -0.5585  0.2018
  117TMC2    C8 1793   2.792   4.623  13.823 -0.1351 -0.3928  0.5827
  117TMC2    O1 1794   2.856   0.372  13.946  0.5730 -0.6282  0.4712
  117TMC2    O2 1795   2.708   4.563  13.763  0.6163 -0.1655 -0.0018
  117TMC2    O5 1796   2.923   4.633  13.788  0.0445 -0.3041 -0.3089
  117TMC2    H5 1797   2.985   4.677  13.851 -0.3076 -0.0091 -0.1687
  118MPD2     C 1798   2.428   0.523  13.950  1.0658 -0.6109 -0.6068
  118MPD2    C1 1799   2.567   0.496  13.954  0.6843 -0.1761 -0.1661
  118MPD2    C2 1800   2.649   0.608  13.954 -0.2302  0.3132 -0.0484
  118MPD2    C3 1801   2.601   0.741  13.961 -1.0636 -0.3585  0.2102
  118MPD2    C4 1802   2.463   0.760  13.952 -0.4104 -0.3325 -0.5706
  118MPD2    C5 1803   2.383   0.652  13.943  0.0826 -0.4425  0.4268
  118MPD2     H 1804   2.756   0.598  13.968  0.1611  0.0359 -3.2459
  118MPD2    H1 1805   2.427   0.862  13.938  0.1043  0.2800  2.5329
  118MPD2    H2 1806   2.348   0.449  13.954 -0.4355  0.9912 -1.0444
  118MPD2    H3 1807   2.275   0.665  13.938  0.1655  0.9325  2.4063
  118MPD2     N 1808   2.688   0.847  13.948  0.2922  1.2541 -0.7045
  118MPD2    H5 1809   2.642   0.938  13.939 -0.2356  1.0968  0.3862
  118MPD2    N1 1810   2.614   0.362  13.975  0.0471 -0.4767 -0.2625
  118MPD2    H7 1811   2.543   0.289  13.971 -1.2847  0.9900 -3.2448
  119MPD2     C 1812   1.140   1.702  14.324  0.0902 -0.3488  0.6523
  119MPD2    C1 1813   1.008   1.737  14.322 -0.1933 -0.1868 -0.6175
  119MPD2    C2 1814   0.950   1.756  14.196 -0.5267  0.8002 -0.4988
  119MPD2    C3 1815   1.014   1.742  14.084 -0.2994 -0.3471 -0.1032
  119MPD2    C4 1816   1.144   1.703  14.086 -0.3917  0.4459 -0.2642
  119MPD2    C5 1817   1.206   1.687  14.206  0.6321  0.2749  0.3021
  119MPD2     H 1818   0.851   1.799  14.191  0.9250  4.3221  0.9412
  119MPD2    H1 1819   1.187   1.687  13.988 -2.2925 -2.6915 -0.5742
  119MPD2    H2 1820   1.201   1.685  14.413  0.2952 -0.0772  0.5623
  119MPD2    H3 1821   1.312   1.665  14.203  0.3457 -1.0353 -0.0310
  119MPD2     N 1822   0.952   1.752  13.953  0.0198 -0.2775  0.0524
  119MPD2    H5 1823   1.004   1.758  13.866  0.4535  1.6659  0.4424
  119MPD2    N1 1824   0.935   1.745  14.449  0.6668  0.2285 -0.2039
  119MPD2    H7 1825   0.994   1.755  14.531 -1.0800 -2.0259  1.2714
  120TCq2    C1 1826   0.815   1.741  13.937  0.4663  0.9479  0.4336
  120TCq2    O2 1827   0.725   1.737  14.020 -0.2419 -0.4166  0.1175
  120TCq2    C2 1828   0.780   1.734  13.799  0.6331 -0.4898  0.1709
  120TCq2    C3 1829   0.854   1.793  13.700  0.2305  0.2328  0.0585
  120TCq2    C4 1830   0.796   1.803  13.575  1.0367  0.4199 -0.8553
  120TCq2    C5 1831   0.672   1.751  13.549 -0.8495  0.2195  1.2113
  120TCq2    C6 1832   0.609   1.694  13.652  0.3979  0.5431  0.5289
  120TCq2    C7 1833   0.661   1.685  13.778 -0.1261 -0.1838 -0.2208
  120TCq2    C8 1834   0.462   1.673  13.634 -1.2733 -0.0230 -0.0696
  120TCq2    O4 1835   0.415   1.688  13.523 -0.0211 -0.4493 -0.8113
  120TCq2    C9 1836   0.879   1.854  13.471 -0.7242  0.7108 -0.9503
  120TCq2    O5 1837   0.831   1.844  13.353  0.3988 -0.2737 -0.1639
  120TCq2    O6 1838   1.005   1.865  13.494 -0.4682  0.2944 -0.5119
  120TCq2    H2 1839   0.956   1.827  13.716 -0.7634  2.7188  1.1539
  120TCq2    H3 1840   0.628   1.772  13.452 -2.7399 -3.9070  1.1692
  120TCq2    H4 1841   0.608   1.632  13.857  2.3886  0.4675  1.8809
  121TMC2    C1 1842   2.369   3.543  14.115  0.4689 -0.6772  0.3027
  121TMC2    C2 1843   2.333   3.427  14.180 -0.5230  0.1008  0.4871
  121TMC2    C3 1844   2.226   3.359  14.131  0.0591 -0.4672  0.1242
  121TMC2    C4 1845   2.281   3.612  14.029  0.2483 -0.1011 -0.2902
  121TMC2    C5 1846   2.177   3.528  13.981 -0.2322  0.3475 -0.2394
  121TMC2    C6 1847   2.150   3.403  14.027  0.2385 -0.2139  0.8384
  121TMC2     C 1848   2.487   3.619  14.149  0.8405  0.5395  0.1100
  121TMC2     O 1849   2.500   3.636  14.266  0.4132  0.4345 -0.6092
  121TMC2     H 1850   2.389   3.398  14.268  0.7174 -0.4257 -0.4726
  121TMC2    H1 1851   2.293   3.706  13.976 -0.0807 -0.5690 -1.2043
  121TMC2    H2 1852   2.082   3.333  13.980  2.1597 -1.1893 -0.4710
  121TMC2    C7 1853   2.103   3.567  13.856  0.4161 -0.7242 -0.0576
  121TMC2    C8 1854   2.200   3.236  14.201 -0.2676 -0.4847 -0.4474
  121TMC2    O1 1855   2.149   3.661  13.794 -0.4730 -0.0973 -0.0500
  121TMC2    O2 1856   2.281   3.160  14.253 -0.0270  0.1973  0.1249
  121TMC2    O5 1857   2.078   3.267  14.249 -0.0547 -0.4837 -0.3188
  121TMC2    H5 1858   2.043   3.351  14.213 -0.4863 -0.4411  0.1886
  122MPD2     C 1859   2.720   3.798  14.154 -0.6681 -0.2087 -0.4460
  122MPD2    C1 1860   2.650   3.767  14.042 -0.0033  0.4481  0.1311
  122MPD2    C2 1861   2.690   3.824  13.924  0.2805 -0.2744 -0.4893
  122MPD2    C3 1862   2.808   3.898  13.916 -0.7339 -0.0553  0.3142
  122MPD2    C4 1863   2.887   3.910  14.023 -0.5449  0.0120  0.8615
  122MPD2    C5 1864   2.836   3.873  14.146 -0.5663 -1.0891  0.1667
  122MPD2     H 1865   2.637   3.804  13.832  1.3779  0.5394 -1.3055
  122MPD2    H1 1866   2.977   3.971  14.021  0.0821 -0.9806 -1.7619
  122MPD2    H2 1867   2.679   3.771  14.251  1.2054  1.1310  0.7133
  122MPD2    H3 1868   2.884   3.894  14.241 -1.7304  2.2724  0.0251
  122MPD2     N 1869   2.867   3.946  13.801 -0.2778  0.4817  0.0416
  122MPD2    H5 1870   2.957   3.993  13.804  0.9084 -1.7944  0.0396
  122MPD2    N1 1871   2.539   3.683  14.042 -0.3317 -0.1807 -0.4362
  122MPD2    H7 1872   2.500   3.668  13.949 -3.0846  2.9047  0.2120
  123MPD2     C 1873   4.655   2.569   9.241 -0.3993  0.0894 -0.4639
  123MPD2    C1 1874   4.721   2.463   9.298  0.1184 -0.6861 -0.3687
  123MPD2    C2 1875   0.134   2.478   9.318  0.2108  0.0845 -0.1724
  123MPD2    C3 1876   0.198   2.596   9.276  0.6791 -0.1500 -0.3349
  123MPD2    C4 1877   0.131   2.706   9.221 -0.5190 -0.1783 -0.6300
  123MPD2    C5 1878   4.719   2.685   9.207  0.0579 -0.5789 -0.2531
  123MPD2     H 1879   0.182   2.389   9.355  0.2386  1.7361  3.7344
  123MPD2    H1 1880   0.178   2.798   9.186  1.3597 -0.9920 -0.2547
  123MPD2    H2 1881   4.548   2.577   9.224 -0.5107 -1.2766 -0.3846
  123MPD2    H3 1882   4.664   2.756   9.146  1.5205  1.9409  1.3567
  123MPD2     N 1883   0.345   2.600   9.281  0.0493 -0.4781 -0.3587
  123MPD2    H5 1884   0.377   2.521   9.337 -1.2430 -2.4263 -2.3419
  123MPD2    N1 1885   4.652   2.346   9.345 -0.0140 -0.0503  0.3045
  123MPD2    H7 1886   4.561   2.331   9.303  0.1390 -1.3294  0.4509
  124TCq2    C1 1887   0.426   2.680   9.204 -0.7537  0.1035  0.2768
  124TCq2    O2 1888   0.391   2.755   9.111 -0.1976  0.0737  0.5031
  124TCq2    C2 1889   0.560   2.638   9.227 -1.0667 -0.0310 -0.1935
  124TCq2    C3 1890   0.642   2.629   9.114 -0.0740  0.3001 -0.1603
  124TCq2    C4 1891   0.750   2.545   9.116  0.4620  0.5434 -0.3214
  124TCq2    C5 1892   0.773   2.452   9.219  0.2509  0.7072  0.1514
  124TCq2    C6 1893   0.700   2.471   9.335  0.4094  0.2583 -0.3300
  124TCq2    C7 1894   0.591   2.567   9.342 -0.7842 -0.0635 -0.6396
  124TCq2    C8 1895   0.725   2.393   9.462 -0.2264 -0.1060 -0.7734
  124TCq2    O4 1896   0.633   2.379   9.541  0.0530  0.3459 -1.1633
  124TCq2    C9 1897   0.825   2.518   9.001 -0.1332 -0.0959  0.6197
  124TCq2    O5 1898   0.894   2.410   8.994  0.5817  0.3882  0.0291
  124TCq2    O6 1899   0.804   2.579   8.899  0.6206  0.0109 -0.0138
  124TCq2    H2 1900   0.606   2.679   9.024 -0.4341 -0.6879 -0.5654
  124TCq2    H3 1901   0.853   2.378   9.211 -1.6035 -0.9719 -2.7132
  124TCq2    H4 1902   0.534   2.576   9.434 -0.3985 -0.0300 -0.4018
  125TMC2    C1 1903   1.602   3.305   9.203 -0.2871 -0.2334 -0.4039
  125TMC2    C2 1904   1.474   3.261   9.173  0.4217  0.9400  0.3947
  125TMC2    C3 1905   1.369   3.343   9.198  0.5192 -0.3899 -0.2766
  125TMC2    C4 1906   1.617   3.430   9.269 -0.0696  0.1948  0.2323
  125TMC2    C5 1907   1.508   3.500   9.301 -0.2270 -0.3154  0.5898
  125TMC2    C6 1908   1.384   3.462   9.264  0.5664  0.4681 -0.0468
  125TMC2     C 1909   1.724   3.234   9.158 -0.4498 -0.6105 -0.4112
  125TMC2     O 1910   1.701   3.117   9.128  0.0070  0.5814 -0.2849
  125TMC2     H 1911   1.460   3.166   9.121  0.8674  0.4686  1.1418
  125TMC2    H1 1912   1.718   3.467   9.285  0.6691 -1.3692 -0.7335
  125TMC2    H2 1913   1.299   3.525   9.286  1.0723  1.6405 -1.4845
  125TMC2    C7 1914   1.519   3.630   9.366 -0.5661  0.2120  0.5417
  125TMC2    C8 1915   1.235   3.299   9.182 -0.3654  0.0699  0.3496
  125TMC2    O1 1916   1.429   3.714   9.339  0.2957 -0.2829  0.1131
  125TMC2    O2 1917   1.149   3.314   9.268  0.5478 -0.5918 -0.0958
  125TMC2    O5 1918   1.214   3.267   9.052 -0.3421  0.1071  0.1630
  125TMC2    H5 1919   1.299   3.259   9.003 -0.5073 -3.2750  0.4553
  126MPD1     C 1920   2.222   3.177   9.009 -0.0785 -0.3390  0.1905
  126MPD1    C1 1921   2.200   3.311   9.040 -0.4953  0.3251  1.0035
  126MPD1    C2 1922   2.071   3.350   9.076  0.2459 -1.2655 -0.5279
  126MPD1    C3 1923   1.965   3.260   9.103  0.0810 -0.2341  0.3407
  126MPD1    C4 1924   1.997   3.125   9.089  0.0916  0.4505 -0.3223
  126MPD1    C5 1925   2.120   3.085   9.046 -0.3656 -0.0920 -0.3452
  126MPD1     H 1926   2.060   3.456   9.099  0.3773 -1.1558 -0.9641
  126MPD1    H1 1927   1.931   3.046   9.124  0.3845 -0.0295 -0.8411
  126MPD1    H2 1928   2.318   3.149   8.968 -0.1312 -0.5991  0.2447
  126MPD1    H3 1929   2.137   2.981   9.023  0.5656  0.3540 -1.6822
  126MPD1     N 1930   1.841   3.310   9.147  0.2417  0.4017 -0.1582
  126MPD1    H5 1931   1.833   3.407   9.176  0.0303  0.3050  0.1056
  126MPD1    N1 1932   2.297   3.405   9.006  0.1259 -0.2614 -0.4403
  126MPD1    H6 1933   2.287   3.491   9.060  2.6487  0.5948 -1.3143
  126MPD1    H7 1934   2.389   3.373   9.036  0.8865  3.4041  1.1692
  127MPD2     C 1935   1.671   2.429   9.456  0.5095 -0.1510  0.1131
  127MPD2    C1 1936   1.777   2.344   9.472 -0.3115  0.2775  0.5839
  127MPD2    C2 1937   1.905   2.394   9.504 -0.2171  0.5047 -0.5267
  127MPD2    C3 1938   1.919   2.525   9.527 -0.2994 -0.1283  0.6086
  127MPD2    C4 1939   1.810   2.610   9.522 -0.1899 -0.2486 -0.6481
  127MPD2    C5 1940   1.688   2.562   9.480  0.3221 -0.2403  0.0636
  127MPD2     H 1941   1.991   2.330   9.521  0.4406  1.3889 -0.5015
  127MPD2    H1 1942   1.815   2.715   9.549 -0.7759 -0.0980 -1.1366
  127MPD2    H2 1943   1.574   2.400   9.418  1.2110 -1.6223 -0.5352
  127MPD2    H3 1944   1.599   2.623   9.475 -0.1446 -0.8283  1.4901
  127MPD2     N 1945   2.044   2.573   9.567  0.2226 -0.2231  0.0109
  127MPD2    H5 1946   2.119   2.504   9.570 -0.7907 -1.3450 -0.3093
  127MPD2    N1 1947   1.747   2.205   9.459  0.2653 -0.0943  0.4775
  127MPD2    H7 1948   1.649   2.183   9.445  0.5319 -0.6734 -0.4882
  128TCq2    C1 1949   1.830   2.098   9.492 -0.6606 -0.5318  1.1343
  128TCq2    O2 1950   1.944   2.104   9.531 -0.9232 -0.3062 -0.4556
  128TCq2    C2 1951   1.766   1.965   9.467  0.7307  0.0772 -0.2149
  128TCq2    C3 1952   1.682   1.948   9.359 -0.0268  0.0344  0.6188
  128TCq2    C4 1953   1.632   1.823   9.334  0.2334 -0.2735 -0.1715
  128TCq2    C5 1954   1.679   1.713   9.410  1.1553  0.1804  0.9576
  128TCq2    C6 1955   1.774   1.735   9.499  0.2787 -0.7431 -0.0025
  128TCq2    C7 1956   1.824   1.859   9.534 -0.6224  0.0864 -0.0048
  128TCq2    C8 1957   1.807   1.634   9.600  0.8917 -0.6980 -0.2591
  128TCq2    O4 1958   1.908   1.649   9.665  0.1497 -0.2747  0.3124
  128TCq2    C9 1959   1.509   1.808   9.257 -0.2882  0.3054 -0.2912
  128TCq2    O5 1960   1.473   1.903   9.185 -0.2639  0.0221  0.1884
  128TCq2    O6 1961   1.445   1.700   9.271 -0.1329  0.4646  0.3339
  128TCq2    H2 1962   1.646   2.039   9.312 -0.6192 -0.3736  0.2752
  128TCq2    H3 1963   1.642   1.612   9.397  2.1525  0.0239 -0.7215
  128TCq2    H4 1964   1.898   1.876   9.611 -0.7102  0.6672 -0.0454
  129MPD2     C 1965   1.576   3.006   1.872  0.3099 -0.1608 -0.6172
  129MPD2    C1 1966   1.466   3.029   1.790 -0.4635 -0.2014  0.0163
  129MPD2    C2 1967   1.461   3.143   1.719 -0.3086 -0.0277  0.5481
  129MPD2    C3 1968   1.568   3.229   1.713 -0.1797 -0.5704  0.1169
  129MPD2    C4 1969   1.672   3.212   1.803  0.0383 -0.6104 -0.0870
  129MPD2    C5 1970   1.675   3.097   1.879  0.1909 -0.5496  0.4349
  129MPD2     H 1971   1.374   3.152   1.655  0.1751 -0.1708 -0.1190
  129MPD2    H1 1972   1.749   3.288   1.809 -0.9314  0.4874 -1.5491
  129MPD2    H2 1973   1.572   2.927   1.947  1.2969  0.1316 -0.2586
  129MPD2    H3 1974   1.746   3.071   1.957  0.5729  0.3509  0.3771
  129MPD2     N 1975   1.552   3.347   1.637  0.6538 -0.3244 -0.7453
  129MPD2    H5 1976   1.462   3.360   1.590  0.4915 -1.2797 -0.7045
  129MPD2    N1 1977   1.346   2.961   1.792  0.1640 -0.0599  0.3903
  129MPD2    H7 1978   1.268   2.999   1.739  0.3715 -0.2103 -0.0216
  130TCq2    C1 1979   1.322   2.838   1.855 -0.4258  0.2101 -0.8868
  130TCq2    O2 1980   1.400   2.753   1.897 -0.0154  0.2166 -0.2246
  130TCq2    C2 1981   1.177   2.817   1.842  0.0903 -0.1075 -0.1233
  130TCq2    C3 1982   1.089   2.919   1.811 -0.4927 -0.0080 -0.0887
  130TCq2    C4 1983   0.959   2.889   1.782  0.5187 -0.3750  0.4607
  130TCq2    C5 1984   0.912   2.761   1.783  0.0005  0.4981  0.0917
  130TCq2    C6 1985   1.009   2.667   1.810 -0.0451 -0.0345 -0.2162
  130TCq2    C7 1986   1.138   2.692   1.825 -0.2879 -0.7358 -0.2143
  130TCq2    C8 1987   0.972   2.524   1.817  0.6053  0.9305 -0.6574
  130TCq2    O4 1988   0.855   2.510   1.836  0.7175  0.4535  0.6044
  130TCq2    C9 1989   0.858   2.994   1.749 -0.2974 -0.0523 -0.1547
  130TCq2    O5 1990   0.897   3.115   1.745 -0.0508  0.1139 -0.0022
  130TCq2    O6 1991   0.746   2.955   1.694  0.3012  0.4126  0.3015
  130TCq2    H2 1992   1.115   3.023   1.826  0.6494 -0.4247  0.8358
  130TCq2    H3 1993   0.809   2.739   1.756  0.2286 -1.4930  0.8324
  130TCq2    H4 1994   1.209   2.611   1.839  2.2079  1.5820  0.5281
  131MPD2     C 1995   0.091   1.889  10.196 -0.3844  0.1935  0.0668
  131MPD2    C1 1996   0.145   1.988  10.123  0.1834  0.3772  0.3552
  131MPD2    C2 1997   0.110   2.009   9.987  0.3809  0.2286  0.1496
  131MPD2    C3 1998   0.014   1.925   9.931 -0.5832 -0.0296 -0.4227
  131MPD2    C4 1999   4.706   1.812  10.005  0.4108  0.1348  0.0841
  131MPD2    C5 2000   0.014   1.797  10.138  0.0620 -0.0810  0.3395
  131MPD2     H 2001   0.142   2.096   9.930  0.2772  2.2995  3.2611
  131MPD2    H1 2002   4.636   1.738   9.968  0.7677 -0.0356 -0.2649
  131MPD2    H2 2003   0.115   1.878  10.301 -0.5960 -1.1272 -0.0299
  131MPD2    H3 2004   4.691   1.716  10.192 -1.6422 -0.2413 -1.3914
  131MPD2     N 2005   4.694   1.945   9.794 -0.2374  0.1695  0.2010
  131MPD2    H5 2006   0.011   2.026   9.750 -1.7687  0.6390 -0.3580
  131MPD2    N1 2007   0.227   2.078  10.192  0.2909 -0.5012 -0.3982
  131MPD2    H7 2008   0.257   2.053  10.286 -0.0665 -0.9202 -0.3948
  132TCq2    C1 2009   0.365   2.647  10.311  0.6043 -0.5391 -0.7243
  132TCq2    O2 2010   0.421   2.719  10.395  0.1393  0.2269 -0.0286
  132TCq2    C2 2011   0.374   2.499  10.324  0.0230  0.4256  0.1293
  132TCq2    C3 2012   0.404   2.446  10.446 -0.3108  0.1207  0.2237
  132TCq2    C4 2013   0.407   2.309  10.470 -0.3676  0.7593  0.3130
  132TCq2    C5 2014   0.390   2.222  10.361  0.2550 -0.1347  0.3397
  132TCq2    C6 2015   0.353   2.276  10.240  0.9667 -0.8126  0.5376
  132TCq2    C7 2016   0.344   2.410  10.220 -0.5027  0.1402  0.5291
  132TCq2    C8 2017   0.263   2.204  10.147 -0.0690  0.1599  0.2186
  132TCq2    O4 2018   0.224   2.264  10.047 -0.1052 -0.0651  0.8256
  132TCq2    C9 2019   0.420   2.260  10.611  0.6039  0.2585  0.2553
  132TCq2    O5 2020   0.396   2.137  10.613 -0.1400 -0.0913  0.0449
  132TCq2    O6 2021   0.431   2.347  10.706 -0.3076  0.3556  0.3428
  132TCq2    H2 2022   0.417   2.516  10.528  0.4330  1.0182 -0.6590
  132TCq2    H3 2023   0.414   2.119  10.383  0.5503  0.1052  1.1547
  132TCq2    H4 2024   0.331   2.448  10.119  0.8324 -0.4856  0.1221
  133MPD2     C 2025   3.089   3.770   9.169 -0.0453 -0.6158 -0.3028
  133MPD2    C1 2026   3.225   3.795   9.169 -0.1630 -0.1592 -0.2425
  133MPD2    C2 2027   3.311   3.687   9.171 -0.3036 -0.6317  1.4791
  133MPD2    C3 2028   3.267   3.557   9.155 -0.3458 -0.0544 -0.5252
  133MPD2    C4 2029   3.129   3.538   9.145 -0.1641  0.1752  0.0334
  133MPD2    C5 2030   3.044   3.647   9.150 -0.4679 -0.0551 -0.1980
  133MPD2     H 2031   3.416   3.702   9.192 -0.2313 -0.7382  1.1969
  133MPD2    H1 2032   3.083   3.440   9.149 -3.8353  1.9089  0.3883
  133MPD2    H2 2033   3.018   3.851   9.185  1.2078  0.3236  0.4948
  133MPD2    H3 2034   2.936   3.635   9.152 -0.6710  1.6541 -1.3881
  133MPD2     N 2035   3.349   3.445   9.152 -0.2830 -0.1824  0.2934
  133MPD2    H5 2036   3.319   3.350   9.166  2.3057 -1.0021  0.3405
  133MPD2    N1 2037   3.267   3.925   9.206  0.7151  0.5762 -0.1282
  133MPD2    H7 2038   3.194   3.993   9.228  2.9734  2.5862  1.1567
  134TCq2    C1 2039   3.396   3.967   9.228  0.0621 -0.3982  0.7850
  134TCq2    O2 2040   3.505   3.914   9.217 -0.1130  0.3095 -1.0325
  134TCq2    C2 2041   3.391   4.109   9.243 -0.0038 -0.3385  0.0555
  134TCq2    C3 2042   3.301   4.187   9.174  0.3551 -0.1540  0.1887
  134TCq2    C4 2043   3.304   4.321   9.196  0.0366  0.0038  1.0954
  134TCq2    C5 2044   3.396   4.373   9.275  0.1368  0.2621 -0.5221
  134TCq2    C6 2045   3.498   4.292   9.321  0.2608  0.4091  0.4816
  134TCq2    C7 2046   3.497   4.161   9.302 -0.1788  0.2672 -0.5125
  134TCq2    C8 2047   3.623   4.351   9.364 -0.0026 -0.0150 -0.2825
  134TCq2    O4 2048   3.707   4.274   9.404  0.0874 -0.5886  0.7081
  134TCq2    C9 2049   3.203   4.413   9.145  0.0029 -0.2478  0.1731
  134TCq2    O5 2050   3.110   4.354   9.080  0.0329 -0.0375 -0.1492
  134TCq2    O6 2051   3.222   4.537   9.141  0.0531  0.5906  0.4465
  134TCq2    H2 2052   3.224   4.145   9.110  0.8415 -0.4866 -0.1687
  134TCq2    H3 2053   3.398   4.481   9.279 -0.5446  0.2892 -0.9398
  134TCq2    H4 2054   3.576   4.099   9.343  0.0951 -0.0480 -1.5193
  135MPD2     C 2055   2.084   3.947   9.463  0.1879  0.4354  0.3140
  135MPD2    C1 2056   1.995   3.869   9.393 -0.2673 -0.6540 -0.6907
  135MPD2    C2 2057   2.005   3.733   9.412 -0.4760  0.0206  0.5564
  135MPD2    C3 2058   2.088   3.677   9.506 -0.3577  0.1043 -0.2116
  135MPD2    C4 2059   2.180   3.753   9.565  0.7892  0.0611 -0.2837
  135MPD2    C5 2060   2.179   3.888   9.545  0.1274 -0.2154 -0.2990
  135MPD2     H 2061   1.942   3.673   9.348 -0.0915 -0.8830  1.0336
  135MPD2    H1 2062   2.260   3.721   9.632  0.5608 -1.4053 -0.7035
  135MPD2    H2 2063   2.078   4.055   9.460  1.6367  0.4865 -0.6921
  135MPD2    H3 2064   2.256   3.944   9.596  1.1755 -1.2161 -0.7448
  135MPD2     N 2065   2.092   3.540   9.533 -0.5375  0.4954 -0.6280
  135MPD2    H5 2066   2.172   3.501   9.582 -3.2657  0.0158  3.4084
  135MPD2    N1 2067   1.894   3.920   9.307  0.8277  0.2667  0.4332
  135MPD2    H7 2068   1.838   3.854   9.254  3.2710 -0.5865 -1.0651
  136TCq2    C1 2069   1.858   4.052   9.302  0.3701  0.3214  0.1188
  136TCq2    O2 2070   1.909   4.159   9.345 -0.1243  0.1434  0.0326
  136TCq2    C2 2071   1.737   4.056   9.218 -0.1963  0.0886 -0.3417
  136TCq2    C3 2072   1.712   3.950   9.132 -0.3833 -0.1361 -0.1349
  136TCq2    C4 2073   1.593   3.936   9.070  0.0149 -0.3446  0.0928
  136TCq2    C5 2074   1.501   4.034   9.081  0.0282  0.2859  0.3269
  136TCq2    C6 2075   1.527   4.146   9.160  0.9212 -0.3071 -0.9894
  136TCq2    C7 2076   1.642   4.153   9.237  0.7077  0.0239  0.2112
  136TCq2    C8 2077   1.418   4.233   9.190 -0.3894 -0.2115  0.2252
  136TCq2    O4 2078   1.439   4.325   9.269  0.1371  0.1207 -0.1274
  136TCq2    C9 2079   1.570   3.824   8.979 -0.1875 -0.3662 -0.1540
  136TCq2    O5 2080   1.655   3.736   8.976 -0.4619  0.1060  0.2534
  136TCq2    O6 2081   1.479   3.838   8.890 -0.6241  0.5283 -0.0682
  136TCq2    H2 2082   1.791   3.879   9.107  0.9786  0.6633  1.8717
  136TCq2    H3 2083   1.413   4.026   9.018 -1.0460  0.9240  1.7361
  136TCq2    H4 2084   1.657   4.230   9.312 -1.4421 -0.7294  1.4100
  137MPD2     C 2085   1.654   2.652  10.091  1.0397 -0.2206  0.2379
  137MPD2    C1 2086   1.522   2.660  10.048 -0.2642 -0.0879 -0.4006
  137MPD2    C2 2087   1.442   2.754  10.110 -0.6240  1.0071  0.2499
  137MPD2    C3 2088   1.489   2.838  10.212 -0.3582 -0.2966  0.2638
  137MPD2    C4 2089   1.620   2.828  10.251 -0.4328  0.1031 -0.4120
  137MPD2    C5 2090   1.698   2.736  10.191  0.3052  0.5545 -0.5220
  137MPD2     H 2091   1.340   2.772  10.078 -0.6315 -0.4088 -0.4917
  137MPD2    H1 2092   1.674   2.903  10.307  0.2805  1.5390 -2.9880
  137MPD2    H2 2093   1.717   2.575  10.048  1.0912  0.3247 -0.6791
  137MPD2    H3 2094   1.802   2.728  10.223 -0.3841  1.9088  2.0604
  137MPD2     N 2095   1.402   2.952  10.249  0.7009 -0.5302 -0.3267
  137MPD2    H5 2096   1.308   2.954  10.211  0.4532  0.0451  0.3199
  137MPD2    N1 2097   1.476   2.578   9.937 -0.3498  0.0181  0.8140
  137MPD2    H7 2098   1.541   2.519   9.885  3.0743  0.7070  4.3132
  138TCq2    C1 2099   1.350   2.589   9.890  0.6181 -0.0401 -0.0585
  138TCq2    O2 2100   1.260   2.670   9.909  0.4413  0.6217 -0.5169
  138TCq2    C2 2101   1.337   2.507   9.772  0.6242  0.4994  0.1476
  138TCq2    C3 2102   1.397   2.388   9.770  0.2294 -0.1315  0.1382
  138TCq2    C4 2103   1.394   2.319   9.650  0.4338 -0.5044 -0.2489
  138TCq2    C5 2104   1.341   2.372   9.537  0.1751 -0.3728  0.6291
  138TCq2    C6 2105   1.274   2.492   9.549  0.6459  0.0351 -0.1518
  138TCq2    C7 2106   1.271   2.563   9.667  0.5125  0.4136  0.2673
  138TCq2    C8 2107   1.214   2.556   9.431 -0.3789 -0.5421 -0.3540
  138TCq2    O4 2108   1.248   2.527   9.317  0.1061  0.5691  0.8545
  138TCq2    C9 2109   1.459   2.187   9.642 -0.2578 -0.7972  0.6708
  138TCq2    O5 2110   1.470   2.128   9.753 -0.2896 -0.1329 -0.3711
  138TCq2    O6 2111   1.471   2.133   9.525  0.3334 -0.1421 -0.0962
  138TCq2    H2 2112   1.443   2.340   9.856  0.0956 -0.4312  0.0421
  138TCq2    H3 2113   1.351   2.323   9.441 -1.6929  1.0951 -0.3146
  138TCq2    H4 2114   1.239   2.666   9.673  0.4325  0.2961  1.7330
  139TMC2    C1 2115   2.145   1.452  13.332 -0.1495 -0.3727  0.9097
  139TMC2    C2 2116   2.149   1.510  13.209 -0.3744  0.1800 -0.2283
  139TMC2    C3 2117   2.089   1.633  13.193  0.6806  0.2133 -0.8214
  139TMC2    C4 2118   2.092   1.522  13.445  1.0579  0.1925 -0.4112
  139TMC2    C5 2119   2.043   1.645  13.420 -0.5637 -0.3835  0.6097
  139TMC2    C6 2120   2.028   1.698  13.298 -0.1617 -0.3750 -0.2975
  139TMC2     C 2121   2.204   1.320  13.337  0.0040 -0.4196 -0.5522
  139TMC2     O 2122   2.254   1.268  13.237 -0.3131  0.4530  0.6463
  139TMC2     H 2123   2.195   1.454  13.128  3.2369  1.8481  0.6692
  139TMC2    H1 2124   2.091   1.481  13.546 -1.3741 -0.4110 -0.6755
  139TMC2    H2 2125   1.987   1.793  13.267  0.0440  0.2028  1.2450
  139TMC2    C7 2126   1.976   1.720  13.528  0.2987  0.1579  0.5868
  139TMC2    C8 2127   2.079   1.693  13.062 -0.5286 -1.3267  0.1014
  139TMC2    O1 2128   1.886   1.798  13.500 -0.1066 -0.8973 -0.0264
  139TMC2    O2 2129   1.984   1.761  13.023  0.3226  0.0304  0.1058
  139TMC2    O5 2130   2.169   1.627  12.982 -0.2823  0.0792 -0.0031
  139TMC2    H5 2131   2.246   1.608  13.040 -1.2871 -1.9767  0.7000
  140MPD2     C 2132   2.224   1.100  13.637  0.8012 -0.1555 -0.0033
  140MPD2    C1 2133   2.246   1.147  13.509 -0.2659  0.0581 -0.2187
  140MPD2    C2 2134   2.324   1.069  13.422 -0.3250 -0.1172  0.6725
  140MPD2    C3 2135   2.359   0.938  13.462  0.0378 -0.2309  0.5006
  140MPD2    C4 2136   2.323   0.890  13.586 -0.1670 -0.0073  0.1372
  140MPD2    C5 2137   2.255   0.972  13.671  0.3327 -0.7488 -0.1590
  140MPD2     H 2138   2.361   1.099  13.325  0.0287 -1.6820  0.3266
  140MPD2    H1 2139   2.352   0.790  13.617 -2.0146 -0.6745 -0.2510
  140MPD2    H2 2140   2.169   1.156  13.712 -0.3688 -0.8505 -0.3580
  140MPD2    H3 2141   2.245   0.956  13.778 -1.7983 -1.3004 -0.4564
  140MPD2     N 2142   2.451   0.863  13.373 -0.1846  0.1409 -0.7174
  140MPD2    H5 2143   2.494   0.916  13.298 -1.7379  0.5827 -1.2960
  140MPD2    N1 2144   2.203   1.276  13.471  0.4286 -0.1834  0.0242
  140MPD2    H7 2145   2.162   1.326  13.550  1.6023 -1.2848  1.3467
  141TCq2    C1 2146   2.797   2.551  14.356 -0.8192  0.7230  0.1693
  141TCq2    O2 2147   2.705   2.614  14.309 -0.2145  0.2234  1.0469
  141TCq2    C2 2148   2.817   2.567  14.495  0.9330  0.4823 -0.8532
  141TCq2    C3 2149   2.877   2.460  14.561  0.6965 -0.3695  0.7315
  141TCq2    C4 2150   2.938   2.484  14.680  0.0838  0.3177  0.0837
  141TCq2    C5 2151   2.939   2.610  14.733 -0.1617  0.3811 -0.3073
  141TCq2    C6 2152   2.892   2.715  14.655  0.4269  0.1272 -0.0105
  141TCq2    C7 2153   2.828   2.693  14.538  0.3043 -1.1050  0.0530
  141TCq2    C8 2154   2.896   2.845  14.711  0.0879 -0.0796 -0.0951
  141TCq2    O4 2155   2.930   2.853  14.830 -0.5446  0.3844  0.2577
  141TCq2    C9 2156   2.986   2.373  14.753 -0.1330 -0.0691 -0.5276
  141TCq2    O5 2157   3.036   2.271  14.693 -0.2314 -0.4518  0.6747
  141TCq2    O6 2158   3.015   2.398  14.873 -0.1290 -0.1647  0.2318
  141TCq2    H2 2159   2.867   2.358  14.524 -1.7169  0.7050 -1.5958
  141TCq2    H3 2160   2.985   2.645  14.825  1.6674  1.7873 -1.7663
  141TCq2    H4 2161   2.786   2.766  14.470  2.2780 -1.0992 -1.1361
  142MPD2     C 2162   0.055   1.396  10.273  0.3304 -0.5534 -0.8189
  142MPD2    C1 2163   0.120   1.414  10.150 -0.4247  0.2967 -0.8122
  142MPD2    C2 2164   0.215   1.514  10.131  0.4587  0.1906  0.5438
  142MPD2    C3 2165   0.262   1.588  10.235 -0.1032 -0.3377 -0.2178
  142MPD2    C4 2166   0.185   1.570  10.355  0.1111  0.0231 -0.7609
  142MPD2    C5 2167   0.081   1.484  10.371 -0.1279 -0.2052  0.3017
  142MPD2     H 2168   0.266   1.533  10.037  0.9146  0.2598  0.8105
  142MPD2    H1 2169   0.213   1.623  10.445  0.6835  1.5626 -1.8467
  142MPD2    H2 2170   4.708   1.318  10.295  0.6663 -0.0866  1.9342
  142MPD2    H3 2171   0.037   1.469  10.469 -0.6384 -1.1797 -0.0867
  142MPD2     N 2172   0.347   1.697  10.232  0.6209 -0.3261  0.1639
  142MPD2    H5 2173   0.351   1.755  10.315  1.3516  0.0596 -0.1447
  142MPD2    N1 2174   0.093   1.321  10.047 -0.5912 -0.3357 -0.0965
  142MPD2    H7 2175   0.061   1.231  10.082 -1.5166  0.0323  0.0047
  143TCq2    C1 2176   0.432   1.733  10.123 -0.0917  0.7918  0.0012
  143TCq2    O2 2177   0.441   1.675  10.015 -0.3414  0.1137  0.4407
  143TCq2    C2 2178   0.505   1.863  10.133  0.1134 -0.1877  0.2601
  143TCq2    C3 2179   0.583   1.891  10.245 -0.4928 -0.2254 -0.4782
  143TCq2    C4 2180   0.695   1.967  10.233 -0.1634  0.3407  0.5705
  143TCq2    C5 2181   0.731   2.024  10.118  0.8177  0.1962 -0.2950
  143TCq2    C6 2182   0.653   1.995  10.008 -0.1869  0.2654 -0.4881
  143TCq2    C7 2183   0.543   1.918  10.015 -0.2094  1.0787 -0.0934
  143TCq2    C8 2184   0.683   2.043   9.879  0.2097  0.8727 -0.2125
  143TCq2    O4 2185   0.592   2.088   9.814 -0.2274 -0.2906 -1.0302
  143TCq2    C9 2186   0.792   1.982  10.340 -0.2048 -0.5872  0.4587
  143TCq2    O5 2187   0.798   1.887  10.417 -0.1070 -0.5588  0.0487
  143TCq2    O6 2188   0.855   2.086  10.348 -0.4397  0.0217 -0.0521
  143TCq2    H2 2189   0.561   1.842  10.339 -0.9907  2.1326  0.6253
  143TCq2    H3 2190   0.830   2.066  10.116 -0.1505  2.4599 -0.2463
  143TCq2    H4 2191   0.514   1.875   9.920  2.5071 -1.2831  0.1438
  144MPD2     C 2192   3.275   0.326   0.600  0.0421 -0.0601  0.6032
  144MPD2    C1 2193   3.276   0.235   0.498 -0.4620 -0.2833 -0.1692
  144MPD2    C2 2194   3.386   0.145   0.487  0.2537 -0.1739  0.3608
  144MPD2    C3 2195   3.485   0.150   0.582  0.1673  0.1200 -0.8262
  144MPD2    C4 2196   3.486   0.242   0.678  0.2658 -0.1167 -0.0440
  144MPD2    C5 2197   3.379   0.328   0.691  0.9545  0.1608 -0.5139
  144MPD2     H 2198   3.384   0.077   0.402 -2.8519  1.2561 -0.7249
  144MPD2    H1 2199   3.564   0.240   0.754  0.4208 -0.0581 -0.2026
  144MPD2    H2 2200   3.201   0.405   0.609  0.6887  0.2257  3.4927
  144MPD2    H3 2201   3.376   0.407   0.765 -0.0218  3.3876 -4.0239
  144MPD2     N 2202   3.591   0.062   0.585  0.3754 -0.6099 -0.1258
  144MPD2    H5 2203   3.654   0.077   0.663  0.3050  0.1939 -0.2215
  144MPD2    N1 2204   3.170   0.229   0.401  0.1679 -0.1536  0.0596
  144MPD2    H7 2205   3.182   0.161   0.327  1.9080 -1.2912  1.3864
  145TCq2    C1 2206   3.629   4.699   0.493 -0.1477 -0.0498 -0.5924
  145TCq2    O2 2207   3.574   4.661   0.392 -0.3641  0.0831 -0.2014
  145TCq2    C2 2208   3.753   4.631   0.519 -0.1685 -0.1004 -0.7212
  145TCq2    C3 2209   3.811   4.552   0.422  0.3411 -0.6345  0.1191
  145TCq2    C4 2210   3.915   4.463   0.454 -0.4462  0.2168 -0.1715
  145TCq2    C5 2211   3.957   4.456   0.582  0.2841  0.0290  0.5060
  145TCq2    C6 2212   3.906   4.535   0.679  0.1379  0.5070  0.3926
  145TCq2    C7 2213   3.801   4.620   0.645  0.3307  0.7229 -0.3233
  145TCq2    C8 2214   3.944   4.516   0.815 -0.5065 -0.2882  0.2966
  145TCq2    O4 2215   4.038   4.440   0.829 -0.0160  0.0327  0.0895
  145TCq2    C9 2216   3.976   4.386   0.351  0.1571 -1.0104 -0.4944
  145TCq2    O5 2217   4.071   4.312   0.375 -0.0013 -0.1083 -0.2891
  145TCq2    O6 2218   3.943   4.426   0.237 -0.5222  0.1831 -0.2451
  145TCq2    H2 2219   3.779   4.560   0.319 -0.7127  1.7283  0.6346
  145TCq2    H3 2220   4.041   4.389   0.596  0.4945  0.1910  0.0097
  145TCq2    H4 2221   3.751   4.678   0.723 -0.5612 -0.1584 -0.2359
  146TMC2    C1 2222   4.609   4.004  12.708 -0.0091  0.3769 -0.4617
  146TMC2    C2 2223   4.489   3.988  12.639 -0.3318 -0.2531  0.0487
  146TMC2    C3 2224   4.490   3.927  12.516 -0.2194  0.1916  0.4533
  146TMC2    C4 2225   0.002   3.972  12.640 -0.0121 -0.2623 -1.0029
  146TMC2    C5 2226   4.721   3.919  12.513  0.2996 -0.2956 -0.2070
  146TMC2    C6 2227   4.605   3.901  12.450 -0.0265 -0.2622  0.9640
  146TMC2     C 2228   4.608   4.050  12.846 -0.2183  1.1522 -0.0986
  146TMC2     O 2229   4.510   4.113  12.887  0.2424 -0.1595  0.1837
  146TMC2     H 2230   4.396   4.020  12.686 -0.0641  0.9174 -0.2233
  146TMC2    H1 2231   0.097   3.996  12.688  0.1893  0.3053 -1.6815
  146TMC2    H2 2232   4.603   3.864  12.348  0.2854  1.8192  0.2062
  146TMC2    C7 2233   0.116   3.904  12.438 -0.1835 -1.2370  0.3793
  146TMC2    C8 2234   4.358   3.890  12.470 -0.2904 -0.0683 -0.1741
  146TMC2    O1 2235   0.100   3.880  12.317 -0.4604  0.2940  0.0537
  146TMC2    O2 2236   4.302   3.964  12.388  0.1775 -0.4543  0.3707
  146TMC2    O5 2237   4.295   3.825  12.564 -0.0203  0.2528 -0.1009
  146TMC2    H5 2238   4.358   3.760  12.604 -0.1144  0.6940  0.7617
  147MPD2     C 2239   0.619   3.811  12.369 -0.1135 -1.2227  0.0110
  147MPD2    C1 2240   0.586   3.790  12.497 -0.0693  0.3306  0.4916
  147MPD2    C2 2241   0.457   3.811  12.545  0.3485 -0.1404  0.7735
  147MPD2    C3 2242   0.356   3.864  12.458  0.2019  0.1069 -0.3022
  147MPD2    C4 2243   0.396   3.895  12.328 -0.2962 -0.1766 -0.2772
  147MPD2    C5 2244   0.522   3.854  12.284 -0.1896  0.1127 -0.4813
  147MPD2     H 2245   0.426   3.773  12.641  0.1969 -1.5863  0.1519
  147MPD2    H1 2246   0.327   3.950  12.266  0.4736  1.2857  0.1566
  147MPD2    H2 2247   0.714   3.789  12.323 -0.6405 -1.2503 -1.0784
  147MPD2    H3 2248   0.549   3.869  12.180  1.9212 -0.1950  0.0221
  147MPD2     N 2249   0.228   3.889  12.513 -0.3283  0.1206  0.3721
  147MPD2    H5 2250   0.218   3.883  12.614  1.5367  0.0720  0.5502
  147MPD2    N1 2251   0.688   3.724  12.567 -0.2022  0.1135 -0.0497
  147MPD2    H7 2252   0.780   3.710  12.527 -0.1079 -2.0610  0.8917
  148MPD2     C 2253   4.365   3.212   9.845 -0.4064  0.5364  0.4496
  148MPD2    C1 2254   4.397   3.097   9.920 -0.4497 -0.4975 -0.6893
  148MPD2    C2 2255   4.326   2.983   9.897 -0.6215 -0.7433 -0.2621
  148MPD2    C3 2256   4.228   2.978   9.805  0.5283  0.0272  0.3634
  148MPD2    C4 2257   4.190   3.094   9.738 -0.1149  0.4207  0.2964
  148MPD2    C5 2258   4.266   3.209   9.753  0.2850  0.2153 -0.2241
  148MPD2     H 2259   4.337   2.896   9.959  0.7660  0.6049  1.3781
  148MPD2    H1 2260   4.111   3.111   9.667 -0.7051  0.1543  0.8907
  148MPD2    H2 2261   4.424   3.303   9.853  2.3211 -1.2270  0.6069
  148MPD2    H3 2262   4.240   3.300   9.700 -0.7489 -0.6635 -1.2144
  148MPD2     N 2263   4.153   2.865   9.780 -0.3152  0.3706 -0.6707
  148MPD2    H5 2264   4.056   2.868   9.752 -1.3761  0.5344  3.0599
  148MPD2    N1 2265   4.498   3.095  10.017  0.4624  0.1364  0.0019
  148MPD2    H7 2266   4.522   3.004  10.055  0.3299 -0.3622 -1.1311
  149TCq2    C1 2267   4.559   3.203  10.076  0.2616 -0.1447 -0.2034
  149TCq2    O2 2268   4.541   3.321  10.055 -0.1872 -0.2280  0.5869
  149TCq2    C2 2269   4.651   3.163  10.177  0.0992  0.2028  0.4661
  149TCq2    C3 2270   0.013   3.258  10.223 -0.4196 -0.5763 -0.4177
  149TCq2    C4 2271   0.078   3.247  10.341  0.2714  0.1033  0.3339
  149TCq2    C5 2272   0.084   3.119  10.396 -0.0668  0.0043  0.5419
  149TCq2    C6 2273   0.003   3.019  10.342 -0.4330  0.1168  0.0489
  149TCq2    C7 2274   4.651   3.036  10.229  0.2401  0.2798 -0.5273
  149TCq2    C8 2275   0.025   2.876  10.362  0.2434  0.1455  0.8903
  149TCq2    O4 2276   4.722   2.806  10.267 -0.2207 -0.9088  0.3071
  149TCq2    C9 2277   0.191   3.331  10.359  0.0406 -0.1603  0.0132
  149TCq2    O5 2278   0.275   3.303  10.447 -0.1698 -0.0559 -0.3773
  149TCq2    O6 2279   0.195   3.430  10.286  0.4374 -0.5186  0.0520
  149TCq2    H2 2280   0.020   3.351  10.169 -0.3908 -0.3209  0.0306
  149TCq2    H3 2281   0.149   3.095  10.479  3.1647  0.5074 -1.8459
  149TCq2    H4 2282   4.579   2.962  10.198  1.2654 -1.0961  0.3849
  150MPD2     C 2283   1.726   1.370  12.307  0.0647 -0.3646 -0.0670
  150MPD2    C1 2284   1.724   1.470  12.213 -0.7596 -0.3119 -0.4644
  150MPD2    C2 2285   1.818   1.571  12.215  0.6339 -0.1062 -0.0741
  150MPD2    C3 2286   1.914   1.563  12.308  0.1084 -0.8157 -0.5854
  150MPD2    C4 2287   1.916   1.454  12.389 -0.9409 -0.5650 -0.1655
  150MPD2    C5 2288   1.819   1.366  12.400  0.0284  0.5269  0.5507
  150MPD2     H 2289   1.819   1.655  12.145  1.1526  0.3100  0.4356
  150MPD2    H1 2290   1.995   1.442  12.463 -1.3074  0.8969  0.4626
  150MPD2    H2 2291   1.653   1.290  12.312  0.4293 -0.8289 -2.0411
  150MPD2    H3 2292   1.821   1.289  12.476  0.3010  0.4537  0.4704
  150MPD2     N 2293   2.009   1.669  12.313 -0.6898  0.0418  0.0385
  150MPD2    H5 2294   1.985   1.751  12.258 -3.4335 -0.1609  0.9211
  150MPD2    N1 2295   1.623   1.464  12.112 -0.6357 -0.1462  0.2234
  150MPD2    H7 2296   1.556   1.387  12.116  1.0633 -1.8363 -3.8685
  151TCq2    C1 2297   2.131   1.670  12.374  0.7053 -0.4557  0.5972
  151TCq2    O2 2298   2.174   1.585  12.455 -0.5626 -0.2432  0.0627
  151TCq2    C2 2299   2.220   1.782  12.336  0.3622 -0.5083  0.7248
  151TCq2    C3 2300   2.174   1.877  12.252  0.9320  0.0178 -0.1804
  151TCq2    C4 2301   2.237   1.996  12.238 -0.9804  0.1289  0.3544
  151TCq2    C5 2302   2.341   2.024  12.319  0.6256 -0.7449 -0.0247
  151TCq2    C6 2303   2.386   1.932  12.412  0.8307 -0.3252  0.2173
  151TCq2    C7 2304   2.332   1.808  12.419 -0.0279  0.0697 -0.0782
  151TCq2    C8 2305   2.512   1.961  12.476 -0.5408  0.8286  0.6910
  151TCq2    O4 2306   2.558   2.071  12.470  0.2038  0.2938  0.0593
  151TCq2    C9 2307   2.193   2.077  12.130 -0.2601 -0.7107  0.1595
  151TCq2    O5 2308   2.068   2.076  12.105 -0.0813  0.1375 -0.6714
  151TCq2    O6 2309   2.285   2.135  12.068 -0.4111  0.2489 -0.3060
  151TCq2    H2 2310   2.107   1.854  12.170 -1.5399 -2.0426  2.4105
  151TCq2    H3 2311   2.392   2.119  12.308 -0.0843 -0.3991 -0.3715
  151TCq2    H4 2312   2.343   1.740  12.503  0.2570 -0.1737 -0.3100
  152MPD2     C 2313   1.253   1.228  12.869  0.5976  0.3503 -0.6547
  152MPD2    C1 2314   1.315   1.312  12.783  1.2681 -0.7031 -0.0896
  152MPD2    C2 2315   1.237   1.398  12.709  0.1529  0.1482  0.8490
  152MPD2    C3 2316   1.100   1.401  12.722 -0.4185 -0.5827  0.1360
  152MPD2    C4 2317   1.042   1.316  12.812  0.3234 -0.3670 -0.3774
  152MPD2    C5 2318   1.119   1.229  12.884 -0.2207  0.0738  0.1113
  152MPD2     H 2319   1.275   1.471  12.640 -1.4393 -0.2953 -0.4943
  152MPD2    H1 2320   0.938   1.289  12.819  0.1307  0.6749  0.6844
  152MPD2    H2 2321   1.319   1.173  12.935  0.0296  2.1201  1.4114
  152MPD2    H3 2322   1.065   1.156  12.943 -0.0539 -1.1654 -1.2863
  152MPD2     N 2323   1.023   1.499  12.650  1.0222 -0.0299 -0.2780
  152MPD2    H5 2324   1.075   1.552  12.581  0.7038 -0.5073 -0.8817
  152MPD2    N1 2325   1.448   1.303  12.752 -0.4107 -0.8041 -0.4469
  152MPD2    H7 2326   1.503   1.250  12.819 -1.2601  0.9293  1.6098
  153TCq2    C1 2327   1.527   1.389  12.668 -0.0285  0.7508  0.9188
  153TCq2    O2 2328   1.483   1.472  12.591  0.2581 -0.2272  0.0674
  153TCq2    C2 2329   1.666   1.411  12.711 -0.0535  0.3154 -0.2044
  153TCq2    C3 2330   1.738   1.313  12.765 -0.3784 -0.6868  0.4223
  153TCq2    C4 2331   1.871   1.332  12.786  0.0353 -0.1013 -0.2259
  153TCq2    C5 2332   1.933   1.453  12.756 -0.7521 -0.2559 -0.4129
  153TCq2    C6 2333   1.850   1.555  12.703  0.0811 -0.1926  0.0853
  153TCq2    C7 2334   1.712   1.537  12.684  0.4325 -0.3057  0.3000
  153TCq2    C8 2335   1.900   1.691  12.662  0.4735 -0.3796  0.4116
  153TCq2    O4 2336   1.824   1.764  12.597  0.0137  0.1383 -0.2872
  153TCq2    C9 2337   1.957   1.223  12.836 -0.2006 -0.2420  0.5713
  153TCq2    O5 2338   1.909   1.145  12.919  0.1008 -0.3972  0.2794
  153TCq2    O6 2339   2.081   1.242  12.829 -0.8716  0.1386 -0.7063
  153TCq2    H2 2340   1.696   1.214  12.779 -1.0774 -0.2259  1.5490
  153TCq2    H3 2341   2.040   1.463  12.767 -0.7641  1.0570 -1.4050
  153TCq2    H4 2342   1.650   1.609  12.632 -1.5812 -1.6896  0.7854
  154MPD2     C 2343   3.899   1.877   0.346  0.4782  0.8471  0.2017
  154MPD2    C1 2344   3.845   1.764   0.391 -0.4911  0.2568 -0.2606
  154MPD2    C2 2345   3.750   1.764   0.496 -0.1647  0.5417  0.0660
  154MPD2    C3 2346   3.684   1.885   0.534  0.0965  0.2539  0.7165
  154MPD2    C4 2347   3.748   1.998   0.485  0.3883 -0.2121  0.5629
  154MPD2    C5 2348   3.852   1.997   0.397  0.3870  0.1281  0.1178
  154MPD2     H 2349   3.716   1.677   0.551  1.2725  0.3301  0.6219
  154MPD2    H1 2350   3.729   2.095   0.530  2.5845  0.2523  0.4825
  154MPD2    H2 2351   3.980   1.877   0.274 -0.2868  1.3195 -0.6635
  154MPD2    H3 2352   3.897   2.094   0.376  0.6717 -0.2439 -0.9816
  154MPD2     N 2353   3.593   1.888   0.645 -0.6698  0.3018  0.2251
  154MPD2    H5 2354   3.591   1.800   0.695  2.5074 -0.6598 -1.3433
  154MPD2    N1 2355   3.903   1.645   0.335 -0.2001  0.1773 -0.4731
  154MPD2    H7 2356   3.989   1.656   0.283  0.2841  0.5327  0.4007
  155TCq2    C1 2357   3.865   1.516   0.363  0.0954 -0.0665  0.4663
  155TCq2    O2 2358   3.786   1.481   0.451 -0.6423 -0.1219  0.6425
  155TCq2    C2 2359   3.943   1.409   0.308  0.4290  0.2469 -0.4970
  155TCq2    C3 2360   3.947   1.291   0.364 -0.1833  0.8188 -0.3966
  155TCq2    C4 2361   4.037   1.189   0.324 -0.1801  0.4361  0.0377
  155TCq2    C5 2362   4.142   1.223   0.235  0.2282 -0.4734 -0.4942
  155TCq2    C6 2363   4.130   1.346   0.174 -0.4697 -0.3640 -0.0728
  155TCq2    C7 2364   4.032   1.439   0.204  0.3607 -0.2597 -0.0570
  155TCq2    C8 2365   4.202   1.364   0.049  0.2736 -0.1873  0.2403
  155TCq2    O4 2366   4.235   1.270  17.680 -0.2231 -0.0070  0.1340
  155TCq2    C9 2367   4.032   1.057   0.378 -0.3471 -0.0963 -0.2124
  155TCq2    O5 2368   3.929   1.031   0.449 -0.1462  0.2520  0.3647
  155TCq2    O6 2369   4.117   0.971   0.346 -0.4629 -0.3814 -0.1171
  155TCq2    H2 2370   3.873   1.266   0.439  0.0190 -0.1321 -0.5212
  155TCq2    H3 2371   4.211   1.145   0.205 -0.8141 -1.6852  0.2361
  155TCq2    H4 2372   4.013   1.534   0.155  1.0732 -0.4172 -0.6423
  156MPD2     C 2373   2.052   3.558  12.267  0.3902  0.3729 -0.6429
  156MPD2    C1 2374   2.067   3.675  12.196 -0.5274 -0.1638  0.4458
  156MPD2    C2 2375   2.121   3.789  12.257  0.6691 -0.6181  0.3303
  156MPD2    C3 2376   2.168   3.780  12.385  0.0036 -0.0539  0.5418
  156MPD2    C4 2377   2.168   3.660  12.452 -0.6604  1.0037 -0.5100
  156MPD2    C5 2378   2.097   3.559  12.396 -0.0474 -0.1027 -0.0100
  156MPD2     H 2379   2.136   3.885  12.210  0.0839 -0.2577  0.8841
  156MPD2    H1 2380   2.211   3.650  12.551 -0.1436  1.1971 -0.7151
  156MPD2    H2 2381   2.014   3.464  12.228  1.8640 -0.3858 -0.2530
  156MPD2    H3 2382   2.079   3.464  12.443  1.2198 -0.1410  0.4065
  156MPD2     N 2383   2.235   3.900  12.437 -0.0999 -0.2153 -0.3637
  156MPD2    H5 2384   2.221   3.987  12.386  2.6216  1.5067  1.8530
  156MPD2    N1 2385   2.034   3.679  12.058 -0.2374  0.1626 -0.8211
  156MPD2    H7 2386   2.011   3.593  12.008  0.2381  0.2328 -1.1611
  157TCq2    C1 2387   2.036   3.793  11.981 -0.2509 -0.4399  0.3723
  157TCq2    O2 2388   2.042   3.912  12.016 -0.5133  0.6728 -0.0806
  157TCq2    C2 2389   1.974   3.762  11.846  0.3594  0.3203 -0.1242
  157TCq2    C3 2390   1.950   3.631  11.813  0.2628 -0.0594 -0.2076
  157TCq2    C4 2391   1.863   3.609  11.708 -0.1084 -0.1992  0.4686
  157TCq2    C5 2392   1.783   3.709  11.656  0.5094 -0.1721 -0.0362
  157TCq2    C6 2393   1.809   3.840  11.696 -1.0039 -0.0944  0.2640
  157TCq2    C7 2394   1.906   3.868  11.790 -0.2823 -0.2026 -0.4093
  157TCq2    C8 2395   1.753   3.956  11.630  0.7822  0.0401 -0.2984
  157TCq2    O4 2396   1.791   4.066  11.676 -0.1883  0.0443  0.5544
  157TCq2    C9 2397   1.851   3.479  11.657  0.3454 -0.1199 -0.5039
  157TCq2    O5 2398   1.742   3.453  11.604  0.1912 -0.3020 -0.6240
  157TCq2    O6 2399   1.938   3.387  11.689  0.2122  0.2151 -0.3467
  157TCq2    H2 2400   2.017   3.556  11.854  0.5859  1.3686  1.8534
  157TCq2    H3 2401   1.720   3.691  11.569  0.4434 -0.7699  0.1313
  157TCq2    H4 2402   1.937   3.968  11.819 -0.9205 -0.3419  0.7852
  158TMC2    C1 2403   1.975   2.825  13.570  0.6550 -0.3572 -0.0031
  158TMC2    C2 2404   2.005   2.872  13.445  0.8974  0.8636 -0.5451
  158TMC2    C3 2405   1.902   2.918  13.359 -0.3860  0.0762  0.1536
  158TMC2    C4 2406   1.846   2.800  13.601 -0.6586  0.5576  0.4689
  158TMC2    C5 2407   1.745   2.861  13.522  0.2567 -0.5545  0.5281
  158TMC2    C6 2408   1.766   2.917  13.398  0.5556 -0.4045  0.6062
  158TMC2     C 2409   2.085   2.770  13.643 -0.8933  0.3840  0.5706
  158TMC2     O 2410   2.194   2.803  13.597  0.0105 -0.0265 -0.0786
  158TMC2     H 2411   2.106   2.870  13.406  1.1889  0.0170  0.2626
  158TMC2    H1 2412   1.824   2.778  13.705  0.0736 -0.5626  0.3981
  158TMC2    H2 2413   1.690   2.970  13.342  0.9431 -0.6463 -0.1598
  158TMC2    C7 2414   1.610   2.839  13.565  0.1297 -0.7398 -0.4461
  158TMC2    C8 2415   1.923   2.966  13.219  0.1991  0.3732 -0.2093
  158TMC2    O1 2416   1.526   2.913  13.514  0.6941  0.0598  0.4358
  158TMC2    O2 2417   2.026   3.015  13.183 -0.4638  0.3845 -0.2641
  158TMC2    O5 2418   1.833   2.896  13.144 -0.7545  0.0019  0.0190
  158TMC2    H5 2419   1.778   2.840  13.203  2.4026 -0.3593  2.6286
  159MPD2     C 2420   2.329   2.481  13.982  0.1026  0.2176 -0.5943
  159MPD2    C1 2421   2.203   2.496  14.028  0.0764 -0.1666 -0.3523
  159MPD2    C2 2422   2.107   2.563  13.943  0.9830 -0.4750  0.0792
  159MPD2    C3 2423   2.148   2.610  13.820 -0.3593  0.1913 -0.6632
  159MPD2    C4 2424   2.280   2.595  13.780  0.0640  0.3592 -0.4653
  159MPD2    C5 2425   2.369   2.530  13.861  0.5649  0.1953 -0.1948
  159MPD2     H 2426   2.002   2.578  13.967  1.5640  0.9511  1.7995
  159MPD2    H1 2427   2.315   2.615  13.679 -1.0085  0.2508 -0.8617
  159MPD2    H2 2428   2.404   2.431  14.042  0.6637  0.5017 -1.0598
  159MPD2    H3 2429   2.471   2.516  13.828  0.9147 -0.4984  1.1955
  159MPD2     N 2430   2.054   2.673  13.738 -0.5546 -0.6958 -0.2561
  159MPD2    H5 2431   1.957   2.645  13.749 -1.0402  1.3391  0.7660
  159MPD2    N1 2432   2.166   2.450  14.152 -0.1390 -0.0837 -0.5364
  159MPD2    H7 2433   2.237   2.416  14.216 -0.7021  1.4493  0.9011
  160TMC2    C1 2434   1.593   0.550   1.194  0.7459  0.0785  0.3014
  160TMC2    C2 2435   1.663   0.458   1.121 -0.0798  0.1229  0.2533
  160TMC2    C3 2436   1.790   0.437   1.158 -0.2564  0.5383  0.3864
  160TMC2    C4 2437   1.643   0.607   1.308  0.2610 -0.8385  0.3642
  160TMC2    C5 2438   1.768   0.565   1.357 -0.1446 -0.0224  0.2129
  160TMC2    C6 2439   1.846   0.483   1.281 -0.4540 -0.6881  0.1070
  160TMC2     C 2440   1.452   0.560   1.158 -0.2530 -0.2615  0.2640
  160TMC2     O 2441   1.403   0.478   1.081 -0.6148 -0.0060  0.1237
  160TMC2     H 2442   1.620   0.407   1.035 -1.4544  1.1174  0.3368
  160TMC2    H1 2443   1.584   0.677   1.364  3.0589  0.6336  1.4857
  160TMC2    H2 2444   1.949   0.465   1.306 -0.1608  1.3748  0.3480
  160TMC2    C7 2445   1.824   0.653   1.453 -0.4542 -0.3049 -0.1828
  160TMC2    C8 2446   1.852   0.327   1.090  0.1223 -0.1430 -0.7135
  160TMC2    O1 2447   1.744   0.719   1.515 -0.3522 -0.2692  0.1653
  160TMC2    O2 2448   1.797   0.242   1.021  0.1448  0.6320 -0.3537
  160TMC2    O5 2449   1.979   0.371   1.081  0.3866  0.2436  0.4589
  160TMC2    H5 2450   1.993   0.462   1.114  2.1869  0.2873 -0.3638
  161MPD2     C 2451   1.149   0.579   1.168 -0.1533 -0.5253 -0.6726
  161MPD2    C1 2452   1.245   0.662   1.229  0.4009  0.2438  0.2797
  161MPD2    C2 2453   1.201   0.758   1.319 -0.1999  0.3104 -1.0097
  161MPD2    C3 2454   1.066   0.776   1.342 -0.2757 -0.3854  0.1008
  161MPD2    C4 2455   0.975   0.692   1.277 -0.7038  0.3189  0.7396
  161MPD2    C5 2456   1.010   0.601   1.183  0.1905 -0.1147  0.1246
  161MPD2     H 2457   1.271   0.810   1.382 -0.3992 -2.1713  1.2814
  161MPD2    H1 2458   0.870   0.714   1.292 -1.1201  1.5915 -3.9627
  161MPD2    H2 2459   1.183   0.497   1.106  0.2267  0.3215 -1.5851
  161MPD2    H3 2460   0.936   0.559   1.115 -1.6276 -0.0206  2.0629
  161MPD2     N 2461   1.017   0.886   1.422  0.4700 -0.1618 -0.7871
  161MPD2    H5 2462   0.917   0.884   1.436  0.6893  0.0644  0.7512
  161MPD2    N1 2463   1.383   0.658   1.224 -0.5227 -0.1415  0.9540
  161MPD2    H7 2464   1.446   0.719   1.274  1.3725 -0.8709 -0.5167
  162TMC2    C1 2465   4.489   2.664   1.461 -0.2217 -0.4086  0.4539
  162TMC2    C2 2466   4.366   2.652   1.523 -0.7043 -0.2249 -0.3021
  162TMC2    C3 2467   4.376   2.628   1.661  0.5363  0.0078  0.7604
  162TMC2    C4 2468   4.610   2.659   1.524  0.0046 -0.0993 -0.3265
  162TMC2    C5 2469   4.605   2.645   1.661 -0.2214 -0.1227  0.1568
  162TMC2    C6 2470   4.493   2.619   1.727 -0.4014 -0.4118 -0.3706
  162TMC2     C 2471   4.499   2.703   1.321 -0.1843  0.0859 -0.5437
  162TMC2     O 2472   4.406   2.670   1.256 -0.4734  0.1709  0.0349
  162TMC2     H 2473   4.274   2.671   1.470 -1.1835 -1.5224  0.0618
  162TMC2    H1 2474   4.705   2.654   1.472 -0.3423 -0.6778 -0.8998
  162TMC2    H2 2475   4.494   2.592   1.832  0.2031 -0.9446 -0.5189
  162TMC2    C7 2476   0.006   2.661   1.730  0.1985 -0.7339 -0.4029
  162TMC2    C8 2477   4.241   2.598   1.712  0.1494 -0.2269  0.0356
  162TMC2    O1 2478   0.092   2.733   1.689  0.4930 -0.2763  0.0737
  162TMC2    O2 2479   4.158   2.548   1.632  0.0927 -0.1695 -0.3308
  162TMC2    O5 2480   4.212   2.680   1.810 -0.3326  0.5452  0.0239
  162TMC2    H5 2481   4.285   2.723   1.860  2.0335  0.7922 -3.6903
  163MPD2     C 2482   4.685   2.976   0.933  0.2541 -0.1161 -0.2218
  163MPD2    C1 2483   4.618   2.858   0.928 -0.2623 -0.6851  0.7520
  163MPD2    C2 2484   4.588   2.794   1.054  0.2609  0.3870 -0.4809
  163MPD2    C3 2485   4.637   2.841   1.174 -0.3960 -0.1393 -0.0849
  163MPD2    C4 2486   0.002   2.948   1.165  0.9142  0.7934 -0.7197
  163MPD2    C5 2487   0.017   3.017   1.053  0.2855  0.4552 -0.3843
  163MPD2     H 2488   4.519   2.710   1.057 -0.7875  1.2956  1.1233
  163MPD2    H1 2489   0.062   2.970   1.253  0.9667 -2.4887  0.0581
  163MPD2    H2 2490   4.703   3.024   0.837  1.8672  0.8082  0.5533
  163MPD2    H3 2491   0.078   3.106   1.053  1.8847 -0.6327 -0.0271
  163MPD2     N 2492   4.602   2.788   1.304 -0.7856 -0.1633 -0.1078
  163MPD2    H5 2493   4.654   2.809   1.389  0.6836  1.8469 -1.5200
  163MPD2    N1 2494   4.577   2.798   0.810  0.0774  0.3933  0.2566
  163MPD2    H7 2495   4.629   2.837   0.733  0.8305 -0.5535  0.2825
  164TCq2    C1 2496   0.392   2.304  11.241  0.0226  0.1266 -0.4833
  164TCq2    O2 2497   0.385   2.383  11.144  0.1845  0.7351  0.2389
  164TCq2    C2 2498   0.312   2.326  11.357 -0.2503  0.2291  0.1098
  164TCq2    C3 2499   0.364   2.298  11.483  0.6615  0.5476 -0.4813
  164TCq2    C4 2500   0.290   2.334  11.590 -0.1201 -0.0492  0.1228
  164TCq2    C5 2501   0.173   2.404  11.578 -0.1577  0.1855 -0.1526
  164TCq2    C6 2502   0.138   2.446  11.449 -0.3362 -0.3726 -0.9593
  164TCq2    C7 2503   0.211   2.410  11.339 -0.7831  0.3222 -0.4460
  164TCq2    C8 2504   0.062   2.564  11.419 -0.4420 -0.1446 -0.3013
  164TCq2    O4 2505   0.037   2.597  11.303  0.1508  0.3277 -0.3854
  164TCq2    C9 2506   0.325   2.288  11.720 -0.1023 -0.6937 -0.1108
  164TCq2    O5 2507   0.242   2.299  11.812  0.0116 -0.4338 -0.0813
  164TCq2    O6 2508   0.416   2.209  11.739  0.0990 -0.5583  0.5765
  164TCq2    H2 2509   0.458   2.245  11.489 -1.2117 -2.4233  2.5942
  164TCq2    H3 2510   0.122   2.436  11.669 -1.2671 -1.3615 -0.2353
  164TCq2    H4 2511   0.177   2.422  11.237 -0.6569  1.3717 -0.3630
  165MPD2     C 2512   1.270   0.520   1.551 -0.0311 -0.1818 -0.4752
  165MPD2    C1 2513   1.363   0.420   1.540 -0.1175 -0.0972  0.2152
  165MPD2    C2 2514   1.484   0.431   1.604  0.0083  0.4960 -0.1873
  165MPD2    C3 2515   1.508   0.549   1.677 -0.4030  0.5291 -0.0742
  165MPD2    C4 2516   1.418   0.646   1.686 -0.5783 -0.2646  0.0356
  165MPD2    C5 2517   1.297   0.631   1.627 -0.5889  0.4604 -0.2309
  165MPD2     H 2518   1.565   0.361   1.592 -0.5718  0.2401 -2.6581
  165MPD2    H1 2519   1.418   0.721   1.765  1.6553 -1.3905  1.0957
  165MPD2    H2 2520   1.175   0.517   1.499 -1.6528  1.1591  2.3947
  165MPD2    H3 2521   1.221   0.704   1.652 -0.5367  0.2302  0.5820
  165MPD2     N 2522   1.627   0.574   1.751  0.4553 -0.3150  0.5595
  165MPD2    H5 2523   1.633   0.669   1.786 -1.8443 -0.4942  1.4352
  165MPD2    N1 2524   1.324   0.307   1.449 -0.6196 -0.1864 -0.0168
  165MPD2    H7 2525   1.226   0.310   1.421 -0.5664  0.1314 -0.1647
  166TCq2    C1 2526   1.739   0.497   1.763  0.3056  0.1562  0.2923
  166TCq2    O2 2527   1.756   0.385   1.724 -0.0907  1.1667 -0.1902
  166TCq2    C2 2528   1.846   0.556   1.837  0.3453 -0.4890  0.9027
  166TCq2    C3 2529   1.832   0.668   1.918  0.3608 -0.6810  0.8933
  166TCq2    C4 2530   1.953   0.734   1.943 -0.0942  0.4017  0.0441
  166TCq2    C5 2531   2.074   0.679   1.912  0.0945 -0.1998  0.1602
  166TCq2    C6 2532   2.074   0.560   1.850  0.2661  0.0060  0.1232
  166TCq2    C7 2533   1.962   0.499   1.807  0.6729 -0.4328 -0.5500
  166TCq2    C8 2534   2.197   0.477   1.847  0.7959  0.1668 -0.5887
  166TCq2    O4 2535   2.210   0.393   1.758  0.7012  0.1130  0.1961
  166TCq2    C9 2536   1.956   0.863   2.009  0.6991  0.3111  0.3574
  166TCq2    O5 2537   2.061   0.929   2.010  0.5515  0.2464 -0.0271
  166TCq2    O6 2538   1.849   0.881   2.064  0.0455  0.3532 -0.3896
  166TCq2    H2 2539   1.738   0.722   1.929  0.9619  0.6096 -0.3598
  166TCq2    H3 2540   2.166   0.729   1.940 -0.6998  2.0865 -1.3230
  166TCq2    H4 2541   1.980   0.408   1.751  0.3448  0.1716 -1.6482
  167TMC2    C1 2542   4.052   2.530  12.195  0.1753  0.2214  0.2935
  167TMC2    C2 2543   3.928   2.482  12.168 -0.3187  0.5474  0.3689
  167TMC2    C3 2544   3.923   2.357  12.118  0.3911  0.8420  0.7092
  167TMC2    C4 2545   4.166   2.455  12.192 -0.1769 -0.2289  0.5704
  167TMC2    C5 2546   4.158   2.332  12.141 -0.1117 -0.0558 -0.2382
  167TMC2    C6 2547   4.037   2.283  12.101  0.5626  0.7859  0.7962
  167TMC2     C 2548   4.062   2.674  12.213  0.0035  0.5609 -0.9574
  167TMC2     O 2549   3.966   2.735  12.167  0.1155 -0.3313  0.2805
  167TMC2     H 2550   3.834   2.535  12.157 -1.4442 -1.4134  0.4616
  167TMC2    H1 2551   4.264   2.500  12.205 -0.2203  0.7430 -2.3244
  167TMC2    H2 2552   4.030   2.187  12.052  1.0950  1.3090 -0.3052
  167TMC2    C7 2553   4.272   2.249  12.143 -0.0077  0.5355 -0.0467
  167TMC2    C8 2554   3.825   2.336  12.021 -0.3579 -0.7552 -0.2937
  167TMC2    O1 2555   4.280   2.159  12.059  0.4024  0.1406 -0.5698
  167TMC2    O2 2556   3.843   2.384  11.909 -0.1251  0.8156 -0.5114
  167TMC2    O5 2557   3.781   2.210  12.039  0.4854 -0.4617  0.4380
  167TMC2    H5 2558   3.801   2.179  12.130  2.4508 -0.8397 -0.1285
  168MPD2     C 2559   4.340   2.897  12.301  0.1449  0.5280  0.3151
  168MPD2    C1 2560   4.212   2.859  12.280 -0.3175 -0.1325 -0.0903
  168MPD2    C2 2561   4.116   2.956  12.306  0.4077  0.0841 -0.3634
  168MPD2    C3 2562   4.150   3.091  12.336 -0.6856 -0.2472  0.6434
  168MPD2    C4 2563   4.280   3.113  12.373 -0.3904 -0.5816  0.3785
  168MPD2    C5 2564   4.375   3.015  12.353  0.8585 -0.1165  0.0095
  168MPD2     H 2565   4.009   2.941  12.294  0.5188 -0.0299 -1.2157
  168MPD2    H1 2566   4.310   3.199  12.431  0.1495 -0.6700  0.2268
  168MPD2    H2 2567   4.424   2.828  12.304  1.1226  1.7380  0.6490
  168MPD2    H3 2568   4.480   3.039  12.371  0.3274  2.1342  0.0458
  168MPD2     N 2569   4.047   3.189  12.350  0.6431  0.2694  0.1966
  168MPD2    H5 2570   3.952   3.159  12.327  0.9236  1.2480 -2.2643
  168MPD2    N1 2571   4.185   2.723  12.252  0.0881  0.1680 -0.2530
  168MPD2    H7 2572   4.259   2.657  12.277  0.4131  1.3299  1.8267
  169MPD1     C 2573   1.680   2.622   9.079 -0.2729 -0.0450  0.5216
  169MPD1    C1 2574   1.630   2.525   8.999  0.4483 -0.0262  0.4538
  169MPD1    C2 2575   1.686   2.395   9.000 -0.3616  0.1190 -0.9860
  169MPD1    C3 2576   1.800   2.368   9.084 -0.1017  0.6691 -0.2980
  169MPD1    C4 2577   1.839   2.474   9.165 -0.9052  0.2320  0.3402
  169MPD1    C5 2578   1.777   2.596   9.168  0.9602 -0.2127  0.0522
  169MPD1     H 2579   1.651   2.323   8.927  2.7452 -0.5236 -1.8552
  169MPD1    H1 2580   1.917   2.457   9.238 -3.6186 -0.7265  3.0143
  169MPD1    H2 2581   1.626   2.716   9.080 -1.5270 -0.7684  1.7051
  169MPD1    H3 2582   1.807   2.672   9.239  0.7219  0.7391 -0.8577
  169MPD1     N 2583   1.847   2.231   9.095  0.2401 -0.2131  0.4489
  169MPD1    H5 2584   1.796   2.159   9.045  3.2608  0.1019 -3.1160
  169MPD1    N1 2585   1.530   2.549   8.907 -0.2039  0.0523 -0.3027
  169MPD1    H6 2586   1.479   2.465   8.880  0.9462 -0.2475 -1.5352
  169MPD1    H7 2587   1.468   2.626   8.932  0.6563  0.7964 -0.4396
  170MPD1     C 2588   0.218   0.092  13.288  0.1156  0.4720 -0.0473
  170MPD1    C1 2589   0.351   0.071  13.271  0.4966 -0.4882  1.1075
  170MPD1    C2 2590   0.428   0.140  13.360 -0.7841  0.5307  0.2027
  170MPD1    C3 2591   0.381   0.217  13.459  0.9428 -0.2735 -0.7323
  170MPD1    C4 2592   0.248   0.228  13.477  0.9666  0.6258  0.2329
  170MPD1    C5 2593   0.169   0.172  13.383  0.1781  0.1068 -0.3427
  170MPD1     H 2594   0.535   0.128  13.347 -1.2098 -0.8808 -1.9415
  170MPD1    H1 2595   0.201   0.286  13.556 -1.2991 -0.8553 -0.0318
  170MPD1    H2 2596   0.154   0.049  13.211  1.7814 -2.0920 -0.0357
  170MPD1    H3 2597   0.062   0.182  13.398  0.3862  0.5220  0.8961
  170MPD1     N 2598   0.478   0.256  13.560  0.2181  0.2281 -0.5582
  170MPD1    H5 2599   0.576   0.234  13.546  0.0163  0.1348 -1.8573
  170MPD1    N1 2600   0.411   4.705  13.185 -0.0623 -0.0877 -0.4499
  170MPD1    H6 2601   0.358   4.688  13.100  1.8466 -1.0321 -1.4539
  170MPD1    H7 2602   0.505   0.012  13.161 -0.7905  1.6486 -1.0392
  171MPD1     C 2603   4.216   1.229  15.443 -0.3745 -0.0446 -0.1832
  171MPD1    C1 2604   4.157   1.110  15.404  0.3402 -0.0556  0.1654
  171MPD1    C2 2605   4.228   0.994  15.439  0.5025 -0.9119 -0.0228
  171MPD1    C3 2606   4.355   0.994  15.494  0.2194  0.6088 -0.1137
  171MPD1    C4 2607   4.409   1.114  15.526 -0.1288  0.2214 -0.1727
  171MPD1    C5 2608   4.341   1.226  15.493 -0.4625 -0.1890  0.4221
  171MPD1     H 2609   4.180   0.897  15.424  0.6370 -1.1519  1.1084
  171MPD1    H1 2610   4.499   1.123  15.586  0.0305 -0.7500 -0.2680
  171MPD1    H2 2611   4.166   1.324  15.430  0.7009  0.8835  2.6320
  171MPD1    H3 2612   4.389   1.315  15.532  0.9022 -0.4787 -0.5793
  171MPD1     N 2613   4.415   0.879  15.549  0.3267 -0.0065  0.3339
  171MPD1    H5 2614   4.504   0.886  15.598  0.7798  2.4918 -0.8061
  171MPD1    N1 2615   4.022   1.101  15.356 -0.5260  0.6149  0.8187
  171MPD1    H6 2616   3.986   1.176  15.297  2.3219  0.4864 -1.1258
  171MPD1    H7 2617   4.009   1.027  15.287 -0.5770  0.7774  0.6513
  172MPD1     C 2618   3.549   0.094  17.245 -0.2669 -0.1503 -0.7279
  172MPD1    C1 2619   3.622   0.187  17.309  0.6369 -0.1106  0.2246
  172MPD1    C2 2620   3.598   0.223  17.440 -0.7870 -0.3290  0.2657
  172MPD1    C3 2621   3.491   0.165  17.511 -0.0374 -0.0846 -0.5659
  172MPD1    C4 2622   3.417   0.070  17.441  0.0640  0.3035  0.0228
  172MPD1    C5 2623   3.453   0.026  17.315 -0.4989  0.0720  0.3787
  172MPD1     H 2624   3.671   0.291  17.482  3.1617 -3.0067 -2.2660
  172MPD1    H1 2625   3.337   0.020  17.496 -0.5593 -0.3260 -1.4489
  172MPD1    H2 2626   3.573   0.069  17.142 -0.7617 -0.1456 -0.8448
  172MPD1    H3 2627   3.406   4.667  17.265  1.3337 -1.5332  1.3087
  172MPD1     N 2628   3.465   0.186  17.649  0.7141 -0.2626 -0.1954
  172MPD1    H5 2629   3.404   0.125   0.004  0.5438  0.1530  0.0816
  172MPD1    N1 2630   3.717   0.263  17.232 -0.6087  0.2275  0.1737
  172MPD1    H6 2631   3.779   0.292  17.307 -0.4234  0.2524  0.0105
  172MPD1    H7 2632   3.759   0.203  17.160 -1.6253  1.5834 -1.5575
  173MPD1     C 2633   4.700   0.457  14.735 -0.5215  0.7542 -0.1003
  173MPD1    C1 2634   0.003   0.394  14.614  0.0418  0.0193 -0.5122
  173MPD1    C2 2635   4.680   0.266  14.597  0.8487 -0.6333  0.3394
  173MPD1    C3 2636   4.618   0.191  14.700  0.0962 -0.3669 -0.1661
  173MPD1    C4 2637   4.588   0.256  14.816  0.4807  0.1164 -0.0247
  173MPD1    C5 2638   4.633   0.384  14.830  0.5535  0.4836  0.8338
  173MPD1     H 2639   4.697   0.216  14.503 -2.6622 -1.3294  0.0608
  173MPD1    H1 2640   4.540   0.210  14.902  2.9249  0.6359  1.6041
  173MPD1    H2 2641   0.005   0.559  14.757 -0.4245  0.6840  0.1029
  173MPD1    H3 2642   4.603   0.436  14.919  0.2158  0.3902  0.7725
  173MPD1     N 2643   4.580   0.054  14.678 -0.3146 -0.3835  0.6081
  173MPD1    H5 2644   4.602   0.011  14.589 -0.6955  0.9010 -0.1155
  173MPD1    N1 2645   0.087   0.455  14.526 -0.5528 -0.1443 -0.3401
  173MPD1    H6 2646   0.060   0.551  14.506 -1.1073 -0.5857 -1.6711
  173MPD1    H7 2647   0.084   0.417  14.432  0.6060 -0.8322 -0.0954
  174MPD1     C 2648   4.692   4.343  13.988 -0.0672 -0.2499  0.1519
  174MPD1    C1 2649   4.584   4.276  14.038  0.2125 -0.5588  0.4356
  174MPD1    C2 2650   4.542   4.302  14.162  0.5062  0.1121 -0.1788
  174MPD1    C3 2651   4.592   4.410  14.232  0.5454 -0.4060 -0.3459
  174MPD1    C4 2652   4.691   4.483  14.173 -0.4588 -0.1752 -0.4793
  174MPD1    C5 2653   0.019   4.450  14.058 -0.1612 -0.4363 -0.1767
  174MPD1     H 2654   4.454   4.256  14.203 -0.9655  1.4282 -1.8782
  174MPD1    H1 2655   0.004   4.577  14.212  1.5059 -0.5810 -1.3805
  174MPD1    H2 2656   0.001   4.320  13.888 -2.0225 -0.4977 -0.4368
  174MPD1    H3 2657   0.108   4.504  14.025 -0.3141  0.1185  0.3099
  174MPD1     N 2658   4.551   4.444  14.359  0.6132 -0.1733 -0.4799
  174MPD1    H5 2659   4.585   4.535  14.388  0.7663 -0.0561 -1.0265
  174MPD1    N1 2660   4.536   4.161  13.969 -0.2253  0.2828 -0.3792
  174MPD1    H6 2661   4.559   4.168  13.870  0.7405  2.3467 -0.0066
  174MPD1    H7 2662   4.435   4.150  13.975  0.1372 -2.0353  1.5121
  175MPD1     C 2663   3.314   1.401  14.943 -0.4013  0.1852 -0.0013
  175MPD1    C1 2664   3.296   1.265  14.943  0.2562 -0.2097  0.0777
  175MPD1    C2 2665   3.277   1.201  15.066 -0.4699  0.3266 -0.3681
  175MPD1    C3 2666   3.253   1.280  15.181 -0.4532  0.0191  0.1974
  175MPD1    C4 2667   3.244   1.415  15.175 -0.5406 -0.7471 -0.4476
  175MPD1    C5 2668   3.286   1.474  15.062  0.3920  0.3168  0.0093
  175MPD1     H 2669   3.269   1.093  15.074  0.1194  0.4380  1.8563
  175MPD1    H1 2670   3.219   1.477  15.260  0.4098  1.4835 -1.7616
  175MPD1    H2 2671   3.342   1.455  14.854 -0.8675  0.7449  0.1952
  175MPD1    H3 2672   3.306   1.580  15.063 -1.3442  0.6588 -0.9984
  175MPD1     N 2673   3.235   1.218  15.305 -0.2055 -0.7964 -0.4598
  175MPD1    H5 2674   3.217   1.278  15.385 -1.4874 -0.3975 -1.0497
  175MPD1    N1 2675   3.352   1.196  14.836  0.0256  1.1292 -0.3425
  175MPD1    H6 2676   3.332   1.240  14.746 -0.9995  1.7055  0.1690
  175MPD1    H7 2677   3.318   1.100  14.833  1.5900  0.5457  0.6153
  176MPD1     C 2678   0.074   2.422  16.555  0.8828 -0.2475  0.7486
  176MPD1    C1 2679   0.005   2.541  16.556 -0.1771  0.0731 -0.4602
  176MPD1    C2 2680   4.708   2.609  16.675  0.3964 -0.1100 -0.3823
  176MPD1    C3 2681   0.025   2.562  16.799 -0.0379  0.2730  0.3174
  176MPD1    C4 2682   0.104   2.444  16.791  0.4058 -0.1396  0.4100
  176MPD1    C5 2683   0.124   2.377  16.674 -0.0486 -0.1527  0.4554
  176MPD1     H 2684   4.644   2.696  16.670 -0.5552 -0.9441 -2.4959
  176MPD1    H1 2685   0.149   2.390  16.873 -1.8681 -2.0014  0.4236
  176MPD1    H2 2686   0.089   2.359  16.468 -2.8923 -1.4914  0.9787
  176MPD1    H3 2687   0.184   2.286  16.670 -1.6863 -1.1174 -2.1684
  176MPD1     N 2688   0.006   2.638  16.920 -0.2357 -1.0827 -0.1210
  176MPD1    H5 2689   4.674   2.723  16.916  0.6132 -0.4950  0.2572
  176MPD1    N1 2690   4.674   2.589  16.435 -0.4536 -0.2221  0.3107
  176MPD1    H6 2691   4.574   2.607  16.436 -0.2301  1.0845 -0.5985
  176MPD1    H7 2692   4.684   2.540  16.347  1.2468 -0.8802  0.8693
  177MPD1     C 2693   2.682   2.222   9.161  0.0903  0.8298 -0.8065
  177MPD1    C1 2694   2.552   2.256   9.135  0.3768  0.0633  0.2055
  177MPD1    C2 2695   2.483   2.335   9.226 -0.2629 -0.3763 -0.0799
  177MPD1    C3 2696   2.546   2.384   9.341  0.0622  0.0151 -0.0694
  177MPD1    C4 2697   2.683   2.347   9.361  0.6707 -0.1380 -0.1661
  177MPD1    C5 2698   2.745   2.258   9.277  0.2283 -0.0706 -0.1257
  177MPD1     H 2699   2.382   2.367   9.202  0.2378  0.4757 -1.0387
  177MPD1    H1 2700   2.746   2.401   9.430 -0.6403 -0.5256  1.3205
  177MPD1    H2 2701   2.738   2.162   9.090  2.0416  0.0762  1.3757
  177MPD1    H3 2702   2.851   2.235   9.285 -0.1010 -0.7525  2.2323
  177MPD1     N 2703   2.476   2.483   9.413 -0.1900  1.4700  0.5946
  177MPD1    H5 2704   2.381   2.504   9.383  0.4110  2.7146 -0.4769
  177MPD1    N1 2705   2.491   2.208   9.011  0.1521  0.1626  0.4876
  177MPD1    H6 2706   2.558   2.152   8.959 -1.8114 -0.6561 -1.1504
  177MPD1    H7 2707   2.406   2.152   9.015  0.1838  0.0322 -0.7639
  178MPD1     C 2708   0.644   3.339   0.548 -0.1680 -1.0380 -0.4054
  178MPD1    C1 2709   0.753   3.425   0.547  0.0065 -0.5877 -0.0353
  178MPD1    C2 2710   0.832   3.443   0.434 -0.3157  0.1114 -0.1954
  178MPD1    C3 2711   0.820   3.364   0.328  0.3974  0.4300  0.4349
  178MPD1    C4 2712   0.719   3.264   0.332  0.0079  0.4840 -0.7999
  178MPD1    C5 2713   0.637   3.252   0.440 -0.4252  0.7146  0.4607
  178MPD1     H 2714   0.912   3.516   0.442  0.3809 -0.8568  1.7016
  178MPD1    H1 2715   0.696   3.198   0.249  0.9712  1.1120 -1.5669
  178MPD1    H2 2716   0.569   3.339   0.626 -0.3983  0.2155 -0.6281
  178MPD1    H3 2717   0.545   3.197   0.428  0.7979 -1.3625  0.6271
  178MPD1     N 2718   0.896   3.380   0.204  0.1282  0.1804 -0.0666
  178MPD1    H5 2719   0.883   3.313   0.129  1.0342 -0.7292  0.5876
  178MPD1    N1 2720   0.763   3.511   0.654  0.3678  0.2205  0.8974
  178MPD1    H6 2721   0.745   3.467   0.745 -0.7384  0.4263  0.7857
  178MPD1    H7 2722   0.854   3.555   0.656 -0.6613  2.4409 -1.1827
  179MPD1     C 2723   1.343   1.887  15.941  0.3737  0.2193  0.0511
  179MPD1    C1 2724   1.254   1.957  15.866  0.3141 -0.2609  0.3932
  179MPD1    C2 2725   1.153   1.888  15.801  0.5525 -0.4568 -0.5143
  179MPD1    C3 2726   1.155   1.753  15.782  0.5044  0.3078  0.1040
  179MPD1    C4 2727   1.247   1.684  15.851  0.0406 -0.2866  0.2187
  179MPD1    C5 2728   1.347   1.747  15.925 -0.1167  0.5694 -0.5514
  179MPD1     H 2729   1.076   1.954  15.762  0.2485 -0.3125  0.3286
  179MPD1    H1 2730   1.249   1.576  15.844  1.2959 -0.2552  0.1466
  179MPD1    H2 2731   1.405   1.924  16.022  1.3190 -0.4638 -0.3579
  179MPD1    H3 2732   1.429   1.694  15.972 -0.3600  0.9878  0.3559
  179MPD1     N 2733   1.044   1.676  15.727 -0.9853  0.2200 -0.2873
  179MPD1    H5 2734   1.034   1.577  15.750  0.1844  0.9110  3.1591
  179MPD1    N1 2735   1.239   2.092  15.886 -0.5529  0.2848 -0.6451
  179MPD1    H6 2736   1.335   2.121  15.904 -0.6259 -0.1056  0.3770
  179MPD1    H7 2737   1.206   2.158  15.816  0.0435  1.9562  0.6374
  180MPD1     C 2738   4.672   3.160  14.956 -0.1889 -0.6421  0.5748
  180MPD1    C1 2739   4.625   3.101  14.839 -0.0684 -0.6787 -0.1223
  180MPD1    C2 2740   4.710   3.123  14.730 -0.3039  0.1423  0.3516
  180MPD1    C3 2741   0.091   3.208  14.730  0.1278  0.7297 -0.1232
  180MPD1    C4 2742   0.130   3.262  14.853  0.3377 -0.2685 -0.3058
  180MPD1    C5 2743   0.056   3.238  14.961  0.2812  0.2589 -0.9337
  180MPD1     H 2744   4.689   3.057  14.646 -1.9777  1.5490 -0.3346
  180MPD1    H1 2745   0.210   3.334  14.861 -0.0460  0.1006  0.1319
  180MPD1    H2 2746   4.624   3.151  15.052 -0.1444  0.6527  0.7059
  180MPD1    H3 2747   0.074   3.286  15.057 -1.2536 -0.9108 -0.0630
  180MPD1     N 2748   0.151   3.239  14.609 -0.2628  0.3351 -0.1414
  180MPD1    H5 2749   0.110   3.198  14.526  1.5648 -0.6348 -0.5587
  180MPD1    N1 2750   4.529   3.006  14.847 -0.8994 -1.0206  0.7645
  180MPD1    H6 2751   4.480   3.008  14.936  1.4006  0.1165  1.9729
  180MPD1    H7 2752   4.462   3.017  14.771  2.5071  0.9861 -1.8951
  181MPD1     C 2753   1.856   4.649   9.233  0.4011  0.2661  0.3386
  181MPD1    C1 2754   1.947   0.004   9.296  0.5336 -0.4762 -0.2905
  181MPD1    C2 2755   2.009   4.681   9.411  1.0800 -0.7050 -0.4303
  181MPD1    C3 2756   1.978   4.554   9.463  0.4066  0.1892 -0.2958
  181MPD1    C4 2757   1.889   4.472   9.394 -0.5764 -0.4868  0.5105
  181MPD1    C5 2758   1.821   4.524   9.286  0.0418  0.6224  0.1125
  181MPD1     H 2759   2.079   0.022   9.461  1.2199 -0.3009 -1.1490
  181MPD1    H1 2760   1.863   4.376   9.438 -2.1430  0.6647  2.1321
  181MPD1    H2 2761   1.805   4.671   9.140  0.4838  1.0169  0.4669
  181MPD1    H3 2762   1.750   4.464   9.231  1.2474 -2.1283  1.5515
  181MPD1     N 2763   2.052   4.498   9.575 -0.4237 -0.3214  0.6821
  181MPD1    H5 2764   2.043   4.398   9.585 -0.2923 -0.2452  1.6479
  181MPD1    N1 2765   1.954   0.142   9.247  0.0289  0.6955  0.1738
  181MPD1    H6 2766   2.042   0.188   9.266 -0.7858  1.4764  2.1134
  181MPD1    H7 2767   1.912   0.150   9.155 -0.4116  0.7489  0.3776
  182MPD1     C 2768   3.663   3.553   1.311  0.3290  0.3662 -0.3610
  182MPD1    C1 2769   3.687   3.560   1.174 -0.1259 -0.0865  0.1731
  182MPD1    C2 2770   3.578   3.576   1.094  0.5330 -0.4372  0.9373
  182MPD1    C3 2771   3.450   3.615   1.131  0.8026  0.8622 -0.5215
  182MPD1    C4 2772   3.436   3.635   1.265 -0.0958  0.4417  0.1919
  182MPD1    C5 2773   3.532   3.595   1.354 -0.0068 -0.7770 -0.1466
  182MPD1     H 2774   3.605   3.550   0.993  3.0798  2.1019  0.9778
  182MPD1    H1 2775   3.339   3.662   1.305 -0.8460 -2.6178  0.4418
  182MPD1    H2 2776   3.728   3.520   1.391  1.4979  1.3424 -0.9096
  182MPD1    H3 2777   3.518   3.595   1.462  0.8583 -0.6735 -0.0306
  182MPD1     N 2778   3.342   3.640   1.042 -0.2421  0.7720 -0.2098
  182MPD1    H5 2779   3.249   3.664   1.075 -0.6869  1.3398 -1.8860
  182MPD1    N1 2780   3.811   3.517   1.122 -0.3929 -0.7542  0.1918
  182MPD1    H6 2781   3.892   3.542   1.177 -0.2531  1.1958 -0.9146
  182MPD1    H7 2782   3.823   3.560   1.031 -1.3682 -0.0198  0.4136
  183MPD1     C 2783   3.176   0.603   9.760  0.4598  0.1586  0.5181
  183MPD1    C1 2784   3.099   0.622   9.872  0.6130 -0.2548  0.4419
  183MPD1    C2 2785   3.016   0.521   9.907  0.8761  0.2124  0.5012
  183MPD1    C3 2786   3.036   0.390   9.864  0.2496  0.2745 -0.4570
  183MPD1    C4 2787   3.133   0.365   9.760 -0.3685  0.0153 -0.0755
  183MPD1    C5 2788   3.200   0.474   9.715 -0.3291  0.1532  0.4776
  183MPD1     H 2789   2.961   0.540   9.999 -0.4964 -1.8317  0.1053
  183MPD1    H1 2790   3.151   0.261   9.734 -0.6862 -0.6444  2.2742
  183MPD1    H2 2791   3.234   0.683   9.715 -2.4432  0.9008 -1.8655
  183MPD1    H3 2792   3.279   0.463   9.642  0.2035 -3.2176  1.5532
  183MPD1     N 2793   2.955   0.296   9.928  0.1251  0.3743  0.3293
  183MPD1    H5 2794   2.878   0.327   9.986  0.9976  1.3722  0.9452
  183MPD1    N1 2795   3.090   0.750   9.925 -0.2295  0.3522 -0.3042
  183MPD1    H6 2796   3.050   0.737  10.018 -0.4546 -1.2727 -0.6266
  183MPD1    H7 2797   3.179   0.797   9.938  0.5959 -1.2506 -0.1317
  184MPD1     C 2798   2.951   2.349   9.806 -0.0680  0.1406 -0.5695
  184MPD1    C1 2799   2.884   2.302   9.701 -0.1236 -0.7211 -0.1470
  184MPD1    C2 2800   2.745   2.290   9.713  0.3699  0.5626  0.1488
  184MPD1    C3 2801   2.674   2.313   9.827  0.7464 -0.7696  0.3513
  184MPD1    C4 2802   2.742   2.372   9.928  0.5463 -0.1426 -0.2698
  184MPD1    C5 2803   2.883   2.381   9.925  0.5809  0.2473  1.0452
  184MPD1     H 2804   2.696   2.249   9.626 -1.1463  0.0205  1.2514
  184MPD1    H1 2805   2.692   2.405  10.018  1.0785  1.7919 -0.6791
  184MPD1    H2 2806   3.059   2.349   9.806 -0.0797  2.0771 -0.8641
  184MPD1    H3 2807   2.936   2.417  10.012 -0.1213  1.5462  0.9398
  184MPD1     N 2808   2.537   2.298   9.839 -0.2396 -0.0586 -0.2311
  184MPD1    H5 2809   2.492   2.327   9.925 -0.2648 -2.5909  0.6102
  184MPD1    N1 2810   2.947   2.251   9.586  0.2743 -0.4534  0.3860
  184MPD1    H6 2811   2.893   2.237   9.501 -0.8428  2.4889  0.6112
  184MPD1    H7 2812   3.030   2.305   9.564 -0.1534 -1.2972 -3.2558
  185MPD1     C 2813   1.751   1.693  10.115 -0.1407 -0.0534  0.0337
  185MPD1    C1 2814   1.876   1.670  10.062  0.3994 -0.2232  0.0675
  185MPD1    C2 2815   1.931   1.769   9.982  0.3692  0.3925 -0.1806
  185MPD1    C3 2816   1.861   1.876   9.938 -0.0343  0.2313  0.4295
  185MPD1    C4 2817   1.739   1.898   9.990  0.3597  1.2054  0.1682
  185MPD1    C5 2818   1.683   1.809  10.075  0.6916 -0.2541  0.1372
  185MPD1     H 2819   2.032   1.745   9.950  0.3805 -0.3707  0.4397
  185MPD1    H1 2820   1.684   1.980   9.946  1.7243  1.2136 -1.5252
  185MPD1    H2 2821   1.698   1.620  10.176 -1.0036  2.2685  2.1036
  185MPD1    H3 2822   1.584   1.830  10.113  0.6967 -0.1949  0.1180
  185MPD1     N 2823   1.921   1.978   9.864  0.3975  0.4739  0.0963
  185MPD1    H5 2824   1.865   2.062   9.852  1.0585  0.6054 -2.1021
  185MPD1    N1 2825   1.953   1.568  10.110 -0.6489  0.0382 -0.1612
  185MPD1    H6 2826   1.913   1.494  10.168 -2.0930  0.5105 -0.5597
  185MPD1    H7 2827   2.016   1.526  10.041  0.1383 -1.2053  1.3158
  186MPD1     C 2828   0.999   1.398  16.116 -0.7748  0.7469  0.0433
  186MPD1    C1 2829   0.985   1.349  16.248  0.8895  0.3306  0.0252
  186MPD1    C2 2830   1.006   1.439  16.347 -0.5547 -1.0251 -0.8855
  186MPD1    C3 2831   1.059   1.565  16.330  0.1489 -0.0918  0.4151
  186MPD1    C4 2832   1.075   1.606  16.196  0.7174 -0.0669  0.0934
  186MPD1    C5 2833   1.041   1.527  16.093  0.5947  1.0055 -0.0426
  186MPD1     H 2834   0.997   1.390  16.443  0.2988 -1.9619 -1.2762
  186MPD1    H1 2835   1.103   1.708  16.174  0.3893 -0.1000 -0.4846
  186MPD1    H2 2836   0.972   1.336  16.031  0.8754 -0.0718  0.1181
  186MPD1    H3 2837   1.039   1.568  15.993  1.2168 -3.3540 -1.8219
  186MPD1     N 2838   1.082   1.659  16.433  0.1673 -0.3881 -0.1157
  186MPD1    H5 2839   1.116   1.750  16.406 -0.2984 -0.0378  0.4647
  186MPD1    N1 2840   0.949   1.222  16.269  0.7672 -0.0981 -0.5214
  186MPD1    H6 2841   0.857   1.228  16.226  1.0159  0.5904 -0.9515
  186MPD1    H7 2842   0.933   1.205  16.369  1.0678  2.5801 -0.0131
  187MPD1     C 2843   0.239   3.627   0.639 -0.9767 -0.7946  0.3906
  187MPD1    C1 2844   0.116   3.612   0.570  0.0326  0.6033  0.3598
  187MPD1    C2 2845   0.101   3.658   0.438 -0.1769  0.6095 -0.5861
  187MPD1    C3 2846   0.213   3.704   0.376  0.2424  0.2143  0.6718
  187MPD1    C4 2847   0.332   3.702   0.441  0.1473 -0.0621  0.2805
  187MPD1    C5 2848   0.350   3.671   0.568 -0.6746 -0.6240 -0.1021
  187MPD1     H 2849   0.002   3.656   0.395 -0.2117 -1.2622 -0.4070
  187MPD1    H1 2850   0.424   3.728   0.390 -0.2777 -0.4074 -0.6520
  187MPD1    H2 2851   0.259   3.592   0.739  2.2232 -1.3458 -0.4304
  187MPD1    H3 2852   0.446   3.686   0.617  0.1027 -1.4711 -1.3951
  187MPD1     N 2853   0.206   3.770   0.252  0.3065  0.8205  0.2336
  187MPD1    H5 2854   0.282   3.824   0.213  1.8738  0.8518  3.4048
  187MPD1    N1 2855   0.010   3.541   0.628 -0.2846 -0.7975 -0.4845
  187MPD1    H6 2856   4.647   3.567   0.583  1.0721  0.4082 -2.4275
  187MPD1    H7 2857   0.010   3.547   0.730  1.2877 -0.4982 -0.4944
  188MPD1     C 2858   4.423   4.074  10.282 -0.3486 -0.1733 -0.3825
  188MPD1    C1 2859   4.333   4.114  10.187 -0.2603  0.5687  0.0924
  188MPD1    C2 2860   4.332   4.038  10.076  0.3899 -0.1190 -0.5134
  188MPD1    C3 2861   4.398   3.914  10.066 -0.4449 -0.0222  1.2923
  188MPD1    C4 2862   4.494   3.879  10.160 -0.3458 -0.6886 -0.2410
  188MPD1    C5 2863   4.506   3.968  10.265  0.8873 -0.2382  0.6548
  188MPD1     H 2864   4.272   4.078   9.995  1.7303  0.8961 -0.9919
  188MPD1    H1 2865   4.571   3.804  10.143  0.1188 -0.3881  0.5134
  188MPD1    H2 2866   4.430   4.123  10.379 -2.4514 -1.7449  0.5583
  188MPD1    H3 2867   4.572   3.949  10.349  0.4041  0.4482  1.1888
  188MPD1     N 2868   4.398   3.844   9.943  0.3214  0.3355 -0.5874
  188MPD1    H5 2869   4.466   3.769   9.937 -0.6112 -0.5745  0.1335
  188MPD1    N1 2870   4.282   4.244  10.182 -0.7759 -0.6322  0.1476
  188MPD1    H6 2871   4.201   4.249  10.120 -0.1681  0.4145 -0.5482
  188MPD1    H7 2872   4.252   4.274  10.274  1.7234 -0.8930  1.0353
  189MPD1     C 2873   2.201   3.475   0.289 -0.1787  0.4474 -0.3784
  189MPD1    C1 2874   2.149   3.588   0.353  0.3979 -0.3912  0.5537
  189MPD1    C2 2875   2.151   3.701   0.273 -0.1346 -0.0585  0.1273
  189MPD1    C3 2876   2.178   3.706   0.140  0.2729 -0.5334  0.6882
  189MPD1    C4 2877   2.219   3.592   0.078  0.3104  0.5472  0.0378
  189MPD1    C5 2878   2.230   3.486   0.151 -1.1762 -0.0537  0.0378
  189MPD1     H 2879   2.119   3.798   0.308 -0.3538  0.2930 -1.0228
  189MPD1    H1 2880   2.238   3.577  17.671  2.1375 -1.7141  0.6929
  189MPD1    H2 2881   2.220   3.377   0.331  0.8912  0.3742 -1.0301
  189MPD1    H3 2882   2.275   3.400   0.103 -0.6641 -0.3487  1.0405
  189MPD1     N 2883   2.159   3.835   0.071  0.2643  0.0304  0.3050
  189MPD1    H5 2884   2.147   3.914   0.134 -1.0918  0.9131 -1.0711
  189MPD1    N1 2885   2.141   3.580   0.500 -0.5789 -0.1143 -0.4809
  189MPD1    H6 2886   2.130   3.484   0.533 -0.9177  0.4688  1.1130
  189MPD1    H7 2887   2.071   3.637   0.548  0.9980  1.5045 -0.0983
  190MPD1     C 2888   0.487   3.148  15.529 -0.4254 -0.5068  0.3939
  190MPD1    C1 2889   0.610   3.187  15.492  0.1699 -0.4395 -0.0469
  190MPD1    C2 2890   0.717   3.157  15.577  0.1708  0.6742 -0.0548
  190MPD1    C3 2891   0.694   3.078  15.691  1.0234  1.3458  0.2680
  190MPD1    C4 2892   0.565   3.032  15.719 -0.8240 -0.6964  0.2680
  190MPD1    C5 2893   0.460   3.080  15.642  0.3419 -0.0187  1.2442
  190MPD1     H 2894   0.820   3.189  15.573  0.8237 -1.7894 -2.8980
  190MPD1    H1 2895   0.547   2.976  15.810  1.4145 -2.5186 -0.4139
  190MPD1    H2 2896   0.399   3.182  15.477  0.3846 -0.5343 -0.9779
  190MPD1    H3 2897   0.361   3.041  15.663  1.3275 -2.8998  0.4079
  190MPD1     N 2898   0.801   3.056  15.786 -0.9628  0.3087 -0.7576
  190MPD1    H5 2899   0.887   3.103  15.761 -2.0086  2.5058 -0.2064
  190MPD1    N1 2900   0.634   3.279  15.384 -0.0364  0.0876  0.6492
  190MPD1    H6 2901   0.727   3.265  15.345  1.3819  2.3120  3.2300
  190MPD1    H7 2902   0.571   3.262  15.306  1.6019  0.3420 -0.7084
  191MPD1     C 2903   0.023   0.406  13.148  0.2847  0.6734 -0.4280
  191MPD1    C1 2904   0.134   0.470  13.110  0.4978 -0.7304 -0.5307
  191MPD1    C2 2905   0.128   0.567  13.013 -0.0203 -0.5626 -0.6766
  191MPD1    C3 2906   0.019   0.591  12.943 -0.1354 -0.0287 -0.4459
  191MPD1    C4 2907   4.627   0.516  12.979 -0.1831 -0.1455 -0.3903
  191MPD1    C5 2908   4.627   0.433  13.087 -0.5454  0.0236  0.0461
  191MPD1     H 2909   0.219   0.619  12.983  1.1429 -1.2258  1.7018
  191MPD1    H1 2910   4.534   0.522  12.925 -0.5195  1.2177  0.3450
  191MPD1    H2 2911   0.023   0.336  13.230  2.1057  0.2008 -0.8223
  191MPD1    H3 2912   4.547   0.363  13.106 -1.6098  0.8081 -1.5488
  191MPD1     N 2913   0.021   0.675  12.833 -0.2152  0.0283  0.3269
  191MPD1    H5 2914   0.109   0.715  12.801 -0.7964 -0.0678 -1.3382
  191MPD1    N1 2915   0.254   0.440  13.182 -0.4775 -0.0967 -0.5735
  191MPD1    H6 2916   0.269   0.350  13.229  0.7310  0.7595  0.6700
  191MPD1    H7 2917   0.343   0.464  13.140  0.0891 -0.6216  0.3160
  192MPD1     C 2918   4.174   1.554  12.439  0.1027  0.2095  0.2835
  192MPD1    C1 2919   4.140   1.454  12.529 -0.1243 -0.0668 -0.2921
  192MPD1    C2 2920   4.230   1.344  12.546 -0.1675 -0.3304  0.1475
  192MPD1    C3 2921   4.346   1.340  12.478  0.0341 -0.3660  0.1475
  192MPD1    C4 2922   4.366   1.432  12.382 -0.3179 -0.4187  0.3656
  192MPD1    C5 2923   4.284   1.535  12.363 -0.5067 -0.0213  0.5645
  192MPD1     H 2924   4.213   1.266  12.620 -0.4356  0.6915  1.1686
  192MPD1    H1 2925   4.450   1.422  12.313  0.4050 -0.2723  1.2223
  192MPD1    H2 2926   4.110   1.640  12.427 -0.1794 -0.1735 -0.9029
  192MPD1    H3 2927   4.308   1.603  12.282 -1.4225 -0.9751 -0.5110
  192MPD1     N 2928   4.447   1.232  12.487  0.0789 -0.2689  0.5142
  192MPD1    H5 2929   4.535   1.236  12.436 -1.0183 -0.6469 -1.3846
  192MPD1    N1 2930   4.027   1.466  12.610  0.0970  0.3702  0.5341
  192MPD1    H6 2931   3.950   1.528  12.586  0.1739  0.1887 -0.1819
  192MPD1    H7 2932   3.993   1.370  12.618 -1.7171  0.8801 -1.0907
  193MPD1     C 2933   3.938   0.718  16.176  0.0449  0.3228  0.9069
  193MPD1    C1 2934   4.037   0.619  16.167  0.7493  0.1820  0.2905
  193MPD1    C2 2935   4.156   0.632  16.239 -0.7676  0.7463  0.6900
  193MPD1    C3 2936   4.165   0.742  16.335  0.7377 -0.9229 -0.0716
  193MPD1    C4 2937   4.064   0.833  16.352 -0.8067 -0.1802 -0.0197
  193MPD1    C5 2938   3.957   0.825  16.262 -0.0580 -0.1704  0.0457
  193MPD1     H 2939   4.235   0.559  16.224  1.2177  3.2147 -0.8386
  193MPD1    H1 2940   4.067   0.916  16.421  1.2791 -1.0907  0.9751
  193MPD1    H2 2941   3.843   0.712  16.123 -1.1372 -3.4552  3.4291
  193MPD1    H3 2942   3.872   0.889  16.285 -0.4308 -0.3205 -0.9378
  193MPD1     N 2943   4.282   0.764  16.420  0.0154 -0.2857  0.0925
  193MPD1    H5 2944   4.275   0.837  16.490  1.7318 -0.6469  0.6268
  193MPD1    N1 2945   4.026   0.534  16.056 -0.3656  0.5615  0.2518
  193MPD1    H6 2946   4.083   0.450  16.061 -3.2868 -1.4242 -0.0084
  193MPD1    H7 2947   3.928   0.507  16.045 -1.0608  2.2581  2.2413
  194MPD1     C 2948   2.022   2.320  17.412 -0.3396  0.8794  0.2259
  194MPD1    C1 2949   1.948   2.228  17.488 -0.0501  0.2589 -0.1702
  194MPD1    C2 2950   1.944   2.099  17.447  0.2341  0.3517  0.5734
  194MPD1    C3 2951   1.997   2.053  17.332 -0.3326 -0.1406  0.1556
  194MPD1    C4 2952   2.052   2.142  17.248  0.3372  0.3453  0.6623
  194MPD1    C5 2953   2.067   2.277  17.291  0.5495 -0.2444 -0.1502
  194MPD1     H 2954   1.882   2.035  17.508 -0.7569  1.9950  1.2617
  194MPD1    H1 2955   2.092   2.113  17.152  0.3394 -3.7864  1.9112
  194MPD1    H2 2956   2.031   2.423  17.443  1.3389  0.7925  0.0134
  194MPD1    H3 2957   2.108   2.348  17.220 -0.4580  3.0694  2.5801
  194MPD1     N 2958   2.000   1.915  17.287 -0.2264 -0.0241  0.0789
  194MPD1    H5 2959   2.048   1.893  17.200  0.3322 -1.1292  0.6710
  194MPD1    N1 2960   1.925   2.260  17.622  0.0088 -0.0061 -0.2556
  194MPD1    H6 2961   1.837   2.225  17.659  0.0121 -1.0282 -1.2220
  194MPD1    H7 2962   1.921   2.361  17.631  2.4125  0.1749 -1.1360
  195MPD1     C 2963   4.617   4.461  17.546  0.0626  0.1255  0.4420
  195MPD1    C1 2964   4.483   4.433  17.556 -0.0526 -0.3376  0.0897
  195MPD1    C2 2965   4.446   4.298  17.572  0.6808  0.1747  0.6269
  195MPD1    C3 2966   4.537   4.194  17.588  0.9063 -0.0990  1.1204
  195MPD1    C4 2967   4.671   4.222  17.581  0.2853 -0.8288 -0.0902
  195MPD1    C5 2968   4.708   4.354  17.558  0.6361 -0.1873 -0.1342
  195MPD1     H 2969   4.341   4.287  17.595  0.2752  1.0411 -0.8007
  195MPD1    H1 2970   0.019   4.142  17.578 -1.7313 -2.5973 -1.3358
  195MPD1    H2 2971   4.662   4.559  17.536  2.1258 -0.6851  1.7137
  195MPD1    H3 2972   0.091   4.367  17.555  0.5961  0.1649 -0.0664
  195MPD1     N 2973   4.495   4.070  17.636  0.2114 -0.2614 -0.3543
  195MPD1    H5 2974   4.566   4.014  17.682  2.5118  0.1583 -3.3891
  195MPD1    N1 2975   4.391   4.535  17.536  0.4600  0.0017 -0.2222
  195MPD1    H6 2976   4.308   4.513  17.590 -0.2191 -2.4334 -2.2369
  195MPD1    H7 2977   4.416   4.631  17.558  3.0195 -0.8006  0.3894
  196MPD1     C 2978   3.555   3.146  17.391  0.7278 -0.4192  0.0800
  196MPD1    C1 2979   3.564   3.285  17.401 -0.4414  0.1236  0.2789
  196MPD1    C2 2980   3.613   3.332  17.520 -0.3196  0.3527 -0.0354
  196MPD1    C3 2981   3.628   3.253  17.634  0.1523 -0.6943  0.2249
  196MPD1    C4 2982   3.614   3.121  17.625  0.6256  0.0289 -0.7934
  196MPD1    C5 2983   3.570   3.070  17.508  0.3427 -0.5168 -0.2233
  196MPD1     H 2984   3.611   3.441  17.524  2.1109  0.3437  1.1665
  196MPD1    H1 2985   3.620   3.051   0.009  1.4328  0.5502 -0.4183
  196MPD1    H2 2986   3.523   3.089  17.304  2.1943 -0.1604 -0.6242
  196MPD1    H3 2987   3.573   2.962  17.496  0.1708 -0.3883 -1.3997
  196MPD1     N 2988   3.667   3.308   0.062 -0.6618 -0.4078  0.4562
  196MPD1    H5 2989   3.660   3.242   0.139 -0.1184  1.4867  2.1032
  196MPD1    N1 2990   3.562   3.381  17.295 -0.1250  0.4564 -0.2978
  196MPD1    H6 2991   3.510   3.352  17.212  2.5865  0.7856 -2.0929
  196MPD1    H7 2992   3.524   3.469  17.329 -1.5492  0.2006 -1.2266
  197MPD1     C 2993   3.048   0.641  17.221  0.6741 -1.0862  0.7516
  197MPD1    C1 2994   3.163   0.690  17.272 -0.1863  0.4533  0.3832
  197MPD1    C2 2995   3.256   0.756  17.195  0.2576 -0.1094  0.4432
  197MPD1    C3 2996   3.231   0.763  17.063 -0.4899  0.0100  0.4164
  197MPD1    C4 2997   3.115   0.715  17.011  0.8459 -0.5220  0.4917
  197MPD1    C5 2998   3.020   0.651  17.087  0.1231 -0.0162 -0.3353
  197MPD1     H 2999   3.349   0.796  17.234 -0.2210  1.3708  0.0518
  197MPD1    H1 3000   3.098   0.725  16.904 -1.6579  0.4133  0.9693
  197MPD1    H2 3001   2.992   0.570  17.281 -0.8667  1.4205  2.2220
  197MPD1    H3 3002   2.943   0.593  17.037 -1.0401  0.8179  0.4959
  197MPD1     N 3003   3.315   0.834  16.967  0.0165 -0.3831  0.3716
  197MPD1    H5 3004   3.293   0.836  16.868  2.5594 -0.2219 -0.1729
  197MPD1    N1 3005   3.180   0.688  17.411  0.0156  0.5468 -0.6776
  197MPD1    H6 3006   3.114   0.624  17.455  0.9936 -1.6157 -2.3364
  197MPD1    H7 3007   3.274   0.670  17.447 -0.5243  1.8705  1.3885
  198MPD1     C 3008   0.242   4.601  15.323  0.5014 -0.0613  0.5061
  198MPD1    C1 3009   0.352   4.676  15.336 -0.1945  0.6885  0.5941
  198MPD1    C2 3010   0.442   4.647  15.436 -0.3351  0.0307  0.0859
  198MPD1    C3 3011   0.411   4.548  15.527  0.0102  0.3765 -0.1917
  198MPD1    C4 3012   0.292   4.470  15.513 -0.7092  0.1099  0.2278
  198MPD1    C5 3013   0.213   4.503  15.410  0.0918 -0.2951  0.2417
  198MPD1     H 3014   0.535   4.702  15.447 -0.6122  0.7029 -0.9403
  198MPD1    H1 3015   0.272   4.393  15.587  0.7325 -1.7106 -1.2827
  198MPD1    H2 3016   0.157   4.630  15.261  1.1827  0.1255 -0.3309
  198MPD1    H3 3017   0.117   4.455  15.391  1.5604 -2.8221 -0.8368
  198MPD1     N 3018   0.501   4.538  15.635  0.0714 -0.4735  0.4311
  198MPD1    H5 3019   0.586   4.593  15.622  0.6153 -1.2901  0.5596
  198MPD1    N1 3020   0.379   0.049  15.242  0.5481 -0.0667  0.3245
  198MPD1    H6 3021   0.295   0.103  15.221  0.7458  0.2637  0.3775
  198MPD1    H7 3022   0.462   0.106  15.259  0.0474  0.8698 -0.3788
  199MPD1     C 3023   2.277   1.133  10.176  0.0830  0.1682 -1.0054
  199MPD1    C1 3024   2.147   1.095  10.188 -0.6948  0.6185  0.4874
  199MPD1    C2 3025   2.080   1.053  10.077  0.8229 -0.4422 -0.9047
  199MPD1    C3 3026   2.152   1.028   9.961  0.1281 -0.1432  0.1994
  199MPD1    C4 3027   2.287   1.052   9.954  0.9693 -0.5748 -0.3131
  199MPD1    C5 3028   2.348   1.106  10.063  0.0439 -0.0704 -0.4230
  199MPD1     H 3029   1.973   1.049  10.089  0.7644  1.4761 -0.6751
  199MPD1    H1 3030   2.346   1.039   9.864 -0.0023 -1.8476 -0.7580
  199MPD1    H2 3031   2.331   1.184  10.255  1.9255  1.0631 -2.8540
  199MPD1    H3 3032   2.450   1.142  10.060 -0.4567  1.6275  3.5336
  199MPD1     N 3033   2.083   0.987   9.843 -0.1835  0.0550  0.6367
  199MPD1    H5 3034   2.135   1.007   9.758  0.9534 -2.6479  0.6910
  199MPD1    N1 3035   2.077   1.145  10.302  1.5937 -0.3082 -0.3362
  199MPD1    H6 3036   2.137   1.131  10.382 -1.5748  0.3715  2.1515
  199MPD1    H7 3037   1.994   1.087  10.310 -0.1308  2.3707  1.1767
  200MPD1     C 3038   1.342   0.682  15.226  0.3193  0.3323 -0.1967
  200MPD1    C1 3039   1.347   0.710  15.098 -0.0175  0.7436  0.6987
  200MPD1    C2 3040   1.468   0.710  15.030 -0.1562 -0.4864  0.2965
  200MPD1    C3 3041   1.586   0.696  15.099 -0.9124  0.5319 -0.6115
  200MPD1    C4 3042   1.579   0.675  15.237 -0.2511 -0.5945  0.0492
  200MPD1    C5 3043   1.461   0.668  15.300  0.1153 -0.2324 -0.0684
  200MPD1     H 3044   1.473   0.728  14.923  0.3319 -0.0735  0.3858
  200MPD1    H1 3045   1.666   0.654  15.300  1.2261 -1.1042 -2.1747
  200MPD1    H2 3046   1.250   0.673  15.283 -0.1731  1.1566 -0.8707
  200MPD1    H3 3047   1.468   0.652  15.407 -0.7523  0.4989  0.0897
  200MPD1     N 3048   1.708   0.688  15.025  0.2583  0.0467 -0.4827
  200MPD1    H5 3049   1.709   0.672  14.925 -0.0225 -1.2564 -0.2777
  200MPD1    N1 3050   1.227   0.701  15.019 -0.0030 -0.4169  0.0759
  200MPD1    H6 3051   1.151   0.739  15.074 -0.7295 -2.6101  0.5812
  200MPD1    H7 3052   1.233   0.742  14.926  1.1198  2.4039  1.4040
  201MPD1     C 3053   3.611   4.719  13.070  0.6282  0.1321 -0.3201
  201MPD1    C1 3054   3.601   4.584  13.040  0.8240  0.0668 -1.3525
  201MPD1    C2 3055   3.720   4.509  13.026  0.4170 -0.5866 -0.4379
  201MPD1    C3 3056   3.838   4.578  13.018  0.0838 -0.6643  0.4808
  201MPD1    C4 3057   3.845   4.712  13.029  1.3731 -0.4030 -0.6741
  201MPD1    C5 3058   3.730   0.060  13.057 -0.3250 -0.0455  0.9415
  201MPD1     H 3059   3.723   4.402  13.012  0.4212 -0.4805 -1.2712
  201MPD1    H1 3060   3.930   0.050  13.002  0.6732 -0.0201 -2.0034
  201MPD1    H2 3061   3.527   0.058  13.093  0.2966 -0.3988 -0.0906
  201MPD1    H3 3062   3.747   0.166  13.073  1.5972 -0.1959 -0.1328
  201MPD1     N 3063   3.958   4.496  13.005 -0.4866 -0.0084 -0.6806
  201MPD1    H5 3064   3.945   4.396  13.009  0.2191  0.0195  2.3458
  201MPD1    N1 3065   3.476   4.524  13.051 -0.2661 -0.6045  0.2092
  201MPD1    H6 3066   3.477   4.436  13.000 -1.2350 -1.1029  1.0642
  201MPD1    H7 3067   3.392   4.579  13.035 -0.6697 -1.5390 -0.8806
  202MPD1     C 3068   4.079   4.417  10.034 -0.4341  0.1232  0.1413
  202MPD1    C1 3069   3.964   4.433  10.105  0.2781 -0.3717  0.1937
  202MPD1    C2 3070   3.880   4.329  10.081  0.5326  0.5912 -0.2163
  202MPD1    C3 3071   3.893   4.240   9.970  0.2015 -0.9691 -0.0718
  202MPD1    C4 3072   4.003   4.256   9.888 -0.0460  0.2905 -0.2855
  202MPD1    C5 3073   4.087   4.351   9.918 -0.1409  0.1225 -0.6343
  202MPD1     H 3074   3.813   4.307  10.164 -1.1062  1.5140 -1.2894
  202MPD1    H1 3075   4.008   4.195   9.798 -2.7961 -0.2563 -0.0786
  202MPD1    H2 3076   4.151   4.495  10.058  0.6295 -1.1820  1.1973
  202MPD1    H3 3077   4.182   4.360   9.867  0.6620 -1.9680  0.5062
  202MPD1     N 3078   3.804   4.132   9.955 -0.7240  0.3686  0.3610
  202MPD1    H5 3079   3.841   4.067   9.886  0.0311  0.9200  0.2426
  202MPD1    N1 3080   3.984   4.488  10.237  0.4444 -0.8404 -0.3964
  202MPD1    H6 3081   4.022   4.581  10.224  0.3148 -0.9100 -1.2614
  202MPD1    H7 3082   3.892   4.512  10.274  0.3676 -0.2847 -0.9399
  203MPD1     C 3083   2.197   4.724  12.571 -0.4212 -0.1555 -0.2040
  203MPD1    C1 3084   2.284   4.706  12.676 -0.2746  0.5710 -0.1668
  203MPD1    C2 3085   2.407   4.642  12.656  0.5154 -0.1390  0.3927
  203MPD1    C3 3086   2.434   4.563  12.547  0.0428  0.1160 -0.4860
  203MPD1    C4 3087   2.340   4.560  12.449 -0.0948 -0.5533 -0.0421
  203MPD1    C5 3088   2.236   4.643  12.463 -0.8493  0.2537 -0.5866
  203MPD1     H 3089   2.479   4.643  12.737 -0.9321  0.8767  1.6660
  203MPD1    H1 3090   2.352   4.485  12.371  1.7103 -0.4550  0.1572
  203MPD1    H2 3091   2.103   0.054  12.567 -0.9935 -1.1640 -0.5459
  203MPD1    H3 3092   2.166   4.653  12.380 -0.2505 -0.7466 -1.2150
  203MPD1     N 3093   2.553   4.484  12.544  0.8116  0.2860 -0.1658
  203MPD1    H5 3094   2.614   4.478  12.625  1.4760 -1.3984 -0.7850
  203MPD1    N1 3095   2.251   0.035  12.799 -0.4175  0.0435  0.5848
  203MPD1    H6 3096   2.306   0.002  12.878  1.7509  0.7722 -0.6313
  203MPD1    H7 3097   2.154   0.006  12.815 -0.3429 -0.6314 -0.1719
  204MPD1     C 3098   1.696   1.218  17.393 -0.3636 -0.6114  0.0580
  204MPD1    C1 3099   1.802   1.148  17.447  0.5086  0.1292 -0.2295
  204MPD1    C2 3100   1.891   1.079  17.370  0.0146 -0.3268  0.7187
  204MPD1    C3 3101   1.878   1.081  17.235 -0.6119  0.3161  0.0608
  204MPD1    C4 3102   1.779   1.163  17.180  0.0642 -0.3333  0.6009
  204MPD1    C5 3103   1.683   1.223  17.258  0.1302 -0.7239  0.0931
  204MPD1     H 3104   1.971   1.025  17.418  0.7761  0.0253 -0.1551
  204MPD1    H1 3105   1.757   1.164  17.074 -2.3626  0.0295  1.1091
  204MPD1    H2 3106   1.632   1.278  17.457 -0.5647 -0.8382  0.0702
  204MPD1    H3 3107   1.602   1.274  17.208  3.2082  2.0538 -2.0305
  204MPD1     N 3108   1.967   1.007  17.152 -0.0889 -0.0128 -0.0497
  204MPD1    H5 3109   2.045   0.962  17.200  0.4660  0.7232 -0.2667
  204MPD1    N1 3110   1.825   1.162  17.590  0.0726  0.1197 -0.1305
  204MPD1    H6 3111   1.741   1.143  17.644  0.3319  2.1326  0.9769
  204MPD1    H7 3112   1.888   1.087  17.617  1.5150  0.7566 -1.7755
  205MPD1     C 3113   3.028   4.274  16.356  0.0242  0.3633 -0.1667
  205MPD1    C1 3114   2.944   4.367  16.306  0.6174 -0.3445  0.7422
  205MPD1    C2 3115   2.825   4.390  16.363 -0.1915  0.0888  0.1267
  205MPD1    C3 3116   2.796   4.331  16.488  0.0448  0.0406  0.1927
  205MPD1    C4 3117   2.880   4.234  16.535 -0.0555  0.0474  0.0849
  205MPD1    C5 3118   2.985   4.195  16.462  0.1673 -1.0510 -0.0452
  205MPD1     H 3119   2.750   4.457  16.323  1.0903 -0.0824 -2.5612
  205MPD1    H1 3120   2.847   4.188  16.628  1.1149 -0.4097  0.2703
  205MPD1    H2 3121   3.122   4.256  16.306  0.4100  1.8162  0.0332
  205MPD1    H3 3122   3.054   4.118  16.495 -0.0765 -0.8101  1.0104
  205MPD1     N 3123   2.685   4.366  16.573 -0.2787  0.4766 -0.5237
  205MPD1    H5 3124   2.661   4.300  16.647  1.3988  1.6234  1.0636
  205MPD1    N1 3125   2.975   4.436  16.183  0.3867 -0.0283  0.2099
  205MPD1    H6 3126   3.073   4.460  16.172  0.3792 -0.1054 -0.0222
  205MPD1    H7 3127   2.916   4.519  16.173  1.9913  0.7373 -2.8941
  206MPD1     C 3128   2.191   2.936  16.591 -0.2736 -0.5282 -0.5455
  206MPD1    C1 3129   2.210   2.815  16.532 -0.4744  0.6674  0.5599
  206MPD1    C2 3130   2.131   2.790  16.415 -1.2288  0.0627 -0.6443
  206MPD1    C3 3131   2.048   2.882  16.359 -0.4974  0.8085  0.5665
  206MPD1    C4 3132   2.031   3.000  16.423 -0.6529 -0.1872  0.1607
  206MPD1    C5 3133   2.102   3.023  16.539  0.7801 -0.3178  0.2243
  206MPD1     H 3134   2.145   2.693  16.369 -1.2737 -1.4258  2.4514
  206MPD1    H1 3135   1.970   3.082  16.388 -0.5443 -1.4576 -3.0120
  206MPD1    H2 3136   2.252   2.959  16.678  0.6034 -0.5672 -1.1634
  206MPD1    H3 3137   2.079   3.120  16.582  0.3959  0.3239 -1.4424
  206MPD1     N 3138   1.990   2.866  16.234  0.5682  1.0732  0.1805
  206MPD1    H5 3139   1.930   2.942  16.204 -2.4384 -1.2418  0.3488
  206MPD1    N1 3140   2.299   2.722  16.579 -0.2154  0.3478  0.1808
  206MPD1    H6 3141   2.303   2.733  16.680 -2.8398 -2.3531  0.5816
  206MPD1    H7 3142   2.274   2.626  16.553 -1.4819  1.6407 -3.4102
  207MPD1     C 3143   4.646   0.896   9.064 -0.1078 -0.0923  0.3836
  207MPD1    C1 3144   4.633   1.027   9.106 -0.2739  0.8330 -0.2826
  207MPD1    C2 3145   4.655   1.054   9.243 -0.1371  0.4334 -0.1680
  207MPD1    C3 3146   4.692   0.949   9.331  0.1823  0.5628 -0.0635
  207MPD1    C4 3147   4.701   0.822   9.284  0.1121 -0.3105  0.3107
  207MPD1    C5 3148   4.674   0.796   9.157  0.4350  0.9791 -0.2767
  207MPD1     H 3149   4.633   1.153   9.281  0.1599  0.4445 -0.0252
  207MPD1    H1 3150   0.003   0.737   9.347 -0.6305  0.9257  2.3064
  207MPD1    H2 3151   4.646   0.868   8.959  0.1797  3.9161 -0.6750
  207MPD1    H3 3152   4.684   0.691   9.131  0.4423  1.4865 -2.3306
  207MPD1     N 3153   4.718   0.963   9.469 -0.4781 -0.5042 -0.1730
  207MPD1    H5 3154   0.011   0.880   9.525 -0.0984 -0.4589 -0.2247
  207MPD1    N1 3155   4.605   1.130   9.017 -0.0788 -0.0267  0.2938
  207MPD1    H6 3156   4.562   1.106   8.928  0.2549 -0.6895  0.3159
  207MPD1    H7 3157   4.551   1.205   9.061 -1.1588 -0.3535 -0.4548
  208MPD1     C 3158   3.424   4.329  17.392 -0.1244  0.3471 -0.2170
  208MPD1    C1 3159   3.408   4.260  17.512 -0.4313  0.3582  0.4670
  208MPD1    C2 3160   3.359   4.131  17.497 -0.1260  1.0166  0.4753
  208MPD1    C3 3161   3.297   4.085  17.379 -0.0778  0.7271  0.0984
  208MPD1    C4 3162   3.304   4.169  17.272  0.7708  0.2775  0.1634
  208MPD1    C5 3163   3.370   4.285  17.280 -0.7127 -0.1422 -0.0040
  208MPD1     H 3164   3.369   4.073  17.588  3.6412 -1.3519 -1.4701
  208MPD1    H1 3165   3.244   4.163  17.182  1.1171 -2.6039  0.1378
  208MPD1    H2 3166   3.480   4.422  17.391  1.1343 -0.4299 -2.1445
  208MPD1    H3 3167   3.390   4.344  17.192 -1.0300 -0.2412 -0.1420
  208MPD1     N 3168   3.225   3.968  17.382  0.7457  0.2736 -0.6329
  208MPD1    H5 3169   3.220   3.933  17.477 -2.1141  0.4331 -0.7103
  208MPD1    N1 3170   3.469   4.307  17.633  0.5502  0.3481 -0.2539
  208MPD1    H6 3171   3.465   4.408  17.631 -0.9459  0.2647 -1.8582
  208MPD1    H7 3172   3.404   4.279   0.007 -0.8327 -2.4846 -2.5481
  209MPD1     C 3173   4.633   4.322  10.366  0.2120  0.6772  0.3099
  209MPD1    C1 3174   4.697   4.391  10.271  0.1309  0.2766 -0.1337
  209MPD1    C2 3175   4.718   4.525  10.309  0.5442 -0.3348  0.4095
  209MPD1    C3 3176   4.691   4.582  10.430 -0.1377 -1.0973 -0.2024
  209MPD1    C4 3177   4.629   4.503  10.527 -0.1268 -0.0868 -0.1501
  209MPD1    C5 3178   4.604   4.373  10.487 -0.4410 -0.1770 -0.4786
  209MPD1     H 3179   0.035   4.595  10.238 -1.0247 -0.0701 -0.2382
  209MPD1    H1 3180   4.611   4.527  10.631 -0.0741  1.1697 -0.4332
  209MPD1    H2 3181   4.616   4.217  10.341  1.7698  0.6840 -0.8290
  209MPD1    H3 3182   4.558   4.311  10.563 -0.9139 -2.7986 -2.8933
  209MPD1     N 3183   0.005   4.715  10.458 -0.4883  0.0107 -0.1420
  209MPD1    H5 3184   0.059   0.038  10.386 -0.1228  0.3749  0.3750
  209MPD1    N1 3185   4.699   4.344  10.138 -0.2816 -0.1034  0.1579
  209MPD1    H6 3186   4.689   4.245  10.119  3.6915 -0.0405 -2.3386
  209MPD1    H7 3187   0.039   4.391  10.075 -1.0961 -0.5924 -1.0304
  210MPD1     C 3188   0.593   0.679  11.023  0.0830 -0.4175  0.7837
  210MPD1    C1 3189   0.500   0.589  11.078 -0.4760 -0.1377  0.5270
  210MPD1    C2 3190   0.397   0.541  10.991 -0.2842 -0.1472 -0.1158
  210MPD1    C3 3191   0.399   0.566  10.858 -0.4168 -0.2425 -0.7338
  210MPD1    C4 3192   0.497   0.652  10.805  0.2853 -0.1973 -0.5732
  210MPD1    C5 3193   0.590   0.707  10.888 -0.1441 -0.3981  0.1084
  210MPD1     H 3194   0.318   0.488  11.043 -2.1251  1.5515 -1.1942
  210MPD1    H1 3195   0.498   0.672  10.699 -0.9010 -0.7561 -0.6858
  210MPD1    H2 3196   0.662   0.730  11.089  0.0542  0.0216  0.4783
  210MPD1    H3 3197   0.665   0.768  10.839  0.6962 -1.4912  0.0393
  210MPD1     N 3198   0.311   0.504  10.767 -0.0965  0.5059 -0.1544
  210MPD1    H5 3199   0.301   0.539  10.672  2.5584  1.7804  0.0335
  210MPD1    N1 3200   0.506   0.569  11.218 -0.0539 -0.0555 -0.3775
  210MPD1    H6 3201   0.477   0.476  11.247  1.0981 -0.2278  0.2048
  210MPD1    H7 3202   0.595   0.586  11.263 -1.3253 -0.7919  2.4010
  211MPD1     C 3203   2.880   3.466  17.146  0.6872  0.8022 -0.1374
  211MPD1    C1 3204   2.750   3.428  17.162 -0.3302 -0.4899  0.6038
  211MPD1    C2 3205   2.656   3.507  17.099 -0.6823  0.3173 -0.8128
  211MPD1    C3 3206   2.697   3.604  17.007 -0.7237 -0.7556  0.9434
  211MPD1    C4 3207   2.829   3.630  16.989 -0.3556  0.0684  0.4125
  211MPD1    C5 3208   2.922   3.559  17.060  0.1908 -0.7800 -0.2809
  211MPD1     H 3209   2.551   3.486  17.115 -0.5484  0.3827  0.1449
  211MPD1    H1 3210   2.865   3.697  16.912 -0.8519 -0.9630 -0.7267
  211MPD1    H2 3211   2.951   3.398  17.194 -1.3761 -0.9194  0.4965
  211MPD1    H3 3212   3.027   3.564  17.032 -0.7304  3.5057 -2.9981
  211MPD1     N 3213   2.594   3.671  16.934 -0.1411  0.4912 -0.0405
  211MPD1    H5 3214   2.500   3.653  16.968  0.0347  1.4768  0.9654
  211MPD1    N1 3215   2.709   3.331  17.255  0.3861  0.1489 -0.4400
  211MPD1    H6 3216   2.790   3.274  17.278 -0.5093 -1.4312 -1.1474
  211MPD1    H7 3217   2.636   3.281  17.205  1.3440 -1.4648 -0.2161
  212MPD1     C 3218   2.048   2.586  16.867 -0.8046  0.7783 -0.0801
  212MPD1    C1 3219   2.044   2.623  17.002  0.3658  0.5249  0.1802
  212MPD1    C2 3220   1.955   2.554  17.086 -0.2689 -0.4227  0.4503
  212MPD1    C3 3221   1.870   2.456  17.037 -0.1850  0.1737 -0.3421
  212MPD1    C4 3222   1.874   2.427  16.900  0.3839  0.2540  0.2861
  212MPD1    C5 3223   1.966   2.489  16.819  0.6692 -0.0554 -0.3366
  212MPD1     H 3224   1.971   2.567  17.193 -3.0782  2.2846  0.5303
  212MPD1    H1 3225   1.815   2.348  16.856  1.4879 -0.9180  0.9162
  212MPD1    H2 3226   2.105   2.641  16.792 -0.5929  0.4868 -0.1320
  212MPD1    H3 3227   1.974   2.462  16.714 -2.1098  0.7179 -0.7510
  212MPD1     N 3228   1.779   2.390  17.121  0.2918  0.2855 -0.1990
  212MPD1    H5 3229   1.745   2.302  17.084 -1.1484 -0.5487  3.1352
  212MPD1    N1 3230   2.141   2.705  17.063 -0.6484  0.0680  0.1032
  212MPD1    H6 3231   2.208   2.752  17.002 -1.5886 -0.6436 -1.4726
  212MPD1    H7 3232   2.090   2.769  17.124 -0.2851  2.9077 -2.5541
  213MPD1     C 3233   0.294   3.448  15.461  0.2853  0.4757 -0.3640
  213MPD1    C1 3234   0.164   3.410  15.453 -0.3564  0.1259 -0.6894
  213MPD1    C2 3235   0.106   3.448  15.331  0.3438  0.0263  0.5116
  213MPD1    C3 3236   0.157   3.552  15.244 -0.2452  0.1962  0.5054
  213MPD1    C4 3237   0.280   3.610  15.270  0.1105 -0.2923  0.4422
  213MPD1    C5 3238   0.345   3.552  15.383 -0.3616  0.5628 -0.8281
  213MPD1     H 3239   0.012   3.400  15.308  1.1096 -1.9480  1.4465
  213MPD1    H1 3240   0.331   3.685  15.211  0.3048 -0.1087  0.8447
  213MPD1    H2 3241   0.352   3.412  15.545 -3.1249 -1.5092  1.1466
  213MPD1    H3 3242   0.440   3.591  15.418 -1.3801  1.7709  0.5881
  213MPD1     N 3243   0.078   3.579  15.131  0.3895  1.0230  0.2749
  213MPD1    H5 3244   4.713   3.531  15.127  0.5332  0.8333 -0.7519
  213MPD1    N1 3245   0.138   3.280  15.512 -0.7194  1.2151  0.3581
  213MPD1    H6 3246   0.177   3.268  15.605 -0.5033  1.5010  0.3045
  213MPD1    H7 3247   0.044   3.240  15.514 -0.7026  1.2208  1.1506
  214MPD1     C 3248   4.060   3.236  14.908  0.1261 -0.5072  0.2431
  214MPD1    C1 3249   4.070   3.308  14.793 -0.0797 -0.1063  0.3142
  214MPD1    C2 3250   4.178   3.400  14.782 -0.1041 -0.4848  0.2897
  214MPD1    C3 3251   4.270   3.412  14.890  0.5957  0.2673 -0.2455
  214MPD1    C4 3252   4.237   3.344  15.008  0.3025 -0.4620  0.5746
  214MPD1    C5 3253   4.134   3.259  15.018  0.4411 -0.4997  0.1626
  214MPD1     H 3254   4.202   3.447  14.687  0.4348  0.0562  0.6921
  214MPD1    H1 3255   4.302   3.357  15.093  0.8581 -1.6566  0.3317
  214MPD1    H2 3256   3.985   3.159  14.926  0.7662 -1.0070  0.7454
  214MPD1    H3 3257   4.121   3.200  15.107  1.5414 -1.2773 -0.1872
  214MPD1     N 3258   4.386   3.492  14.893  0.6556  0.1178  0.1547
  214MPD1    H5 3259   4.431   3.514  14.981  1.3922  0.7361 -0.3732
  214MPD1    N1 3260   4.012   3.264  14.674 -0.1855 -0.1873  0.3445
  214MPD1    H6 3261   3.980   3.340  14.614 -2.3789 -0.4574  1.1670
  214MPD1    H7 3262   3.929   3.208  14.694 -1.7505  1.0380 -2.8076
  215MPD1     C 3263   4.310   4.275  10.679 -0.2036  0.1136 -0.8711
  215MPD1    C1 3264   4.295   4.410  10.665 -0.7356 -0.5763  0.0978
  215MPD1    C2 3265   4.352   4.496  10.753  0.4025  0.6212 -0.9421
  215MPD1    C3 3266   4.409   4.456  10.872 -1.1180  0.5381 -0.0479
  215MPD1    C4 3267   4.415   4.315  10.890  0.1865 -0.3478 -0.6187
  215MPD1    C5 3268   4.376   4.226  10.789  0.6674  0.4214  0.1013
  215MPD1     H 3269   4.339   4.603  10.741  1.7236  0.8896  0.0916
  215MPD1    H1 3270   4.448   4.272  10.984  0.7572 -1.2972 -1.2497
  215MPD1    H2 3271   4.280   4.201  10.605  0.4482  0.9800 -2.0130
  215MPD1    H3 3272   4.392   4.119  10.803 -0.8685  0.3652  1.5162
  215MPD1     N 3273   4.458   4.551  10.965 -0.4707 -0.2910  0.7452
  215MPD1    H5 3274   4.465   4.645  10.926  0.8543 -0.5860  0.2524
  215MPD1    N1 3275   4.237   4.464  10.546  0.2638 -0.0934  0.4991
  215MPD1    H6 3276   4.183   4.550  10.553  1.1554  0.4990  0.1042
  215MPD1    H7 3277   4.168   4.400  10.508 -1.4638  1.0359  1.7224
  216MPD1     C 3278   0.936   2.226   0.978  0.1694  0.0439 -0.1997
  216MPD1    C1 3279   1.073   2.230   0.960  0.2975 -0.4075  0.0035
  216MPD1    C2 3280   1.135   2.106   0.967  0.4764  0.0351  0.4096
  216MPD1    C3 3281   1.069   1.988   0.980  0.4417  0.3989  0.3812
  216MPD1    C4 3282   0.935   1.994   1.003  1.0545  0.0544  0.0907
  216MPD1    C5 3283   0.868   2.111   1.001  0.1415  0.2771  0.0227
  216MPD1     H 3284   1.243   2.102   0.965  0.4119  0.2126 -2.6337
  216MPD1    H1 3285   0.867   1.910   1.008 -1.1874  1.7473 -1.9403
  216MPD1    H2 3286   0.866   2.310   0.980 -0.5136 -0.5311  0.1405
  216MPD1    H3 3287   0.765   2.117   1.035 -0.2935  0.1375 -1.2531
  216MPD1     N 3288   1.141   1.869   0.988 -0.4873  0.1960  0.3068
  216MPD1    H5 3289   1.238   1.879   0.961 -0.8994 -1.6803 -1.8907
  216MPD1    N1 3290   1.136   2.355   0.959 -0.5645 -0.0994 -0.5785
  216MPD1    H6 3291   1.075   2.436   0.944 -2.0896 -1.2637 -0.6721
  216MPD1    H7 3292   1.226   2.359   0.912  1.4145 -2.7762  3.0049
  217MPD1     C 3293   1.345   2.923   9.370 -0.8444  0.2342 -0.3312
  217MPD1    C1 3294   1.451   2.848   9.332 -0.2026 -1.0580 -0.0588
  217MPD1    C2 3295   1.575   2.900   9.356 -0.6361 -0.5354 -0.0282
  217MPD1    C3 3296   1.596   3.012   9.431  0.4853 -0.0575  0.6557
  217MPD1    C4 3297   1.485   3.087   9.472  0.1203  0.1650 -0.1661
  217MPD1    C5 3298   1.358   3.038   9.444  0.8669  0.0341 -0.0405
  217MPD1     H 3299   1.656   2.845   9.309 -0.3431  0.6827 -0.9665
  217MPD1    H1 3300   1.498   3.191   9.500 -1.7191  0.5137 -0.6306
  217MPD1    H2 3301   1.243   2.891   9.349 -0.0026 -2.4179 -0.3497
  217MPD1    H3 3302   1.269   3.100   9.455  1.5301  0.9114  0.3837
  217MPD1     N 3303   1.723   3.067   9.461  0.1556 -0.2765 -0.4459
  217MPD1    H5 3304   1.741   3.160   9.495  1.9810 -1.2323  1.1903
  217MPD1    N1 3305   1.436   2.739   9.242  0.3240  0.1098 -1.3134
  217MPD1    H6 3306   1.346   2.693   9.254 -0.0143  0.6898 -1.6466
  217MPD1    H7 3307   1.495   2.658   9.259  2.2447  1.6650 -0.6620
  218MPD1     C 3308   3.662   0.490  13.028  0.6428 -0.0681 -0.2059
  218MPD1    C1 3309   3.791   0.526  13.062 -0.4054 -0.6889  0.5830
  218MPD1    C2 3310   3.901   0.462  13.003 -0.3325  0.5698 -0.4323
  218MPD1    C3 3311   3.877   0.379  12.896 -0.6020  0.5365  0.5916
  218MPD1    C4 3312   3.747   0.353  12.849 -0.1375  0.6542  0.0032
  218MPD1    C5 3313   3.640   0.408  12.924  0.9966  0.6447  0.1280
  218MPD1     H 3314   4.005   0.483  13.025  0.4192 -1.3307 -2.2345
  218MPD1    H1 3315   3.717   0.293  12.764  2.1573  1.2615 -1.2239
  218MPD1    H2 3316   3.576   0.531  13.078  0.4454 -1.3550  0.5106
  218MPD1    H3 3317   3.540   0.398  12.884  0.0705  3.0617  1.8037
  218MPD1     N 3318   3.990   0.316  12.840  0.0843  0.2831 -0.0738
  218MPD1    H5 3319   4.082   0.318  12.882 -0.4038  2.3024  0.8998
  218MPD1    N1 3320   3.817   0.603  13.175  0.0979  0.2076 -0.0135
  218MPD1    H6 3321   3.744   0.675  13.178  1.0409  1.0325  3.2477
  218MPD1    H7 3322   3.907   0.649  13.166 -1.7888  3.3504 -3.1166
  219MPD1     C 3323   4.237   0.097  11.911  0.3429  0.1075 -0.0830
  219MPD1    C1 3324   4.344   0.146  11.982  1.1855 -1.0334  0.6372
  219MPD1    C2 3325   4.337   0.150  12.115  0.4916 -0.6087  0.5666
  219MPD1    C3 3326   4.226   0.094  12.183 -0.4193  0.8522 -0.6326
  219MPD1    C4 3327   4.116   0.051  12.113  1.2282  0.3684 -0.3551
  219MPD1    C5 3328   4.123   0.055  11.971 -0.3374 -0.4891  0.3347
  219MPD1     H 3329   4.419   0.178  12.180  0.8606  0.7227 -0.4805
  219MPD1    H1 3330   4.024   0.030  12.166  1.2470  0.6701 -0.2055
  219MPD1    H2 3331   4.233   0.095  11.802  1.4309  0.5730 -0.1325
  219MPD1    H3 3332   4.037   0.024  11.912  0.5242 -2.1653 -0.0465
  219MPD1     N 3333   4.217   0.088  12.326  0.4511 -0.6317 -0.0960
  219MPD1    H5 3334   4.133   0.045  12.365 -0.2149 -0.5235 -1.4155
  219MPD1    N1 3335   4.442   0.217  11.914  0.3354 -0.0177  0.2196
  219MPD1    H6 3336   4.532   0.201  11.958 -0.2382 -0.5070  1.2258
  219MPD1    H7 3337   4.458   0.181  11.820 -0.3066 -1.8675  0.8011
  220MPD1     C 3338   4.422   0.970   9.624  0.2987 -0.1200 -0.0730
  220MPD1    C1 3339   4.445   0.840   9.601  0.2095  0.6485  0.2311
  220MPD1    C2 3340   4.442   0.753   9.708 -0.8194 -0.3385 -0.3019
  220MPD1    C3 3341   4.424   0.795   9.833 -0.2932  0.6076 -0.2581
  220MPD1    C4 3342   4.407   0.929   9.858 -1.0734  0.0627  0.2875
  220MPD1    C5 3343   4.408   1.013   9.751  0.2935  0.6540 -0.0025
  220MPD1     H 3344   4.477   0.652   9.691  0.4820 -0.2579  1.9112
  220MPD1    H1 3345   4.401   0.974   9.957  1.0964  1.4314 -0.2084
  220MPD1    H2 3346   4.425   1.045   9.546  0.2958  0.8900  0.8959
  220MPD1    H3 3347   4.395   1.119   9.770  1.7662  0.7287  0.5951
  220MPD1     N 3348   4.436   0.694   9.936 -0.4102  0.0089  0.1827
  220MPD1    H5 3349   4.438   0.600   9.897  0.1854  0.0637  0.0804
  220MPD1    N1 3350   4.457   0.793   9.471 -0.0039 -0.6693 -0.0111
  220MPD1    H6 3351   4.488   0.865   9.406 -0.1906 -1.6806 -1.2251
  220MPD1    H7 3352   4.492   0.699   9.452  1.9886  0.3127 -1.2362
  221MPD1     C 3353   3.496   3.412  16.934 -0.2559  0.5453 -0.0653
  221MPD1    C1 3354   3.411   3.305  16.908 -0.3174 -0.4656  0.0614
  221MPD1    C2 3355   3.286   3.344  16.849 -0.1789 -0.5216 -0.1047
  221MPD1    C3 3356   3.254   3.474  16.809  0.2796 -0.3781  0.4458
  221MPD1    C4 3357   3.348   3.572  16.832  0.2303  0.4577 -0.4611
  221MPD1    C5 3358   3.468   3.543  16.894 -0.6605 -0.6965  0.5951
  221MPD1     H 3359   3.215   3.262  16.854  1.0937 -1.3560  4.4049
  221MPD1    H1 3360   3.331   3.671  16.792 -0.8333  0.6596  0.4957
  221MPD1    H2 3361   3.588   3.393  16.989  0.0114  2.1299  0.0487
  221MPD1    H3 3362   3.548   3.617  16.903  0.3196 -1.3937 -2.1463
  221MPD1     N 3363   3.133   3.511  16.739 -0.0970 -0.2873 -0.3420
  221MPD1    H5 3364   3.126   3.607  16.707 -0.6810 -0.8341 -1.8538
  221MPD1    N1 3365   3.440   3.182  16.965 -0.0813 -0.4187 -0.1511
  221MPD1    H6 3366   3.539   3.160  16.961  0.1073  0.4047  0.0155
  221MPD1    H7 3367   3.386   3.105  16.926 -0.9487 -0.9680  2.0885
  222MPD1     C 3368   1.281   1.653   0.555 -0.0756  0.0182 -0.8282
  222MPD1    C1 3369   1.143   1.631   0.557 -0.0299 -0.4526  0.6046
  222MPD1    C2 3370   1.058   1.731   0.585 -0.5947 -0.4670  0.4315
  222MPD1    C3 3371   1.106   1.864   0.583  0.0077  0.1191  0.2832
  222MPD1    C4 3372   1.239   1.889   0.570  0.6289 -0.3381 -0.0707
  222MPD1    C5 3373   1.325   1.782   0.569  0.9570  0.3465 -1.0774
  222MPD1     H 3374   0.952   1.712   0.584 -0.3127 -1.9861  0.1419
  222MPD1    H1 3375   1.281   1.989   0.569 -0.8951  0.2962 -0.3094
  222MPD1    H2 3376   1.351   1.571   0.541 -0.6943 -0.4116 -1.4231
  222MPD1    H3 3377   1.431   1.801   0.568  1.0347  0.0835  1.4908
  222MPD1     N 3378   1.016   1.977   0.583 -0.1013 -0.6426 -0.3757
  222MPD1    H5 3379   1.052   2.070   0.602 -2.8911  0.5364 -0.7522
  222MPD1    N1 3380   1.104   1.500   0.560  0.0725 -0.3428 -0.7850
  222MPD1    H6 3381   1.165   1.440   0.504  0.0131 -1.0957 -0.0371
  222MPD1    H7 3382   1.005   1.481   0.543 -0.2487  1.2216 -0.7015
  223MPD1     C 3383   0.100   2.484   0.935  0.3826  0.5974 -0.0929
  223MPD1    C1 3384   0.169   2.567   0.849  0.6431 -0.2387  0.0018
  223MPD1    C2 3385   0.274   2.511   0.780 -0.2088  0.1894  0.1956
  223MPD1    C3 3386   0.324   2.378   0.795 -0.0790 -0.0955 -0.4102
  223MPD1    C4 3387   0.248   2.298   0.877 -0.4332  0.3719 -0.0846
  223MPD1    C5 3388   0.142   2.351   0.944 -0.3906  0.5948  0.2903
  223MPD1     H 3389   0.327   2.580   0.715 -0.5820 -0.0840 -0.4030
  223MPD1    H1 3390   0.265   2.191   0.886 -2.0651  0.2121  1.1612
  223MPD1    H2 3391   0.010   2.514   0.987  0.0243 -0.6834  0.0409
  223MPD1    H3 3392   0.074   2.288   1.001  1.0600 -2.1982 -1.0890
  223MPD1     N 3393   0.444   2.345   0.729  0.7451 -0.4602 -0.2743
  223MPD1    H5 3394   0.478   2.407   0.657  2.2236 -0.2193  0.6451
  223MPD1    N1 3395   0.143   2.708   0.854  0.1586 -0.1844 -0.0104
  223MPD1    H6 3396   0.048   2.727   0.885  0.2199  0.8831 -0.4615
  223MPD1    H7 3397   0.172   2.758   0.770  0.0977  0.4977  0.3784
  224MPD1     C 3398   3.507   4.560   9.733 -0.0261 -0.1917  0.1201
  224MPD1    C1 3399   3.572   4.435   9.733 -0.1545  0.7717  0.4869
  224MPD1    C2 3400   3.499   4.317   9.706  0.3845 -0.4619 -0.3655
  224MPD1    C3 3401   3.369   4.327   9.658 -0.3256  0.1607  0.9428
  224MPD1    C4 3402   3.312   4.450   9.656  0.2389 -0.3421  0.1362
  224MPD1    C5 3403   3.381   4.563   9.689  0.5703 -0.3617 -0.3289
  224MPD1     H 3404   3.540   4.217   9.719  0.1700 -0.1145  2.8699
  224MPD1    H1 3405   3.210   4.463   9.621  0.1089  0.0175  0.6500
  224MPD1    H2 3406   3.551   4.657   9.752  1.7544 -0.8358 -0.7475
  224MPD1    H3 3407   3.331   4.659   9.677 -0.6295 -0.9229  0.1292
  224MPD1     N 3408   3.287   4.213   9.626  0.1189  0.4868  0.1289
  224MPD1    H5 3409   3.192   4.233   9.595 -0.2472  0.7288  1.3982
  224MPD1    N1 3410   3.703   4.424   9.784  0.4357  0.0352  0.6741
  224MPD1    H6 3411   3.761   4.507   9.769 -1.1579  1.0761  0.2621
  224MPD1    H7 3412   3.754   4.350   9.736 -0.7727 -0.3433 -0.0015
  225MPD1     C 3413   4.395   1.368  11.986  0.4348  0.5784  0.2262
  225MPD1    C1 3414   4.432   1.237  12.005  0.6374 -0.6702 -0.7703
  225MPD1    C2 3415   4.356   1.169  12.095 -0.4790 -0.0136 -0.1251
  225MPD1    C3 3416   4.236   1.218  12.147 -0.2845 -0.5444 -0.1832
  225MPD1    C4 3417   4.195   1.348  12.116 -0.0761 -0.4299  0.2135
  225MPD1    C5 3418   4.280   1.423  12.039 -0.1172  0.5648  0.2391
  225MPD1     H 3419   4.390   1.067  12.109 -0.8798  0.1863  2.2837
  225MPD1    H1 3420   4.103   1.396  12.149 -1.5189 -3.0316  0.0077
  225MPD1    H2 3421   4.465   1.432  11.935  1.1067 -1.1773 -1.0332
  225MPD1    H3 3422   4.252   1.524  12.009 -0.8157  0.5039  0.6993
  225MPD1     N 3423   4.146   1.145  12.226 -0.1179 -0.0325  0.0434
  225MPD1    H5 3424   4.063   1.194  12.257 -0.3809  0.6725 -1.7736
  225MPD1    N1 3425   4.565   1.205  11.971  0.0082  0.3141  0.2781
  225MPD1    H6 3426   4.600   1.254  11.890  1.9636 -1.3975  0.0743
  225MPD1    H7 3427   4.575   1.104  11.958 -1.4150  0.3287 -0.9381
  226MPD1     C 3428   1.548   4.170   9.979  0.9249  0.1383  0.5299
  226MPD1    C1 3429   1.454   4.220   9.896 -0.0254  0.7017 -0.6382
  226MPD1    C2 3430   1.485   4.327   9.820 -0.2605 -0.7608  0.6787
  226MPD1    C3 3431   1.615   4.378   9.811  0.0250 -0.2134  0.1870
  226MPD1    C4 3432   1.719   4.310   9.878 -0.3569 -0.4625 -0.1666
  226MPD1    C5 3433   1.680   4.217   9.967 -1.2543 -0.1414  0.5511
  226MPD1     H 3434   1.407   4.383   9.770  0.6997 -0.6982 -0.7378
  226MPD1    H1 3435   1.820   4.346   9.886 -0.4395 -0.1044 -0.7598
  226MPD1    H2 3436   1.525   4.091  10.050 -1.0358 -1.9753 -2.4376
  226MPD1    H3 3437   1.749   4.175  10.039  1.3822  0.1447 -1.7669
  226MPD1     N 3438   1.638   4.492   9.725 -0.1907  1.0873  0.3603
  226MPD1    H5 3439   1.561   4.510   9.661  0.2908  1.6351 -0.0663
  226MPD1    N1 3440   1.320   4.193   9.916 -0.2105 -0.4682  0.0948
  226MPD1    H6 3441   1.306   4.096   9.941  2.1513 -0.1381  2.6005
  226MPD1    H7 3442   1.273   4.202   9.825 -2.2242  0.1878  1.1943
  227MPD1     C 3443   1.358   0.358   8.970  0.1545  0.2579  0.5169
  227MPD1    C1 3444   1.455   0.439   9.023  0.5114 -0.3998  0.1928
  227MPD1    C2 3445   1.509   0.385   9.140  0.0821  0.1980  0.2393
  227MPD1    C3 3446   1.473   0.260   9.194 -0.5544 -0.1205 -0.2634
  227MPD1    C4 3447   1.364   0.198   9.142  0.0551 -0.2886 -0.3527
  227MPD1    C5 3448   1.308   0.248   9.029  0.7042  0.5976  0.0447
  227MPD1     H 3449   1.589   0.440   9.189  0.7094 -0.2714 -0.2573
  227MPD1    H1 3450   1.336   0.099   9.177 -0.3495 -0.0520 -0.0186
  227MPD1    H2 3451   1.313   0.380   8.874 -0.4555  1.4339  1.0753
  227MPD1    H3 3452   1.228   0.187   8.988  1.2324  0.2756 -0.5108
  227MPD1     N 3453   1.547   0.224   9.305  0.5162  0.4944 -0.0853
  227MPD1    H5 3454   1.621   0.290   9.326 -1.6276  2.6828  0.6228
  227MPD1    N1 3455   1.513   0.540   8.949 -0.5542 -0.6262  0.8749
  227MPD1    H6 3456   1.445   0.570   8.880 -0.5222 -1.3462  0.5274
  227MPD1    H7 3457   1.542   0.612   9.014 -2.1939 -0.0036  0.9237
  228MPD1     C 3458   1.307   3.532  12.092  0.1539  0.3117 -1.1305
  228MPD1    C1 3459   1.179   3.588  12.088  0.3959  0.0228  0.8381
  228MPD1    C2 3460   1.111   3.588  12.205 -0.9159  0.3833  0.4314
  228MPD1    C3 3461   1.162   3.531  12.323  0.2094 -0.1009 -0.3408
  228MPD1    C4 3462   1.285   3.476  12.324  0.3795 -0.4217  0.1673
  228MPD1    C5 3463   1.363   3.481  12.207  0.4407 -0.8945 -0.2171
  228MPD1     H 3464   1.011   3.629  12.208 -1.9197 -2.0584  0.3852
  228MPD1    H1 3465   1.332   3.420  12.403  2.0125 -0.7769 -1.0544
  228MPD1    H2 3466   1.364   3.516  12.001 -0.4922 -0.4812 -1.3931
  228MPD1    H3 3467   1.460   3.433  12.209 -0.1054 -1.9400  0.9289
  228MPD1     N 3468   1.080   3.528  12.435  0.4084  0.2001 -0.1478
  228MPD1    H5 3469   0.999   3.589  12.431 -1.1795 -1.8870  0.1231
  228MPD1    N1 3470   1.118   3.622  11.968 -0.5163  0.1457 -0.6226
  228MPD1    H6 3471   1.036   3.679  11.989 -0.2399  0.8501 -1.4525
  228MPD1    H7 3472   1.176   3.658  11.893  0.2301 -0.6908 -0.4531
  229MPD1     C 3473   0.509   1.781  15.092 -0.5071  0.3228 -0.8687
  229MPD1    C1 3474   0.635   1.826  15.060 -0.4306 -0.6455  0.4563
  229MPD1    C2 3475   0.739   1.743  15.107  0.1435  0.4017 -0.4007
  229MPD1    C3 3476   0.718   1.637  15.192  0.9116 -0.0585  0.3276
  229MPD1    C4 3477   0.595   1.619  15.241  0.3914 -0.1075  0.4329
  229MPD1    C5 3478   0.487   1.682  15.184  0.1718  0.3766  0.8239
  229MPD1     H 3479   0.838   1.769  15.072  0.5792  0.7710  1.1376
  229MPD1    H1 3480   0.585   1.547  15.322 -0.6484 -0.7032 -0.2296
  229MPD1    H2 3481   0.426   1.839  15.051 -0.7161  1.3184  0.9479
  229MPD1    H3 3482   0.389   1.674  15.228 -0.0175 -2.2120 -0.0571
  229MPD1     N 3483   0.821   1.553  15.242 -0.5960  0.5139 -0.6112
  229MPD1    H5 3484   0.790   1.476  15.300 -1.7267  1.4052 -0.0374
  229MPD1    N1 3485   0.657   1.927  14.959  0.8479 -0.1195  0.1553
  229MPD1    H6 3486   0.577   1.991  14.955  0.6159 -0.3136  1.7257
  229MPD1    H7 3487   0.740   1.978  14.987  2.5574 -1.3765 -2.6733
  230MPD1     C 3488   1.441   1.251  15.990 -0.9235 -0.2453 -0.3621
  230MPD1    C1 3489   1.532   1.264  15.884  0.3519 -0.1532  0.0419
  230MPD1    C2 3490   1.477   1.281  15.754 -0.4566  0.0087  0.1420
  230MPD1    C3 3491   1.338   1.299  15.737  0.2583  0.3509  0.5508
  230MPD1    C4 3492   1.254   1.275  15.846  0.1525 -0.4635  0.1464
  230MPD1    C5 3493   1.309   1.248  15.970 -0.0404  0.7288  0.2605
  230MPD1     H 3494   1.538   1.307  15.669 -1.8128  0.4134 -0.7195
  230MPD1    H1 3495   1.149   1.260  15.825  0.5053 -1.2083 -1.0975
  230MPD1    H2 3496   1.472   1.250  16.094 -0.7413  0.5145 -0.4076
  230MPD1    H3 3497   1.243   1.231  16.054 -1.6607  0.1070 -1.1428
  230MPD1     N 3498   1.291   1.312  15.603 -0.2707 -0.1014  0.2152
  230MPD1    H5 3499   1.361   1.316  15.530 -0.1543  0.5568  0.3560
  230MPD1    N1 3500   1.665   1.224  15.894 -0.2056 -0.4123 -0.0645
  230MPD1    H6 3501   1.717   1.285  15.831  2.7390 -3.0425 -0.2121
  230MPD1    H7 3502   1.693   1.256  15.986  2.1181  0.4201 -1.0414
  231MPD1     C 3503   3.439   3.172  15.482  0.2556 -0.4128 -0.4559
  231MPD1    C1 3504   3.568   3.202  15.507 -0.4850 -0.0036 -0.2040
  231MPD1    C2 3505   3.635   3.272  15.414  0.6123  0.4017  0.3715
  231MPD1    C3 3506   3.581   3.310  15.290  0.4364 -0.7876  0.8958
  231MPD1    C4 3507   3.455   3.278  15.267  0.0318  0.1872 -0.2635
  231MPD1    C5 3508   3.381   3.214  15.365 -0.3972  0.0614  0.1424
  231MPD1     H 3509   3.736   3.307  15.431  1.1910 -1.0738 -0.0443
  231MPD1    H1 3510   3.402   3.298  15.174 -0.7996 -1.1470 -0.0770
  231MPD1    H2 3511   3.379   3.125  15.559 -1.4650  2.2596 -0.1738
  231MPD1    H3 3512   3.277   3.190  15.341 -0.7937 -0.2829  2.2643
  231MPD1     N 3513   3.663   3.377  15.196 -0.0978 -0.4523  0.1725
  231MPD1    H5 3514   3.755   3.410  15.224  0.0510 -0.9182  0.2188
  231MPD1    N1 3515   3.631   3.183  15.633 -0.8548 -0.4087  0.6475
  231MPD1    H6 3516   3.732   3.185  15.625 -0.8370  0.0399  1.0037
  231MPD1    H7 3517   3.587   3.101  15.676 -1.1959  0.4107  1.8434
  232MPD1     C 3518   0.458   0.776   1.118 -0.2760 -0.5317  0.5438
  232MPD1    C1 3519   0.422   0.872   1.024  0.5729  0.2991  0.1247
  232MPD1    C2 3520   0.426   0.844   0.892 -0.1097  0.1254 -0.7872
  232MPD1    C3 3521   0.485   0.731   0.840 -0.1026 -0.0587  0.6281
  232MPD1    C4 3522   0.529   0.637   0.932  0.2329  0.2023 -1.0507
  232MPD1    C5 3523   0.509   0.656   1.069  0.5920  0.4260 -0.0959
  232MPD1     H 3524   0.409   0.927   0.825 -0.3753  1.2650  0.6844
  232MPD1    H1 3525   0.563   0.539   0.899  0.3654  0.3358 -1.3165
  232MPD1    H2 3526   0.446   0.776   1.226 -0.7993  1.2288  0.4767
  232MPD1    H3 3527   0.533   0.574   1.136  3.6628  2.7428  1.6126
  232MPD1     N 3528   0.500   0.721   0.697 -0.1160  0.5792  0.5288
  232MPD1    H5 3529   0.467   0.800   0.641 -0.8529 -1.4006 -1.8314
  232MPD1    N1 3530   0.363   0.989   1.077 -0.3859 -0.3374 -0.0691
  232MPD1    H6 3531   0.411   1.013   1.163 -0.2754  0.9836 -0.4980
  232MPD1    H7 3532   0.388   1.069   1.019 -0.3661 -1.2408 -1.3189
  233MPD1     C 3533   2.092   0.063   1.275 -0.4471 -0.7457 -0.6426
  233MPD1    C1 3534   2.208   0.111   1.214  0.8144 -1.0259  0.7009
  233MPD1    C2 3535   2.320   0.040   1.250 -0.7360  0.0904  0.5079
  233MPD1    C3 3536   2.319   4.644   1.326 -0.1636  0.6270  0.2139
  233MPD1    C4 3537   2.195   4.591   1.364 -0.5048  0.4064 -0.4978
  233MPD1    C5 3538   2.081   4.670   1.344  0.8889  0.4635  0.0965
  233MPD1     H 3539   2.418   0.076   1.221 -0.3745  0.2268  1.8985
  233MPD1    H1 3540   2.180   4.503   1.424 -0.0587  2.4210  2.6117
  233MPD1    H2 3541   2.005   0.127   1.272  1.2853  1.4591 -3.4738
  233MPD1    H3 3542   1.984   4.636   1.379  0.1847  1.4000 -0.9374
  233MPD1     N 3543   2.442   4.573   1.358 -0.0747 -0.3567  0.0593
  233MPD1    H5 3544   2.524   4.612   1.313  0.9710 -1.7889  0.7708
  233MPD1    N1 3545   2.212   0.239   1.146  0.3137  0.2963  0.0727
  233MPD1    H6 3546   2.117   0.265   1.118  0.4906 -0.2774 -1.0834
  233MPD1    H7 3547   2.275   0.227   1.067  0.7992  1.1475  0.3317
  234MPD1     C 3548   3.174   2.132   9.193  0.2317  0.8875 -0.5317
  234MPD1    C1 3549   3.100   2.233   9.130 -0.5725  0.9417 -0.8354
  234MPD1    C2 3550   3.085   2.354   9.204  0.3240 -0.6452 -0.3097
  234MPD1    C3 3551   3.128   2.369   9.330 -0.0180  0.1047 -0.0733
  234MPD1    C4 3552   3.194   2.272   9.383  0.3259 -0.1430  0.0179
  234MPD1    C5 3553   3.221   2.150   9.320 -0.2982 -0.7912 -0.2522
  234MPD1     H 3554   3.027   2.433   9.157  1.3517 -0.8537 -1.9496
  234MPD1    H1 3555   3.233   2.270   9.484  2.9727  1.6322 -0.9537
  234MPD1    H2 3556   3.169   2.035   9.145 -0.6429  0.4640  0.4145
  234MPD1    H3 3557   3.269   2.074   9.379 -1.1311 -1.0458  0.0958
  234MPD1     N 3558   3.106   2.494   9.400 -0.2599  0.2207  0.3501
  234MPD1    H5 3559   3.063   2.571   9.351 -1.7983 -1.2786 -0.6839
  234MPD1    N1 3560   3.060   2.221   8.987  0.6572 -0.3051 -0.1008
  234MPD1    H6 3561   2.980   2.279   8.964  0.9888 -0.3094 -1.2555
  234MPD1    H7 3562   3.043   2.125   8.958 -0.9114 -0.2754  0.7635
  235MPD1     C 3563   4.115   1.532   9.045 -0.4447  0.2709  0.0566
  235MPD1    C1 3564   4.095   1.528   9.178 -0.0527  0.2798  0.3989
  235MPD1    C2 3565   4.179   1.607   9.257 -0.2878 -0.2582  0.2048
  235MPD1    C3 3566   4.284   1.687   9.212 -0.1741  0.2168  0.0726
  235MPD1    C4 3567   4.305   1.679   9.079  0.5065 -0.2840  0.4646
  235MPD1    C5 3568   4.226   1.600   8.998 -0.0378  0.1567 -0.2074
  235MPD1     H 3569   4.161   1.600   9.364  1.8760 -0.3659  0.5638
  235MPD1    H1 3570   4.381   1.738   9.029 -0.1917  1.3221  1.3036
  235MPD1    H2 3571   4.050   1.486   8.971 -0.4788  0.0279  0.2385
  235MPD1    H3 3572   4.248   1.629   8.896  1.5970 -0.2865  0.0277
  235MPD1     N 3573   4.368   1.760   9.306 -0.9170 -0.2376 -0.0250
  235MPD1    H5 3574   4.355   1.742   9.405 -1.6280  0.9600  0.0960
  235MPD1    N1 3575   3.981   1.459   9.228 -0.1841  1.0439  0.6188
  235MPD1    H6 3576   3.999   1.425   9.322  2.2243  5.7574  1.8361
  235MPD1    H7 3577   3.935   1.396   9.162 -1.1934 -1.7594  4.0070
  236MPD1     C 3578   3.765   2.638   9.051  0.3707 -0.7782 -0.2999
  236MPD1    C1 3579   3.808   2.746   9.116 -0.2529 -0.4054  0.0827
  236MPD1    C2 3580   3.826   2.745   9.254  0.3754  0.0391  0.7635
  236MPD1    C3 3581   3.836   2.623   9.319 -0.1688  0.1088  0.1374
  236MPD1    C4 3582   3.794   2.509   9.246 -0.6678  0.0106  0.1554
  236MPD1    C5 3583   3.758   2.514   9.114 -0.0327 -0.3379 -0.5863
  236MPD1     H 3584   3.854   2.832   9.313 -2.8151  0.4483  1.7044
  236MPD1    H1 3585   3.787   2.414   9.297  2.4831  0.2073  0.9812
  236MPD1    H2 3586   3.757   2.634   8.943  2.1261 -0.4750 -0.4497
  236MPD1    H3 3587   3.730   2.426   9.056  0.2148 -1.8178  1.5543
  236MPD1     N 3588   3.858   2.619   9.458  0.3567 -0.1812 -0.0928
  236MPD1    H5 3589   3.905   2.701   9.496  1.3482 -0.2966 -1.0708
  236MPD1    N1 3590   3.821   2.862   9.042  0.1485 -0.0318  0.6032
  236MPD1    H6 3591   3.838   2.835   8.946 -0.3935  2.9802 -0.3390
  236MPD1    H7 3592   3.896   2.925   9.070  0.3510  0.5164 -1.1665
  237MPD1     C 3593   4.279   0.757  14.950  0.3249 -0.2416 -0.1649
  237MPD1    C1 3594   4.203   0.736  15.061 -0.4076 -0.3922  0.3121
  237MPD1    C2 3595   4.159   0.608  15.090  0.0951 -0.5023  0.0375
  237MPD1    C3 3596   4.176   0.505  14.994  0.1195  0.0767 -0.4342
  237MPD1    C4 3597   4.261   0.527  14.891  0.1483  0.1971  0.5787
  237MPD1    C5 3598   4.309   0.654  14.867 -0.0567 -0.1903  0.4273
  237MPD1     H 3599   4.103   0.603  15.183  0.5677 -0.2183  0.3377
  237MPD1    H1 3600   4.289   0.448  14.821  2.1990  0.7756  0.7393
  237MPD1    H2 3601   4.308   0.854  14.912  1.6731  0.2689  2.1046
  237MPD1    H3 3602   4.369   0.668  14.777 -0.9196  2.4305  0.2780
  237MPD1     N 3603   4.137   0.369  15.011 -0.0622 -0.0910  0.9172
  237MPD1    H5 3604   4.157   0.299  14.939 -0.2811  1.2296 -0.4259
  237MPD1    N1 3605   4.195   0.833  15.162 -0.4944  0.3456 -0.2065
  237MPD1    H6 3606   4.194   0.927  15.124 -0.2943  0.4663  0.0877
  237MPD1    H7 3607   4.107   0.824  15.213 -0.1104  2.3063  0.8104
  238MPD1     C 3608   1.252   4.301  14.950  0.0458  0.3281  0.5920
  238MPD1    C1 3609   1.254   4.191  15.036 -0.9891  0.6078  0.2235
  238MPD1    C2 3610   1.163   4.090  14.995 -0.0229  0.5739 -0.2202
  238MPD1    C3 3611   1.100   4.094  14.870 -0.2777 -0.3398 -0.5766
  238MPD1    C4 3612   1.117   4.200  14.781 -0.8778  0.5307  0.3660
  238MPD1    C5 3613   1.193   4.302  14.829  0.1000  0.3321  0.1389
  238MPD1     H 3614   1.161   3.998  15.053  2.2480  0.7353  0.1034
  238MPD1    H1 3615   1.075   4.220  14.683  0.1234  0.3464 -0.0920
  238MPD1    H2 3616   1.303   4.394  14.969  2.1754 -0.8773  0.7325
  238MPD1    H3 3617   1.201   4.393  14.770  2.0529 -0.9223 -1.5395
  238MPD1     N 3618   1.021   3.984  14.822  0.0481 -0.2774 -0.0068
  238MPD1    H5 3619   0.973   3.989  14.733 -1.2458 -1.8834  0.5969
  238MPD1    N1 3620   1.311   4.191  15.161  0.3595 -0.1953 -0.1705
  238MPD1    H6 3621   1.345   4.098  15.185 -3.5099 -2.2614 -2.6576
  238MPD1    H7 3622   1.388   4.257  15.151 -1.4139  2.0454  0.8737
  239MPD1     C 3623   1.309   0.207  15.077 -0.2507  0.3084  0.3441
  239MPD1    C1 3624   1.295   0.094  14.995 -0.2196  0.3864 -0.5174
  239MPD1    C2 3625   1.263   0.113  14.861  0.4665 -0.8177  0.2784
  239MPD1    C3 3626   1.251   0.244  14.807 -0.5472 -0.5905 -0.5762
  239MPD1    C4 3627   1.257   0.353  14.896  0.0474  0.4207 -0.0993
  239MPD1    C5 3628   1.278   0.335  15.028  0.3625  0.2341 -0.2191
  239MPD1     H 3629   1.247   0.030  14.793  0.1666 -0.5764  0.0541
  239MPD1    H1 3630   1.256   0.457  14.867 -0.4935  0.5835  0.4892
  239MPD1    H2 3631   1.344   0.194  15.179 -0.4983 -2.9054  0.0428
  239MPD1    H3 3632   1.290   0.424  15.088 -1.5157 -0.9731  1.9563
  239MPD1     N 3633   1.219   0.272  14.673  0.1986 -0.1829  0.2965
  239MPD1    H5 3634   1.202   0.367  14.642  0.6151 -0.0547  0.4594
  239MPD1    N1 3635   1.332   4.687  15.028 -0.8802 -0.2384 -0.5359
  239MPD1    H6 3636   1.273   4.620  14.980 -0.3676 -0.7989 -0.3834
  239MPD1    H7 3637   1.312   4.669  15.127  1.0086 -1.1383 -0.3157
  240MPD1     C 3638   0.362   4.686  13.770  0.7262  0.2229 -0.1029
  240MPD1    C1 3639   0.323   0.004  13.896  0.2077  0.9337 -0.4817
  240MPD1    C2 3640   0.347   4.648  14.006 -0.3653  0.3497 -0.7985
  240MPD1    C3 3641   0.423   4.529  13.997 -0.0577  0.6495  0.6441
  240MPD1    C4 3642   0.476   4.495  13.868  0.7852 -0.8714  0.1334
  240MPD1    C5 3643   0.439   4.572  13.758  0.2443  0.4594  0.4810
  240MPD1     H 3644   0.311   4.677  14.104  0.3003  0.5132 -0.6057
  240MPD1    H1 3645   0.539   4.408  13.854  1.0512 -0.5371 -0.7512
  240MPD1    H2 3646   0.318   0.001  13.679  3.4776  0.9998 -1.0922
  240MPD1    H3 3647   0.449   4.538  13.656  2.1352  0.9472  0.5060
  240MPD1     N 3648   0.434   4.437  14.108  0.5097  0.2872  0.1399
  240MPD1    H5 3649   0.408   4.471  14.200 -2.5614 -0.0528 -0.6256
  240MPD1    N1 3650   0.239   0.113  13.913  0.1777  0.4706  0.6645
  240MPD1    H6 3651   0.265   0.183  13.844 -1.9562  0.7104  0.0947
  240MPD1    H7 3652   0.240   0.154  14.006  2.0578  1.7865  0.0591
  241MPD1     C 3653   0.519   4.690  14.906 -0.2853 -0.4996 -0.1156
  241MPD1    C1 3654   0.457   4.573  14.927  0.0091 -0.1799 -0.4947
  241MPD1    C2 3655   0.455   4.476  14.829  0.0551  0.6307 -0.8747
  241MPD1    C3 3656   0.508   4.504  14.703  0.7040  0.4375 -0.2704
  241MPD1    C4 3657   0.556   4.626  14.681  0.0760 -0.2336 -0.0896
  241MPD1    C5 3658   0.568   4.717  14.778 -0.0903  0.3357 -0.2563
  241MPD1     H 3659   0.406   4.381  14.847 -1.6444  1.2147 -2.3303
  241MPD1    H1 3660   0.585   4.658  14.581  2.4483 -1.0993  0.3219
  241MPD1    H2 3661   0.526   0.027  14.995 -0.9227  0.6099 -0.8242
  241MPD1    H3 3662   0.627   0.081  14.759 -0.9298  1.0114  0.2896
  241MPD1     N 3663   0.503   4.417  14.596 -0.5312 -0.4215 -0.5146
  241MPD1    H5 3664   0.549   4.443  14.510 -1.2313  2.1134 -0.0994
  241MPD1    N1 3665   0.423   4.527  15.059 -0.5344  0.1075 -1.2664
  241MPD1    H6 3666   0.344   4.464  15.055  0.4654 -1.1679 -0.7829
  241MPD1    H7 3667   0.403   4.602  15.125  0.2397 -0.9443  0.1639
  242MPD1     C 3668   0.161   2.063  15.916  0.4239  0.4513 -0.6645
  242MPD1    C1 3669   0.214   2.185  15.956 -0.1245 -0.3416  0.7515
  242MPD1    C2 3670   0.289   2.260  15.871 -0.0448  0.0792  0.0100
  242MPD1    C3 3671   0.292   2.225  15.739 -0.1165  0.1147  0.8428
  242MPD1    C4 3672   0.259   2.100  15.704  0.4163  0.0337 -0.0370
  242MPD1    C5 3673   0.199   2.017  15.795 -0.2853 -0.3735 -0.9373
  242MPD1     H 3674   0.329   2.353  15.911  0.7863  0.8364 -2.5503
  242MPD1    H1 3675   0.275   2.070  15.601 -1.0204 -1.0824  0.0562
  242MPD1    H2 3676   0.096   2.000  15.975 -0.8344  0.6502 -1.8345
  242MPD1    H3 3677   0.167   1.919  15.764 -2.2897 -0.2888  0.8850
  242MPD1     N 3678   0.340   2.315  15.637  0.5669 -0.6083 -0.1469
  242MPD1    H5 3679   0.317   2.287  15.542 -0.0162 -2.9391  0.6787
  242MPD1    N1 3680   0.200   2.221  16.089 -0.3204 -0.5836 -0.0043
  242MPD1    H6 3681   0.186   2.321  16.103 -1.6738 -1.0417  1.9079
  242MPD1    H7 3682   0.115   2.184  16.129 -0.4085  1.4614  1.6872
  243MPD1     C 3683   2.403   4.117   0.168  0.1906  0.5915 -0.6639
  243MPD1    C1 3684   2.280   4.149   0.216 -0.5110  0.2653 -0.0657
  243MPD1    C2 3685   2.218   4.266   0.181  0.5160 -0.0137 -0.2960
  243MPD1    C3 3686   2.274   4.357   0.094  0.0130 -0.2769  0.5065
  243MPD1    C4 3687   2.393   4.327   0.037  1.3201 -0.0287  0.4964
  243MPD1    C5 3688   2.456   4.212   0.076 -0.3065 -0.1496 -0.7131
  243MPD1     H 3689   2.117   4.288   0.211 -0.1448 -0.4115 -2.2310
  243MPD1    H1 3690   2.449   4.388  17.667 -0.8376 -0.2368 -1.4503
  243MPD1    H2 3691   2.456   4.025   0.189  1.6484  2.1104  2.4001
  243MPD1    H3 3692   2.548   4.179   0.030 -0.3713 -0.2576 -0.7660
  243MPD1     N 3693   2.195   4.473   0.057 -0.0761 -0.4020 -0.0748
  243MPD1    H5 3694   2.114   4.498   0.113  0.7794  0.7875  0.6376
  243MPD1    N1 3695   2.203   4.050   0.279  0.4383 -0.1084  0.5017
  243MPD1    H6 3696   2.260   3.992   0.339  0.7451  0.7899  1.0742
  243MPD1    H7 3697   2.127   4.090   0.334 -0.0729 -1.3532  0.7024
  244MPD1     C 3698   1.298   4.597   0.174 -0.2961  0.6070 -0.2077
  244MPD1    C1 3699   1.302   4.717   0.105  1.2399  0.3538 -0.0836
  244MPD1    C2 3700   1.426   0.039   0.071 -0.6791  0.3086 -0.3053
  244MPD1    C3 3701   1.541   4.692   0.096  0.7741 -0.2076  0.0659
  244MPD1    C4 3702   1.529   4.568   0.157 -0.0415 -0.3037 -0.5125
  244MPD1    C5 3703   1.407   4.521   0.199  0.1728 -0.2181  0.1940
  244MPD1     H 3704   1.424   0.133   0.017  1.8464  0.9503  0.7303
  244MPD1    H1 3705   1.615   4.505   0.181  0.5623  1.2273  1.2602
  244MPD1    H2 3706   1.198   4.568   0.203  0.9949 -1.8486  1.7609
  244MPD1    H3 3707   1.398   4.441   0.272 -0.5275 -0.3704 -0.0585
  244MPD1     N 3708   1.670   0.028   0.058 -0.3099  0.5190  0.4852
  244MPD1    H5 3709   1.663   0.119   0.015  2.4775  0.3146 -0.3960
  244MPD1    N1 3710   1.185   0.046   0.051 -0.2610 -0.1534  0.3412
  244MPD1    H6 3711   1.180   0.147   0.061 -1.6220 -0.1760 -0.1834
  244MPD1    H7 3712   1.111   0.004   0.106 -0.8832  2.7802  1.7050
  245MPD1     C 3713   4.160   1.262  13.350  0.2478  0.2889 -0.1098
  245MPD1    C1 3714   4.149   1.286  13.480  0.3749  0.1964 -0.0329
  245MPD1    C2 3715   4.116   1.412  13.521  0.5135 -0.2294 -0.2045
  245MPD1    C3 3716   4.096   1.515  13.431 -0.9345 -0.2440  0.6866
  245MPD1    C4 3717   4.139   1.501  13.305 -0.2847  0.3587 -0.2216
  245MPD1    C5 3718   4.168   1.375  13.264  0.2801 -0.1002 -0.2253
  245MPD1     H 3719   4.090   1.429  13.625 -0.4998 -0.8484 -0.3566
  245MPD1    H1 3720   4.132   1.581  13.232 -0.9214  0.6693  0.1792
  245MPD1    H2 3721   4.169   1.166  13.299 -1.5763  0.1938 -0.2480
  245MPD1    H3 3722   4.198   1.361  13.161 -1.0216  0.0472 -0.6273
  245MPD1     N 3723   4.044   1.637  13.486  0.1268  0.4640  0.3622
  245MPD1    H5 3724   4.029   1.633  13.587  2.9678  0.0331  0.7848
  245MPD1    N1 3725   4.128   1.174  13.562 -0.4246 -0.1087 -0.6907
  245MPD1    H6 3726   4.170   1.087  13.531 -1.0643 -1.2467  1.6857
  245MPD1    H7 3727   4.137   1.176  13.663  1.1600  0.6061 -0.8562
  246MPD1     C 3728   3.871   0.031   9.557  0.6241  0.2524 -0.0271
  246MPD1    C1 3729   3.754   0.079   9.504 -0.7223 -0.0240  0.9547
  246MPD1    C2 3730   3.673   4.711   9.441  0.8325 -0.1481 -0.2354
  246MPD1    C3 3731   3.702   4.573   9.429 -0.2743 -0.2025  0.3711
  246MPD1    C4 3732   3.826   4.532   9.486 -0.2108 -0.3306  0.0523
  246MPD1    C5 3733   3.907   4.624   9.551 -0.3549  0.6454  0.2562
  246MPD1     H 3734   3.571   0.015   9.419  0.6727 -0.9998 -0.5765
  246MPD1    H1 3735   3.871   4.438   9.457  1.4434  0.8643 -1.2623
  246MPD1    H2 3736   3.941   0.104   9.598 -1.4172  1.0927  1.9614
  246MPD1    H3 3737   4.007   4.597   9.582 -0.1917  0.2634 -0.5910
  246MPD1     N 3738   3.607   4.490   9.372 -0.5645 -0.9133 -0.1732
  246MPD1    H5 3739   3.524   4.535   9.335  0.9898  1.3181 -0.9667
  246MPD1    N1 3740   3.702   0.200   9.539  0.2359 -0.3078 -0.4388
  246MPD1    H6 3741   3.621   0.229   9.485 -0.9074 -2.1978  0.3010
  246MPD1    H7 3742   3.760   0.284   9.537 -0.9945  0.5031 -2.0781
  247MPD1     C 3743   2.618   1.917  16.392 -0.1433  0.2351 -0.0798
  247MPD1    C1 3744   2.611   1.787  16.425 -0.6120  0.1829 -0.4931
  247MPD1    C2 3745   2.692   1.699  16.359  0.1816  0.1134  0.3005
  247MPD1    C3 3746   2.780   1.745  16.261 -0.2298  0.1920 -0.0221
  247MPD1    C4 3747   2.801   1.879  16.241  0.7274 -0.3963 -0.4429
  247MPD1    C5 3748   2.711   1.956  16.303  0.3687  0.3166 -0.0395
  247MPD1     H 3749   2.688   1.592  16.372  0.8055  0.0019 -0.3801
  247MPD1    H1 3750   2.878   1.914  16.172  1.3298 -1.4299 -0.2930
  247MPD1    H2 3751   2.550   1.993  16.431  2.3414  1.6178  1.5602
  247MPD1    H3 3752   2.724   2.062  16.288 -0.2876  0.6826  1.9205
  247MPD1     N 3753   2.868   1.662  16.194 -0.5227  0.5147 -0.5530
  247MPD1    H5 3754   2.948   1.710  16.153  1.5926 -0.1739  2.7528
  247MPD1    N1 3755   2.495   1.737  16.485  0.3718 -0.0110 -0.2079
  247MPD1    H6 3756   2.516   1.654  16.540 -2.3919  0.1932  1.1676
  247MPD1    H7 3757   2.448   1.809  16.540  1.4113 -0.0550  0.7282
  248MPD1     C 3758   4.484   1.653  17.443  0.1842  0.9028  0.7613
  248MPD1    C1 3759   4.425   1.739  17.534  1.1979 -1.0022  0.9674
  248MPD1    C2 3760   4.347   1.678  17.633 -0.5546 -0.6653  0.1270
  248MPD1    C3 3761   4.315   1.540  17.629 -0.2763 -0.2741 -0.5183
  248MPD1    C4 3762   4.361   1.466  17.526 -0.1769 -0.3985  0.7863
  248MPD1    C5 3763   4.439   1.523  17.435  0.4695  0.5600 -0.8523
  248MPD1     H 3764   4.299   1.734   0.014 -3.2852 -1.5063 -0.9329
  248MPD1    H1 3765   4.344   1.359  17.523  0.1732 -0.4045 -0.7267
  248MPD1    H2 3766   4.543   1.690  17.360 -1.3594  4.0448  1.0656
  248MPD1    H3 3767   4.476   1.455  17.359  2.1854 -0.6291  1.0609
  248MPD1     N 3768   4.228   1.497   0.029  0.5264 -0.0943  0.9556
  248MPD1    H5 3769   4.212   1.569   0.099 -2.4292  0.5732 -0.4080
  248MPD1    N1 3770   4.461   1.870  17.536  0.3948  0.5333  0.3140
  248MPD1    H6 3771   4.472   1.900  17.440 -3.1290  0.0443 -0.2268
  248MPD1    H7 3772   4.392   1.927  17.586 -0.4761 -0.8839  0.7386
  249MPD1     C 3773   0.740   0.325  10.585  0.0471  0.4213 -0.0823
  249MPD1    C1 3774   0.747   0.452  10.532 -0.1221 -0.0269  0.1208
  249MPD1    C2 3775   0.681   0.472  10.413 -0.0205 -0.5023 -0.0666
  249MPD1    C3 3776   0.609   0.379  10.341  0.5123 -0.6052 -0.4624
  249MPD1    C4 3777   0.608   0.251  10.395 -0.8480 -0.3353  0.2502
  249MPD1    C5 3778   0.669   0.233  10.514  0.5251 -0.0178 -0.9980
  249MPD1     H 3779   0.679   0.574  10.375 -0.1283 -1.1039 -1.6241
  249MPD1    H1 3780   0.580   0.158  10.347  0.9208 -0.8708  0.2600
  249MPD1    H2 3781   0.793   0.287  10.671 -0.6489  1.5513  0.8506
  249MPD1    H3 3782   0.683   0.129  10.541  1.8343  0.0140 -1.5260
  249MPD1     N 3783   0.547   0.421  10.221 -0.1962  0.4446 -0.4641
  249MPD1    H5 3784   0.572   0.515  10.192 -0.8442  0.6586 -0.3339
  249MPD1    N1 3785   0.818   0.555  10.594  0.2077  0.7042  0.6213
  249MPD1    H6 3786   0.793   0.553  10.693 -2.0036  0.2379  0.0387
  249MPD1    H7 3787   0.806   0.649  10.556  0.3603  1.2426  1.8817
  250MPD2     C 3788   2.154   0.498  13.581 -0.1163 -0.0794  0.3898
  250MPD2    C1 3789   2.089   0.527  13.468 -0.0840 -0.3463 -0.0556
  250MPD2    C2 3790   2.002   0.434  13.421 -0.5857 -0.1031  0.2071
  250MPD2    C3 3791   1.989   0.306  13.483 -0.0428 -0.2508 -0.5373
  250MPD2    C4 3792   2.072   0.272  13.591 -0.0358  0.5485  0.1735
  250MPD2    C5 3793   2.162   0.370  13.635 -0.1955  0.0119 -0.6050
  250MPD2     H 3794   1.942   0.455  13.333 -1.6397 -0.3697  0.8654
  250MPD2    H1 3795   2.083   0.172  13.631 -1.2573 -0.4715 -2.0358
  250MPD2    H2 3796   2.233   0.561  13.619  1.5031 -1.4316 -0.6898
  250MPD2    H3 3797   2.235   0.342  13.710 -0.3027  1.5925  0.0819
  250MPD2     N 3798   1.900   0.202  13.439 -0.2610  0.4959 -0.5617
  250MPD2    H5 3799   1.914   0.108  13.475  0.7991 -0.2206 -2.8351
  250MPD2    N1 3800   2.104   0.652  13.404 -0.5031  0.0206  0.0088
  250MPD2    H7 3801   2.153   0.727  13.452  0.7408 -0.7653 -0.0394
  251TMC3    C1 3802   2.120   0.794  13.222  0.2857  0.3240  0.4126
  251TMC3    C2 3803   2.059   0.895  13.294 -0.3327  0.7762 -0.9922
  251TMC3    C3 3804   2.045   1.010  13.226 -0.0462 -0.1050  0.0529
  251TMC3    C4 3805   2.190   0.808  13.107  0.3502  0.3831  0.2065
  251TMC3    C5 3806   2.191   0.939  13.060  0.2367 -0.2133  0.4706
  251TMC3    C6 3807   2.112   1.043  13.113 -0.1708  0.4074  0.1246
  251TMC3     C 3808   2.111   0.659  13.269 -0.0252 -0.1086  0.0424
  251TMC3     O 3809   2.107   0.568  13.186 -0.1586 -0.7453  0.0846
  251TMC3     H 3810   1.988   0.875  13.373  3.4762  0.2602  2.2727
  251TMC3    H1 3811   2.258   0.732  13.069  0.1832  0.4450 -0.2200
  251TMC3    H2 3812   2.112   1.146  13.079 -0.0371 -0.0811 -1.3585
  251TMC3    C7 3813   2.328   0.963  13.021 -0.2318  0.1255  0.1396
  251TMC3    C8 3814   1.958   1.106  13.287 -0.0518 -0.8529 -0.1754
  251TMC3    O1 3815   2.387   0.875  12.959  0.0817 -0.5823  0.6093
  251TMC3    O2 3816   1.949   1.104  13.409 -0.2221 -0.0696 -0.2772
  252TMC3    C1 3817   2.004   2.059   9.130 -0.4331 -0.1276  0.7778
  252TMC3    C2 3818   2.135   2.025   9.140 -0.7886 -0.7102  0.0062
  252TMC3    C3 3819   2.171   1.898   9.112  0.6886 -0.7051  0.5480
  252TMC3    C4 3820   1.909   1.961   9.101 -0.1490 -0.1111 -0.7810
  252TMC3    C5 3821   1.950   1.832   9.092 -0.0235 -0.0850  0.5423
  252TMC3    C6 3822   2.084   1.796   9.094 -0.0736 -0.4657 -0.0839
  252TMC3     C 3823   1.969   2.200   9.156 -0.0134 -0.7570  0.2820
  252TMC3     O 3824   2.057   2.276   9.188  0.1436 -0.0397 -0.0112
  252TMC3     H 3825   2.210   2.102   9.154 -1.9070  0.8862 -2.8308
  252TMC3    H1 3826   1.803   1.973   9.082 -0.0330 -2.1354 -2.7758
  252TMC3    H2 3827   2.116   1.695   9.113 -0.2531 -0.8714 -1.9217
  252TMC3    C7 3828   1.842   1.734   9.099 -0.1883 -0.0267 -0.4346
  252TMC3    C8 3829   2.301   1.836   9.142 -0.4889  0.0572  0.0183
  252TMC3    O1 3830   1.745   1.746   9.027  0.5570  0.2782  0.5194
  252TMC3    O2 3831   2.333   1.742   9.070 -0.1220 -0.2109 -0.7472
  253MPD2     C 3832   3.754   0.512  14.791 -0.1136  0.5668  0.4124
  253MPD2    C1 3833   3.654   0.420  14.812  0.4863  0.4528  0.1171
  253MPD2    C2 3834   3.626   0.363  14.930  0.0122  0.4032 -0.0560
  253MPD2    C3 3835   3.688   0.416  15.043  1.2794  0.7950 -0.8851
  253MPD2    C4 3836   3.787   0.505  15.026 -0.0748 -0.0324  0.4672
  253MPD2    C5 3837   3.828   0.549  14.906 -0.3087 -0.3435  0.4609
  253MPD2     H 3838   3.550   0.287  14.941 -1.7847  2.2877  0.6058
  253MPD2    H1 3839   3.841   0.541  15.112 -0.4270  0.1122  0.6248
  253MPD2    H2 3840   3.767   0.559  14.694  0.0555  0.1675  0.2435
  253MPD2    H3 3841   3.905   0.624  14.897 -2.0971  1.5560  0.9649
  253MPD2     N 3842   3.667   0.366  15.171  0.3913 -0.6266  0.0994
  253MPD2    H5 3843   3.721   0.403  15.249  0.6064 -1.0515  0.1506
  253MPD2    N1 3844   3.558   0.404  14.712  0.1518 -0.3227  0.3105
  253MPD2    H7 3845   3.487   0.336  14.739 -0.1739  0.2494  0.9161
  254TMC3    C1 3846   3.528   0.280  15.340  0.5157  0.7954 -0.3909
  254TMC3    C2 3847   3.398   0.312  15.371 -0.3378  0.6533 -0.3852
  254TMC3    C3 3848   3.380   0.346  15.504  0.6113 -0.1794  0.0780
  254TMC3    C4 3849   3.633   0.286  15.434  0.4648  0.3086  0.1004
  254TMC3    C5 3850   3.603   0.318  15.559 -0.4488 -0.5572  0.0002
  254TMC3    C6 3851   3.474   0.333  15.601 -0.1907  0.7749  0.5801
  254TMC3     C 3852   3.563   0.277  15.200  0.2845 -0.6070 -0.2369
  254TMC3     O 3853   3.464   0.233  15.139 -0.4516  0.2257 -0.0705
  254TMC3     H 3854   3.323   0.324  15.293  0.1411 -1.0407 -1.1033
  254TMC3    H1 3855   3.735   0.266  15.405  1.0736  2.5893  0.6496
  254TMC3    H2 3856   3.455   0.371  15.701  1.5012  0.9144  0.8498
  254TMC3    C7 3857   3.682   0.293  15.678  0.0407 -0.9432 -0.1293
  254TMC3    C8 3858   3.246   0.387  15.550  0.3085  0.8428  0.6008
  254TMC3    O1 3859   3.627   0.277  15.786 -0.4970 -0.1392  0.1014
  254TMC3    O2 3860   3.221   0.358  15.666 -0.1770  0.3167 -0.6133
  255MPD2     C 3861   1.089   3.590   9.577  0.3313  0.4140 -0.9673
  255MPD2    C1 3862   1.018   3.643   9.684  0.5412 -0.1728 -0.2339
  255MPD2    C2 3863   1.051   3.603   9.812 -0.2359  0.3736  0.1997
  255MPD2    C3 3864   1.132   3.491   9.827  0.4177  0.3254  0.4454
  255MPD2    C4 3865   1.175   3.428   9.713 -0.4179 -0.6680 -0.8411
  255MPD2    C5 3866   1.163   3.478   9.584 -0.1146 -0.2327 -0.5212
  255MPD2     H 3867   1.004   3.651   9.897 -1.3492  0.1374 -0.2725
  255MPD2    H1 3868   1.232   3.336   9.726  1.1494  0.4795  0.3399
  255MPD2    H2 3869   1.067   3.627   9.478 -1.4742  2.2230  0.1225
  255MPD2    H3 3870   1.208   3.436   9.494 -2.0303 -1.2148 -1.0201
  255MPD2     N 3871   1.149   3.440   9.963  0.6368  0.1069 -0.6884
  255MPD2    H5 3872   1.101   3.496  10.034  0.7428 -0.1394 -0.4223
  255MPD2    N1 3873   0.927   3.739   9.647  0.4438 -0.2290 -0.2172
  255MPD2    H7 3874   0.922   3.754   9.547 -0.2454 -0.6497 -0.2491
  256TMC3    C1 3875   0.738   3.876   9.650 -0.3191 -0.9951  0.7620
  256TMC3    C2 3876   0.778   3.920   9.526 -0.8288 -0.5004 -0.1786
  256TMC3    C3 3877   0.679   3.959   9.441 -0.0102 -0.4210  0.8564
  256TMC3    C4 3878   0.610   3.887   9.689 -0.2051  0.4576  0.2741
  256TMC3    C5 3879   0.513   3.915   9.593 -0.5594  0.0355 -0.3846
  256TMC3    C6 3880   0.547   3.951   9.466  0.1146 -0.2219 -0.2669
  256TMC3     C 3881   0.833   3.802   9.727  0.2410  0.0140 -0.4757
  256TMC3     O 3882   0.811   3.789   9.851 -0.6625  0.4955 -0.2467
  256TMC3     H 3883   0.884   3.929   9.506  0.1208 -0.5093  4.6864
  256TMC3    H1 3884   0.588   3.853   9.789 -0.6850  0.2574  0.1059
  256TMC3    H2 3885   0.478   4.004   9.400 -0.9040  1.4173  2.1056
  256TMC3    C7 3886   0.407   3.817   9.599  0.5010  0.6353  0.2494
  256TMC3    C8 3887   0.717   4.062   9.349 -0.4880 -0.0429 -0.3156
  256TMC3    O1 3888   0.413   3.739   9.696 -0.4476  0.2284 -0.0737
  256TMC3    O2 3889   0.641   4.151   9.318 -0.2304 -0.5307 -0.3877
  257MPD2     C 3890   1.218   0.720  13.430 -0.4902 -0.0822  0.3389
  257MPD2    C1 3891   1.093   0.718  13.385 -0.0826 -0.2473  0.6929
  257MPD2    C2 3892   0.998   0.654  13.461 -0.1809 -0.6235 -0.5148
  257MPD2    C3 3893   1.024   0.583  13.574  0.3497 -0.1897  0.9741
  257MPD2    C4 3894   1.152   0.578  13.614 -0.4602 -0.0057  0.0316
  257MPD2    C5 3895   1.248   0.646  13.546 -1.0011  0.2019  0.2268
  257MPD2     H 3896   0.893   0.662  13.432 -0.6739  0.4652  1.5663
  257MPD2    H1 3897   1.183   0.529  13.705 -0.0156  2.4861  1.2087
  257MPD2    H2 3898   1.300   0.772  13.380  0.7351 -2.7179 -0.4071
  257MPD2    H3 3899   1.350   0.648  13.584 -1.2105  0.2375  0.7878
  257MPD2     N 3900   0.911   0.512  13.634  0.0381  0.2152  0.3214
  257MPD2    H5 3901   0.825   0.517  13.581  0.3616 -2.1448 -0.4009
  257MPD2    N1 3902   1.068   0.788  13.263  0.4651  0.5942  0.5753
  257MPD2    H7 3903   1.145   0.833  13.215 -1.4748  3.2526 -0.0958
  258TMC3    C1 3904   0.787   0.382  13.800  0.7510 -0.7591  0.4947
  258TMC3    C2 3905   0.683   0.351  13.715 -0.4445 -0.8404  0.3934
  258TMC3    C3 3906   0.566   0.300  13.770 -0.0047  0.6491  0.5313
  258TMC3    C4 3907   0.783   0.349  13.932  0.1501  0.4993 -1.0597
  258TMC3    C5 3908   0.665   0.292  13.978  0.3103 -0.0970 -0.0362
  258TMC3    C6 3909   0.552   0.273  13.905 -0.0322 -0.3383  0.8206
  258TMC3     C 3910   0.913   0.454  13.754 -0.2167 -0.0098 -0.6349
  258TMC3     O 3911   1.001   0.468  13.833  0.0502 -0.6085 -0.2700
  258TMC3     H 3912   0.687   0.377  13.611 -2.2092 -4.0839 -0.5032
  258TMC3    H1 3913   0.872   0.362  13.993  0.6531  1.5520 -2.0161
  258TMC3    H2 3914   0.453   0.246  13.938  0.5770 -1.3258  1.8392
  258TMC3    C7 3915   0.666   0.221  14.102 -0.5323  0.5964  0.5448
  258TMC3    C8 3916   0.447   0.308  13.687 -0.1722 -0.3729 -0.1422
  258TMC3    O1 3917   0.561   0.214  14.164 -0.6177 -0.2191 -0.3728
  258TMC3    O2 3918   0.334   0.333  13.733  0.6192  0.1016  0.0840
  259MPD2     C 3919   4.343   1.741   0.942 -0.2335  0.5247  0.4311
  259MPD2    C1 3920   4.412   1.624   0.980 -0.4413 -0.2379  0.3861
  259MPD2    C2 3921   4.497   1.566   0.891 -0.0043 -0.3622  0.2132
  259MPD2    C3 3922   4.525   1.622   0.762  0.4027  0.1506  0.7573
  259MPD2    C4 3923   4.459   1.741   0.729 -0.6054  0.2608  1.2166
  259MPD2    C5 3924   4.369   1.794   0.816 -0.0191  0.1711 -0.3198
  259MPD2     H 3925   4.550   1.474   0.915 -2.2471 -2.1287 -1.4703
  259MPD2    H1 3926   4.454   1.785   0.630 -1.6958 -1.5184  0.4689
  259MPD2    H2 3927   4.272   1.791   1.007  0.9245  0.3217  1.8641
  259MPD2    H3 3928   4.314   1.882   0.784  0.8883  1.3072  1.2100
  259MPD2     N 3929   4.615   1.566   0.672  0.2013  0.1345 -0.3712
  259MPD2    H5 3930   4.640   1.470   0.696 -1.0813  0.2119  1.3210
  259MPD2    N1 3931   4.388   1.579   1.110  0.4302  0.1350  0.0549
  259MPD2    H7 3932   4.332   1.641   1.168 -0.6222 -1.5251  0.8134
  260TMC3    C1 3933   0.070   1.579   0.529 -0.2255  0.1714 -0.4229
  260TMC3    C2 3934   0.125   1.603   0.403 -0.5778 -0.1021  0.6013
  260TMC3    C3 3935   0.257   1.575   0.379  0.2800 -0.1784  0.2469
  260TMC3    C4 3936   0.152   1.529   0.628 -0.8369 -0.2537  0.2207
  260TMC3    C5 3937   0.280   1.495   0.600  0.1186  0.0727  0.0065
  260TMC3    C6 3938   0.335   1.530   0.478  0.2162 -0.3796  0.3908
  260TMC3     C 3939   4.664   1.624   0.558 -0.2173 -0.1995 -0.8463
  260TMC3     O 3940   4.624   1.723   0.494 -0.3464 -0.5235  0.2000
  260TMC3     H 3941   0.065   1.643   0.322 -0.6347  0.9690  1.1754
  260TMC3    H1 3942   0.113   1.507   0.727  1.3464 -0.5226  1.0247
  260TMC3    H2 3943   0.443   1.535   0.471  0.2197 -0.8454  0.0746
  260TMC3    C7 3944   0.315   1.355   0.627  0.5160 -0.8336  0.0634
  260TMC3    C8 3945   0.293   1.536   0.245 -0.0965 -0.3114 -0.7449
  260TMC3    O1 3946   0.387   1.306   0.539  0.4011 -0.1535  0.2019
  260TMC3    O2 3947   0.253   1.596   0.144 -0.1764 -0.1348  0.2027
  261MPD2     C 3948   1.254   4.719  12.962  0.0254 -0.3361  0.3630
  261MPD2    C1 3949   1.359   0.076  12.980 -0.2875 -0.4314  0.2594
  261MPD2    C2 3950   1.355   0.187  12.899 -0.1179 -0.0799  0.1824
  261MPD2    C3 3951   1.247   0.223  12.817  0.1293 -0.6966 -0.4080
  261MPD2    C4 3952   1.140   0.145  12.815 -0.0988  0.2086  0.4262
  261MPD2    C5 3953   1.148   0.027  12.879 -0.0345 -0.5158  0.4859
  261MPD2     H 3954   1.451   0.237  12.897 -0.7777  1.0433 -3.0855
  261MPD2    H1 3955   1.063   0.171  12.744  1.0141 -0.2060 -0.9454
  261MPD2    H2 3956   1.261   4.621  13.009 -1.7688 -0.7158 -0.1353
  261MPD2    H3 3957   1.063   4.684  12.870 -0.7190  0.2380  1.3877
  261MPD2     N 3958   1.272   0.338  12.736  0.3875 -0.4637 -0.2915
  261MPD2    H5 3959   1.365   0.377  12.739 -0.8070  2.3995  0.0442
  261MPD2    N1 3960   1.469   0.046  13.064 -0.5097  0.0979  0.2195
  261MPD2    H7 3961   1.543   0.116  13.059 -1.4484  1.1700  1.3405
  262TMC3    C1 3962   1.228   0.531  12.609 -0.1845  0.8455 -0.0295
  262TMC3    C2 3963   1.146   0.609  12.535  0.8464  0.8670 -0.0264
  262TMC3    C3 3964   1.203   0.711  12.459  0.4095 -0.5049  0.0911
  262TMC3    C4 3965   1.364   0.542  12.596 -0.0588 -0.0064 -0.2763
  262TMC3    C5 3966   1.424   0.637  12.515  0.1987  0.6025  0.4023
  262TMC3    C6 3967   1.343   0.727  12.443 -0.3946 -0.2196 -0.2092
  262TMC3     C 3968   1.180   0.402  12.653  0.6564  0.0333  0.1723
  262TMC3     O 3969   1.070   0.359  12.616  0.2177 -0.4255  0.0296
  262TMC3     H 3970   1.039   0.593  12.546  0.6407 -0.9675 -4.7749
  262TMC3    H1 3971   1.432   0.482  12.656  1.7344  2.8272  0.5792
  262TMC3    H2 3972   1.388   0.813  12.395  0.9905 -0.4612  0.6408
  262TMC3    C7 3973   1.568   0.627  12.501 -0.4944  0.7048 -1.1212
  262TMC3    C8 3974   1.109   0.803  12.386 -0.4013 -0.0155 -0.1792
  262TMC3    O1 3975   1.631   0.566  12.587  0.0599  0.9681 -0.4362
  262TMC3    O2 3976   0.993   0.775  12.405 -0.1740 -0.2823  0.4295
  263MPD2     C 3977   2.375   0.094  11.388 -0.9500  0.2962 -0.5011
  263MPD2    C1 3978   2.492   0.093  11.317 -0.6074 -0.0728  0.1024
  263MPD2    C2 3979   2.500   0.160  11.199 -0.0910  0.6838 -0.4140
  263MPD2    C3 3980   2.390   0.226  11.140 -0.5359  0.1432 -0.1549
  263MPD2    C4 3981   2.272   0.216  11.213  0.1328 -0.5024  0.1712
  263MPD2    C5 3982   2.268   0.158  11.337 -0.0067 -0.7800 -0.4122
  263MPD2     H 3983   2.592   0.166  11.143 -0.5263  2.5418 -0.9296
  263MPD2    H1 3984   2.175   0.248  11.176  0.0629  0.4378  1.1638
  263MPD2    H2 3985   2.381   0.039  11.482  0.0962 -0.4287 -0.9918
  263MPD2    H3 3986   2.176   0.145  11.392 -0.7069  2.2960 -0.8541
  263MPD2     N 3987   2.391   0.295  11.013  0.6578 -0.6564 -0.2908
  263MPD2    H5 3988   2.302   0.338  10.992  1.4483  1.1365  0.0638
  263MPD2    N1 3989   2.604   0.031  11.385 -0.6833 -0.1516  0.0195
  263MPD2    H7 3990   2.583   4.700  11.468 -1.7026  0.7050  0.3232
  264TMC3    C1 3991   2.451   0.354  10.799  0.1453 -0.2688 -0.0116
  264TMC3    C2 3992   2.387   0.478  10.816  0.5011  0.3817  0.0900
  264TMC3    C3 3993   2.395   0.567  10.721  0.6173 -0.3629  0.2998
  264TMC3    C4 3994   2.532   0.332  10.689  0.0750  0.6122 -0.5694
  264TMC3    C5 3995   2.548   0.434  10.602  0.8441  0.3753 -0.6295
  264TMC3    C6 3996   2.476   0.556  10.615 -0.6918 -0.1498 -0.1792
  264TMC3     C 3997   2.485   0.283  10.918  0.2158  0.0284 -0.0202
  264TMC3     O 3998   2.587   0.214  10.925  0.2930  0.2699  0.3879
  264TMC3     H 3999   2.309   0.485  10.891  0.2048 -0.1720 -0.1642
  264TMC3    H1 4000   2.609   0.256  10.699 -0.0362  0.4161 -1.2275
  264TMC3    H2 4001   2.484   0.639  10.546 -0.0532  0.3356  0.4837
  264TMC3    C7 4002   2.659   0.430  10.512 -0.2501  0.5378  0.1643
  264TMC3    C8 4003   2.357   0.707  10.747  0.4816 -0.4504  0.1650
  264TMC3    O1 4004   2.698   0.320  10.477 -0.2857  0.7226  0.0098
  264TMC3    O2 4005   2.381   0.789  10.664 -0.2952  0.0176 -0.0136
  265MPD2     C 4006   4.488   0.055  15.443 -0.5942  0.0748  0.4900
  265MPD2    C1 4007   4.564   0.164  15.424 -0.4675 -0.2598  0.2943
  265MPD2    C2 4008   4.650   0.174  15.317  0.9498 -0.1747  0.3815
  265MPD2    C3 4009   4.655   0.075  15.223 -0.5093  0.2864  0.2916
  265MPD2    C4 4010   4.578   4.691  15.246 -0.2553  0.2643 -0.0066
  265MPD2    C5 4011   4.497   4.671  15.357 -0.0904 -0.1201 -0.4563
  265MPD2     H 4012   4.701   0.268  15.302  1.0547 -0.5502 -1.6284
  265MPD2    H1 4013   4.584   4.615  15.169 -2.0196  0.6514 -0.5349
  265MPD2    H2 4014   4.425   0.041  15.531 -1.9148 -1.1760 -0.6431
  265MPD2    H3 4015   4.455   4.573  15.377  1.8119 -0.6559  0.8651
  265MPD2     N 4016   0.007   0.086  15.101  0.2213 -0.2012  0.2937
  265MPD2    H5 4017   4.699   0.025  15.027  1.5773 -0.3411 -0.1948
  265MPD2    N1 4018   4.564   0.285  15.499 -0.5094 -0.2040 -0.2807
  265MPD2    H7 4019   4.612   0.366  15.460 -1.1062 -0.2143 -1.0229
  266TMC3    C1 4020   4.484   0.439  15.668 -0.2518 -0.7563 -0.1962
  266TMC3    C2 4021   4.515   0.474  15.798  0.1137 -0.6540 -0.0895
  266TMC3    C3 4022   4.508   0.606  15.831 -0.0063  0.1977 -0.3786
  266TMC3    C4 4023   4.467   0.534  15.569  0.4225 -0.5310  0.7503
  266TMC3    C5 4024   4.449   0.663  15.610  0.2719 -0.1756  0.3587
  266TMC3    C6 4025   4.470   0.698  15.743  0.3240  0.3088  0.1353
  266TMC3     C 4026   4.499   0.301  15.623  0.3481  0.0598  0.3082
  266TMC3     O 4027   4.454   0.213  15.694 -0.3120 -0.0132 -0.6526
  266TMC3     H 4028   4.536   0.394  15.868  0.7682 -0.0186  0.4483
  266TMC3    H1 4029   4.456   0.503  15.466  0.4534  2.0921 -0.0359
  266TMC3    H2 4030   4.470   0.803  15.771  0.0752  0.4599 -0.4352
  266TMC3    C7 4031   4.370   0.749  15.530  0.0840  0.6082  0.0955
  266TMC3    C8 4032   4.542   0.636  15.972  0.6395  0.1398  0.7897
  266TMC3    O1 4033   4.285   0.701  15.454 -0.1985 -0.2892  0.5242
  266TMC3    O2 4034   4.614   0.552  16.022 -0.1417 -0.3518  0.2047
  267MPD2     C 4035   1.885   1.724   0.557 -1.0309  0.1203 -0.1251
  267MPD2    C1 4036   1.876   1.597   0.613  0.1510  0.4629 -0.2736
  267MPD2    C2 4037   1.767   1.570   0.692  0.1089  0.2666  0.0390
  267MPD2    C3 4038   1.679   1.672   0.729 -0.5585 -0.5402 -0.4677
  267MPD2    C4 4039   1.696   1.803   0.676 -0.3954  0.1351 -0.1126
  267MPD2    C5 4040   1.796   1.827   0.590 -0.1154 -0.5489 -0.0030
  267MPD2     H 4041   1.752   1.472   0.737  1.3732  1.3485  2.8158
  267MPD2    H1 4042   1.619   1.877   0.693  0.6485  1.5365 -1.5043
  267MPD2    H2 4043   1.968   1.748   0.492  0.5442  0.8421  2.1506
  267MPD2    H3 4044   1.803   1.931   0.560 -1.5951 -0.1978  0.8394
  267MPD2     N 4045   1.556   1.652   0.796 -0.1139 -0.4321  0.5451
  267MPD2    H5 4046   1.515   1.742   0.819 -0.3444 -0.3108 -0.3469
  267MPD2    N1 4047   1.981   1.510   0.594 -0.0846  0.2521  0.5882
  267MPD2    H7 4048   2.058   1.543   0.537  1.3530  0.3540  2.5633
  268TMC3    C1 4049   2.128   1.323   0.635 -0.3015  0.4086  0.1781
  268TMC3    C2 4050   2.173   1.308   0.509  0.4847 -0.3350 -0.0748
  268TMC3    C3 4051   2.266   1.210   0.477  0.0391  0.1053  0.6873
  268TMC3    C4 4052   2.175   1.234   0.728  0.6813 -0.7448 -0.0399
  268TMC3    C5 4053   2.259   1.137   0.695  0.3716 -0.0764 -0.4093
  268TMC3    C6 4054   2.307   1.121   0.569  0.2825 -0.5551 -0.0640
  268TMC3     C 4055   1.999   1.389   0.659  0.1719 -0.0701  0.1315
  268TMC3     O 4056   1.928   1.335   0.743 -0.0833  0.0064  0.1429
  268TMC3     H 4057   2.125   1.382   0.447 -0.0656 -0.2400  0.4669
  268TMC3    H1 4058   2.138   1.254   0.828  2.0901 -0.7542  0.4848
  268TMC3    H2 4059   2.397   1.066   0.544  0.8261  1.1628 -1.8260
  268TMC3    C7 4060   2.321   1.071   0.804 -0.3034  1.3621  0.0270
  268TMC3    C8 4061   2.299   1.177   0.341 -0.1830 -0.1266 -0.0300
  268TMC3    O1 4062   2.324   1.124   0.917 -0.1007 -0.0210  0.7378
  268TMC3    O2 4063   2.377   1.086   0.320  0.7014  0.1724 -0.3051
  269MPD2     C 4064   2.536   0.256  15.745 -0.9149 -0.1226  0.3231
  269MPD2    C1 4065   2.411   0.280  15.783  0.2965  0.0078  0.3365
  269MPD2    C2 4066   2.372   0.414  15.803  0.0806  0.1425 -0.4226
  269MPD2    C3 4067   2.460   0.515  15.787 -0.0340  0.4324  0.3588
  269MPD2    C4 4068   2.589   0.487  15.740 -0.3878  1.1461  0.3794
  269MPD2    C5 4069   2.619   0.360  15.713  0.3401  0.5485 -0.1944
  269MPD2     H 4070   2.276   0.435  15.849 -0.8481 -1.7437 -1.4939
  269MPD2    H1 4071   2.659   0.565  15.711  0.8584  0.5284  1.7552
  269MPD2    H2 4072   2.568   0.153  15.734 -1.0231 -0.1773  0.5340
  269MPD2    H3 4073   2.713   0.330  15.670  0.6213 -1.2098  1.6083
  269MPD2     N 4074   2.410   0.643  15.816 -0.3750 -0.2134  0.3394
  269MPD2    H5 4075   2.317   0.653  15.857 -0.6925 -1.1746 -0.1626
  269MPD2    N1 4076   2.328   0.166  15.810  1.1444 -0.3930  0.2714
  269MPD2    H7 4077   2.371   0.075  15.808  0.4107 -0.7792  1.8665
  270TMC3    C1 4078   2.149   0.032  15.877  0.0713 -0.7229 -0.5593
  270TMC3    C2 4079   2.028   0.004  15.823 -0.5056 -0.2218  0.4397
  270TMC3    C3 4080   2.001   4.595  15.803  0.6295 -1.4784 -0.1385
  270TMC3    C4 4081   2.237   4.661  15.917  0.0745  0.4606 -0.2599
  270TMC3    C5 4082   2.211   4.534  15.890 -0.6516  0.8591  0.0032
  270TMC3    C6 4083   2.087   4.494  15.838  0.0957  0.0278 -0.3776
  270TMC3     C 4084   2.198   0.170  15.843  0.0622 -0.0619 -0.2517
  270TMC3     O 4085   2.114   0.259  15.813  0.3768 -1.4256 -0.0962
  270TMC3     H 4086   1.959   0.083  15.798  0.5023  1.8425  4.0835
  270TMC3    H1 4087   2.333   4.695  15.957 -0.3649  1.4601 -0.0428
  270TMC3    H2 4088   2.071   4.389  15.817  0.1968 -0.0835  0.0911
  270TMC3    C7 4089   2.335   4.468  15.855  0.6956 -0.4506  0.1063
  270TMC3    C8 4090   1.901   4.553  15.700 -0.6554 -0.4181 -0.3489
  270TMC3    O1 4091   2.418   4.545  15.806  0.1392  0.3061 -0.1096
  270TMC3    O2 4092   1.944   4.463  15.626  0.5005 -0.3110 -0.3972
  271MPD2     C 4093   1.535   0.425  14.048  0.1034 -0.5539  0.0391
  271MPD2    C1 4094   1.460   0.437  14.166 -0.5990  0.0750 -0.8342
  271MPD2    C2 4095   1.354   0.528  14.167  0.6609  0.1466  0.2611
  271MPD2    C3 4096   1.334   0.611  14.057  0.1660 -0.1644 -0.2315
  271MPD2    C4 4097   1.410   0.602  13.944 -0.6482  0.2633 -0.3523
  271MPD2    C5 4098   1.509   0.506  13.939  0.1965 -0.2247 -0.0244
  271MPD2     H 4099   1.295   0.548  14.256  0.9391 -1.0260  0.7125
  271MPD2    H1 4100   1.399   0.672  13.862  1.0412  3.7623  2.4385
  271MPD2    H2 4101   1.623   0.361  14.041  0.0769 -0.7239  1.1652
  271MPD2    H3 4102   1.571   0.487  13.852 -2.5361  0.7183 -2.2050
  271MPD2     N 4103   1.237   0.710  14.046 -0.2096  0.0694 -0.0189
  271MPD2    H5 4104   1.232   0.768  13.963 -0.0425  1.0118  0.6210
  271MPD2    N1 4105   1.495   0.367  14.284 -0.4772 -0.2725  0.1543
  271MPD2    H7 4106   1.444   0.392  14.368 -0.8350  2.7977 -0.9687
  272TMC3    C1 4107   1.605   0.208  14.417 -0.3870  0.3542 -0.0251
  272TMC3    C2 4108   1.639   0.072  14.405 -0.0219 -0.5220 -0.7094
  272TMC3    C3 4109   1.681   0.004  14.515 -0.2153 -0.4484 -0.0430
  272TMC3    C4 4110   1.603   0.264  14.540  0.4256 -0.0006  0.4500
  272TMC3    C5 4111   1.645   0.192  14.648 -0.2547  0.3950 -0.0589
  272TMC3    C6 4112   1.694   0.061  14.636 -0.4996 -0.2394  0.6364
  272TMC3     C 4113   1.594   0.277  14.289 -0.1332  0.2840  0.0804
  272TMC3     O 4114   1.678   0.237  14.211  0.2430 -0.2833 -0.1688
  272TMC3     H 4115   1.622   0.016  14.314  0.4955 -0.6342 -0.7381
  272TMC3    H1 4116   1.571   0.367  14.550  0.5932  0.0081  0.8842
  272TMC3    H2 4117   1.700   4.720  14.722 -1.2670  0.0489  0.9117
  272TMC3    C7 4118   1.646   0.259  14.772  0.3157 -1.0220 -0.1623
  272TMC3    C8 4119   1.730   4.592  14.508 -0.3875 -0.0969  0.6277
  272TMC3    O1 4120   1.573   0.359  14.781 -0.1332 -0.1107  0.2996
  272TMC3    O2 4121   1.707   4.535  14.402  0.2559  0.6036  0.1007
  273MPD2     C 4122   2.737   3.860  11.878  1.1416 -0.7201 -0.7425
  273MPD2    C1 4123   2.812   3.942  11.793  0.4548 -0.1533  0.4835
  273MPD2    C2 4124   2.804   3.914  11.655  0.5810  0.0998 -0.7164
  273MPD2    C3 4125   2.733   3.804  11.605 -0.0493  0.8170  0.2971
  273MPD2    C4 4126   2.657   3.732  11.694 -0.2238  0.2314  0.8671
  273MPD2    C5 4127   2.654   3.759  11.829 -0.0333  0.4703  0.2067
  273MPD2     H 4128   2.860   3.978  11.587  2.1134 -2.0051 -1.4550
  273MPD2    H1 4129   2.600   3.647  11.657 -0.5332  1.0635 -0.5593
  273MPD2    H2 4130   2.734   3.868  11.986  0.5248 -0.2163 -0.7988
  273MPD2    H3 4131   2.598   3.707  11.906  1.7226 -1.1959  0.3753
  273MPD2     N 4132   2.727   3.757  11.467 -0.0383 -0.4582  0.0886
  273MPD2    H5 4133   2.683   3.667  11.452  1.4267 -1.2383  0.4216
  273MPD2    N1 4134   2.895   4.047  11.854  0.0999 -0.2824  0.4280
  273MPD2    H7 4135   2.906   4.046  11.955 -0.8232 -0.3907  0.5230
  274TMC3    C1 4136   2.799   3.746  11.232  0.4065  0.2101  0.3459
  274TMC3    C2 4137   2.680   3.701  11.173 -0.2345 -0.3379 -0.0321
  274TMC3    C3 4138   2.678   3.677  11.038  0.3339  0.4200 -0.1098
  274TMC3    C4 4139   2.906   3.780  11.154 -0.4927  0.5161 -0.6821
  274TMC3    C5 4140   2.902   3.757  11.020 -0.7047 -0.7012  0.3842
  274TMC3    C6 4141   2.790   3.700  10.959 -0.6312 -0.2315  0.7851
  274TMC3     C 4142   2.796   3.815  11.366  0.2677  0.2708  0.0164
  274TMC3     O 4143   2.854   3.922  11.370  0.2361  0.1568 -0.1050
  274TMC3     H 4144   2.589   3.690  11.232 -1.6592  1.7027 -1.8692
  274TMC3    H1 4145   2.992   3.831  11.196 -0.8669  0.5738  0.0081
  274TMC3    H2 4146   2.771   3.714  10.853 -0.3195 -0.6583  0.6720
  274TMC3    C7 4147   2.962   3.860  10.938  0.1623 -0.2076  0.2790
  274TMC3    C8 4148   2.552   3.630  10.973  0.3793 -0.2609 -0.0478
  274TMC3    O1 4149   3.000   3.842  10.821  0.8897  0.0163  0.0262
  274TMC3    O2 4150   2.462   3.641  11.052 -0.1202 -0.6324 -0.3201
  275MPD2     C 4151   2.714   1.353  14.228 -0.2126 -0.4258 -0.0946
  275MPD2    C1 4152   2.809   1.290  14.299  0.1109  0.1236 -0.4292
  275MPD2    C2 4153   2.801   1.155  14.311 -0.6112 -0.3470  0.0897
  275MPD2    C3 4154   2.703   1.079  14.257  0.2284  0.0062 -0.4899
  275MPD2    C4 4155   2.603   1.149  14.185  0.0702 -0.6691  0.3094
  275MPD2    C5 4156   2.616   1.285  14.164  0.8060  0.7986 -0.0234
  275MPD2     H 4157   2.876   1.111  14.375  1.0794 -0.6113 -2.0577
  275MPD2    H1 4158   2.512   1.101  14.151  0.5142  0.2293 -2.0955
  275MPD2    H2 4159   2.712   1.461  14.226 -0.0713 -0.3906  1.7976
  275MPD2    H3 4160   2.542   1.331  14.100 -0.4434 -1.9702 -0.5507
  275MPD2     N 4161   2.694   0.948  14.284 -0.3159  0.3940 -0.1756
  275MPD2    H5 4162   2.775   0.899  14.321 -1.3984 -0.0760  1.5987
  275MPD2    N1 4163   2.907   1.348  14.385 -0.4967 -0.0540  0.3939
  275MPD2    H7 4164   2.964   1.281  14.436 -1.7860  0.3613  2.3510
  276TMC3    C1 4165   2.974   1.479  14.560  0.3332  0.5819 -0.1037
  276TMC3    C2 4166   2.928   1.391  14.647  0.3856 -0.2152 -0.0683
  276TMC3    C3 4167   2.929   1.414  14.781  0.2016  0.1962  0.3451
  276TMC3    C4 4168   3.021   1.600  14.606 -0.7647  0.0557  0.1256
  276TMC3    C5 4169   3.026   1.620  14.737 -0.4295 -0.1890  0.0143
  276TMC3    C6 4170   2.987   1.528  14.832 -0.6359  0.1298  0.1464
  276TMC3     C 4171   2.913   1.476  14.428  0.1549 -0.1836  0.3648
  276TMC3     O 4172   2.861   1.578  14.385  0.0830  0.1137 -0.1353
  276TMC3     H 4173   2.856   1.315  14.621  0.8565 -0.4221 -0.7585
  276TMC3    H1 4174   3.037   1.683  14.538  1.5706 -0.4158  0.0814
  276TMC3    H2 4175   2.998   1.540  14.940 -0.4933  2.7009 -0.1425
  276TMC3    C7 4176   3.145   1.697  14.785 -0.2460  0.2027  0.8498
  276TMC3    C8 4177   2.940   1.294  14.859 -0.1709 -0.6310  0.5092
  276TMC3    O1 4178   3.146   1.730  14.904  0.2202 -0.0103  0.4009
  276TMC3    O2 4179   2.907   1.318  14.979 -0.4360 -0.9642 -0.4001
  277MPD2     C 4180   4.696   0.812  13.210  0.1447  0.3315 -0.2508
  277MPD2    C1 4181   4.561   0.845  13.222  0.0504  0.0110  0.4313
  277MPD2    C2 4182   4.483   0.781  13.324 -0.1246 -0.0248 -0.3904
  277MPD2    C3 4183   4.546   0.708  13.427  0.9719 -0.6829  0.0251
  277MPD2    C4 4184   4.682   0.694  13.422 -0.2309  0.0442 -0.3422
  277MPD2    C5 4185   0.029   0.734  13.311  0.5359  0.2466 -0.1360
  277MPD2     H 4186   4.375   0.785  13.322 -0.1567 -0.2543  0.9703
  277MPD2    H1 4187   0.014   0.633  13.491 -0.7318  0.8419  0.7802
  277MPD2    H2 4188   0.031   0.843  13.124 -0.0753  0.0032 -0.5194
  277MPD2    H3 4189   0.134   0.705  13.307  1.2045  2.5270  1.0422
  277MPD2     N 4190   4.475   0.658  13.535  0.6279  0.1503 -0.3299
  277MPD2    H5 4191   4.378   0.687  13.526  0.5005  0.1209  0.9086
  277MPD2    N1 4192   4.499   0.910  13.118 -0.5497  0.1005  0.2782
  277MPD2    H7 4193   4.557   0.935  13.039 -2.0141 -2.0026 -1.4380
  278TMC3    C1 4194   4.420   0.553  13.735 -0.4700  0.8933 -0.4122
  278TMC3    C2 4195   4.417   0.422  13.778 -0.5088 -0.2784 -0.4959
  278TMC3    C3 4196   4.303   0.358  13.800  0.0358 -0.7418  1.0196
  278TMC3    C4 4197   4.295   0.620  13.730  0.5739  0.4707  0.8315
  278TMC3    C5 4198   4.181   0.549  13.750 -0.0410  0.2906  0.0941
  278TMC3    C6 4199   4.184   0.414  13.777 -0.6304  0.3538 -0.5098
  278TMC3     C 4200   4.521   0.590  13.641  0.1815 -0.6456  0.6373
  278TMC3     O 4201   4.630   0.546  13.663  0.1234 -0.2519 -0.6767
  278TMC3     H 4202   4.511   0.368  13.780  0.1002  0.7483 -1.1399
  278TMC3    H1 4203   4.297   0.722  13.694  0.3244  1.3086  3.2034
  278TMC3    H2 4204   4.095   0.355  13.799 -1.2176  0.6282 -2.1195
  278TMC3    C7 4205   4.065   0.604  13.703 -0.0575 -0.4871  0.1190
  278TMC3    C8 4206   4.319   0.218  13.830 -0.4830  0.2412  0.4254
  278TMC3    O1 4207   4.073   0.724  13.686  0.1594  0.0075  0.0589
  278TMC3    O2 4208   4.384   0.188  13.926  0.2274 -0.1160 -0.8717
  279MPD2     C 4209   4.060   0.400   0.234 -0.0186  0.5145 -0.0803
  279MPD2    C1 4210   3.954   0.385   0.149  0.0253  0.1802  0.0162
  279MPD2    C2 4211   3.963   0.409   0.015  0.5025  0.2979 -0.3909
  279MPD2    C3 4212   4.084   0.448  17.663  0.2714 -0.3258  0.7200
  279MPD2    C4 4213   4.196   0.470   0.043 -0.0871  0.1896 -0.1504
  279MPD2    C5 4214   4.178   0.442   0.176 -0.7199  0.2394  0.3995
  279MPD2     H 4215   3.874   0.406  17.652 -0.8048  2.0612  1.3839
  279MPD2    H1 4216   4.291   0.501   0.001  0.8857 -1.2584  0.9868
  279MPD2    H2 4217   4.052   0.379   0.340 -0.3056  0.3859 -0.1290
  279MPD2    H3 4218   4.264   0.442   0.242  0.7417  2.3523 -1.4970
  279MPD2     N 4219   4.109   0.467  17.525  0.4532 -0.1242  0.0735
  279MPD2    H5 4220   4.200   0.499  17.495  1.2627 -1.0198  1.5857
  279MPD2    N1 4221   3.830   0.342   0.208  0.4178  0.4063 -0.2002
  279MPD2    H7 4222   3.753   0.335   0.142  1.4684  0.8009 -1.4423
  280TMC3    C1 4223   3.652   0.309   0.345 -0.1045  0.0845 -0.7901
  280TMC3    C2 4224   3.605   0.241   0.241  0.4188  0.1003 -0.3305
  280TMC3    C3 4225   3.503   0.290   0.166 -0.2945  0.5298 -0.3427
  280TMC3    C4 4226   3.587   0.427   0.387 -0.4390  0.5811  0.3537
  280TMC3    C5 4227   3.497   0.476   0.300  0.2591  0.4272  0.2391
  280TMC3    C6 4228   3.453   0.407   0.196 -0.1117  0.3127  0.7405
  280TMC3     C 4229   3.798   0.320   0.337 -0.5548 -0.3398  0.4670
  280TMC3     O 4230   3.856   0.348   0.441  0.8710 -0.1726  0.1752
  280TMC3     H 4231   3.663   0.158   0.201 -1.0776 -1.4241  0.6668
  280TMC3    H1 4232   3.637   0.491   0.459  1.9096  0.6109 -1.2776
  280TMC3    H2 4233   3.377   0.450   0.131  1.9972  2.9954  0.0743
  280TMC3    C7 4234   3.540   0.611   0.261 -0.0807  0.5496 -0.1796
  280TMC3    C8 4235   3.526   0.283   0.025 -0.3005 -0.5310 -0.4736
  280TMC3    O1 4236   3.620   0.676   0.334 -1.0334 -0.1157 -0.6434
  280TMC3    O2 4237   3.593   0.377  17.674 -0.1332  0.5887  0.7569
  281TMC3    C1 4238   2.589   0.691  13.296 -0.2841  0.0218  0.3744
  281TMC3    C2 4239   2.664   0.783  13.235  0.2508 -0.3423 -0.6856
  281TMC3    C3 4240   2.731   0.735  13.126  0.2350 -0.1571 -0.2134
  281TMC3    C4 4241   2.584   0.558  13.256 -0.7567 -0.5213  0.0754
  281TMC3    C5 4242   2.663   0.514  13.155  0.2753  1.2782 -0.2889
  281TMC3    C6 4243   2.738   0.602  13.092  0.4223  0.0412 -0.2065
  281TMC3     C 4244   2.488   0.732  13.393 -0.0250  0.0384 -0.0039
  281TMC3     O 4245   2.439   0.647  13.471  0.1560 -0.2121 -0.5533
  281TMC3     H 4246   2.677   0.879  13.284 -0.5694  0.9350 -2.9847
  281TMC3    H1 4247   2.529   0.487  13.318 -0.4797 -0.9623 -0.1847
  281TMC3    H2 4248   2.801   0.560  13.014  2.2784 -0.0669  1.3332
  281TMC3    C7 4249   2.676   0.372  13.128 -0.2797  0.8108 -0.0993
  281TMC3    C8 4250   2.848   0.808  13.101  0.0483 -0.0489  0.2830
  281TMC3    O1 4251   2.774   0.334  13.064 -0.2323  0.2077  0.1491
  281TMC3    O2 4252   2.953   0.737  13.101 -0.1244  0.0165  1.1497
  282MPD2     C 4253   4.578   1.979  14.822  1.1414 -0.3468  0.1469
  282MPD2    C1 4254   4.456   2.018  14.874  0.2094 -0.3740  0.3830
  282MPD2    C2 4255   4.367   2.071  14.780 -0.0944  0.2054  0.5707
  282MPD2    C3 4256   4.386   2.058  14.642  0.2910 -0.0726  0.0175
  282MPD2    C4 4257   4.514   2.018  14.597  0.2269 -0.7291  0.4280
  282MPD2    C5 4258   4.612   1.981  14.689  0.8068 -0.7034 -0.4414
  282MPD2     H 4259   4.271   2.111  14.812  1.1103  2.6980  1.0452
  282MPD2    H1 4260   4.539   2.023  14.491 -0.8792  0.8446  0.2363
  282MPD2    H2 4261   4.653   1.938  14.889 -0.1190 -3.1936 -0.1957
  282MPD2    H3 4262   4.704   1.940  14.647  1.4801  0.3398  0.0342
  282MPD2     N 4263   4.278   2.097  14.561  0.1630  0.6651  0.5138
  282MPD2    H5 4264   4.190   2.133  14.596 -1.0145  0.2134 -1.9568
  282MPD2    N1 4265   4.423   2.010  15.012  0.0747  0.1568  0.1247
  282MPD2    H7 4266   4.332   2.043  15.042  0.5934  0.2859  1.5592
  283TMC3    C1 4267   4.460   1.999  15.240 -0.1364 -1.1405 -0.2933
  283TMC3    C2 4268   4.512   2.095  15.330  0.5604 -0.7239  0.0252
  283TMC3    C3 4269   4.485   2.073  15.464  0.0418 -0.1472  0.3784
  283TMC3    C4 4270   4.382   1.892  15.279 -0.2853  0.5422  0.4056
  283TMC3    C5 4271   4.366   1.869  15.416 -0.0879 -0.7465  0.2827
  283TMC3    C6 4272   4.418   1.962  15.507  0.2726  0.0362 -0.5153
  283TMC3     C 4273   4.516   1.999  15.107  0.4326 -0.0532 -0.2573
  283TMC3     O 4274   4.636   2.015  15.107  0.5736 -0.3319  0.3764
  283TMC3     H 4275   4.566   2.177  15.285  1.7377 -1.0529  0.8417
  283TMC3    H1 4276   4.333   1.819  15.214  4.1661  0.1868 -2.5982
  283TMC3    H2 4277   4.403   1.938  15.612 -0.9356 -0.5999 -0.8355
  283TMC3    C7 4278   4.278   1.764  15.471 -0.1364  0.3047 -0.4733
  283TMC3    C8 4279   4.549   2.142  15.570  0.5504  0.0270  0.4539
  283TMC3    O1 4280   4.275   1.754  15.593 -0.2417 -0.0045 -0.0332
  283TMC3    O2 4281   4.530   2.108  15.684 -0.0214 -0.2007 -0.0814
  284MPD2     C 4282   2.831   1.767  12.152  0.0381 -0.2717 -0.3312
  284MPD2    C1 4283   2.921   1.709  12.060  0.1298 -0.8318 -0.4489
  284MPD2    C2 4284   2.989   1.594  12.100 -0.3708 -0.2873 -0.2998
  284MPD2    C3 4285   2.969   1.528  12.221 -0.2963  0.6161  0.2719
  284MPD2    C4 4286   2.884   1.584  12.316 -0.0770  0.0408  0.1779
  284MPD2    C5 4287   2.814   1.697  12.278 -0.0105 -0.3996  0.2132
  284MPD2     H 4288   3.054   1.544  12.030  0.4289  1.1329 -0.5776
  284MPD2    H1 4289   2.865   1.532  12.410  1.0222 -1.1656 -0.2585
  284MPD2    H2 4290   2.764   1.850  12.134  1.6976  0.7882 -1.6307
  284MPD2    H3 4291   2.736   1.743  12.337  2.8437  1.3526  2.6811
  284MPD2     N 4292   3.035   1.403  12.233 -0.3950 -0.1077  0.1304
  284MPD2    H5 4293   3.085   1.380  12.148  1.2147 -0.2091  1.1038
  284MPD2    N1 4294   2.950   1.768  11.936 -0.3904  0.4230 -0.3731
  284MPD2    H7 4295   3.019   1.725  11.876 -1.5183 -0.5726 -0.9517
  285TMC3    C1 4296   2.944   1.929  11.754 -0.0226 -0.7491  0.3303
  285TMC3    C2 4297   2.999   1.842  11.666 -0.2451  0.2116  0.4892
  285TMC3    C3 4298   3.060   1.884  11.547  0.2276  0.2617 -0.2269
  285TMC3    C4 4299   2.936   2.058  11.718 -0.1554  0.4567 -0.2926
  285TMC3    C5 4300   2.993   2.101  11.600  0.2710 -0.0223 -0.4376
  285TMC3    C6 4301   3.056   2.017  11.514  0.9174 -0.2416  0.0228
  285TMC3     C 4302   2.895   1.888  11.886 -0.0106 -0.0313  0.2275
  285TMC3     O 4303   2.816   1.962  11.945 -0.5999 -0.3520  0.2660
  285TMC3     H 4304   2.989   1.735  11.681  0.0882  0.4653  2.6064
  285TMC3    H1 4305   2.896   2.124  11.794 -0.7228  1.3625 -1.3784
  285TMC3    H2 4306   3.095   2.057  11.421 -0.8329  1.4143  0.0012
  285TMC3    C7 4307   3.030   2.238  11.587  0.3638  0.4525  0.5399
  285TMC3    C8 4308   3.092   1.785  11.450 -0.8544 -0.4146 -0.2002
  285TMC3    O1 4309   3.050   2.289  11.476 -0.1340  0.2165  0.3419
  285TMC3    O2 4310   3.023   1.685  11.454 -0.4928  0.2479  1.1339
  286MPD2     C 4311   3.103   4.166   1.870 -0.4456 -0.4166 -0.4017
  286MPD2    C1 4312   3.118   4.243   1.754  0.5109 -0.1982  0.1445
  286MPD2    C2 4313   3.205   4.190   1.660  0.3383  0.2724  0.5276
  286MPD2    C3 4314   3.261   4.067   1.673 -0.0558 -0.0180 -0.0978
  286MPD2    C4 4315   3.235   3.993   1.782  0.6516 -0.0287  0.4083
  286MPD2    C5 4316   3.155   4.042   1.887  0.1912 -0.4825  0.2027
  286MPD2     H 4317   3.223   4.254   1.575  1.2432  0.1171  0.5978
  286MPD2    H1 4318   3.270   3.890   1.782  1.3827  0.2231  0.2650
  286MPD2    H2 4319   3.044   4.195   1.957 -0.0887 -1.7354  0.2878
  286MPD2    H3 4320   3.127   3.973   1.966 -2.0339  0.6526  0.4045
  286MPD2     N 4321   3.357   4.022   1.578  0.2197  0.1691  0.5935
  286MPD2    H5 4322   3.410   3.940   1.607  0.5345 -0.0354 -0.5523
  286MPD2    N1 4323   3.072   4.373   1.746 -0.2438 -0.6855  0.3440
  286MPD2    H7 4324   3.101   4.424   1.663 -0.1069 -0.5865  0.4532
  287TMC3    C1 4325   3.468   4.020   1.374  0.4441  0.0089 -0.3752
  287TMC3    C2 4326   3.441   4.020   1.239 -0.4233 -0.2216 -0.8607
  287TMC3    C3 4327   3.539   3.970   1.162  0.9102  0.5031 -0.4326
  287TMC3    C4 4328   3.590   3.983   1.427  0.0969 -0.0587  0.0117
  287TMC3    C5 4329   3.681   3.917   1.351  0.4575  0.1797  0.5160
  287TMC3    C6 4330   3.657   3.925   1.214  0.0435 -0.5611 -0.3249
  287TMC3     C 4331   3.363   4.076   1.452  0.0426 -0.1554 -0.2978
  287TMC3     O 4332   3.287   4.153   1.395 -0.3675 -0.7179 -0.7450
  287TMC3     H 4333   3.358   4.079   1.202  0.3585  1.7247  0.4458
  287TMC3    H1 4334   3.614   3.995   1.532  2.0443 -0.4250 -0.3870
  287TMC3    H2 4335   3.740   3.891   1.152  1.2996  0.5324  0.7464
  287TMC3    C7 4336   3.787   3.849   1.423 -0.0220 -0.6411  0.3908
  287TMC3    C8 4337   3.532   3.979   1.016 -0.6201  0.4835 -0.4431
  287TMC3    O1 4338   3.779   3.850   1.546  0.8999 -0.4149  0.4579
  287TMC3    O2 4339   3.618   3.913   0.961 -0.2174  0.0352 -0.5091
  288TMC3    C1 4340   4.467   4.392  14.590 -0.1258  0.2306  0.5433
  288TMC3    C2 4341   4.441   4.296  14.687 -0.0519  0.2902  0.1111
  288TMC3    C3 4342   4.452   4.335  14.818 -0.9232  0.1437  0.6230
  288TMC3    C4 4343   4.481   4.522  14.615  0.0251  0.2178  1.0447
  288TMC3    C5 4344   4.488   4.561  14.744  0.2205 -0.4021  0.0976
  288TMC3    C6 4345   4.482   4.468  14.848  0.9051  0.2404  0.6049
  288TMC3     C 4346   4.492   4.348  14.449 -0.6372 -1.0154 -0.1360
  288TMC3     O 4347   4.476   4.227  14.436  0.1632  0.2598 -0.1247
  288TMC3     H 4348   4.433   4.192  14.659  0.3826  0.8011 -1.9434
  288TMC3    H1 4349   4.490   4.596  14.537  0.1183 -0.5018  0.3789
  288TMC3    H2 4350   4.484   4.486  14.955 -0.5446  0.9734  0.5018
  288TMC3    C7 4351   4.553   4.690  14.779  0.0418 -0.0753  0.4436
  288TMC3    C8 4352   4.432   4.240  14.929  0.1185 -0.3716  0.6457
  288TMC3    O1 4353   4.586   4.702  14.897 -0.3293  0.3554  0.2521
  288TMC3    O2 4354   4.450   4.273  15.044 -0.7214 -0.1201 -0.1181
  289MPD2     C 4355   0.199   3.685  14.575 -1.1908  0.0764  0.0587
  289MPD2    C1 4356   0.205   3.764  14.460  0.7372  0.0557  0.1604
  289MPD2    C2 4357   0.096   3.750  14.373  0.0831 -0.3426 -0.4101
  289MPD2    C3 4358   4.708   3.674  14.396  0.7815 -0.7511 -0.0730
  289MPD2    C4 4359   4.713   3.597  14.510 -0.3434 -0.0633 -0.5235
  289MPD2    C5 4360   0.091   3.608  14.600 -0.0713  0.1931 -0.2404
  289MPD2     H 4361   0.084   3.814  14.287  0.2522  0.4798  0.1773
  289MPD2    H1 4362   4.634   3.527  14.533  1.1769 -1.3633  0.7314
  289MPD2    H2 4363   0.281   3.680  14.646 -2.9243 -3.1136  1.8410
  289MPD2    H3 4364   0.088   3.549  14.691 -1.0144 -1.2534 -1.2030
  289MPD2     N 4365   4.592   3.661  14.318  0.3660  0.2040  0.1711
  289MPD2    H5 4366   4.518   3.605  14.358  0.3956  1.1955  1.5941
  289MPD2    N1 4367   0.318   3.846  14.437 -0.4063 -0.6429  0.4529
  289MPD2    H7 4368   0.376   3.858  14.519 -1.2558  0.2668  0.9250
  290TMC3    C1 4369   4.456   3.686  14.122  0.2738  0.4579  0.1635
  290TMC3    C2 4370   4.407   3.788  14.051 -0.0890  0.1238 -0.4315
  290TMC3    C3 4371   4.291   3.763  13.976 -0.3981  0.4522 -0.7575
  290TMC3    C4 4372   4.400   3.560  14.123 -0.1640 -0.0526 -0.3213
  290TMC3    C5 4373   4.282   3.541  14.051  0.8612 -0.1421  0.3805
  290TMC3    C6 4374   4.220   3.643  13.985  0.9763 -0.3776  0.2565
  290TMC3     C 4375   4.583   3.709  14.187  0.5767  0.6006 -0.3049
  290TMC3     O 4376   4.673   3.755  14.117 -0.4018  0.1819  0.2386
  290TMC3     H 4377   4.462   3.881  14.055  1.7767 -0.8875 -2.3253
  290TMC3    H1 4378   4.437   3.486  14.193 -0.3030  0.0878 -0.0979
  290TMC3    H2 4379   4.133   3.647  13.919  0.4852  0.8789  0.9627
  290TMC3    C7 4380   4.183   3.450  14.104  0.3859  0.9766  0.5715
  290TMC3    C8 4381   4.221   3.866  13.902 -0.3157 -0.0010  0.8536
  290TMC3    O1 4382   4.069   3.496  14.099 -0.7752 -0.3869 -0.0887
  290TMC3    O2 4383   4.199   3.848  13.783  0.3824  0.0565 -0.6054
  291MPD2     C 4384   4.414   3.673   0.719  0.0674 -0.6738  0.2732
  291MPD2    C1 4385   4.422   3.561   0.645  0.3416  0.0562 -0.0848
  291MPD2    C2 4386   4.446   3.580   0.511  0.1671 -0.1761 -0.0172
  291MPD2    C3 4387   4.450   3.703   0.454 -0.9299  0.3965  0.4259
  291MPD2    C4 4388   4.440   3.808   0.531 -0.0690  0.0888  0.0180
  291MPD2    C5 4389   4.423   3.801   0.663  0.4438 -0.0155  0.1542
  291MPD2     H 4390   4.460   3.489   0.454 -3.2110 -0.5065 -0.3051
  291MPD2    H1 4391   4.451   3.905   0.483 -2.1310  0.9012  1.1905
  291MPD2    H2 4392   4.399   3.668   0.826  1.9427 -1.1693  0.4977
  291MPD2    H3 4393   4.419   3.885   0.731  0.8780 -0.2748  0.4979
  291MPD2     N 4394   4.453   3.733   0.315 -0.5957 -0.3196  0.1298
  291MPD2    H5 4395   4.452   3.831   0.289 -0.4493 -0.4719 -0.4554
  291MPD2    N1 4396   4.410   3.430   0.698 -0.2220  0.1688  0.0312
  291MPD2    H7 4397   4.431   3.350   0.639  0.3020  1.2166 -1.1914
  292TMC3    C1 4398   4.382   3.259   0.850  0.5437  0.2989 -0.6991
  292TMC3    C2 4399   4.410   3.229   0.982  0.8001  0.5622 -0.5062
  292TMC3    C3 4400   4.373   3.107   1.037 -0.0235 -0.0262 -0.1362
  292TMC3    C4 4401   4.322   3.170   0.770 -0.3527  0.1100 -0.4545
  292TMC3    C5 4402   4.288   3.048   0.825  0.0328 -0.4158 -0.7999
  292TMC3    C6 4403   4.306   3.016   0.962 -0.4903  0.4251  0.2943
  292TMC3     C 4404   4.383   3.403   0.830 -0.0207  0.1081  0.7188
  292TMC3     O 4405   4.398   3.477   0.921 -0.4197  0.3399  1.0003
  292TMC3     H 4406   4.466   3.294   1.047 -0.5837  0.3467  0.9025
  292TMC3    H1 4407   4.291   3.191   0.668  1.0674 -0.0647 -0.9265
  292TMC3    H2 4408   4.291   2.913   0.993 -1.5919  0.4821 -0.0485
  292TMC3    C7 4409   4.249   2.948   0.727 -0.0879 -0.4813 -0.4309
  292TMC3    C8 4410   4.380   3.085   1.181 -0.7168  0.6662  0.5184
  292TMC3    O1 4411   4.251   2.968   0.606  0.4724 -0.6232  0.3152
  292TMC3    O2 4412   4.453   3.162   1.244 -0.3166  0.1561 -0.2781
  293MPD2     C 4413   0.667   0.559  12.722 -0.0827 -0.0105  0.3899
  293MPD2    C1 4414   0.620   0.484  12.827  0.3056  0.4316 -0.2730
  293MPD2    C2 4415   0.704   0.462  12.933  0.4523 -0.2128  0.7637
  293MPD2    C3 4416   0.835   0.507  12.925 -0.3585  0.8717  0.0640
  293MPD2    C4 4417   0.886   0.584  12.813 -0.0545  0.6108  0.4395
  293MPD2    C5 4418   0.798   0.607  12.713  0.0838 -0.3536 -0.2126
  293MPD2     H 4419   0.681   0.404  13.021 -0.6060 -0.1199  0.5418
  293MPD2    H1 4420   0.987   0.619  12.801  0.1134 -0.0555 -0.1281
  293MPD2    H2 4421   0.604   0.579  12.636 -1.1364  3.8484  2.1102
  293MPD2    H3 4422   0.824   0.656  12.619  0.0826  0.8725  0.4291
  293MPD2     N 4423   0.925   0.458  13.025  0.5878 -0.1328  0.1334
  293MPD2    H5 4424   0.878   0.408  13.100  0.2082 -1.7864 -1.2051
  293MPD2    N1 4425   0.492   0.427  12.821  0.2404 -0.8645  0.6620
  293MPD2    H7 4426   0.439   0.449  12.737  3.3770 -0.2065 -1.1601
  294TMC3    C1 4427   0.315   0.281  12.860 -0.3977 -0.2500 -0.4808
  294TMC3    C2 4428   0.276   0.157  12.908 -0.5305 -0.1050  0.2764
  294TMC3    C3 4429   0.159   0.100  12.874  0.0809  0.2109  0.1039
  294TMC3    C4 4430   0.221   0.354  12.789  0.3997  0.0488 -0.2939
  294TMC3    C5 4431   0.095   0.303  12.764 -0.4335 -0.2614 -0.0710
  294TMC3    C6 4432   0.064   0.172  12.806  0.4362 -0.4297 -0.0840
  294TMC3     C 4433   0.446   0.325  12.900  0.4892  0.0665 -0.4639
  294TMC3     O 4434   0.508   0.257  12.981  0.3027  0.0360 -0.1750
  294TMC3     H 4435   0.363   0.097  12.931 -0.7504 -0.7034 -0.4419
  294TMC3    H1 4436   0.251   0.452  12.754  0.7081 -0.9761 -2.9000
  294TMC3    H2 4437   4.701   0.116  12.777 -0.2975  0.5438  0.2637
  294TMC3    C7 4438   0.008   0.354  12.658 -0.7286 -0.2447 -0.2552
  294TMC3    C8 4439   0.172   4.685  12.847  0.6997 -0.2044 -0.4138
  294TMC3    O1 4440   4.611   0.326  12.672  0.2720  0.8185  0.4680
  294TMC3    O2 4441   0.279   4.625  12.848 -0.3072  0.2041 -0.1519
  295MPD2     C 4442   0.922   3.338   1.122  0.0522 -0.2771 -0.3177
  295MPD2    C1 4443   1.027   3.379   1.043 -0.2168 -0.1043 -0.5382
  295MPD2    C2 4444   1.130   3.434   1.120 -0.3543 -0.0334  0.1890
  295MPD2    C3 4445   1.133   3.444   1.257 -0.5742 -0.3498 -0.1374
  295MPD2    C4 4446   1.035   3.384   1.332  0.0935  0.5129  0.2303
  295MPD2    C5 4447   0.925   3.341   1.265  0.3259  0.2927 -0.2121
  295MPD2     H 4448   1.221   3.458   1.066 -0.7352  0.3343 -0.2899
  295MPD2    H1 4449   1.039   3.389   1.440  2.5564 -1.4515  0.2201
  295MPD2    H2 4450   0.835   3.298   1.071 -0.2396 -1.0768  0.8150
  295MPD2    H3 4451   0.837   3.302   1.316 -0.2614  1.2095 -0.5207
  295MPD2     N 4452   1.242   3.503   1.325  0.3848  0.3304  0.1159
  295MPD2    H5 4453   1.246   3.497   1.427 -0.6308 -2.0305  0.0202
  295MPD2    N1 4454   1.045   3.348   0.905  0.1469  0.4091  0.2739
  295MPD2    H7 4455   1.126   3.382   0.853 -2.9681  1.0488 -4.1936
  296TMC3    C1 4456   1.443   3.612   1.358  0.4298 -0.0528  0.6159
  296TMC3    C2 4457   1.479   3.738   1.360 -0.1086  0.1543  0.1140
  296TMC3    C3 4458   1.574   3.776   1.454  0.6682  0.7543  1.1152
  296TMC3    C4 4459   1.489   3.519   1.441  0.3828 -0.5811  0.0831
  296TMC3    C5 4460   1.590   3.550   1.529 -0.3058  0.4099  0.4005
  296TMC3    C6 4461   1.621   3.683   1.548  0.2568  0.3924 -0.3003
  296TMC3     C 4462   1.338   3.580   1.258 -0.4909 -1.0737  0.3881
  296TMC3     O 4463   1.337   3.638   1.150  0.3698 -0.2205  0.1125
  296TMC3     H 4464   1.434   3.803   1.286  0.8354  0.3243 -0.2973
  296TMC3    H1 4465   1.463   3.415   1.427 -1.8469 -0.1739  1.2412
  296TMC3    H2 4466   1.693   3.705   1.626 -1.2954 -1.3762  1.6352
  296TMC3    C7 4467   1.632   3.459   1.637 -0.4881  0.1413 -0.6324
  296TMC3    C8 4468   1.645   3.903   1.437 -0.1405  0.4116 -0.8067
  296TMC3    O1 4469   1.735   3.481   1.700 -0.4496 -0.3223 -0.4352
  296TMC3    O2 4470   1.747   3.918   1.503 -0.2837 -0.4369 -0.0494
  297MPD2     C 4471   3.630   0.752  15.795 -0.0743 -0.0375 -0.0693
  297MPD2    C1 4472   3.589   0.882  15.770 -0.6878 -0.0179  0.5252
  297MPD2    C2 4473   3.688   0.983  15.765  0.3798 -0.3915 -0.0457
  297MPD2    C3 4474   3.811   0.964  15.822  0.4939  0.4210 -0.6366
  297MPD2    C4 4475   3.841   0.836  15.865  0.6307 -0.0254 -0.2745
  297MPD2    C5 4476   3.764   0.728  15.830 -0.2754 -0.0169  0.0585
  297MPD2     H 4477   3.667   1.087  15.744  1.3908  0.5091  3.3147
  297MPD2    H1 4478   3.942   0.824  15.904  0.4018 -0.5121  0.1736
  297MPD2    H2 4479   3.577   0.658  15.780 -2.1929  1.3297 -1.1339
  297MPD2    H3 4480   3.804   0.630  15.852 -0.1794  0.1121  0.4552
  297MPD2     N 4481   3.913   1.058  15.845  0.2679 -0.4591 -0.1139
  297MPD2    H5 4482   3.993   1.036  15.903  0.4920 -1.0213 -0.6446
  297MPD2    N1 4483   3.465   0.913  15.727 -0.2441  0.4021  0.5376
  297MPD2    H7 4484   3.448   1.003  15.683 -2.1119  0.7265  1.9177
  298TMC3    C1 4485   3.255   0.882  15.641 -0.2611  0.2041 -0.1271
  298TMC3    C2 4486   3.307   0.941  15.531 -0.2016 -0.2743  0.5397
  298TMC3    C3 4487   3.246   1.056  15.485 -0.7396 -0.3716 -0.3740
  298TMC3    C4 4488   3.141   0.921  15.704  0.6845  0.5161 -0.1803
  298TMC3    C5 4489   3.107   1.051  15.666 -0.1287  0.8413  0.2493
  298TMC3    C6 4490   3.146   1.116  15.560  0.1395 -0.7129  0.0668
  298TMC3     C 4491   3.357   0.831  15.731 -0.0383  1.2560 -0.1298
  298TMC3     O 4492   3.335   0.732  15.802  0.2743 -0.1693  0.2151
  298TMC3     H 4493   3.384   0.893  15.471  0.0151  1.0574 -0.2614
  298TMC3    H1 4494   3.099   0.867  15.788 -0.1010  0.7094 -0.4427
  298TMC3    H2 4495   3.111   1.215  15.532 -2.5322 -1.0876  2.0363
  298TMC3    C7 4496   2.984   1.098  15.734  0.2499 -0.1987  0.1966
  298TMC3    C8 4497   3.277   1.091  15.343 -0.6048  0.3338 -0.1740
  298TMC3    O1 4498   2.917   1.023  15.809 -0.0321  0.2675 -0.6031
  298TMC3    O2 4499   3.331   1.007  15.267 -0.0745  0.1017  0.1262
  299MPD2     C 4500   4.223   0.723  10.813  0.1930  0.3629 -0.7243
  299MPD2    C1 4501   4.188   0.836  10.739  0.6911  0.1555  0.2943
  299MPD2    C2 4502   4.106   0.840  10.631  0.0436 -0.4865 -0.4260
  299MPD2    C3 4503   4.057   0.717  10.593  0.1548  0.0583  0.4352
  299MPD2    C4 4504   4.099   0.609  10.659  0.0320  0.1984  0.5166
  299MPD2    C5 4505   4.168   0.610  10.777 -0.2697  0.4709 -0.5364
  299MPD2     H 4506   4.066   0.932  10.590 -0.6408 -0.5027  0.2059
  299MPD2    H1 4507   4.078   0.512  10.615  3.6141  0.1587 -1.0766
  299MPD2    H2 4508   4.291   0.738  10.895  1.3462  2.2983 -2.0454
  299MPD2    H3 4509   4.189   0.516  10.827  1.9651  1.1208 -0.2632
  299MPD2     N 4510   3.962   0.701  10.487 -0.7349 -0.5576  0.0013
  299MPD2    H5 4511   3.920   0.608  10.484 -2.9658  0.3805  1.9745
  299MPD2    N1 4512   4.237   0.957  10.795 -0.2116 -0.3851  0.3423
  299MPD2    H7 4513   4.285   0.941  10.883 -1.3677  0.9073  1.1967
  300TMC3    C1 4514   3.819   0.765  10.308 -0.2148 -0.2599  0.9448
  300TMC3    C2 4515   3.776   0.861  10.213 -0.2941  0.6942  0.0656
  300TMC3    C3 4516   3.642   0.869  10.182  0.5398  0.6129 -0.6422
  300TMC3    C4 4517   3.735   0.685  10.377 -0.2023  0.7793  0.3738
  300TMC3    C5 4518   3.605   0.694  10.340  0.1790 -0.1156 -0.1067
  300TMC3    C6 4519   3.553   0.788  10.251  0.8125  0.0571 -0.2473
  300TMC3     C 4520   3.931   0.801  10.390  0.0133 -0.5122 -0.2376
  300TMC3     O 4521   3.988   0.911  10.374 -0.1028 -0.4280  0.3886
  300TMC3     H 4522   3.848   0.936  10.182  0.9806  0.0634  1.4767
  300TMC3    H1 4523   3.752   0.620  10.462 -1.8295 -1.5904 -1.0908
  300TMC3    H2 4524   3.446   0.803  10.236  0.7537  0.1856  0.3050
  300TMC3    C7 4525   3.510   0.632  10.439 -0.0249 -0.0511 -0.2449
  300TMC3    C8 4526   3.593   1.003  10.153  0.1712 -0.2420 -0.0457
  300TMC3    O1 4527   3.517   0.511  10.454 -0.4198 -0.1045  0.9236
  300TMC3    O2 4528   3.657   1.097  10.200  0.4251 -0.2977 -0.3678
  301MPD2     C 4529   1.310   1.860   1.366  0.0570  0.4255 -0.0837
  301MPD2    C1 4530   1.170   1.842   1.353 -0.3094 -0.1094  0.6785
  301MPD2    C2 4531   1.116   1.721   1.378 -0.3163  0.2629 -0.5592
  301MPD2    C3 4532   1.191   1.616   1.431  0.8476  0.7903 -0.0997
  301MPD2    C4 4533   1.324   1.630   1.444  0.3719  0.2798 -0.3234
  301MPD2    C5 4534   1.381   1.753   1.411 -0.4970 -0.0904  0.2590
  301MPD2     H 4535   1.009   1.711   1.378 -0.2183 -0.7566  1.5623
  301MPD2    H1 4536   1.385   1.545   1.473  0.8098  0.3807 -0.9616
  301MPD2    H2 4537   1.366   1.949   1.338  0.9316 -0.7315 -2.0010
  301MPD2    H3 4538   1.486   1.774   1.428 -0.4637 -0.6796  0.7523
  301MPD2     N 4539   1.141   1.487   1.476 -0.3928  0.3408 -0.6674
  301MPD2    H5 4540   1.206   1.428   1.528  0.7874  1.8920 -0.3669
  301MPD2    N1 4541   1.075   1.943   1.324  0.1825 -0.0967 -0.7089
  301MPD2    H7 4542   0.977   1.926   1.344 -0.2929 -0.0778 -3.0646
  302TMC3    C1 4543   0.979   1.326   1.536  0.1053  0.2609  0.2532
  302TMC3    C2 4544   1.051   1.223   1.497  0.1498  0.7455  0.4101
  302TMC3    C3 4545   1.000   1.096   1.524 -0.3308  0.4789 -0.2852
  302TMC3    C4 4546   0.854   1.308   1.597 -0.4229 -0.4566 -1.3980
  302TMC3    C5 4547   0.808   1.180   1.618 -0.2398  0.2690  1.2405
  302TMC3    C6 4548   0.883   1.075   1.591 -0.1865  0.6077  0.3129
  302TMC3     C 4549   1.007   1.451   1.471 -0.4162  0.4303 -0.9557
  302TMC3     O 4550   0.907   1.521   1.451  0.3077  0.3452 -0.0319
  302TMC3     H 4551   1.146   1.228   1.445  0.0425 -1.2510  0.0048
  302TMC3    H1 4552   0.785   1.392   1.595 -0.0272 -0.1546 -2.4170
  302TMC3    H2 4553   0.856   0.970   1.598 -0.1040  0.7027  2.0616
  302TMC3    C7 4554   0.663   1.157   1.639  0.6482 -0.5305 -0.4396
  302TMC3    C8 4555   1.085   0.991   1.476 -0.7673  0.0326 -0.2216
  302TMC3    O1 4556   0.638   1.041   1.668 -0.1215 -0.5982  0.0957
  302TMC3    O2 4557   1.204   1.016   1.464  0.1515  0.3086 -0.1497
  303MPD2     C 4558   1.646   0.285  10.588 -0.7345  0.0724 -0.2710
  303MPD2    C1 4559   1.522   0.240  10.608 -0.0319 -0.5045  0.2770
  303MPD2    C2 4560   1.426   0.233  10.509 -0.0382  0.3114  0.0514
  303MPD2    C3 4561   1.454   0.274  10.377  0.2882 -0.2028  0.4514
  303MPD2    C4 4562   1.584   0.319  10.352  0.0174 -0.2597 -0.3948
  303MPD2    C5 4563   1.676   0.339  10.462  0.1289 -0.4185  0.4617
  303MPD2     H 4564   1.324   0.201  10.527 -0.6713  1.1321 -2.0662
  303MPD2    H1 4565   1.628   0.359  10.262  0.9002 -0.8760 -0.2370
  303MPD2    H2 4566   1.730   0.284  10.657  0.7162  1.5896 -1.9903
  303MPD2    H3 4567   1.774   0.378  10.438  0.1876 -1.6580 -1.3230
  303MPD2     N 4568   1.373   0.265  10.260 -0.0761 -0.5284 -0.0895
  303MPD2    H5 4569   1.402   0.308  10.173 -0.7851  3.3265  1.6099
  303MPD2    N1 4570   1.482   0.213  10.738  0.5201  0.2500 -0.8468
  303MPD2    H7 4571   1.381   0.213  10.746  0.6540 -3.3030  0.8240
  304TMC3    C1 4572   1.492   0.140  10.951  0.5472  0.4560 -0.5946
  304TMC3    C2 4573   1.421   0.256  10.985  0.0434  0.0610 -0.4110
  304TMC3    C3 4574   1.340   0.254  11.091 -0.0565 -0.0591 -0.1407
  304TMC3    C4 4575   1.482   0.025  11.021 -0.3860 -0.0645 -0.0639
  304TMC3    C5 4576   1.393   0.027  11.122  0.0213  1.0802 -0.6957
  304TMC3    C6 4577   1.327   0.141  11.164 -0.7823 -0.0737  0.2296
  304TMC3     C 4578   1.566   0.154  10.828 -1.2745 -0.0589  0.0084
  304TMC3     O 4579   1.665   0.083  10.803 -0.1076  0.1982  0.7598
  304TMC3     H 4580   1.422   0.338  10.914  1.2133  1.0932  0.8023
  304TMC3    H1 4581   1.534   4.663  10.981  0.6495  0.1254  0.8590
  304TMC3    H2 4582   1.255   0.137  11.246  0.2821 -1.1042  1.1101
  304TMC3    C7 4583   1.292   4.644  11.104 -0.5949  0.1871  0.3548
  304TMC3    C8 4584   1.219   0.321  11.058 -0.4469 -0.7959 -0.6672
  304TMC3    O1 4585   1.173   4.679  11.114  0.2692  0.5184  0.0872
  304TMC3    O2 4586   1.229   0.424  10.994  0.3322 -0.6606 -0.3038
  305MPD2     C 4587   0.421   2.308  13.890  0.0038 -0.0740 -0.2319
  305MPD2    C1 4588   0.299   2.334  13.934  0.2450 -0.0185  0.1584
  305MPD2    C2 4589   0.210   2.399  13.845  0.2498 -0.3271  0.1281
  305MPD2    C3 4590   0.250   2.435  13.715  0.9132  0.2188  0.1275
  305MPD2    C4 4591   0.376   2.401  13.676  0.4433 -0.3202  0.6027
  305MPD2    C5 4592   0.458   2.338  13.758 -0.2792  0.1835 -0.3211
  305MPD2     H 4593   0.122   2.449  13.884  1.3195  1.2698  0.5054
  305MPD2    H1 4594   0.418   2.426  13.579 -2.5397 -0.5844 -0.7326
  305MPD2    H2 4595   0.500   2.266  13.951 -0.9079 -2.1284 -0.4784
  305MPD2    H3 4596   0.559   2.312  13.729 -0.4555  0.0101 -0.7760
  305MPD2     N 4597   0.164   2.487  13.616 -0.2283 -0.0893 -0.2403
  305MPD2    H5 4598   0.194   2.485  13.520  1.1012 -0.1634  0.1738
  305MPD2    N1 4599   0.266   2.302  14.070  0.0770  0.3656 -0.1577
  305MPD2    H7 4600   0.329   2.239  14.119 -0.6272 -0.2503 -0.0377
  306TMC3    C1 4601   0.147   2.276  14.272 -0.3542  0.2612 -0.3111
  306TMC3    C2 4602   0.233   2.170  14.290 -0.5217 -0.0635  0.6384
  306TMC3    C3 4603   0.297   2.155  14.409 -0.0171  1.0624  0.0604
  306TMC3    C4 4604   0.126   2.365  14.368  0.7003  0.0897 -0.2589
  306TMC3    C5 4605   0.192   2.350  14.486  0.4406 -0.5883  0.5730
  306TMC3    C6 4606   0.289   2.255  14.502 -0.0558 -0.0319 -0.1925
  306TMC3     C 4607   0.147   2.329  14.139 -0.3835 -0.5485  0.6344
  306TMC3     O 4608   0.059   2.413  14.110 -0.1277 -0.0190 -0.0901
  306TMC3     H 4609   0.239   2.093  14.215  0.6548 -0.0660  0.7454
  306TMC3    H1 4610   0.053   2.444  14.356  1.8922  1.5278  1.8393
  306TMC3    H2 4611   0.343   2.243  14.596 -1.4405 -3.4928  0.1596
  306TMC3    C7 4612   0.116   2.394  14.605  0.2791  0.2533  0.2374
  306TMC3    C8 4613   0.326   2.024  14.450  0.1972  0.2963  0.4732
  306TMC3    O1 4614   4.718   2.386  14.594  0.6313  0.1487 -0.3931
  306TMC3    O2 4615   0.429   2.005  14.513  0.2823  0.0201 -0.6135
  307MPD2     C 4616   2.412   4.220   1.066  0.6153  0.2757  0.3699
  307MPD2    C1 4617   2.438   4.193   0.933 -1.1199 -0.4047 -0.0571
  307MPD2    C2 4618   2.459   4.299   0.849 -0.5328  0.2619  0.2345
  307MPD2    C3 4619   2.455   4.428   0.885 -0.4458  0.2971  0.6111
  307MPD2    C4 4620   2.422   4.457   1.015  0.1433  0.4970 -0.4718
  307MPD2    C5 4621   2.404   4.350   1.105 -0.8227  0.1718 -0.4218
  307MPD2     H 4622   2.501   4.285   0.750 -0.7220  1.4148 -0.0196
  307MPD2    H1 4623   2.402   4.559   1.045 -2.3502 -0.0425 -0.3359
  307MPD2    H2 4624   2.386   4.143   1.138  1.5459 -0.5186 -0.1562
  307MPD2    H3 4625   2.364   4.369   1.203 -3.7872  0.7137 -1.7184
  307MPD2     N 4626   2.470   4.523   0.782 -0.3380  0.1186  0.1897
  307MPD2    H5 4627   2.477   4.486   0.688  1.2651 -1.2849  0.8589
  307MPD2    N1 4628   2.473   4.065   0.884  0.1893  0.9247  0.1636
  307MPD2    H7 4629   2.488   4.055   0.784  1.6917 -1.7550  0.6310
  308TMC3    C1 4630   2.484   0.129   0.486  0.4544  0.2648  0.0664
  308TMC3    C2 4631   2.611   0.137   0.449 -0.7503  0.0176 -0.7093
  308TMC3    C3 4632   2.695   0.069   0.533  0.1330  0.9539  0.5864
  308TMC3    C4 4633   2.436   0.049   0.588  0.6526 -0.2450  0.1505
  308TMC3    C5 4634   2.524   4.719   0.673 -0.8272  0.4005 -0.1942
  308TMC3    C6 4635   2.653   0.005   0.645  0.2344 -0.5138  0.1780
  308TMC3     C 4636   2.400   0.188   0.387 -0.3612 -0.8841  0.7269
  308TMC3     O 4637   2.463   0.256   0.310  0.4841 -0.1058 -0.2109
  308TMC3     H 4638   2.661   0.190   0.368  0.1447  0.7619  0.3211
  308TMC3    H1 4639   2.331   0.055   0.616  1.3417  0.9339  2.4726
  308TMC3    H2 4640   2.722   4.699   0.723  3.0415  0.5412 -1.8907
  308TMC3    C7 4641   2.484   4.660   0.798  0.0246 -0.3797 -0.3335
  308TMC3    C8 4642   2.798   0.012   0.458 -0.4303  0.5863  0.1278
  308TMC3    O1 4643   2.513   4.721   0.902  0.1294 -0.5256 -0.1916
  308TMC3    O2 4644   2.776   4.710   0.339 -0.2736 -0.1248  0.1498
  309MPD2     C 4645   1.604   0.066  17.224 -0.9356  0.1259 -0.3921
  309MPD2    C1 4646   1.557   0.143  17.117 -0.5429 -0.9003  0.6268
  309MPD2    C2 4647   1.473   0.248  17.141  0.3448 -0.8508  0.5226
  309MPD2    C3 4648   1.421   0.277  17.268 -0.4664 -0.5413 -0.3903
  309MPD2    C4 4649   1.457   0.194  17.373  0.4260  0.1363  0.3990
  309MPD2    C5 4650   1.547   0.090  17.344 -0.5998 -0.1655  0.5670
  309MPD2     H 4651   1.459   0.307  17.051  0.1658  0.3940  1.3668
  309MPD2    H1 4652   1.423   0.223  17.471 -1.1483  1.2939 -0.4906
  309MPD2    H2 4653   1.676   4.711  17.216  2.1928  2.6761  2.6095
  309MPD2    H3 4654   1.580   0.022  17.422  1.7862  2.0895  1.5391
  309MPD2     N 4655   1.329   0.384  17.301  0.1530 -0.0695  0.8064
  309MPD2    H5 4656   1.282   0.374  17.391  0.0245 -1.0563  0.6281
  309MPD2    N1 4657   1.605   0.138  16.982  0.5338 -0.0750 -0.4018
  309MPD2    H7 4658   1.587   0.223  16.930  0.0048  2.2122  3.5091
  310TMC3    C1 4659   1.743   0.055  16.790  0.6092 -0.3392  0.3115
  310TMC3    C2 4660   1.656   0.101  16.693 -0.2555 -0.1868 -0.0440
  310TMC3    C3 4661   1.693   0.072  16.566 -0.5508  0.0577 -0.0925
  310TMC3    C4 4662   1.851   4.701  16.764  0.6291  0.6342  0.2648
  310TMC3    C5 4663   1.879   4.680  16.625  0.5258 -1.1459 -0.0969
  310TMC3    C6 4664   1.810   0.006  16.527  0.0869  0.1620 -0.6915
  310TMC3     C 4665   1.700   0.046  16.934 -0.3663 -0.3488  0.6721
  310TMC3     O 4666   1.748   4.672  16.990  0.4261  0.3413  0.2656
  310TMC3     H 4667   1.568   0.159  16.719 -0.0092 -0.6330  1.7636
  310TMC3    H1 4668   1.909   4.659  16.846  0.0724 -2.0638 -0.7240
  310TMC3    H2 4669   1.846   4.716  16.426  1.8385 -1.5950  0.1768
  310TMC3    C7 4670   1.987   4.584  16.612 -0.0616  0.4100  0.1118
  310TMC3    C8 4671   1.626   0.150  16.460 -0.5908  0.1682 -0.0452
  310TMC3    O1 4672   2.003   4.510  16.706  0.7599  0.4670 -0.1382
  310TMC3    O2 4673   1.680   0.161  16.351  0.0022  0.2405 -0.2521
  311MPD2     C 4674   3.425   2.117  12.814 -0.0266 -0.6688  0.4677
  311MPD2    C1 4675   3.342   2.225  12.820 -0.0104  0.4585 -0.2621
  311MPD2    C2 4676   3.208   2.207  12.846 -0.9254 -0.4726  0.7380
  311MPD2    C3 4677   3.157   2.082  12.850 -0.2367  0.1807  0.0991
  311MPD2    C4 4678   3.237   1.969  12.835  0.1733  0.5025  0.1666
  311MPD2    C5 4679   3.369   1.990  12.817  0.1908 -0.1810 -0.5943
  311MPD2     H 4680   3.141   2.291  12.861  1.4357  1.1404  2.3253
  311MPD2    H1 4681   3.203   1.866  12.832 -0.4165  0.6907  0.3050
  311MPD2    H2 4682   3.530   2.116  12.785 -0.1292  2.0576  0.0125
  311MPD2    H3 4683   3.426   1.903  12.786  0.4813 -0.7871  1.5985
  311MPD2     N 4684   3.019   2.071  12.872  0.2252 -0.1946  0.1377
  311MPD2    H5 4685   2.958   2.151  12.861 -1.2205 -1.4237 -0.7024
  311MPD2    N1 4686   3.397   2.355  12.811  0.2607 -0.7661 -0.2412
  311MPD2    H7 4687   3.334   2.433  12.803  1.6647  0.4393  0.4502
  312TMC3    C1 4688   2.822   2.003  12.934  0.2552 -0.0416  0.0707
  312TMC3    C2 4689   2.719   1.911  12.926 -0.4791  0.1478 -0.2848
  312TMC3    C3 4690   2.593   1.945  12.966 -0.2355  0.0345 -0.3287
  312TMC3    C4 4691   2.811   2.102  13.021 -0.0390 -0.0423  1.3348
  312TMC3    C5 4692   2.688   2.122  13.085 -0.1244 -0.1962  0.4030
  312TMC3    C6 4693   2.573   2.056  13.042  0.4672  0.3099  0.1520
  312TMC3     C 4694   2.954   1.966  12.912 -0.5832 -0.2173 -0.4731
  312TMC3     O 4695   2.986   1.858  12.955 -0.2977 -0.0668 -0.3086
  312TMC3     H 4696   2.738   1.822  12.867  1.0932  1.3478 -1.6086
  312TMC3    H1 4697   2.903   2.146  13.058  0.3080  2.7297 -2.7679
  312TMC3    H2 4698   2.474   2.076  13.081  0.4882 -1.0454  0.8981
  312TMC3    C7 4699   2.686   2.190  13.211 -0.0647  0.2450 -0.0650
  312TMC3    C8 4700   2.490   1.885  12.883 -0.1957  0.3022  0.8131
  312TMC3    O1 4701   2.780   2.254  13.246  0.0907 -0.1851 -0.1948
  312TMC3    O2 4702   2.482   1.762  12.872  0.5941 -0.2856 -0.0810
  313MPD2     C 4703   2.807   1.261  10.555  0.1698 -0.5395 -0.7782
  313MPD2    C1 4704   2.685   1.247  10.614 -0.4257 -0.4603  1.5567
  313MPD2    C2 4705   2.604   1.144  10.569 -0.3116  0.3212 -0.2007
  313MPD2    C3 4706   2.643   1.055  10.478  0.0642 -0.1434 -0.6364
  313MPD2    C4 4707   2.772   1.059  10.436 -0.4375 -0.1516 -0.2983
  313MPD2    C5 4708   2.854   1.161  10.470  0.1893  0.5209 -0.1338
  313MPD2     H 4709   2.507   1.124  10.612 -0.8375  2.6028 -0.3583
  313MPD2    H1 4710   2.818   0.990  10.367 -1.7564 -1.6861  0.3708
  313MPD2    H2 4711   2.884   1.337  10.572  1.2921 -1.5266 -1.4171
  313MPD2    H3 4712   2.955   1.165  10.430  0.7934 -2.1394  1.1198
  313MPD2     N 4713   2.553   0.954  10.436 -0.0006 -0.1339 -0.0627
  313MPD2    H5 4714   2.461   0.954  10.478  0.6499 -0.9466  1.3369
  313MPD2    N1 4715   2.630   1.340  10.704  0.4034 -0.2293  0.1388
  313MPD2    H7 4716   2.531   1.331  10.728  0.2462  0.4452 -0.2606
  314TMC3    C1 4717   2.623   1.539  10.834 -0.2557 -0.4903  0.0678
  314TMC3    C2 4718   2.688   1.624  10.913 -0.0943  0.6233  0.6212
  314TMC3    C3 4719   2.633   1.749  10.949  0.0184 -0.3188 -0.3077
  314TMC3    C4 4720   2.496   1.573  10.787 -0.6816  0.2277 -0.6098
  314TMC3    C5 4721   2.438   1.690  10.838 -1.0410  0.5783  0.3067
  314TMC3    C6 4722   2.503   1.780  10.915  0.6291 -0.2263 -0.2779
  314TMC3     C 4723   2.703   1.449  10.753 -0.4469 -0.2636 -0.1649
  314TMC3     O 4724   2.820   1.476  10.734  0.7647  0.5376 -0.0212
  314TMC3     H 4725   2.785   1.590  10.947 -0.0224 -0.1620 -0.3696
  314TMC3    H1 4726   2.452   1.519  10.704 -1.8351 -0.2277  0.3029
  314TMC3    H2 4727   2.459   1.878  10.932 -0.6815 -1.0699  1.1923
  314TMC3    C7 4728   2.371   1.765  10.732  0.0132  0.0272 -0.1058
  314TMC3    C8 4729   2.724   1.856  10.980 -0.5696 -0.0875  0.1483
  314TMC3    O1 4730   2.271   1.827  10.758  0.2614  0.2464  0.0182
  314TMC3    O2 4731   2.679   1.959  11.022  0.3835 -0.2498  0.0888
  315MPD2     C 4732   2.599   0.709  17.683 -0.1071 -0.2124 -0.0137
  315MPD2    C1 4733   2.708   0.637  17.642 -0.0325 -0.3589  0.1403
  315MPD2    C2 4734   2.785   0.692  17.544  0.1948 -0.4719  0.2328
  315MPD2    C3 4735   2.759   0.814  17.488  0.1899 -0.4595  0.2498
  315MPD2    C4 4736   2.650   0.884  17.527  0.3469  0.5080 -0.6597
  315MPD2    C5 4737   2.573   0.832  17.624  0.7210  1.1810  0.4522
  315MPD2     H 4738   2.871   0.634  17.511  2.2982  1.6891  1.8652
  315MPD2    H1 4739   2.636   0.983  17.486 -1.0255 -0.0684 -1.5963
  315MPD2    H2 4740   2.528   0.670   0.057  0.1955  0.1067  0.4458
  315MPD2    H3 4741   2.479   0.884  17.641 -0.7560 -1.6833  0.9326
  315MPD2     N 4742   2.870   0.861  17.411  0.1320 -0.3924  0.2179
  315MPD2    H5 4743   2.962   0.820  17.425  0.0270 -0.6239  0.2410
  315MPD2    N1 4744   2.760   0.518   0.001 -0.8303  0.1815 -0.5529
  315MPD2    H7 4745   2.849   0.480  17.670 -0.4826 -1.3516  2.3989
  316TMC3    C1 4746   3.009   1.014  17.280  0.3231  0.1802 -0.5714
  316TMC3    C2 4747   3.119   0.999  17.364  1.0838  0.0466  0.3452
  316TMC3    C3 4748   3.239   1.059  17.324 -0.2133 -0.3848  0.4635
  316TMC3    C4 4749   3.014   1.094  17.167  0.0278  0.7429  0.2067
  316TMC3    C5 4750   3.137   1.158  17.138  0.4284  0.0389  0.4948
  316TMC3    C6 4751   3.243   1.153  17.223  0.1597  0.2785 -0.0605
  316TMC3     C 4752   2.874   0.968  17.320 -0.3273  0.7364  0.0776
  316TMC3     O 4753   2.771   1.014  17.274 -1.3113 -0.9861  0.2332
  316TMC3     H 4754   3.099   0.954  17.460 -1.1392  0.2440 -0.0267
  316TMC3    H1 4755   2.920   1.108  17.115 -0.6239  0.0548  1.1796
  316TMC3    H2 4756   3.331   1.208  17.195 -0.1388 -0.0639 -1.6656
  316TMC3    C7 4757   3.153   1.233  17.010 -0.4662  0.1154  0.4777
  316TMC3    C8 4758   3.357   1.051  17.406 -0.0122  0.0298 -0.1702
  316TMC3    O1 4759   3.257   1.287  16.986 -0.3838  0.0830  0.4164
  316TMC3    O2 4760   3.418   1.155  17.416 -0.0924  0.6671 -0.0381
  317MPD2     C 4761   4.677   4.111  13.136  0.1763 -0.3397 -0.1911
  317MPD2    C1 4762   0.032   4.038  13.047  0.1992  0.5709 -0.2817
  317MPD2    C2 4763   0.149   3.987  13.093 -0.0468 -0.5558 -0.1197
  317MPD2    C3 4764   0.182   3.984  13.226 -0.3505 -0.1489 -0.8500
  317MPD2    C4 4765   0.092   4.037  13.320 -0.6291 -0.1703 -0.1705
  317MPD2    C5 4766   4.701   4.103  13.268 -0.2375 -0.3741  1.1470
  317MPD2     H 4767   0.214   3.929  13.028  0.2008  0.9502 -1.2195
  317MPD2    H1 4768   0.109   4.027  13.427 -0.3399 -0.3201 -0.2317
  317MPD2    H2 4769   4.579   4.152  13.117 -1.9037 -3.9697  2.7248
  317MPD2    H3 4770   4.627   4.154  13.329 -1.8398  0.8039 -1.7657
  317MPD2     N 4771   0.305   3.910  13.255  0.1831  0.5376 -0.2165
  317MPD2    H5 4772   0.358   3.870  13.179 -1.5897 -0.2166 -1.0598
  317MPD2    N1 4773   0.002   4.013  12.916 -0.0557 -0.1538 -0.0782
  317MPD2    H7 4774   0.072   3.971  12.856  0.8624  2.5194 -0.8934
  318TMC3    C1 4775   0.450   3.786  13.373  0.1061 -0.1350  0.6861
  318TMC3    C2 4776   0.409   3.663  13.333 -0.2116  1.1580  0.5135
  318TMC3    C3 4777   0.464   3.547  13.386  0.0667 -0.1081  0.0870
  318TMC3    C4 4778   0.542   3.805  13.475  1.0312 -0.4450  0.1022
  318TMC3    C5 4779   0.587   3.687  13.538  0.0220  0.3740 -0.4214
  318TMC3    C6 4780   0.549   3.563  13.488 -0.2970 -0.3533 -0.1276
  318TMC3     C 4781   0.351   3.892  13.386  0.1293  0.0037 -0.2269
  318TMC3     O 4782   0.323   3.947  13.491  0.2738  0.5246  0.2680
  318TMC3     H 4783   0.328   3.665  13.261 -0.7548  1.0050  1.1198
  318TMC3    H1 4784   0.567   3.903  13.514  3.4910 -1.1245  0.2071
  318TMC3    H2 4785   0.578   3.476  13.546 -0.6922  0.1840  0.8756
  318TMC3    C7 4786   0.690   3.703  13.635  0.7891  0.1283  0.3736
  318TMC3    C8 4787   0.409   3.414  13.373 -0.5410  0.3614 -0.1050
  318TMC3    O1 4788   0.706   3.818  13.678 -0.1014 -0.1109 -0.6650
  318TMC3    O2 4789   0.481   3.317  13.389  0.0999 -0.4626  0.2310
  319MPD2     C 4790   1.222   4.660  16.441 -0.0245 -0.0022 -0.0411
  319MPD2    C1 4791   1.126   4.672  16.541  0.6064  0.0318  0.1895
  319MPD2    C2 4792   0.989   4.674  16.499 -0.0929 -0.4226  0.7474
  319MPD2    C3 4793   0.956   4.670  16.365 -0.9098  0.7031 -0.3139
  319MPD2    C4 4794   1.054   4.662  16.270  0.0508  0.1063 -0.7002
  319MPD2    C5 4795   1.184   4.668  16.309 -0.4978  0.1452  0.0554
  319MPD2     H 4796   0.916   4.679  16.579  0.0144  0.4021  0.7961
  319MPD2    H1 4797   1.040   4.656  16.162 -1.3657 -2.1068 -0.4047
  319MPD2    H2 4798   1.327   4.657  16.469  0.2145  1.5751 -0.7654
  319MPD2    H3 4799   1.260   4.652  16.234 -1.5258  0.3508 -1.0287
  319MPD2     N 4800   0.822   4.667  16.314 -0.0505 -0.2842  0.2291
  319MPD2    H5 4801   0.802   4.685  16.217 -1.6087 -0.5904  0.4892
  319MPD2    N1 4802   1.155   4.666  16.677 -0.2955  0.3094  0.2847
  319MPD2    H7 4803   1.070   4.653  16.732 -1.9064 -1.2607 -2.5514
  320TMC3    C1 4804   0.599   4.607  16.313 -0.2792 -0.0093 -1.0356
  320TMC3    C2 4805   0.573   4.675  16.200 -0.8110  0.6294 -0.5205
  320TMC3    C3 4806   0.451   4.649  16.144  0.1722  0.1449 -0.2137
  320TMC3    C4 4807   0.516   4.527  16.382  0.0117  0.5415 -0.3517
  320TMC3    C5 4808   0.396   4.505  16.323  0.5546 -0.1776  0.0798
  320TMC3    C6 4809   0.365   4.558  16.198  0.1113  0.2305 -0.3038
  320TMC3     C 4810   0.715   4.635  16.394  0.0750 -0.7731  0.3535
  320TMC3     O 4811   0.711   4.608  16.516  0.5083 -0.1389  0.2991
  320TMC3     H 4812   0.639   0.027  16.160 -0.8391  0.1515 -1.4697
  320TMC3    H1 4813   0.540   4.478  16.476  3.0037  2.1860 -0.2626
  320TMC3    H2 4814   0.271   4.544  16.145 -0.6963 -0.3513  1.2628
  320TMC3    C7 4815   0.325   4.387  16.368  0.4680  0.4016 -0.1081
  320TMC3    C8 4816   0.395   0.032  16.054 -0.2508  0.6475  0.3718
  320TMC3    O1 4817   0.282   4.324  16.274  0.1797  0.6030 -0.5476
  320TMC3    O2 4818   0.468   0.128  16.037 -0.1740  0.9033 -0.0897
  321TMC3    C1 4819   1.284   4.639  16.884 -0.7934 -0.2188  0.0799
  321TMC3    C2 4820   1.164   4.624  16.950 -0.0461 -0.2087  0.3453
  321TMC3    C3 4821   1.178   4.588  17.076  0.3153 -0.3319 -0.2798
  321TMC3    C4 4822   1.404   4.610  16.950  0.0355 -0.5296 -0.2382
  321TMC3    C5 4823   1.412   4.577  17.086  0.4952  0.5211  0.7280
  321TMC3    C6 4824   1.299   4.579  17.155  0.0795 -0.1385  0.1288
  321TMC3     C 4825   1.281   4.676  16.741 -0.2104 -0.3363  0.3986
  321TMC3     O 4826   1.389   4.705  16.692 -0.0597  0.6576  0.5507
  321TMC3     H 4827   1.065   4.604  16.910  1.2488 -3.7789 -1.0050
  321TMC3    H1 4828   1.488   4.594  16.883  0.0504  1.4247 -0.6820
  321TMC3    H2 4829   1.287   4.544  17.257 -1.5993 -2.3208 -0.8100
  321TMC3    C7 4830   1.489   4.464  17.132  0.2986 -0.0233 -0.3379
  321TMC3    C8 4831   1.077   4.494  17.125 -0.1372 -0.0158 -0.4817
  321TMC3    O1 4832   1.413   4.373  17.152  0.2191  0.3910 -0.1224
  321TMC3    O2 4833   0.960   4.509  17.095 -0.3111 -0.1950  0.1230
  322MPD2     C 4834   4.412   1.735  13.466 -0.8405  0.0553 -0.1137
  322MPD2    C1 4835   4.415   1.654  13.576  0.5401  0.0891 -0.1551
  322MPD2    C2 4836   4.426   1.519  13.559  0.0424  0.5883  0.0879
  322MPD2    C3 4837   4.465   1.456  13.442 -0.1498 -0.0606  0.2536
  322MPD2    C4 4838   4.493   1.546  13.341 -0.2794 -0.3783 -0.0132
  322MPD2    C5 4839   4.459   1.681  13.351  0.0183 -0.3658  0.3347
  322MPD2     H 4840   4.424   1.451  13.643  2.0421 -0.4530 -0.7251
  322MPD2    H1 4841   4.546   1.522  13.250 -0.7404  0.5194 -0.5057
  322MPD2    H2 4842   4.395   1.842  13.479  1.8207  0.9541 -3.9839
  322MPD2    H3 4843   4.483   1.753  13.273 -2.0379  2.0427  1.9053
  322MPD2     N 4844   4.507   1.324  13.447 -0.0816  0.1634  0.3855
  322MPD2    H5 4845   4.500   1.278  13.537  0.5940 -0.4088  0.1446
  322MPD2    N1 4846   4.387   1.717  13.703 -0.4366  0.0542 -0.8944
  322MPD2    H7 4847   4.413   1.815  13.710  2.7167 -0.8808  0.8600
  323TMC3    C1 4848   4.374   1.727  13.940  0.3136  0.8793  0.0408
  323TMC3    C2 4849   4.482   1.811  13.947 -0.5418 -0.3496  0.0872
  323TMC3    C3 4850   4.534   1.857  14.067  0.0766  0.1531  0.4468
  323TMC3    C4 4851   4.324   1.680  14.051 -0.2453  0.7291  0.4177
  323TMC3    C5 4852   4.373   1.727  14.173  0.0427 -0.0462 -0.6945
  323TMC3    C6 4853   4.485   1.808  14.185  0.3306 -0.1567  0.6295
  323TMC3     C 4854   4.358   1.650  13.819  0.6779 -0.3932 -0.1139
  323TMC3     O 4855   4.301   1.539  13.821 -0.2910  0.2041  0.1206
  323TMC3     H 4856   4.522   1.836  13.849 -2.6833  0.8788 -0.4527
  323TMC3    H1 4857   4.248   1.604  14.043 -0.4626  0.9942 -0.0206
  323TMC3    H2 4858   4.543   1.831  14.274  1.6145 -0.5878 -0.0977
  323TMC3    C7 4859   4.346   1.633  14.289  0.4210 -0.3991 -1.2228
  323TMC3    C8 4860   4.677   1.892  14.072 -0.3076  0.5026  0.0954
  323TMC3    O1 4861   4.286   1.527  14.266 -0.5984 -0.0394 -0.4550
  323TMC3    O2 4862   4.720   1.931  14.186  0.0871 -0.3955 -0.2449
  324MPD2     C 4863   1.714   2.430  14.956  0.2414  0.4076  0.0942
  324MPD2    C1 4864   1.755   2.499  14.846  0.2003  0.0233  0.0938
  324MPD2    C2 4865   1.659   2.559  14.768 -0.3542 -0.0932 -0.5539
  324MPD2    C3 4866   1.527   2.561  14.808  0.2720  0.1700 -0.5136
  324MPD2    C4 4867   1.490   2.492  14.920  0.2320 -0.6852 -0.7615
  324MPD2    C5 4868   1.581   2.428  14.998  0.3704 -0.0959 -0.4119
  324MPD2     H 4869   1.693   2.603  14.675 -1.5773  0.3099 -0.8155
  324MPD2    H1 4870   1.386   2.487  14.950  0.4697 -2.4157 -0.2276
  324MPD2    H2 4871   1.781   2.394  15.033 -0.5518  1.5926  1.3423
  324MPD2    H3 4872   1.557   2.387  15.095 -1.2688  1.0132 -0.3547
  324MPD2     N 4873   1.423   2.629  14.735  0.2807 -0.2308  0.1101
  324MPD2    H5 4874   1.328   2.608  14.763  0.0550  1.3716  0.5215
  324MPD2    N1 4875   1.893   2.511  14.812 -0.4908 -0.1175 -0.8433
  324MPD2    H7 4876   1.906   2.571  14.732 -0.8987 -0.8412 -1.4468
  325TMC3    C1 4877   1.331   2.775  14.572 -0.0768 -0.1074 -0.0289
  325TMC3    C2 4878   1.211   2.719  14.596  0.2853 -0.1640  0.6890
  325TMC3    C3 4879   1.102   2.754  14.521 -0.1716 -0.8442 -0.0752
  325TMC3    C4 4880   1.351   2.867  14.473  0.2223  0.0268  0.3600
  325TMC3    C5 4881   1.239   2.910  14.418 -0.2041  0.1486  0.2529
  325TMC3    C6 4882   1.115   2.853  14.429 -0.1539  0.1830 -0.3899
  325TMC3     C 4883   1.449   2.722  14.634  0.3357 -0.8819  0.7498
  325TMC3     O 4884   1.549   2.777  14.598  0.4160 -0.1297 -0.0650
  325TMC3     H 4885   1.204   2.627  14.652 -0.2279 -0.7916 -0.3979
  325TMC3    H1 4886   1.449   2.909  14.451  0.4696  0.6170  2.5853
  325TMC3    H2 4887   1.035   2.884  14.363 -2.0486 -0.9072  1.3590
  325TMC3    C7 4888   1.239   3.042  14.357 -0.0877  0.5222 -0.3021
  325TMC3    C8 4889   0.989   2.664  14.517  0.0392  0.0228 -0.9281
  325TMC3    O1 4890   1.349   3.090  14.336 -0.3167  0.3707  0.2288
  325TMC3    O2 4891   1.000   2.557  14.571 -0.0997 -0.0507  0.4320
  326MPD2     C 4892   2.320   3.956  11.161 -0.0252  0.5330  0.0233
  326MPD2    C1 4893   2.312   3.971  11.021 -0.4913 -0.2563 -0.8753
  326MPD2    C2 4894   2.413   4.020  10.951  0.4391  0.8211 -0.8489
  326MPD2    C3 4895   2.518   4.080  11.015  0.6533 -0.3078 -0.6844
  326MPD2    C4 4896   2.517   4.074  11.155 -0.0158 -0.5251  0.3800
  326MPD2    C5 4897   2.416   4.014  11.226 -0.7190  0.1133  0.1368
  326MPD2     H 4898   2.395   4.020  10.845  0.0636  0.3125 -0.7829
  326MPD2    H1 4899   2.599   4.109  11.217 -0.0342  1.7082 -0.8533
  326MPD2    H2 4900   2.236   3.920  11.219  1.4486 -0.8851  1.2654
  326MPD2    H3 4901   2.436   4.001  11.332  1.1721 -3.0058 -0.6066
  326MPD2     N 4902   2.622   4.153  10.944  0.0891 -0.1660 -0.4535
  326MPD2    H5 4903   2.685   4.210  11.000  0.5102  0.4017 -1.5138
  326MPD2    N1 4904   2.193   3.928  10.946 -0.2789  0.2660 -0.0814
  326MPD2    H7 4905   2.186   3.948  10.846  1.2490 -1.0618 -0.4586
  327TMC3    C1 4906   1.977   3.860  10.903  0.3420 -0.1850  0.2963
  327TMC3    C2 4907   1.955   3.977  10.832 -0.2865 -0.0749 -1.1045
  327TMC3    C3 4908   1.889   3.955  10.710  0.1843 -0.1162  0.0925
  327TMC3    C4 4909   1.933   3.734  10.853 -0.2391  0.0079 -0.7483
  327TMC3    C5 4910   1.910   3.720  10.716 -0.2323  0.3487  0.0880
  327TMC3    C6 4911   1.881   3.830  10.646 -0.4127  0.4840  0.6636
  327TMC3     C 4912   2.091   3.850  10.993 -0.0384 -0.1413  0.1002
  327TMC3     O 4913   2.086   3.776  11.089 -0.1856  0.0407  0.3036
  327TMC3     H 4914   1.979   4.074  10.874 -1.0590 -0.7206  0.8099
  327TMC3    H1 4915   1.954   3.642  10.908 -1.6924  0.2585  0.2422
  327TMC3    H2 4916   1.874   3.820  10.539  1.1860  0.0941  0.5880
  327TMC3    C7 4917   1.993   3.623  10.646  0.0714  0.5664  0.3343
  327TMC3    C8 4918   1.850   4.067  10.638 -0.3902 -0.1434  0.5112
  327TMC3    O1 4919   1.997   3.643  10.524  0.4603  0.0688 -0.2793
  327TMC3    O2 4920   1.914   4.169  10.660 -0.0595  0.2922  0.8083
  328MPD2     C 4921   0.420   3.178  17.310  0.0512 -0.1996  0.2084
  328MPD2    C1 4922   0.301   3.172  17.239 -0.2677  0.9026  0.1277
  328MPD2    C2 4923   0.255   3.283  17.173  0.1709  0.0839 -0.7688
  328MPD2    C3 4924   0.323   3.407  17.176  0.8337 -0.0234  0.7160
  328MPD2    C4 4925   0.436   3.415  17.253 -0.4044  0.0764  0.6002
  328MPD2    C5 4926   0.485   3.303  17.312 -0.0277  0.3319  0.3375
  328MPD2     H 4927   0.161   3.267  17.121 -0.1433 -2.2049  0.4723
  328MPD2    H1 4928   0.506   3.498  17.241  1.5889 -1.6537  0.2450
  328MPD2    H2 4929   0.457   3.099  17.374  1.5554 -1.1563 -1.8669
  328MPD2    H3 4930   0.571   3.324  17.375 -0.0769  1.1044  0.1458
  328MPD2     N 4931   0.273   3.525  17.126  0.1370 -0.1152  0.2983
  328MPD2    H5 4932   0.332   3.608  17.134 -0.2241  0.2042 -0.3322
  328MPD2    N1 4933   0.215   3.061  17.239  0.4777 -0.1662 -0.6606
  328MPD2    H7 4934   0.145   3.066  17.166 -0.7107  0.5468  0.5254
  329TMC3    C1 4935   0.103   2.866  17.290 -0.1636  0.0231  0.0464
  329TMC3    C2 4936   4.699   2.908  17.323  0.4673 -0.5629  0.2573
  329TMC3    C3 4937   4.596   2.842  17.257  0.5938  0.2389 -0.1376
  329TMC3    C4 4938   0.134   2.759  17.208  0.2246 -0.0397 -0.5069
  329TMC3    C5 4939   0.025   2.695  17.152  0.3439  0.7689  0.1197
  329TMC3    C6 4940   4.622   2.743  17.162 -0.7530  0.6599  0.0097
  329TMC3     C 4941   0.209   2.957  17.324  0.3456  0.3423 -0.3296
  329TMC3     O 4942   0.289   2.932  17.413 -0.5014 -0.6788 -0.5017
  329TMC3     H 4943   4.678   3.003  17.371  0.6465 -0.6996  0.6063
  329TMC3    H1 4944   0.237   2.735  17.182  0.3789  0.2092 -0.1138
  329TMC3    H2 4945   4.544   2.680  17.120 -1.9432  2.4639 -0.5054
  329TMC3    C7 4946   0.057   2.597  17.043  0.4023 -0.1816  0.5889
  329TMC3    C8 4947   4.470   2.919  17.233 -0.2386  0.0165  0.8641
  329TMC3    O1 4948   0.130   2.505  17.074  0.1384 -0.7761 -0.2856
  329TMC3    O2 4949   4.403   2.888  17.133 -0.2501 -0.3304 -0.2967
  330TMC3    C1 4950   2.402   2.825   9.715 -0.6519 -0.6303 -0.1581
  330TMC3    C2 4951   2.268   2.818   9.701 -0.4196 -0.0047  0.6211
  330TMC3    C3 4952   2.219   2.708   9.645 -0.3825 -0.2810  0.2059
  330TMC3    C4 4953   2.488   2.744   9.651 -0.0831 -0.2640  0.4761
  330TMC3    C5 4954   2.435   2.638   9.579 -0.3074 -0.1521 -0.0936
  330TMC3    C6 4955   2.302   2.615   9.585 -0.1552  0.0607 -0.7584
  330TMC3     C 4956   2.461   2.942   9.787  1.1330  0.0658  0.9960
  330TMC3     O 4957   2.564   2.905   9.845 -0.2755  0.0576 -0.2943
  330TMC3     H 4958   2.201   2.886   9.752  0.5710  1.2056  0.3033
  330TMC3    H1 4959   2.594   2.763   9.636  0.2655 -0.9641  2.0520
  330TMC3    H2 4960   2.273   2.526   9.532 -0.8228  0.0130 -0.3165
  330TMC3    C7 4961   2.529   2.549   9.517 -0.0063  0.2759 -1.0283
  330TMC3    C8 4962   2.076   2.695   9.623  0.2063  0.7248 -0.2652
  330TMC3    O1 4963   2.642   2.555   9.555 -0.0759  0.1651 -0.5793
  330TMC3    O2 4964   2.001   2.773   9.679 -0.3121 -0.2141 -0.1181
  331MPD2     C 4965   0.503   2.419  12.830 -1.0034 -0.0432  0.4929
  331MPD2    C1 4966   0.600   2.428  12.735 -0.2905  0.1402 -0.2921
  331MPD2    C2 4967   0.649   2.309  12.689 -0.6875 -0.5299  0.6109
  331MPD2    C3 4968   0.604   2.185  12.728  0.0506 -0.1517 -0.3870
  331MPD2    C4 4969   0.505   2.178  12.817 -0.7076  0.0546 -0.6096
  331MPD2    C5 4970   0.454   2.292  12.867 -0.1731  0.1789  0.7847
  331MPD2     H 4971   0.737   2.315  12.628 -0.6111  2.5678  1.0202
  331MPD2    H1 4972   0.458   2.085  12.847  2.1945 -1.2970 -0.2634
  331MPD2    H2 4973   0.461   2.510  12.872  2.1193  1.9344 -0.6097
  331MPD2    H3 4974   0.375   2.290  12.942 -0.8989 -0.2651  0.0037
  331MPD2     N 4975   0.654   2.072  12.660 -0.4208 -0.6176 -0.6363
  331MPD2    H5 4976   0.737   2.091  12.604 -0.9864 -1.2023 -1.6681
  331MPD2    N1 4977   0.654   2.544  12.681  0.6625 -0.9587  0.1352
  331MPD2    H7 4978   0.720   2.541  12.604  0.5132  2.0574 -0.1054
  332TMC3    C1 4979   0.711   1.839  12.601 -0.7031  0.2880 -0.6535
  332TMC3    C2 4980   0.779   1.893  12.494 -0.1152 -0.6812 -0.2096
  332TMC3    C3 4981   0.888   1.823  12.447  0.0832 -0.3220 -0.0607
  332TMC3    C4 4982   0.742   1.717  12.657 -0.1956  0.6871 -0.1212
  332TMC3    C5 4983   0.854   1.654  12.611 -0.5932 -0.1495 -0.8879
  332TMC3    C6 4984   0.927   1.708  12.508  0.2109  0.1274 -0.6424
  332TMC3     C 4985   0.635   1.935  12.684 -0.2638 -0.4882  0.0386
  332TMC3     O 4986   0.557   1.882  12.763 -0.4544  0.1698 -0.2213
  332TMC3     H 4987   0.752   1.985  12.443  0.4351  0.9517  2.4599
  332TMC3    H1 4988   0.689   1.685  12.746  1.5202 -0.4354  0.4954
  332TMC3    H2 4989   1.012   1.650  12.473  1.2001  0.9744  0.3368
  332TMC3    C7 4990   0.900   1.547  12.686  0.2909  0.6535  0.1103
  332TMC3    C8 4991   0.963   1.875  12.338 -0.1820 -0.1414 -0.7715
  332TMC3    O1 4992   0.835   1.505  12.779  0.1733  0.3417  0.6688
  332TMC3    O2 4993   0.932   1.988  12.306  0.3255 -0.8130 -0.5786
  333MPD2     C 4994   1.024   2.249  11.036 -0.0711 -0.1883 -0.3452
  333MPD2    C1 4995   1.070   2.170  10.928 -0.3543  0.5246 -0.3711
  333MPD2    C2 4996   1.061   2.032  10.926  0.0362 -0.6890  0.4450
  333MPD2    C3 4997   1.020   1.976  11.047  0.4930  0.0038 -0.1769
  333MPD2    C4 4998   0.974   2.052  11.148 -0.2219 -0.3618  0.5815
  333MPD2    C5 4999   0.964   2.187  11.147  1.0430  0.2683  0.3046
  333MPD2     H 5000   1.110   1.978  10.846  2.0906 -0.8614  1.8388
  333MPD2    H1 5001   0.933   2.021  11.244  0.9730  2.2260  1.9201
  333MPD2    H2 5002   1.032   2.357  11.029  1.6771 -0.3776 -1.1378
  333MPD2    H3 5003   0.928   2.247  11.230  1.5831 -0.6579  1.1968
  333MPD2     N 5004   1.024   1.835  11.055  0.6727 -0.4803  0.0589
  333MPD2    H5 5005   1.062   1.788  10.974  0.2026 -2.0282  0.7296
  333MPD2    N1 5006   1.118   2.247  10.823  0.0461 -0.7172  0.5487
  333MPD2    H7 5007   1.123   2.346  10.847 -1.0647  0.0462 -2.4111
  334TMC3    C1 5008   1.198   2.304  10.606 -0.6012  0.1549  0.3075
  334TMC3    C2 5009   1.237   2.270  10.477 -0.2897 -0.0940 -0.0308
  334TMC3    C3 5010   1.291   2.371  10.402 -0.1706 -0.8439 -0.0562
  334TMC3    C4 5011   1.196   2.434  10.653  0.7170  0.3105 -0.3532
  334TMC3    C5 5012   1.235   2.533  10.567 -0.3824 -0.2841  0.6545
  334TMC3    C6 5013   1.288   2.504  10.441 -0.1600 -0.1606  0.7467
  334TMC3     C 5014   1.150   2.203  10.701  0.0623 -0.9718 -0.3046
  334TMC3     O 5015   1.128   2.095  10.652  0.6761  0.7077  0.4149
  334TMC3     H 5016   1.244   2.165  10.453 -0.3021  0.0854 -0.8013
  334TMC3    H1 5017   1.145   2.465  10.743  1.3929 -0.1611  0.1970
  334TMC3    H2 5018   1.333   2.587  10.387  1.0034 -1.6533 -0.5629
  334TMC3    C7 5019   1.208   2.669  10.603 -0.1869 -0.2869  0.2501
  334TMC3    C8 5020   1.406   2.325  10.321  0.0960  0.2107 -0.0287
  334TMC3    O1 5021   1.204   2.692  10.723 -0.4781  0.0172 -0.0603
  334TMC3    O2 5022   1.398   2.219  10.268 -1.0737 -0.1788 -0.1434
  335TMC3    C1 5023   1.085   3.436   0.079  0.1434 -0.3825 -0.0972
  335TMC3    C2 5024   1.040   3.384  17.660  0.5276  0.3677 -0.4850
  335TMC3    C3 5025   1.135   3.382  17.559 -0.1501  0.0220 -0.1686
  335TMC3    C4 5026   1.217   3.473   0.093 -0.5851 -0.1064  0.4365
  335TMC3    C5 5027   1.309   3.458  17.686 -0.6882  0.3552 -0.8502
  335TMC3    C6 5028   1.265   3.417  17.564 -0.1879  0.0563  0.5280
  335TMC3     C 5029   1.006   3.463   0.195  0.5614 -0.0524  0.1250
  335TMC3     O 5030   1.044   3.558   0.262 -0.7107 -0.1126 -0.1416
  335TMC3     H 5031   0.935   3.379  17.633  0.4623 -1.1232  0.0536
  335TMC3    H1 5032   1.256   3.518   0.183 -1.9019  0.4526  0.7287
  335TMC3    H2 5033   1.340   3.387  17.492 -0.8256 -1.9634  0.7239
  335TMC3    C7 5034   1.451   3.466   0.006  0.0967  0.0147 -0.5175
  335TMC3    C8 5035   1.087   3.313  17.435  0.0671 -0.0409  0.4181
  335TMC3    O1 5036   1.517   3.477  17.600 -0.6873 -0.0760 -0.0538
  335TMC3    O2 5037   1.145   3.337  17.333  0.0487 -0.0393  0.4246
  336MPD2     C 5038   0.634   1.323  16.143  0.4798  0.5737  0.0158
  336MPD2    C1 5039   0.688   1.271  16.023 -0.3681 -0.3710 -0.7764
  336MPD2    C2 5040   0.744   1.145  16.033 -0.6063  0.0939  0.0215
  336MPD2    C3 5041   0.712   1.057  16.139 -0.4954  0.0993 -0.0092
  336MPD2    C4 5042   0.639   1.111  16.243  0.1987  0.0227  0.1315
  336MPD2    C5 5043   0.607   1.240  16.251  0.0019  0.1828  0.2545
  336MPD2     H 5044   0.795   1.110  15.944  2.3529 -2.9900  2.9209
  336MPD2    H1 5045   0.609   1.047  16.325  1.2784  0.2909  0.7324
  336MPD2    H2 5046   0.607   1.426  16.159 -1.3257  0.4242 -1.9209
  336MPD2    H3 5047   0.557   1.284  16.337 -0.3801 -2.1095  1.2141
  336MPD2     N 5048   0.737   0.913  16.133  0.3913 -0.2540 -0.5109
  336MPD2    H5 5049   0.711   0.854  16.211  3.1359 -1.8557 -0.8492
  336MPD2    N1 5050   0.715   1.360  15.914 -0.0148 -0.2431 -0.3630
  336MPD2    H7 5051   0.741   1.311  15.829 -1.3555 -1.9082  0.1898
  337TMC3    C1 5052   0.674   1.530  15.763 -0.0904  0.1576 -0.5090
  337TMC3    C2 5053   0.564   1.588  15.710  0.0191 -0.5699  0.6786
  337TMC3    C3 5054   0.589   1.676  15.610  0.1203  0.1654  0.1242
  337TMC3    C4 5055   0.805   1.557  15.733 -0.6684 -0.7146 -0.2627
  337TMC3    C5 5056   0.819   1.663  15.652 -1.2556  0.0306 -0.6972
  337TMC3    C6 5057   0.717   1.723  15.582  0.5702 -0.4674  0.0990
  337TMC3     C 5058   0.649   1.480  15.893  0.2699 -0.1126  0.0593
  337TMC3     O 5059   0.551   1.526  15.949 -0.0330  0.6148 -0.9366
  337TMC3     H 5060   0.465   1.548  15.729  0.5367 -1.6246  1.1717
  337TMC3    H1 5061   0.887   1.512  15.787 -2.7853  0.9042  4.3018
  337TMC3    H2 5062   0.730   1.801  15.507  0.7871  0.1313  0.7574
  337TMC3    C7 5063   0.947   1.738  15.657  0.3303  0.5136  0.0065
  337TMC3    C8 5064   0.476   1.749  15.553  0.0873 -0.4486  0.4372
  337TMC3    O1 5065   0.937   1.851  15.611 -0.3292 -0.0501  1.1881
  337TMC3    O2 5066   0.484   1.871  15.530 -0.3265 -0.5703  0.0435
  338MPD2     C 5067   1.175   4.372   0.617  0.1891 -0.0797 -0.2196
  338MPD2    C1 5068   1.119   4.487   0.562 -0.1252  0.1176  0.6219
  338MPD2    C2 5069   0.980   4.491   0.557  0.0679  0.1072  0.2219
  338MPD2    C3 5070   0.899   4.386   0.601 -0.0367  0.0198  0.0317
  338MPD2    C4 5071   0.952   4.273   0.657 -0.0336 -0.2683  0.0926
  338MPD2    C5 5072   1.088   4.266   0.656  0.2841 -0.0484  0.0556
  338MPD2     H 5073   0.939   4.584   0.521 -1.1153 -0.5116 -0.0248
  338MPD2    H1 5074   0.898   4.184   0.690 -0.2349 -0.5470 -1.0014
  338MPD2    H2 5075   1.280   4.350   0.626 -0.0445 -0.6835  1.0127
  338MPD2    H3 5076   1.125   4.171   0.694 -1.3616 -0.0418  1.6958
  338MPD2     N 5077   0.763   4.405   0.577 -1.2074 -0.7456  0.1620
  338MPD2    H5 5078   0.733   4.495   0.542  3.0498  0.5825 -0.0121
  338MPD2    N1 5079   1.197   4.598   0.516  0.1813  0.2739 -0.4411
  338MPD2    H7 5080   1.141   4.669   0.470 -1.1899 -0.0635  0.7215
  339TMC3    C1 5081   0.536   4.355   0.598  0.5771  0.3000 -0.2850
  339TMC3    C2 5082   0.437   4.300   0.678  0.5129 -0.7961  0.1832
  339TMC3    C3 5083   0.314   4.347   0.652 -0.1423  0.0904  0.5021
  339TMC3    C4 5084   0.512   4.437   0.490 -0.0787  0.0842 -0.1329
  339TMC3    C5 5085   0.378   4.463   0.463  0.8326 -0.3597  0.2626
  339TMC3    C6 5086   0.279   4.423   0.549  0.4319  0.7526  0.1601
  339TMC3     C 5087   0.671   4.315   0.629  0.5720  0.2300 -0.0100
  339TMC3     O 5088   0.679   4.224   0.706 -0.2015  0.0453 -0.1553
  339TMC3     H 5089   0.470   4.229   0.753 -1.5457 -2.2590 -0.2870
  339TMC3    H1 5090   0.582   4.468   0.414 -0.5535  0.9886 -0.2155
  339TMC3    H2 5091   0.180   4.467   0.551  0.4120  0.7117  0.0649
  339TMC3    C7 5092   0.355   4.587   0.391 -0.0605 -0.9076 -0.4154
  339TMC3    C8 5093   0.230   4.356   0.772 -0.3317 -0.0729 -0.4585
  339TMC3    O1 5094   0.289   4.676   0.446 -0.5879  0.4843 -0.2208
  339TMC3    O2 5095   0.133   4.426   0.758 -0.8954 -0.3018  0.4635
  340MPD2     C 5096   0.099   3.513   9.356 -0.1003 -0.3907 -0.9834
  340MPD2    C1 5097   0.214   3.483   9.424 -0.6901 -0.3945  0.6338
  340MPD2    C2 5098   0.289   3.588   9.470  0.2624 -0.2867  0.0342
  340MPD2    C3 5099   0.243   3.717   9.449  0.4821 -1.0139  0.2952
  340MPD2    C4 5100   0.123   3.744   9.378 -0.0141  0.3328  0.2667
  340MPD2    C5 5101   0.055   3.637   9.334 -0.1727 -0.2851  0.2363
  340MPD2     H 5102   0.374   3.565   9.532 -0.0584  0.3348  0.7033
  340MPD2    H1 5103   0.095   3.845   9.351 -0.5584  0.0404 -0.2684
  340MPD2    H2 5104   0.046   3.431   9.309  0.2570 -1.7017  0.9092
  340MPD2    H3 5105   4.685   3.651   9.282 -0.3593 -0.1557  0.6161
  340MPD2     N 5106   0.323   3.822   9.489 -0.4956  0.1377  0.1799
  340MPD2    H5 5107   0.304   3.916   9.457  0.4720  0.4243  0.4293
  340MPD2    N1 5108   0.250   3.352   9.449  0.9117  0.2202  0.0081
  340MPD2    H7 5109   0.179   3.281   9.437  0.9033  0.3797 -0.8519
  341TMC3    C1 5110   0.406   3.177   9.491  0.4298 -0.0686 -0.5645
  341TMC3    C2 5111   0.311   3.103   9.558  0.0586 -0.7785 -0.3418
  341TMC3    C3 5112   0.328   2.972   9.595 -0.2400 -0.2033  0.1532
  341TMC3    C4 5113   0.530   3.121   9.478 -0.1312  0.1509 -0.1130
  341TMC3    C5 5114   0.552   2.994   9.520 -0.8005 -0.0791 -0.4635
  341TMC3    C6 5115   0.452   2.917   9.571  0.1986 -0.6234  0.1945
  341TMC3     C 5116   0.386   3.315   9.457 -0.0034 -0.2248 -0.2389
  341TMC3     O 5117   0.486   3.378   9.424 -0.3199  0.2885  0.2140
  341TMC3     H 5118   0.219   3.156   9.581  0.6132  0.2053 -0.3667
  341TMC3    H1 5119   0.616   3.181   9.450  1.4128 -1.3274  1.3873
  341TMC3    H2 5120   0.466   2.818   9.614 -2.3702 -0.6783  0.8623
  341TMC3    C7 5121   0.683   2.927   9.508  0.4338 -0.1190  0.4872
  341TMC3    C8 5122   0.270   2.922   9.719 -0.0824  0.0848  0.3247
  341TMC3    O1 5123   0.694   2.844   9.589 -0.1955  0.1754 -0.4270
  341TMC3    O2 5124   0.223   2.811   9.719  0.3261  0.2044  0.1763
  342MPD2     C 5125   3.780   1.719  17.625  0.3656  0.2582 -0.1143
  342MPD2    C1 5126   3.914   1.716  17.597  0.3514 -0.2593 -0.1522
  342MPD2    C2 5127   3.995   1.821  17.642 -0.0908 -0.1177  0.1602
  342MPD2    C3 5128   3.933   1.928   0.002 -0.0666  0.0995 -0.4054
  342MPD2    C4 5129   3.795   1.937   0.007 -0.4916  0.6499  0.2971
  342MPD2    C5 5130   3.719   1.827  17.674 -0.0937 -0.5095 -0.0753
  342MPD2     H 5131   4.103   1.816  17.632 -0.0973  2.0992 -1.0160
  342MPD2    H1 5132   3.746   2.027   0.044 -1.9075 -0.3809  0.9344
  342MPD2    H2 5133   3.715   1.634  17.605  0.6876 -0.2758  1.0877
  342MPD2    H3 5134   3.611   1.826  17.675 -0.0770 -1.4909  0.6567
  342MPD2     N 5135   4.002   2.047   0.033 -0.4523  0.0645 -0.0313
  342MPD2    H5 5136   3.951   2.119   0.084 -0.5200  0.6696 -0.9444
  342MPD2    N1 5137   3.975   1.607  17.529 -0.0378 -0.5533  0.2937
  342MPD2    H7 5138   4.071   1.613  17.498 -0.2035 -1.1898 -0.3497
  343TMC3    C1 5139   3.986   1.389  17.442 -0.2792  0.4606 -0.3551
  343TMC3    C2 5140   4.049   1.442  17.337  0.7974 -0.4509  0.2873
  343TMC3    C3 5141   4.065   1.363  17.227  0.0832 -0.7886 -0.0897
  343TMC3    C4 5142   3.928   1.262  17.444  0.0500  0.1585 -0.3059
  343TMC3    C5 5143   3.947   1.194  17.327  0.6631  0.4332 -0.0058
  343TMC3    C6 5144   4.012   1.239  17.215  0.1285 -0.0870  0.1731
  343TMC3     C 5145   3.919   1.482  17.536  0.1326 -0.5557 -0.2690
  343TMC3     O 5146   3.827   1.430  17.598 -0.5802 -0.4913  0.6088
  343TMC3     H 5147   4.094   1.540  17.330 -1.4460  0.4151 -1.8798
  343TMC3    H1 5148   3.888   1.217  17.534  0.1422 -0.3114 -0.5026
  343TMC3    H2 5149   4.016   1.179  17.125 -0.1803  2.1693 -1.3460
  343TMC3    C7 5150   3.894   1.058  17.309  0.7736  1.0583 -0.0285
  343TMC3    C8 5151   4.163   1.410  17.131 -0.5297 -0.1341  0.2055
  343TMC3    O1 5152   3.884   1.017  17.192 -0.2019 -0.0961  0.2373
  343TMC3    O2 5153   4.209   1.523  17.151  0.2393  0.1883 -0.0266
  344MPD2     C 5154   4.718   1.623  10.716 -0.2396  0.4337  0.0619
  344MPD2    C1 5155   4.582   1.624  10.682  0.8829 -0.3970  0.2041
  344MPD2    C2 5156   4.538   1.724  10.588  0.3630 -0.8775  0.3654
  344MPD2    C3 5157   4.640   1.808  10.541 -0.9715 -1.1425 -0.2484
  344MPD2    C4 5158   0.050   1.803  10.577 -0.5944  0.0817  0.6971
  344MPD2    C5 5159   0.084   1.699  10.658  0.2465  0.4719  0.7828
  344MPD2     H 5160   4.435   1.723  10.554  0.9968  0.3713 -1.5821
  344MPD2    H1 5161   0.121   1.868  10.527  1.4645 -2.0853  0.8165
  344MPD2    H2 5162   0.035   1.559  10.793 -1.8577 -3.0193 -1.9113
  344MPD2    H3 5163   0.188   1.684  10.682  0.6173  2.5096  0.4772
  344MPD2     N 5164   4.612   1.917  10.457  0.1473  0.6060  1.0173
  344MPD2    H5 5165   4.684   1.988  10.456  1.3398 -0.6126 -1.4630
  344MPD2    N1 5166   4.497   1.527  10.739  0.1966 -0.1642  0.1335
  344MPD2    H7 5167   4.408   1.509  10.694 -0.6862 -1.5177  2.4462
  345TMC3    C1 5168   4.517   2.047  10.294  0.6895  0.1174 -0.4142
  345TMC3    C2 5169   4.602   2.149  10.348 -0.9348 -0.6535 -0.3010
  345TMC3    C3 5170   4.647   2.244  10.259  0.3284 -0.8008 -0.2149
  345TMC3    C4 5171   4.479   2.050  10.165  0.8754 -0.0642  0.6668
  345TMC3    C5 5172   4.537   2.143  10.082 -0.9776 -0.0313  0.5699
  345TMC3    C6 5173   4.622   2.242  10.125  0.7547 -0.0880  0.0188
  345TMC3     C 5174   4.504   1.927  10.370 -0.7383  0.2610  0.3282
  345TMC3     O 5175   4.413   1.849  10.338  0.0910 -0.1163  0.0938
  345TMC3     H 5176   4.614   2.167  10.454  1.3696 -0.2499 -0.6225
  345TMC3    H1 5177   4.410   1.976  10.126 -0.0406  0.5864  1.0508
  345TMC3    H2 5178   4.663   2.322  10.065 -1.9894  1.7981  0.6288
  345TMC3    C7 5179   4.513   2.155   9.937 -0.7699  0.2929 -0.4488
  345TMC3    C8 5180   4.689   2.372  10.309 -0.2767 -0.9456 -0.8044
  345TMC3    O1 5181   4.592   2.222   9.877 -0.0804 -0.3145 -0.0033
  345TMC3    O2 5182   4.711   2.461  10.227 -0.0485 -0.4420  0.4577
  346MPD2     C 5183   0.534   2.665  13.948  0.1193 -0.1096 -0.1559
  346MPD2    C1 5184   0.610   2.773  13.914  0.1566 -0.3213 -0.7306
  346MPD2    C2 5185   0.582   2.893  13.972 -0.5949  0.0713  0.1351
  346MPD2    C3 5186   0.476   2.913  14.053 -0.3245 -0.5665  0.0570
  346MPD2    C4 5187   0.401   2.798  14.089 -0.1235 -0.5276 -0.6934
  346MPD2    C5 5188   0.433   2.677  14.037 -0.6108  0.4142  0.7117
  346MPD2     H 5189   0.642   2.979  13.945 -0.1018 -0.3754 -0.2201
  346MPD2    H1 5190   0.309   2.805  14.147  0.3910 -0.0170  0.0552
  346MPD2    H2 5191   0.555   2.563  13.917  1.7958 -0.1461  1.1103
  346MPD2    H3 5192   0.362   2.596  14.044 -0.9485  0.8149  1.8931
  346MPD2     N 5193   0.442   3.038  14.106 -0.3198 -0.8508 -0.3915
  346MPD2    H5 5194   0.503   3.114  14.075 -1.1107 -0.9377 -2.1216
  346MPD2    N1 5195   0.722   2.749  13.822  0.1438  0.7389 -0.3997
  346MPD2    H7 5196   0.769   2.833  13.789  1.3724 -0.3899 -1.4784
  347TMC3    C1 5197   0.361   3.194  14.258 -0.3959 -0.2350 -0.2486
  347TMC3    C2 5198   0.491   3.252  14.254  0.0175 -0.3943  0.3586
  347TMC3    C3 5199   0.527   3.340  14.355 -0.0684 -0.3658 -0.2411
  347TMC3    C4 5200   0.279   3.215  14.367  0.3495 -0.0431  0.0179
  347TMC3    C5 5201   0.323   3.309  14.459 -0.4918 -0.2294 -0.1378
  347TMC3    C6 5202   0.446   3.377  14.455  0.4240  0.6667  0.7835
  347TMC3     C 5203   0.341   3.062  14.194  0.0609 -0.6368  0.4452
  347TMC3     O 5204   0.228   3.011  14.206  0.4781  0.3510  0.1095
  347TMC3     H 5205   0.557   3.235  14.170  1.0805 -1.5946  1.4244
  347TMC3    H1 5206   0.186   3.161  14.356  0.6883 -0.1235 -2.5821
  347TMC3    H2 5207   0.487   3.436  14.536  0.1783  1.5875  0.2397
  347TMC3    C7 5208   0.257   3.320  14.587  0.8414  0.3062 -0.2334
  347TMC3    C8 5209   0.671   3.340  14.389 -0.2824 -0.1468 -0.5243
  347TMC3    O1 5210   0.306   3.401  14.667  0.3796  0.0796 -0.7738
  347TMC3    O2 5211   0.710   3.305  14.501  0.0887  0.1470  0.6216
  348MPD2     C 5212   2.883   2.952  11.921 -0.3916 -0.4605 -0.4773
  348MPD2    C1 5213   2.989   3.040  11.905 -0.0947 -0.2912  0.3732
  348MPD2    C2 5214   3.008   3.103  11.787  0.1097  0.1081  0.2828
  348MPD2    C3 5215   2.920   3.086  11.677 -0.2975 -0.5286 -0.4754
  348MPD2    C4 5216   2.805   3.013  11.698  0.3118 -0.1434 -0.4065
  348MPD2    C5 5217   2.794   2.940  11.811 -0.0697 -0.0779  0.3088
  348MPD2     H 5218   3.089   3.175  11.777  0.9931 -1.1298 -1.4562
  348MPD2    H1 5219   2.720   3.015  11.631  1.0611  2.2001 -1.3005
  348MPD2    H2 5220   2.873   2.894  12.012 -1.0021 -0.8691 -0.8034
  348MPD2    H3 5221   2.714   2.869  11.830  0.6517 -0.4623  1.8981
  348MPD2     N 5222   2.937   3.148  11.556 -0.7415  0.1159 -0.1931
  348MPD2    H5 5223   2.869   3.136  11.481  0.0112 -2.9681 -0.3676
  348MPD2    N1 5224   3.074   3.075  12.017  0.2577 -0.2858  0.1029
  348MPD2    H7 5225   3.143   3.149  12.003  1.1079 -1.0787  0.1433
  349TMC3    C1 5226   3.230   3.042  12.185  0.6427  0.3064 -0.6720
  349TMC3    C2 5227   3.310   2.942  12.229 -0.1015  0.9697  0.2130
  349TMC3    C3 5228   3.443   2.956  12.213  0.2676 -0.2047  0.3881
  349TMC3    C4 5229   3.287   3.164  12.146 -0.5988 -0.1146 -0.6233
  349TMC3    C5 5230   3.419   3.173  12.112  0.2957 -0.3024 -0.5635
  349TMC3    C6 5231   3.495   3.063  12.145  0.6195 -0.4800  0.3669
  349TMC3     C 5232   3.092   3.007  12.137 -0.0681 -0.0228  0.0788
  349TMC3     O 5233   3.043   2.902  12.180 -1.0476 -0.2067 -0.0972
  349TMC3     H 5234   3.260   2.856  12.274  0.7551 -1.1395 -2.9242
  349TMC3    H1 5235   3.224   3.250  12.124 -1.4390 -0.5181  0.1828
  349TMC3    H2 5236   3.597   3.052  12.110  1.2634  1.3597  1.7127
  349TMC3    C7 5237   3.427   3.221  11.974 -0.6138 -0.0400  0.0868
  349TMC3    C8 5238   3.529   2.844  12.231  0.4300 -0.2790  0.5384
  349TMC3    O1 5239   3.317   3.247  11.928  0.1626  0.7389  0.4480
  349TMC3    O2 5240   3.643   2.851  12.268  0.4077 -0.3859 -0.0423
  350MPD2     C 5241   2.303   4.672  10.382  0.1053  0.5373  0.3556
  350MPD2    C1 5242   2.301   4.723  10.250 -0.1385 -0.0321  0.2358
  350MPD2    C2 5243   2.318   0.133  10.236  1.0333  0.2341  0.8838
  350MPD2    C3 5244   2.331   0.216  10.349 -0.6710  0.1018 -0.0429
  350MPD2    C4 5245   2.318   0.163  10.477  0.1614  0.5609  0.4700
  350MPD2    C5 5246   2.302   0.031  10.490  0.5297 -0.2811  0.2915
  350MPD2     H 5247   2.320   0.178  10.137 -1.6150 -0.9914  0.2759
  350MPD2    H1 5248   2.325   0.226  10.565  1.2903 -0.9577  1.4727
  350MPD2    H2 5249   2.287   4.566  10.401  0.3830  0.1984 -1.2809
  350MPD2    H3 5250   2.285   4.712  10.588 -2.6648 -0.0603 -0.1792
  350MPD2     N 5251   2.338   0.359  10.336 -0.2399 -1.0866 -0.0505
  350MPD2    H5 5252   2.298   0.418  10.408 -2.8209 -2.4462 -0.3745
  350MPD2    N1 5253   2.278   4.642  10.132 -0.1284  0.4078 -0.5581
  350MPD2    H7 5254   2.295   4.679  10.039  0.1109  1.9538  0.1029
  351TMC3    C1 5255   2.250   4.454   9.993  0.3288 -0.8697 -0.4638
  351TMC3    C2 5256   2.323   4.343   9.968 -0.6988  0.0236  0.1233
  351TMC3    C3 5257   2.308   4.294   9.837  0.2403  0.1671  0.2638
  351TMC3    C4 5258   2.200   4.536   9.894  0.3867  0.0525  0.1175
  351TMC3    C5 5259   2.191   4.488   9.770 -0.2168  0.1488 -0.1037
  351TMC3    C6 5260   2.244   4.364   9.741 -0.2951  0.1843 -0.1024
  351TMC3     C 5261   2.256   4.506  10.131 -0.7540  0.4013 -0.3188
  351TMC3     O 5262   2.242   4.425  10.223 -0.7383  0.4283 -0.2631
  351TMC3     H 5263   2.362   4.291  10.055 -0.1456 -2.0193 -1.3387
  351TMC3    H1 5264   2.150   4.627   9.924  3.1192  1.1047  1.5044
  351TMC3    H2 5265   2.223   4.320   9.644  1.7308  1.5599 -1.1709
  351TMC3    C7 5266   2.125   4.569   9.667  0.2077 -0.0032  0.1935
  351TMC3    C8 5267   2.391   4.187   9.792  0.4591 -0.2382  0.3799
  351TMC3    O1 5268   2.130   4.694   9.673  0.3854  0.4878 -0.0168
  351TMC3    O2 5269   2.441   4.195   9.677  0.2435  0.2802 -0.0244
  352MPD2     C 5270   1.014   2.862   0.934 -0.1766 -0.5887  0.1230
  352MPD2    C1 5271   0.914   2.864   1.030  0.2201 -0.2334 -0.1905
  352MPD2    C2 5272   0.905   2.758   1.115 -0.4103 -0.0122 -0.0553
  352MPD2    C3 5273   1.002   2.658   1.112  0.5620  0.4516 -0.1565
  352MPD2    C4 5274   1.118   2.669   1.035 -0.2836 -0.2355 -0.3061
  352MPD2    C5 5275   1.121   2.777   0.949  0.2322 -0.1040 -0.7152
  352MPD2     H 5276   0.814   2.756   1.174  2.7037  0.7445  4.7423
  352MPD2    H1 5277   1.202   2.602   1.048  0.9746  1.2734 -0.6712
  352MPD2    H2 5278   1.009   2.935   0.854  1.4123 -1.3495 -0.6604
  352MPD2    H3 5279   1.208   2.791   0.887 -0.1222  4.0569 -0.2303
  352MPD2     N 5280   0.997   2.537   1.193 -0.4060  0.4777  0.4745
  352MPD2    H5 5281   1.078   2.477   1.202 -1.8839 -1.1932  2.5735
  352MPD2    N1 5282   0.815   2.968   1.030  0.3905 -0.0336  0.1384
  352MPD2    H7 5283   0.817   3.036   0.954 -0.9006  0.1674  0.2762
  353TMC3    C1 5284   0.899   2.378   1.323  0.0661  0.1521  0.1222
  353TMC3    C2 5285   1.006   2.292   1.303 -0.1645  0.1648  0.0623
  353TMC3    C3 5286   0.996   2.157   1.331  0.3574 -0.0409  0.4207
  353TMC3    C4 5287   0.782   2.335   1.387 -0.7593 -0.2760 -0.3442
  353TMC3    C5 5288   0.774   2.201   1.411 -0.4338  0.0071  0.8495
  353TMC3    C6 5289   0.880   2.112   1.379  0.1211  0.5784 -0.8063
  353TMC3     C 5290   0.889   2.509   1.264 -0.6569 -0.1116  1.0281
  353TMC3     O 5291   0.792   2.580   1.285 -0.1124 -0.3497  0.3928
  353TMC3     H 5292   1.092   2.333   1.250  0.6764 -1.4046  0.2049
  353TMC3    H1 5293   0.694   2.398   1.392 -1.5342 -1.4499  0.6616
  353TMC3    H2 5294   0.863   2.009   1.406 -1.2873  1.7872  2.9385
  353TMC3    C7 5295   0.656   2.143   1.475  0.5256  0.5191  0.8614
  353TMC3    C8 5296   1.111   2.072   1.313 -0.3312 -0.7331 -0.3687
  353TMC3    O1 5297   0.644   2.021   1.455  0.0968  0.2258 -0.2072
  353TMC3    O2 5298   1.214   2.129   1.285  0.1710  0.1474 -0.0693
  354TMC3    C1 5299   2.909   3.992  13.584  0.0402 -0.4624  0.1624
  354TMC3    C2 5300   2.887   4.096  13.499 -0.1516  1.5018 -0.1455
  354TMC3    C3 5301   2.997   4.142  13.429  0.3322 -0.7693  0.0224
  354TMC3    C4 5302   3.039   3.964  13.615 -0.1912  0.4198  0.0386
  354TMC3    C5 5303   3.147   4.000  13.542 -0.0672 -0.4957  0.4014
  354TMC3    C6 5304   3.125   4.098  13.446  0.4581 -0.1187  0.8595
  354TMC3     C 5305   2.807   3.950  13.679  0.6853  0.1421 -0.5856
  354TMC3     O 5306   2.699   3.924  13.633  0.4136  0.9311 -0.2731
  354TMC3     H 5307   2.786   4.131  13.485 -0.6945 -0.4794 -1.1431
  354TMC3    H1 5308   3.068   3.882  13.681  0.1187 -0.3876 -1.0939
  354TMC3    H2 5309   3.204   4.140  13.384  0.2790  0.8186  1.2709
  354TMC3    C7 5310   3.236   3.886  13.512 -0.2893 -0.2979 -0.0313
  354TMC3    C8 5311   2.971   4.208  13.304  0.1548  0.5655 -0.3480
  354TMC3    O1 5312   3.246   3.801  13.600 -0.2016 -0.5564 -0.0013
  354TMC3    O2 5313   2.895   4.143  13.236 -0.0273  0.5359 -0.5333
  355MPD2     C 5314   2.608   0.245  11.654 -0.2058  0.0448  0.1356
  355MPD2    C1 5315   2.711   0.299  11.581 -0.1767 -0.1599 -0.2878
  355MPD2    C2 5316   2.839   0.273  11.607  0.7241 -0.8281  0.5032
  355MPD2    C3 5317   2.873   0.210  11.722  0.4749 -0.1569 -0.2762
  355MPD2    C4 5318   2.768   0.169  11.809 -0.0118  0.1836  0.1097
  355MPD2    C5 5319   2.639   0.175  11.767 -0.1295  0.4209 -0.3940
  355MPD2     H 5320   2.915   0.311  11.539 -1.0565 -0.7095 -1.4423
  355MPD2    H1 5321   2.791   0.104  11.893  0.4777  1.9771  1.3586
  355MPD2    H2 5322   2.502   0.252  11.636 -0.1656 -1.2582 -0.6449
  355MPD2    H3 5323   2.556   0.139  11.828 -0.4096  0.3621 -0.8088
  355MPD2     N 5324   3.005   0.178  11.755 -0.2870 -0.1844  0.1165
  355MPD2    H5 5325   3.021   0.132  11.844  0.2983  0.5300  0.3870
  355MPD2    N1 5326   2.683   0.379  11.464  0.3130  0.2003  0.9156
  355MPD2    H7 5327   2.756   0.405  11.399 -1.4051 -1.6079 -1.7358
  356TMC3    C1 5328   3.238   0.180  11.751  0.5832 -0.1416 -0.1055
  356TMC3    C2 5329   3.342   0.231  11.674  0.0261 -0.5119 -0.0490
  356TMC3    C3 5330   3.440   0.308  11.730 -0.7694  0.8194  0.0716
  356TMC3    C4 5331   3.236   0.202  11.886  0.3434 -0.8214 -0.3950
  356TMC3    C5 5332   3.326   0.297  11.937 -0.0058  0.1962  0.4941
  356TMC3    C6 5333   3.434   0.347  11.864 -0.6006  0.1856  1.0738
  356TMC3     C 5334   3.112   0.193  11.674  0.1979  1.1216  0.5150
  356TMC3     O 5335   3.115   0.233  11.557 -0.4054  0.8480  0.2908
  356TMC3     H 5336   3.348   0.196  11.572  0.8194 -0.4330 -0.0243
  356TMC3    H1 5337   3.158   0.160  11.949 -0.7311  1.3203 -0.3085
  356TMC3    H2 5338   3.517   0.396  11.914  1.0811 -0.0728 -1.4985
  356TMC3    C7 5339   3.328   0.301  12.081  0.2092 -0.1112  0.4809
  356TMC3    C8 5340   3.548   0.354  11.643  0.3756  0.1710  0.3325
  356TMC3    O1 5341   3.300   0.205  12.143  0.4289 -0.4091 -0.1181
  356TMC3    O2 5342   3.548   0.288  11.540  0.2414 -0.0285 -0.0113
  357MPD2     C 5343   2.870   4.291   0.728 -0.2806 -0.1746  0.1636
  357MPD2    C1 5344   2.885   4.196   0.824 -1.0886 -0.0379 -0.2270
  357MPD2    C2 5345   2.843   4.225   0.953  1.0148 -0.7375  0.0183
  357MPD2    C3 5346   2.809   4.350   0.985  0.1898 -0.2099  0.4251
  357MPD2    C4 5347   2.784   4.444   0.887 -0.8024 -0.2953  0.1815
  357MPD2    C5 5348   2.806   4.409   0.757  0.3100 -0.4199  0.2523
  357MPD2     H 5349   2.847   4.157   1.037  1.3971  0.8318  1.2689
  357MPD2    H1 5350   2.751   4.546   0.906 -0.3031 -0.1347  0.1919
  357MPD2    H2 5351   2.907   4.284   0.626 -1.8620  0.0259 -0.4360
  357MPD2    H3 5352   2.784   4.479   0.678 -1.6615 -0.1409  1.0607
  357MPD2     N 5353   2.780   4.380   1.115 -0.1280 -0.8399 -0.2100
  357MPD2    H5 5354   2.713   4.455   1.131  1.2660  0.7547 -1.9320
  357MPD2    N1 5355   2.951   4.072   0.791 -0.5560 -0.5353  0.3011
  357MPD2    H7 5356   2.968   4.051   0.693 -2.8933  1.5501 -0.5496
  358TMC3    C1 5357   3.076   3.873   0.816 -0.5870 -0.1491  0.0084
  358TMC3    C2 5358   3.069   3.848   0.685  0.5320  0.9012  0.2113
  358TMC3    C3 5359   3.122   3.734   0.638  0.0937  0.1687  0.1230
  358TMC3    C4 5360   3.149   3.789   0.893 -0.3806  0.2244 -0.0658
  358TMC3    C5 5361   3.218   3.682   0.845  0.4143 -0.7555  0.2435
  358TMC3    C6 5362   3.202   3.650   0.710 -0.3099  0.1481  0.3467
  358TMC3     C 5363   3.002   3.979   0.882 -0.1087 -0.2483  0.1601
  358TMC3     O 5364   3.007   3.983   1.002  1.0486 -0.1520  0.2957
  358TMC3     H 5365   3.020   3.913   0.614  0.8338  0.6670 -0.2065
  358TMC3    H1 5366   3.161   3.833   0.991  0.3596 -1.3490  0.5565
  358TMC3    H2 5367   3.226   3.552   0.672 -0.0277 -0.4248  2.0417
  358TMC3    C7 5368   3.346   3.633   0.908  0.2194  0.0979  0.5526
  358TMC3    C8 5369   3.078   3.692   0.504 -0.3603 -0.2036 -0.0430
  358TMC3    O1 5370   3.437   3.607   0.837 -0.0151 -0.3657 -0.0477
  358TMC3    O2 5371   3.072   3.779   0.418  0.5616  0.0379  0.3165
  359MPD2     C 5372   3.192   4.079  12.502 -0.3211 -0.4435  0.2962
  359MPD2    C1 5373   3.104   4.045  12.402  0.5940 -0.2401  0.0939
  359MPD2    C2 5374   2.985   3.981  12.439  0.4776  0.0863 -0.7092
  359MPD2    C3 5375   2.958   3.936  12.566 -0.5381 -0.4110 -0.5023
  359MPD2    C4 5376   3.047   3.979  12.663 -0.2070 -0.0936  0.1550
  359MPD2    C5 5377   3.167   4.039  12.627 -0.0509  0.1882 -0.0702
  359MPD2     H 5378   2.921   3.968  12.353 -0.3029 -1.9556  0.1704
  359MPD2    H1 5379   3.033   3.957  12.769  1.2388 -1.4596  0.0740
  359MPD2    H2 5380   3.288   4.124  12.478 -1.1602  0.6735 -0.9437
  359MPD2    H3 5381   3.239   4.063  12.705 -0.7483  1.1458  0.2789
  359MPD2     N 5382   2.837   3.862  12.599  0.8450  0.1362  0.5355
  359MPD2    H5 5383   2.842   3.830  12.695  1.8635 -2.0602 -0.2481
  359MPD2    N1 5384   3.124   4.077  12.262  0.5511 -0.2261 -0.1943
  359MPD2    H7 5385   3.056   4.041  12.196 -1.3789  0.6239  1.3208
  360TMC3    C1 5386   3.203   4.156  12.062 -0.8025  0.6308 -1.0334
  360TMC3    C2 5387   3.317   4.189  11.990  0.3842  0.0195 -0.0898
  360TMC3    C3 5388   3.301   4.239  11.861 -0.1002  0.0454 -0.1663
  360TMC3    C4 5389   3.082   4.157  11.996  1.2306 -0.4603  0.1100
  360TMC3    C5 5390   3.075   4.202  11.866 -0.3158 -0.3173  0.6488
  360TMC3    C6 5391   3.182   4.244  11.793 -0.1376  0.0358  0.6968
  360TMC3     C 5392   3.227   4.146  12.204 -0.6683 -0.5813 -0.4925
  360TMC3     O 5393   3.333   4.191  12.243  0.0075 -0.0654 -0.2403
  360TMC3     H 5394   3.407   4.219  12.043  1.4794 -0.7450 -1.5165
  360TMC3    H1 5395   2.993   4.158  12.058  0.4278 -2.3275 -1.0180
  360TMC3    H2 5396   3.173   4.283  11.692 -2.0011  0.8660  1.1860
  360TMC3    C7 5397   2.976   4.133  11.787  0.1593 -0.2559  0.6219
  360TMC3    C8 5398   3.413   4.291  11.790  0.5581 -0.3986 -0.2754
  360TMC3    O1 5399   2.986   4.144  11.665  0.0402 -0.0194 -0.0425
  360TMC3    O2 5400   3.416   4.400  11.733  0.0404 -0.5283 -0.2827
  361MPD2     C 5401   0.142   1.962  16.497 -0.1765  0.2696 -0.0400
  361MPD2    C1 5402   0.104   1.969  16.629 -0.0469 -0.1248 -0.1600
  361MPD2    C2 5403   0.173   1.900  16.721  0.3844  0.0311 -0.6868
  361MPD2    C3 5404   0.281   1.825  16.685 -0.1104  0.6988 -0.3463
  361MPD2    C4 5405   0.307   1.802  16.553  0.4522 -0.4478  0.1862
  361MPD2    C5 5406   0.242   1.876  16.458  0.0028 -0.7346 -0.2937
  361MPD2     H 5407   0.152   1.918  16.826 -0.0791 -0.2912 -0.7258
  361MPD2    H1 5408   0.386   1.731  16.530  0.0377 -0.3707 -1.4121
  361MPD2    H2 5409   0.097   2.020  16.417 -1.6662 -1.3349 -0.3622
  361MPD2    H3 5410   0.261   1.865  16.352  0.8458  2.9042 -0.4929
  361MPD2     N 5411   0.370   1.761  16.773  0.5718 -0.7996  0.6251
  361MPD2    H5 5412   0.431   1.694  16.727  1.6205  1.5697 -1.4833
  361MPD2    N1 5413   4.720   2.047  16.672  0.4287 -0.0882  0.2308
  361MPD2    H7 5414   4.705   2.047  16.773 -2.7698 -0.6005 -0.2472
  362TMC3    C1 5415   4.548   2.216  16.665  0.1773 -0.4160  0.5946
  362TMC3    C2 5416   4.556   2.234  16.804 -0.3127 -0.7663 -0.4793
  362TMC3    C3 5417   4.478   2.338  16.855 -0.0997 -0.7959 -0.6896
  362TMC3    C4 5418   4.462   2.282  16.584 -0.2126  0.3181 -0.5113
  362TMC3    C5 5419   4.381   2.380  16.642  0.1671 -0.5479  0.3415
  362TMC3    C6 5420   4.402   2.413  16.768  0.5935 -0.0566 -0.6813
  362TMC3     C 5421   4.636   2.120  16.590 -0.4875 -0.2212  0.7770
  362TMC3     O 5422   4.629   2.114  16.466 -0.0587  0.2901  0.1043
  362TMC3     H 5423   4.618   2.176  16.870 -0.1193 -2.0077 -1.7483
  362TMC3    H1 5424   4.441   2.247  16.484 -0.6496  2.1098 -1.0450
  362TMC3    H2 5425   4.367   2.511  16.798  1.8817  0.3316 -0.4554
  362TMC3    C7 5426   4.331   2.483  16.553  0.0430  0.4860 -0.7606
  362TMC3    C8 5427   4.480   2.351  16.993 -0.7182  0.6484  0.1679
  362TMC3    O1 5428   4.385   2.594  16.559  1.0515  0.7768  0.3341
  362TMC3    O2 5429   4.547   2.274  17.058 -0.1363  0.5397  0.1621
  363TMC3    C1 5430   2.838   0.099   9.946  0.3359  0.1168  0.1446
  363TMC3    C2 5431   2.850   4.693   9.991  0.3811 -0.1336 -0.4844
  363TMC3    C3 5432   2.737   4.621   9.996 -0.1701 -0.7023 -0.1639
  363TMC3    C4 5433   2.720   0.159   9.909 -0.2483  0.2053  0.1278
  363TMC3    C5 5434   2.610   0.080   9.929  0.8202 -0.0108  0.2913
  363TMC3    C6 5435   2.617   4.672   9.971  0.1104 -0.5362  0.0579
  363TMC3     C 5436   2.961   0.162   9.895  0.3120  0.3765 -0.2319
  363TMC3     O 5437   3.055   0.103   9.845  0.3118  0.0448  0.1737
  363TMC3     H 5438   2.951   4.656  10.004  1.1849  2.0551 -0.5118
  363TMC3    H1 5439   2.713   0.257   9.862 -1.1867 -0.4108 -1.0100
  363TMC3    H2 5440   2.524   4.619   9.991 -0.1122 -0.8096 -1.7285
  363TMC3    C7 5441   2.475   0.127   9.904 -0.3236 -0.0352 -1.0337
  363TMC3    C8 5442   2.740   4.472  10.005 -0.1536 -0.5034  0.1795
  363TMC3    O1 5443   2.379   0.048   9.901 -0.0348 -0.4124  0.1109
  363TMC3    O2 5444   2.631   4.414  10.001 -0.3885  0.5366 -0.0312
  364MPD2     C 5445   1.538   4.308  10.329  0.7643  0.2309 -0.2442
  364MPD2    C1 5446   1.671   4.332  10.349 -0.1126 -1.0379  1.0690
  364MPD2    C2 5447   1.729   4.242  10.435  0.4424  0.1996  0.0260
  364MPD2    C3 5448   1.666   4.127  10.480  0.2716  0.1328 -0.5386
  364MPD2    C4 5449   1.540   4.098  10.444 -0.1736 -0.5805 -0.3425
  364MPD2    C5 5450   1.478   4.195  10.367  0.1659  0.6789  0.0142
  364MPD2     H 5451   1.829   4.269  10.469  1.4739 -0.8848 -2.1379
  364MPD2    H1 5452   1.487   4.012  10.485 -1.0162  1.1223  2.1407
  364MPD2    H2 5453   1.474   4.376  10.274  0.8743  1.2475  0.8934
  364MPD2    H3 5454   1.376   4.183  10.333  0.2147 -1.0691  0.4962
  364MPD2     N 5455   1.730   4.039  10.577  0.1890 -1.1041 -0.1055
  364MPD2    H5 5456   1.691   3.945  10.582  0.4479 -1.0836  1.9573
  364MPD2    N1 5457   1.730   4.450  10.296  0.3608 -0.5794  0.2933
  364MPD2    H7 5458   1.666   4.524  10.268 -0.9367 -0.5849  3.2288
  365TMC3    C1 5459   1.880   4.606  10.249  0.1310  0.3244 -0.4596
  365TMC3    C2 5460   1.806   4.643  10.138 -0.6786 -0.3552 -0.3563
  365TMC3    C3 5461   1.820   0.044  10.092  0.2994 -0.7054 -0.1413
  365TMC3    C4 5462   1.966   4.693  10.312  0.7365  0.0955  0.0290
  365TMC3    C5 5463   1.978   0.097  10.264 -0.6864  1.1942 -0.1902
  365TMC3    C6 5464   1.910   0.129  10.149 -0.4638  0.7400  0.2364
  365TMC3     C 5465   1.857   4.493  10.321 -0.5626 -0.7525 -0.9781
  365TMC3     O 5466   1.950   4.437  10.377  0.0047 -0.7930 -0.2618
  365TMC3     H 5467   1.752   4.568  10.081  1.3527 -1.2052 -1.1530
  365TMC3    H1 5468   2.007   4.655  10.405  1.6568  2.1320  0.4597
  365TMC3    H2 5469   1.908   0.229  10.107 -0.0033  0.1252 -1.2644
  365TMC3    C7 5470   1.990   0.211  10.356  0.8582  0.0433 -0.3576
  365TMC3    C8 5471   1.718   0.103  10.014 -0.0680  0.4173 -0.0196
  365TMC3    O1 5472   2.012   0.321  10.306 -0.1034 -0.3076  0.0191
  365TMC3    O2 5473   1.738   0.212   9.958  0.5697 -0.0888  0.0037
  366MPD2     C 5474   0.761   0.097  15.295  1.0584 -0.1092  0.3557
  366MPD2    C1 5475   0.699   0.191  15.220  0.0258 -0.0023  0.1046
  366MPD2    C2 5476   0.732   0.200  15.089  0.0344  0.1798 -0.2955
  366MPD2    C3 5477   0.848   0.136  15.036  0.5188 -0.3210 -0.1468
  366MPD2    C4 5478   0.905   0.035  15.114 -0.4591 -0.0165  0.1392
  366MPD2    C5 5479   0.860   0.011  15.242 -0.0138  0.6556 -0.5566
  366MPD2     H 5480   0.669   0.271  15.036  0.1533  0.7635  0.3492
  366MPD2    H1 5481   0.991   4.706  15.076 -0.0068  1.1196 -0.4305
  366MPD2    H2 5482   0.729   0.071  15.395  0.9127  0.5091  0.4709
  366MPD2    H3 5483   0.890   4.650  15.301  0.7665  0.6812 -0.9191
  366MPD2     N 5484   0.907   0.172  14.915 -0.2205 -0.0256  0.0602
  366MPD2    H5 5485   0.969   0.099  14.881  0.2435  0.8220 -0.9076
  366MPD2    N1 5486   0.600   0.279  15.275  0.2219  0.5730  0.2244
  366MPD2    H7 5487   0.548   0.341  15.213 -1.4382 -0.8296  0.2075
  367TMC3    C1 5488   0.497   0.402  15.446  0.2063  0.0671  0.2548
  367TMC3    C2 5489   0.561   0.470  15.549 -0.0963 -0.8124  0.1525
  367TMC3    C3 5490   0.564   0.612  15.544 -0.3061 -0.6388  0.4564
  367TMC3    C4 5491   0.424   0.469  15.350 -0.2414  0.4327 -0.7131
  367TMC3    C5 5492   0.417   0.609  15.357  0.3705  0.0585 -0.5125
  367TMC3    C6 5493   0.491   0.679  15.448 -0.6007 -0.1578 -0.1741
  367TMC3     C 5494   0.572   0.290  15.409  0.2085 -0.3401 -0.2718
  367TMC3     O 5495   0.609   0.224  15.503  0.7743  0.0546  0.2791
  367TMC3     H 5496   0.628   0.422  15.619  0.8651  1.0456  0.5168
  367TMC3    H1 5497   0.366   0.418  15.275 -1.2946 -0.2760  0.5776
  367TMC3    H2 5498   0.481   0.787  15.446  1.3277  0.0916  3.1460
  367TMC3    C7 5499   0.304   0.681  15.295 -0.1162  0.2292 -0.9242
  367TMC3    C8 5500   0.686   0.668  15.593  0.5355 -0.0084  0.0363
  367TMC3    O1 5501   0.292   0.802  15.307  0.1144  0.0955  0.3175
  367TMC3    O2 5502   0.739   0.615  15.692  0.3956 -0.9828 -0.4344
  368MPD2     C 5503   1.833   2.460  13.493  0.2026  0.0457 -0.0023
  368MPD2    C1 5504   1.791   2.536  13.390 -0.2876 -0.3117  0.3146
  368MPD2    C2 5505   1.890   2.585  13.303 -0.0868  0.0838  0.4712
  368MPD2    C3 5506   2.023   2.567  13.324 -0.0923  0.5144 -0.2288
  368MPD2    C4 5507   2.058   2.493  13.435  0.5403  0.1615 -0.3454
  368MPD2    C5 5508   1.965   2.445  13.521 -0.1936  0.0310  0.1643
  368MPD2     H 5509   1.854   2.651  13.225 -1.4412 -1.3275 -0.0913
  368MPD2    H1 5510   2.159   2.488  13.473 -0.8171 -0.3980  3.1602
  368MPD2    H2 5511   1.764   2.408  13.560  0.6335 -1.4137 -0.6983
  368MPD2    H3 5512   2.000   2.388  13.607 -1.4196  0.4028  0.9123
  368MPD2     N 5513   2.123   2.639  13.258 -0.0892  0.4211  0.2544
  368MPD2    H5 5514   2.215   2.628  13.301 -1.0368 -1.5934  1.7485
  368MPD2    N1 5515   1.652   2.549  13.378  0.4372 -0.6604  0.3705
  368MPD2    H7 5516   1.585   2.502  13.438  0.0816 -0.3132  0.2455
  369TMC3    C1 5517   1.453   2.638  13.290  0.0807  0.2848  0.5384
  369TMC3    C2 5518   1.387   2.743  13.236  0.4639 -0.0380 -0.5005
  369TMC3    C3 5519   1.252   2.755  13.268  0.2113  0.3883 -0.2296
  369TMC3    C4 5520   1.395   2.530  13.359 -0.5827 -0.1848  0.3021
  369TMC3    C5 5521   1.264   2.542  13.387 -0.8302  0.3342 -0.5610
  369TMC3    C6 5522   1.187   2.649  13.335  0.2691 -0.5030  0.0114
  369TMC3     C 5523   1.596   2.640  13.285  0.4893 -0.2314 -0.3357
  369TMC3     O 5524   1.651   2.724  13.221  0.4015  0.1316  0.1745
  369TMC3     H 5525   1.441   2.815  13.175  0.4210  1.1867  0.9067
  369TMC3    H1 5526   1.442   2.436  13.384 -0.8658 -0.5223 -0.4402
  369TMC3    H2 5527   1.083   2.657  13.366  0.4038  3.3686 -0.4973
  369TMC3    C7 5528   1.202   2.428  13.463 -0.5723  0.3970 -0.1632
  369TMC3    C8 5529   1.165   2.827  13.178 -0.7034 -0.2276 -0.1013
  369TMC3    O1 5530   1.281   2.379  13.535  0.1405 -0.1882 -0.1216
  369TMC3    O2 5531   1.049   2.831  13.204  0.1993 -0.0159  0.6138
  370TMC3    C1 5532   1.270   2.831  16.591  0.6179 -0.7745  0.0600
  370TMC3    C2 5533   1.220   2.748  16.694  0.1366  0.1229 -0.3926
  370TMC3    C3 5534   1.175   2.620  16.660  0.1375 -1.0043 -0.1664
  370TMC3    C4 5535   1.289   2.777  16.468 -0.6255 -0.4576  0.0694
  370TMC3    C5 5536   1.246   2.650  16.440  0.4716 -0.3520  0.6084
  370TMC3    C6 5537   1.194   2.564  16.536  1.0221  0.2381 -0.5341
  370TMC3     C 5538   1.360   2.943  16.631 -0.5398 -0.0748  0.0806
  370TMC3     O 5539   1.397   2.943  16.746 -0.0107 -1.1308 -0.4225
  370TMC3     H 5540   1.218   2.784  16.796 -1.7875 -0.7517 -0.1336
  370TMC3    H1 5541   1.356   2.820  16.394 -0.6570  0.1382  0.3931
  370TMC3    H2 5542   1.159   2.464  16.512  1.1053 -0.2622  1.4856
  370TMC3    C7 5543   1.302   2.593  16.314  0.4802 -0.6499  0.3817
  370TMC3    C8 5544   1.117   2.530  16.762  0.2825 -0.0414 -0.7806
  370TMC3    O1 5545   1.347   2.673  16.230 -0.2671  0.1745 -0.3090
  370TMC3    O2 5546   1.114   2.411  16.735  0.1994  0.0443 -0.1682
  371TMC3    C1 5547   2.422   0.885  15.808  0.0386 -0.7104 -0.2815
  371TMC3    C2 5548   2.288   0.905  15.840  0.3193  0.9178  0.3938
  371TMC3    C3 5549   2.244   1.037  15.831 -0.1214  0.2196 -0.4046
  371TMC3    C4 5550   2.506   0.988  15.783 -0.4969 -0.2146 -0.5325
  371TMC3    C5 5551   2.456   1.111  15.776 -0.1647 -0.4172 -0.0040
  371TMC3    C6 5552   2.328   1.142  15.798 -0.0962 -0.1927 -0.2749
  371TMC3     C 5553   2.489   0.757  15.807 -0.8330  0.3340  0.1072
  371TMC3     O 5554   2.609   0.756  15.803  0.2056 -0.3403  0.0037
  371TMC3     H 5555   2.221   0.821  15.850  1.4464  0.0102  0.2859
  371TMC3    H1 5556   2.613   0.974  15.773 -0.7803 -1.9043 -1.2077
  371TMC3    H2 5557   2.303   1.247  15.789 -1.7875 -0.4807  1.1391
  371TMC3    C7 5558   2.524   1.189  15.668  0.8733 -0.1545  0.1672
  371TMC3    C8 5559   2.108   1.052  15.886 -0.2204 -0.3956 -0.0700
  371TMC3    O1 5560   2.476   1.296  15.650 -0.0200  0.1616  0.4301
  371TMC3    O2 5561   2.034   0.955  15.874 -0.0439  0.1704  0.1170
  372MPD2     C 5562   1.354   2.729  13.688  0.7580  1.0574 -0.1964
  372MPD2    C1 5563   1.479   2.666  13.700  0.3339  0.1926 -0.0173
  372MPD2    C2 5564   1.491   2.543  13.760  0.2882  0.2065 -0.2985
  372MPD2    C3 5565   1.384   2.480  13.816 -0.1739 -0.2185 -0.0652
  372MPD2    C4 5566   1.261   2.539  13.807 -0.2163 -1.4024  0.4370
  372MPD2    C5 5567   1.249   2.663  13.750 -0.5263  0.4783  0.6618
  372MPD2     H 5568   1.587   2.494  13.764 -0.3390 -1.1697 -1.7066
  372MPD2    H1 5569   1.176   2.503  13.863 -0.1120 -1.4664  0.5539
  372MPD2    H2 5570   1.339   2.823  13.636 -0.7538  0.9180 -0.0105
  372MPD2    H3 5571   1.150   2.708  13.754 -1.1043 -0.6868 -0.6118
  372MPD2     N 5572   1.397   2.344  13.871  0.2863  0.2989  0.9282
  372MPD2    H5 5573   1.487   2.297  13.877  0.8178  1.4320  1.9084
  372MPD2    N1 5574   1.596   2.731  13.649  0.7521 -0.4545 -0.5664
  372MPD2    H7 5575   1.680   2.678  13.669  1.7902  1.1699 -0.5922
  373TMC3    C1 5576   1.331   2.137  13.969 -0.2692  0.2476  0.0517
  373TMC3    C2 5577   1.300   2.095  14.097 -0.0961  0.1303  0.0555
  373TMC3    C3 5578   1.361   1.974  14.136  0.0167 -0.3865 -0.0112
  373TMC3    C4 5579   1.410   2.068  13.882  0.0461 -0.0760  0.8324
  373TMC3    C5 5580   1.470   1.958  13.931  0.3432 -0.2880 -0.6589
  373TMC3    C6 5581   1.443   1.907  14.046 -0.5540  0.2189 -0.1167
  373TMC3     C 5582   1.286   2.270  13.921  0.3708 -0.5506  0.3177
  373TMC3     O 5583   1.164   2.291  13.918 -0.4826  0.0591 -0.1018
  373TMC3     H 5584   1.240   2.154  14.164  0.1992  1.4877 -0.8803
  373TMC3    H1 5585   1.436   2.106  13.784  0.3835  0.3463  1.0865
  373TMC3    H2 5586   1.474   1.805  14.068 -0.1695  0.2913 -0.3193
  373TMC3    C7 5587   1.587   1.902  13.860  0.1138  0.1322  0.0116
  373TMC3    C8 5588   1.404   1.954  14.281 -0.5403 -0.0236 -0.4326
  373TMC3    O1 5589   1.592   1.912  13.739  0.0406  0.2457 -0.4990
  373TMC3    O2 5590   1.513   1.901  14.304  1.0886  0.0080  0.1459
  374TMC3    C1 5591   2.317   2.224   9.780  0.4173  0.6706 -0.1166
  374TMC3    C2 5592   2.265   2.344   9.823 -0.5687  0.0641  0.4913
  374TMC3    C3 5593   2.134   2.338   9.850  0.6266 -0.6507 -0.4838
  374TMC3    C4 5594   2.232   2.111   9.764  0.1389  0.1140  0.3189
  374TMC3    C5 5595   2.104   2.109   9.797 -0.1541 -0.2266  0.0365
  374TMC3    C6 5596   2.052   2.226   9.850 -0.3658 -0.0933 -1.0607
  374TMC3     C 5597   2.464   2.208   9.759  0.8580  0.0935  0.2027
  374TMC3     O 5598   2.496   2.136   9.664  0.4128 -0.4311  0.4028
  374TMC3     H 5599   2.333   2.428   9.810 -0.5679  0.6783  4.2555
  374TMC3    H1 5600   2.292   2.021   9.756 -0.1640  0.0178 -0.9150
  374TMC3    H2 5601   1.949   2.232   9.885  0.1378 -1.2223  0.6610
  374TMC3    C7 5602   2.047   1.982   9.820 -0.5194 -0.3882 -0.3196
  374TMC3    C8 5603   2.067   2.461   9.895  0.6457  0.0014  0.1495
  374TMC3    O1 5604   2.126   1.890   9.809 -0.3717  0.1255  0.8373
  374TMC3    O2 5605   1.947   2.467   9.877  0.5498 -0.3300  0.1235
  375MPD2     C 5606   2.647   2.904  17.311  0.3600  0.4601  0.4731
  375MPD2    C1 5607   2.567   2.987  17.234  0.7757  0.3055 -0.9910
  375MPD2    C2 5608   2.590   2.995  17.100 -0.1000  0.7706 -0.1821
  375MPD2    C3 5609   2.702   2.937  17.043 -0.0413  0.4738  0.4825
  375MPD2    C4 5610   2.775   2.849  17.121 -0.4849  0.6190  0.0066
  375MPD2    C5 5611   2.744   2.828  17.250 -0.1265 -0.4320 -0.6032
  375MPD2     H 5612   2.539   3.070  17.041  0.1061  1.4718  0.5267
  375MPD2    H1 5613   2.848   2.783  17.075  2.2972  2.5147  1.6851
  375MPD2    H2 5614   2.623   2.889  17.416  3.8828  1.5835  1.4364
  375MPD2    H3 5615   2.799   2.758  17.312  1.4597  2.5168  1.2969
  375MPD2     N 5616   2.750   2.965  16.913  0.4920  0.1351  0.2666
  375MPD2    H5 5617   2.844   2.935  16.891  0.3104 -1.6405  1.9999
  375MPD2    N1 5618   2.461   3.064  17.292  0.4164  0.0103 -0.1201
  375MPD2    H7 5619   2.403   3.119  17.230 -0.0283  0.0860  0.3542
  376TMC3    C1 5620   2.755   3.058  16.692  0.0012  1.0173  0.4133
  376TMC3    C2 5621   2.886   3.077  16.711 -0.2896 -0.0623  0.1329
  376TMC3    C3 5622   2.961   3.102  16.595  0.3416 -0.0915  0.1278
  376TMC3    C4 5623   2.697   3.071  16.570 -0.0215  0.3088  0.2650
  376TMC3    C5 5624   2.776   3.098  16.466 -0.5380 -0.0142 -0.3525
  376TMC3    C6 5625   2.903   3.126  16.473  0.5050 -0.0843 -0.4773
  376TMC3     C 5626   2.672   3.018  16.807  0.2813  0.5577 -0.1323
  376TMC3     O 5627   2.551   3.037  16.802  0.2557  0.1156 -0.2410
  376TMC3     H 5628   2.939   3.064  16.804  2.6897  0.9544 -1.4155
  376TMC3    H1 5629   2.592   3.052  16.550 -0.0617 -0.6618  1.3782
  376TMC3    H2 5630   2.955   3.159  16.384 -1.8946  0.3231 -1.7249
  376TMC3    C7 5631   2.712   3.095  16.336  0.4440 -0.9424 -0.4421
  376TMC3    C8 5632   3.100   3.104  16.595 -0.3822 -0.0774  0.2859
  376TMC3    O1 5633   2.770   3.157  16.247  0.2933 -0.5122 -0.2705
  376TMC3    O2 5634   3.153   3.163  16.503  0.1651 -0.0580  0.1222
  377MPD2     C 5635   0.371   3.402  11.998  0.9091 -0.0067 -0.0230
  377MPD2    C1 5636   0.398   3.332  12.114  0.9855  0.5507 -0.3170
  377MPD2    C2 5637   0.349   3.383  12.236 -0.2087  0.9237  0.2226
  377MPD2    C3 5638   0.280   3.504  12.240  0.4121 -1.5882  1.1955
  377MPD2    C4 5639   0.252   3.572  12.119 -0.3974 -0.5773 -0.1739
  377MPD2    C5 5640   0.297   3.517  12.004 -0.3852  0.0213 -0.3704
  377MPD2     H 5641   0.365   3.332  12.330  1.4854 -0.1852 -0.6860
  377MPD2    H1 5642   0.202   3.669  12.115  0.0369 -0.2267  3.0636
  377MPD2    H2 5643   0.410   3.375  11.900  3.1816  2.3758  0.2212
  377MPD2    H3 5644   0.281   3.567  11.909 -2.5896  0.3093  0.1643
  377MPD2     N 5645   0.222   3.551  12.353 -0.6271 -0.4636 -0.1925
  377MPD2    H5 5646   0.158   3.627  12.334 -0.4395  0.1787  1.7065
  377MPD2    N1 5647   0.468   3.207  12.109  0.2891 -0.2061  0.0614
  377MPD2    H7 5648   0.507   3.181  12.019  1.1642 -1.8232  0.8922
  378TMC3    C1 5649   0.509   2.804  12.024 -0.3924  0.4765  0.7512
  378TMC3    C2 5650   0.464   2.885  12.119 -0.4841 -0.1647  0.5637
  378TMC3    C3 5651   0.537   2.993  12.158 -0.4199  0.6989  0.5099
  378TMC3    C4 5652   0.641   2.823  11.987 -0.0580 -0.8435 -0.1293
  378TMC3    C5 5653   0.718   2.928  12.034  0.4389  0.5917  0.0752
  378TMC3    C6 5654   0.667   3.016  12.118 -0.0985 -0.6641  0.5737
  378TMC3     C 5655   0.412   2.776  11.915 -0.6897 -0.9630 -0.7702
  378TMC3     O 5656   0.295   2.789  11.940  0.3913 -0.0621  0.5311
  378TMC3     H 5657   0.366   2.873  12.163  0.1207 -1.9114  1.4439
  378TMC3    H1 5658   0.688   2.766  11.908  0.7281  0.3160 -0.5021
  378TMC3    H2 5659   0.719   3.104  12.153 -1.1716 -0.9601  2.8876
  378TMC3    C7 5660   0.837   2.970  11.956  0.0365 -0.1558 -0.0664
  378TMC3    C8 5661   0.478   3.112  12.212 -0.0690  0.7615 -0.3852
  378TMC3    O1 5662   0.860   3.094  11.956  0.3100  0.0039 -0.1493
  378TMC3    O2 5663   0.419   3.106  12.319 -0.0712 -0.0224 -0.1576
  379MPD2     C 5664   1.188   0.354  16.263 -0.7501  0.9017  0.9862
  379MPD2    C1 5665   1.316   0.353  16.211 -0.5987 -1.0388 -0.0708
  379MPD2    C2 5666   1.423   0.295  16.283  0.5531  0.1896 -0.1997
  379MPD2    C3 5667   1.396   0.248  16.413  0.1106  0.2342  0.4169
  379MPD2    C4 5668   1.261   0.252  16.462 -0.5675  0.8583  0.1452
  379MPD2    C5 5669   1.162   0.299  16.387 -0.4210  0.4381  0.4058
  379MPD2     H 5670   1.519   0.290  16.234 -1.3154 -0.5081 -3.7494
  379MPD2    H1 5671   1.228   0.215  16.559  0.6022 -0.9595 -0.1552
  379MPD2    H2 5672   1.109   0.388  16.197  1.0537  0.9185 -1.1836
  379MPD2    H3 5673   1.060   0.283  16.421 -0.1788 -2.1035 -0.0587
  379MPD2     N 5674   1.494   0.184  16.491  0.3059 -0.7968 -0.1559
  379MPD2    H5 5675   1.464   0.145  16.580  1.1752 -0.2495  0.3864
  379MPD2    N1 5676   1.337   0.423  16.090 -0.6021  0.1313 -0.7081
  379MPD2    H7 5677   1.255   0.453  16.038 -0.5983  1.0394 -0.1918
  380TMC3    C1 5678   1.443   0.554  15.928  0.5158 -0.2540  0.6915
  380TMC3    C2 5679   1.551   0.571  15.848  0.6378  0.2269 -0.4487
  380TMC3    C3 5680   1.540   0.637  15.729  0.2088  0.6132  0.0306
  380TMC3    C4 5681   1.319   0.599  15.892 -1.2433 -0.4501  0.7272
  380TMC3    C5 5682   1.313   0.655  15.766 -0.6953 -0.2266  0.0282
  380TMC3    C6 5683   1.415   0.681  15.689  0.4401 -0.5435 -0.1983
  380TMC3     C 5684   1.457   0.469  16.043 -0.5927 -0.3595  0.2106
  380TMC3     O 5685   1.571   0.441  16.081 -0.3264  0.1226 -0.5870
  380TMC3     H 5686   1.647   0.537  15.883 -1.4376 -3.7571  1.3164
  380TMC3    H1 5687   1.234   0.595  15.958 -1.5520  0.6064  0.3916
  380TMC3    H2 5688   1.408   0.747  15.604  1.4844 -1.3755 -0.9263
  380TMC3    C7 5689   1.188   0.720  15.736  0.3051  0.6099  0.1161
  380TMC3    C8 5690   1.657   0.672  15.647 -0.6505 -0.4025  0.0980
  380TMC3    O1 5691   1.100   0.699  15.818 -0.6575  0.4657 -0.2017
  380TMC3    O2 5692   1.649   0.757  15.559  0.3463  0.4263  0.4851
  381TMC3    C1 5693   1.069   1.769  16.633 -1.3318 -0.7915  0.1345
  381TMC3    C2 5694   1.169   1.863  16.592  0.0665 -0.2256  0.1445
  381TMC3    C3 5695   1.172   1.980  16.666 -0.1895 -0.8550  0.1985
  381TMC3    C4 5696   0.989   1.794  16.740 -0.4079  0.7140  0.9660
  381TMC3    C5 5697   0.982   1.921  16.798  0.0071  0.0129  0.5755
  381TMC3    C6 5698   1.076   2.017  16.767 -0.7962  1.5022 -0.4453
  381TMC3     C 5699   1.051   1.639  16.565  0.3340 -0.8080  0.2342
  381TMC3     O 5700   0.999   1.543  16.619  0.1930 -0.2418 -0.3662
  381TMC3     H 5701   1.244   1.838  16.518  1.4365  0.1342  1.4180
  381TMC3    H1 5702   0.920   1.713  16.760 -1.1415  1.2280  0.4815
  381TMC3    H2 5703   1.085   2.103  16.832  1.9319  0.7929  0.1325
  381TMC3    C7 5704   0.965   1.919  16.941  0.3021 -0.9474  0.2124
  381TMC3    C8 5705   1.286   2.067  16.632  0.0797  0.6525  0.2078
  381TMC3    O1 5706   1.010   1.818  16.994 -0.2863  0.6573 -0.0808
  381TMC3    O2 5707   1.344   2.039  16.523 -0.6486 -0.2704  0.8518
  382MPD2     C 5708   0.575   4.428  17.288  0.4898  0.6373  0.0229
  382MPD2    C1 5709   0.490   4.452  17.392 -0.8052  0.9128  0.5422
  382MPD2    C2 5710   0.417   4.347  17.449 -0.5775 -0.3358 -0.2813
  382MPD2    C3 5711   0.445   4.220  17.419 -0.4328 -0.0274 -0.7599
  382MPD2    C4 5712   0.546   4.194  17.331  0.2514 -0.3020  0.4254
  382MPD2    C5 5713   0.608   4.298  17.264  0.3723  0.6266  0.4338
  382MPD2     H 5714   0.334   4.366  17.517  1.2688  1.1448  1.5344
  382MPD2    H1 5715   0.563   4.089  17.309  2.6422  0.1593  0.0588
  382MPD2    H2 5716   0.632   4.503  17.234 -0.3021 -1.1784 -3.3011
  382MPD2    H3 5717   0.678   4.278  17.185 -1.5030 -0.8251 -0.8501
  382MPD2     N 5718   0.373   4.105  17.468  0.0322 -0.5104  0.3933
  382MPD2    H5 5719   0.394   4.013  17.431 -1.0869 -1.3201  1.7742
  382MPD2    N1 5720   0.459   4.588  17.419  0.2063  0.1832  0.2575
  382MPD2    H7 5721   0.377   4.595  17.479  0.4178  1.9803  0.3407
  383TMC3    C1 5722   0.248   3.970  17.590 -0.2851 -0.5726  0.4852
  383TMC3    C2 5723   0.179   3.926  17.476  0.6719 -0.5439 -0.1560
  383TMC3    C3 5724   0.086   3.831  17.504 -0.5159 -0.1490  0.2103
  383TMC3    C4 5725   0.216   3.925   0.018 -0.3200 -0.3060 -0.8582
  383TMC3    C5 5726   0.127   3.822   0.029 -0.5622 -0.2102  0.1962
  383TMC3    C6 5727   0.050   3.788  17.628  0.3687  0.3728  0.3320
  383TMC3     C 5728   0.302   4.103  17.580 -0.6377  0.1358  0.4504
  383TMC3     O 5729   0.301   4.181  17.679  0.1254 -0.0713  0.4027
  383TMC3     H 5730   0.206   3.950  17.374 -1.3715 -0.3227 -0.6455
  383TMC3    H1 5731   0.260   3.974   0.103 -0.1650 -2.3938  0.2589
  383TMC3    H2 5732   4.692   3.718  17.631 -0.5847  1.4349 -0.7710
  383TMC3    C7 5733   0.110   3.747   0.155  0.2097 -0.6807 -1.2107
  383TMC3    C8 5734   4.710   3.815  17.396  0.0376  0.1812  0.2833
  383TMC3    O1 5735   0.038   3.648   0.149 -0.4675  0.1887  0.2589
  383TMC3    O2 5736   4.679   3.921  17.342 -0.9777 -0.1787 -0.0040
  384MPD2     C 5737   2.491   0.895  12.497 -0.7591  0.4174  0.8277
  384MPD2    C1 5738   2.420   0.781  12.518  0.5909 -0.0675  0.4215
  384MPD2    C2 5739   2.450   0.667  12.448 -0.4083 -0.0802 -0.9606
  384MPD2    C3 5740   2.549   0.667  12.349  0.3508 -0.5037  0.5377
  384MPD2    C4 5741   2.620   0.783  12.326 -0.3762  0.0122 -0.3690
  384MPD2    C5 5742   2.581   0.896  12.394 -0.2598  0.5486 -0.5324
  384MPD2     H 5743   2.395   0.579  12.478 -0.8280  0.5937  0.2509
  384MPD2    H1 5744   2.693   0.788  12.247 -0.2249 -0.7260 -0.2804
  384MPD2    H2 5745   2.487   0.981  12.563 -2.1655  3.7484 -3.6556
  384MPD2    H3 5746   2.650   0.980  12.389  1.1139 -0.5306  0.2371
  384MPD2     N 5747   2.551   0.549  12.268  0.3197  0.1931 -0.1147
  384MPD2    H5 5748   2.480   0.482  12.294 -0.0321  0.5428 -0.1720
  384MPD2    N1 5749   2.316   0.777  12.612  0.0597 -0.0037  0.8550
  384MPD2    H7 5750   2.276   0.686  12.636  0.0862 -0.5233 -1.1256
  385TMC3    C1 5751   2.573   0.409  12.102  0.4463  0.2648  0.2480
  385TMC3    C2 5752   2.521   0.415  11.972 -0.0258  0.1332  0.0346
  385TMC3    C3 5753   2.408   0.346  11.937  0.4051 -0.0376 -0.4869
  385TMC3    C4 5754   2.519   0.326  12.192  0.7351  0.3735  0.0372
  385TMC3    C5 5755   2.407   0.259  12.156 -0.0710  0.7719 -0.0158
  385TMC3    C6 5756   2.347   0.269  12.032  1.2323 -1.1954  0.0989
  385TMC3     C 5757   2.613   0.532  12.148  0.1410  0.1728 -0.7622
  385TMC3     O 5758   2.683   0.612  12.088 -0.0777  0.5025 -0.2845
  385TMC3     H 5759   2.551   0.490  11.900 -1.7309 -1.3866 -2.2654
  385TMC3    H1 5760   2.556   0.311  12.293  0.3616 -0.6878  0.0177
  385TMC3    H2 5761   2.252   0.221  12.008 -0.0901  0.3575  2.2470
  385TMC3    C7 5762   2.315   0.291  12.266  0.2159 -0.4400 -0.5509
  385TMC3    C8 5763   2.318   0.415  11.844 -0.4691 -0.0817  0.0823
  385TMC3    O1 5764   2.354   0.375  12.344 -0.0356  0.1674  0.0260
  385TMC3    O2 5765   2.343   0.528  11.812 -0.4229  0.2443 -0.6506
  386TMC3    C1 5766   1.410   3.117  12.126  0.4054 -0.0590  0.4581
  386TMC3    C2 5767   1.427   3.139  11.996  0.2287  0.7492 -0.3834
  386TMC3    C3 5768   1.317   3.195  11.931  0.1634  0.4886  0.0030
  386TMC3    C4 5769   1.300   3.148  12.203  0.1947 -0.4638 -0.4963
  386TMC3    C5 5770   1.197   3.205  12.132  0.1623 -0.0580  0.3173
  386TMC3    C6 5771   1.203   3.227  12.000 -0.6734 -0.8220  0.0731
  386TMC3     C 5772   1.507   3.031  12.205 -0.1350  0.0512  0.5269
  386TMC3     O 5773   1.519   3.053  12.326  0.1594  0.5058 -0.2174
  386TMC3     H 5774   1.523   3.125  11.947  0.7853  1.0441  0.6396
  386TMC3    H1 5775   1.289   3.127  12.308  4.8359  0.4496  0.1865
  386TMC3    H2 5776   1.122   3.269  11.942 -0.1712  1.6167  1.1367
  386TMC3    C7 5777   1.066   3.213  12.203 -0.3400 -0.1541  0.8054
  386TMC3    C8 5778   1.329   3.237  11.793 -0.2031 -0.2068 -0.0784
  386TMC3    O1 5779   1.052   3.145  12.305  0.7621 -0.0200 -0.0707
  386TMC3    O2 5780   1.265   3.340  11.764  0.1733  0.2799  0.1251
  387MPD2     C 5781   3.929   3.411   9.518 -0.2206 -0.1007 -1.1051
  387MPD2    C1 5782   4.061   3.413   9.485 -0.5525 -0.0515 -0.8556
  387MPD2    C2 5783   4.112   3.299   9.426  0.4015  0.9551 -0.3224
  387MPD2    C3 5784   4.048   3.175   9.433 -0.0709  0.5310 -0.6482
  387MPD2    C4 5785   3.925   3.171   9.500  0.7899 -0.3171 -0.1268
  387MPD2    C5 5786   3.862   3.289   9.531 -0.5331 -0.0761 -1.2372
  387MPD2     H 5787   4.208   3.305   9.377 -0.2875 -2.5158 -2.0797
  387MPD2    H1 5788   3.880   3.074   9.517  0.2352 -0.2112 -0.9839
  387MPD2    H2 5789   3.886   3.505   9.551 -1.0575 -1.0298  0.4452
  387MPD2    H3 5790   3.771   3.291   9.590 -0.4708 -1.9964 -1.0736
  387MPD2     N 5791   4.133   3.065   9.393 -0.0555 -0.3359 -0.1261
  387MPD2    H5 5792   4.228   3.085   9.362 -0.7940 -0.7645 -2.7083
  387MPD2    N1 5793   4.138   3.529   9.513  0.5600  0.5205  0.6623
  387MPD2    H7 5794   4.088   3.614   9.537  0.7464  0.8168  0.0160
  388TMC3    C1 5795   4.336   3.659   9.530 -0.0078  0.1381 -0.0239
  388TMC3    C2 5796   4.282   3.717   9.644 -0.3690 -0.1669  0.8182
  388TMC3    C3 5797   4.370   3.775   9.734 -0.4381 -0.3954 -0.3129
  388TMC3    C4 5798   4.467   3.660   9.513 -0.0771 -0.6286  0.4049
  388TMC3    C5 5799   4.557   3.710   9.610 -0.1744  1.1359 -1.3756
  388TMC3    C6 5800   4.507   3.775   9.716  0.2783  0.1678  0.4092
  388TMC3     C 5801   4.272   3.539   9.470 -0.0695 -0.7133 -0.3059
  388TMC3     O 5802   4.344   3.455   9.423  0.2273  0.3565  0.2511
  388TMC3     H 5803   4.176   3.718   9.664 -0.4910 -1.6485  0.2768
  388TMC3    H1 5804   4.507   3.617   9.422  0.6204 -1.0392  0.9063
  388TMC3    H2 5805   4.575   3.832   9.778 -0.2748  0.4113  0.7879
  388TMC3    C7 5806   4.649   3.608   9.659 -0.6428  0.7752 -0.7942
  388TMC3    C8 5807   4.319   3.860   9.836 -0.1916  0.6411 -0.5906
  388TMC3    O1 5808   4.710   3.626   9.767  0.2083 -0.0968  0.0597
  388TMC3    O2 5809   4.210   3.908   9.824 -0.1022  0.6523 -0.8213
  389MPD2     C 5810   3.731   1.751  10.703  0.1930 -0.7117  0.1027
  389MPD2    C1 5811   3.630   1.664  10.679 -0.1565 -0.7159 -0.6505
  389MPD2    C2 5812   3.585   1.576  10.778  0.4103  0.1795  0.1984
  389MPD2    C3 5813   3.663   1.563  10.894  0.5525 -0.6299  0.1835
  389MPD2    C4 5814   3.765   1.650  10.912 -0.2010 -0.0663  0.0108
  389MPD2    C5 5815   3.797   1.757  10.824 -0.2875 -0.1422 -0.2299
  389MPD2     H 5816   3.493   1.519  10.766  0.8862 -0.1408 -1.8204
  389MPD2    H1 5817   3.821   1.646  11.005  0.1521 -2.0830 -0.2850
  389MPD2    H2 5818   3.759   1.810  10.617 -0.2777 -0.9721 -0.2312
  389MPD2    H3 5819   3.886   1.816  10.839 -0.7762  0.3558  0.7330
  389MPD2     N 5820   3.634   1.481  11.006 -0.0804 -0.0448  0.2311
  389MPD2    H5 5821   3.687   1.501  11.090 -0.6382  0.3791  0.4831
  389MPD2    N1 5822   3.579   1.678  10.546 -0.2745  0.1812  0.5139
  389MPD2    H7 5823   3.609   1.762  10.497 -0.1656 -0.8559 -1.1784
  390TMC3    C1 5824   3.510   1.312  11.125 -0.6628 -0.5699  0.1732
  390TMC3    C2 5825   3.391   1.250  11.121  0.4124 -0.7645 -0.1981
  390TMC3    C3 5826   3.327   1.225  11.235 -0.0736 -0.1192 -0.0320
  390TMC3    C4 5827   3.562   1.363  11.241  0.6947  0.1199  0.4993
  390TMC3    C5 5828   3.501   1.329  11.360  0.4208  0.6106 -0.1930
  390TMC3    C6 5829   3.383   1.256  11.352 -0.1488  1.1889 -0.2004
  390TMC3     C 5830   3.536   1.384  11.003  0.4155 -0.3999 -1.2213
  390TMC3     O 5831   3.475   1.345  10.903 -0.1314 -0.2092  0.9522
  390TMC3     H 5832   3.358   1.212  11.025  2.6640 -0.3244 -1.1365
  390TMC3    H1 5833   3.661   1.408  11.246  0.7442  0.0149  0.4579
  390TMC3    H2 5834   3.330   1.255  11.446 -0.2255  1.7126 -0.2392
  390TMC3    C7 5835   3.549   1.403  11.476  0.9839  0.1190 -0.4695
  390TMC3    C8 5836   3.196   1.174  11.213 -0.4640 -0.5025  0.2557
  390TMC3    O1 5837   3.615   1.509  11.464 -0.4970  0.6227  0.0917
  390TMC3    O2 5838   3.181   1.106  11.115  0.3431 -0.1694 -0.7541
  391MPD2     C 5839   2.442   3.325  11.170 -0.0422  0.8075  0.4120
  391MPD2    C1 5840   2.565   3.318  11.119 -0.2453 -0.4515  0.4685
  391MPD2    C2 5841   2.582   3.256  10.993  0.5337 -0.0907  0.3480
  391MPD2    C3 5842   2.475   3.216  10.920  1.0428  0.1451  0.8824
  391MPD2    C4 5843   2.350   3.205  10.983  0.0564 -0.7435 -0.5410
  391MPD2    C5 5844   2.334   3.261  11.106  0.7385 -0.0422  0.6349
  391MPD2     H 5845   2.683   3.245  10.954  0.1369 -0.6100 -0.5378
  391MPD2    H1 5846   2.267   3.162  10.929  0.0585  1.2948 -2.1868
  391MPD2    H2 5847   2.416   3.384  11.258 -1.5690  1.2541 -0.3485
  391MPD2    H3 5848   2.236   3.256  11.151  0.5942  0.9411  0.4354
  391MPD2     N 5849   2.491   3.185  10.783 -0.2277  0.2544  0.2268
  391MPD2    H5 5850   2.587   3.183  10.751  0.0891  0.5768  1.1545
  391MPD2    N1 5851   2.678   3.367  11.193 -0.0299  0.3737 -0.0179
  391MPD2    H7 5852   2.661   3.411  11.283 -1.6937  2.2946 -1.2750
  392TMC3    C1 5853   2.449   3.150  10.552 -0.0400  0.7767 -0.0167
  392TMC3    C2 5854   2.353   3.134  10.447 -0.2167 -0.2953  0.2127
  392TMC3    C3 5855   2.398   3.100  10.323  0.1617 -0.0363  0.2306
  392TMC3    C4 5856   2.582   3.139  10.526  0.6163  0.8524  0.1087
  392TMC3    C5 5857   2.616   3.117  10.396  0.7542  0.0701  0.2642
  392TMC3    C6 5858   2.527   3.093  10.291  0.3544 -0.3983 -0.1019
  392TMC3     C 5859   2.393   3.169  10.683  0.0923  0.5423 -0.2709
  392TMC3     O 5860   2.277   3.193  10.703  0.3498  0.0545  0.1336
  392TMC3     H 5861   2.249   3.156  10.471 -0.1980  0.7406 -0.6802
  392TMC3    H1 5862   2.663   3.134  10.599  1.7118 -1.2583 -1.2520
  392TMC3    H2 5863   2.548   3.066  10.188 -0.9655 -2.1255  0.0919
  392TMC3    C7 5864   2.749   3.155  10.369  0.1977 -0.1158 -0.4956
  392TMC3    C8 5865   2.294   3.072  10.225  0.2224 -0.3914 -0.3812
  392TMC3    O1 5866   2.815   3.225  10.445 -0.1045  0.2578  0.2091
  392TMC3    O2 5867   2.197   3.147  10.229  0.4039 -0.0033  0.1274
  393TMC3    C1 5868   1.327   0.633  10.457  0.8129  0.1818  0.1464
  393TMC3    C2 5869   1.219   0.683  10.524 -0.3995  0.0796  0.4018
  393TMC3    C3 5870   1.213   0.665  10.659  0.1641  0.1124  0.0940
  393TMC3    C4 5871   1.434   0.586  10.523  0.1294 -0.0672  0.4594
  393TMC3    C5 5872   1.430   0.577  10.657  0.5681 -0.2691 -0.4264
  393TMC3    C6 5873   1.316   0.598  10.728 -0.0956 -0.0790  0.0957
  393TMC3     C 5874   1.302   0.609  10.316  0.0547 -0.2722  0.3605
  393TMC3     O 5875   1.393   0.636  10.238  0.2192 -0.4643  0.8972
  393TMC3     H 5876   1.129   0.716  10.474 -0.9006 -1.7661  0.0641
  393TMC3    H1 5877   1.530   0.564  10.477  0.9376 -2.2901  3.2434
  393TMC3    H2 5878   1.318   0.597  10.836 -0.1247  1.7120  0.1065
  393TMC3    C7 5879   1.551   0.614  10.734 -0.1894  0.6425  0.4441
  393TMC3    C8 5880   1.121   0.752  10.732 -0.3776  0.0476 -0.0011
  393TMC3    O1 5881   1.541   0.615  10.855 -0.1488  0.4715  0.4216
  393TMC3    O2 5882   1.082   0.848  10.664  0.0284  0.6241  0.1635
  394TMC3    C1 5883   3.460   1.659  10.354 -0.1088  0.0757 -0.0524
  394TMC3    C2 5884   3.339   1.638  10.300 -0.1814 -0.5414  0.3476
  394TMC3    C3 5885   3.316   1.675  10.171  0.5138  0.3079 -0.0046
  394TMC3    C4 5886   3.563   1.719  10.288 -0.4275 -0.8388 -0.6226
  394TMC3    C5 5887   3.530   1.763  10.163  0.1421 -1.3312  0.0157
  394TMC3    C6 5888   3.405   1.758  10.106 -0.6878  0.2892  0.5613
  394TMC3     C 5889   3.472   1.606  10.489 -0.1349 -0.0898  0.5481
  394TMC3     O 5890   3.401   1.525  10.544  0.3392  0.6431  0.0330
  394TMC3     H 5891   3.276   1.565  10.349 -1.6295 -0.1653 -0.9719
  394TMC3    H1 5892   3.663   1.725  10.330 -0.0027  1.1779 -1.9373
  394TMC3    H2 5893   3.395   1.779  10.000  1.8280 -0.1012  0.2314
  394TMC3    C7 5894   3.625   1.838  10.087  0.8742 -0.3235  0.1026
  394TMC3    C8 5895   3.257   1.571  10.086  1.1880 -0.3860  0.2965
  394TMC3    O1 5896   3.574   1.931  10.025 -0.3025 -0.1773 -0.1390
  394TMC3    O2 5897   3.171   1.601  10.007  0.5119  0.3632 -0.1091
  395TMC3    C1 5898   2.996   3.478  14.127 -0.1578 -0.3141 -0.0952
  395TMC3    C2 5899   2.884   3.479  14.214 -0.2812  0.1201  0.2945
  395TMC3    C3 5900   2.897   3.565  14.322 -0.4607 -0.5884 -0.1768
  395TMC3    C4 5901   3.101   3.560  14.143  0.2977 -0.3489 -0.3887
  395TMC3    C5 5902   3.114   3.633  14.255 -0.3161 -0.3037 -0.1535
  395TMC3    C6 5903   3.012   3.639  14.344 -0.2277  0.4534 -0.6991
  395TMC3     C 5904   3.038   3.350  14.067  0.1805 -0.8191 -0.5230
  395TMC3     O 5905   3.154   3.324  14.094  0.3252  0.1546 -0.1139
  395TMC3     H 5906   2.794   3.422  14.200 -0.2641  0.2623 -0.3652
  395TMC3    H1 5907   3.163   3.571  14.055  1.5946  0.7455  0.6701
  395TMC3    H2 5908   3.016   3.683  14.442 -1.2845  0.2172 -0.5507
  395TMC3    C7 5909   3.248   3.628  14.305 -0.3124 -0.1070  1.0520
  395TMC3    C8 5910   2.834   3.517  14.442 -0.0051  0.4118  0.0144
  395TMC3    O1 5911   3.257   3.689  14.411 -0.0787 -0.4869  0.6952
  395TMC3    O2 5912   2.807   3.603  14.532 -0.7787 -0.3439  0.6406
  396MPD2     C 5913   3.347   4.272  16.705 -0.1395 -0.4484 -0.1632
  396MPD2    C1 5914   3.464   4.305  16.760  0.2928 -0.1053  0.1710
  396MPD2    C2 5915   3.553   4.392  16.694 -0.0901 -0.3195  0.4768
  396MPD2    C3 5916   3.518   4.437  16.570  0.1948  0.0181  0.1150
  396MPD2    C4 5917   3.383   4.432  16.527  0.0246 -0.0926 -0.6287
  396MPD2    C5 5918   3.300   4.355  16.607  0.0782  0.2127  0.0529
  396MPD2     H 5919   3.651   4.408  16.737 -0.3324  1.7661  0.2553
  396MPD2    H1 5920   3.341   4.467  16.434 -0.7107 -0.9768 -0.6297
  396MPD2    H2 5921   3.277   4.203  16.749 -3.1134  1.3556 -2.1180
  396MPD2    H3 5922   3.198   4.336  16.577  0.6236 -0.4903 -1.3345
  396MPD2     N 5923   3.613   4.506  16.503 -0.2234  0.3771 -0.0339
  396MPD2    H5 5924   3.702   4.524  16.550  1.5518 -1.9895 -2.5106
  396MPD2    N1 5925   3.494   4.242  16.885 -0.0384 -0.3073 -0.2700
  396MPD2    H7 5926   3.436   4.169  16.926  1.2366 -0.6242  0.9512
  397TMC3    C1 5927   3.592   4.173  17.084  0.0670 -1.0749  0.1045
  397TMC3    C2 5928   3.709   4.173  17.153  0.5787 -0.2663 -0.2626
  397TMC3    C3 5929   3.775   4.059  17.184 -0.5917  0.7293  1.1252
  397TMC3    C4 5930   3.535   4.050  17.065 -0.5711  0.6077 -0.7086
  397TMC3    C5 5931   3.596   3.938  17.126 -0.0170  0.2340  0.2464
  397TMC3    C6 5932   3.715   3.935  17.188 -0.5336  0.6792 -0.7512
  397TMC3     C 5933   3.600   4.260  16.966  0.6287 -0.5352  0.1590
  397TMC3     O 5934   3.668   4.363  16.966 -0.2475 -0.2698 -0.1749
  397TMC3     H 5935   3.764   4.267  17.143  2.0542 -0.8534  2.3755
  397TMC3    H1 5936   3.434   4.040  17.027 -0.8954 -0.3373  0.4153
  397TMC3    H2 5937   3.759   3.841  17.220  1.7817  2.0597  0.1240
  397TMC3    C7 5938   3.496   3.830  17.151  0.3481  0.0108  0.1534
  397TMC3    C8 5939   3.907   4.060  17.242  0.0342  0.7133 -0.0918
  397TMC3    O1 5940   3.399   3.820  17.078 -0.2522  0.2344  0.3990
  397TMC3    O2 5941   3.934   3.973  17.321  0.3721  0.4120  0.3175
  398MPD2     C 5942   2.485   4.358  17.207  0.1250  0.4376  0.3206
  398MPD2    C1 5943   2.500   4.273  17.315 -0.6327 -0.7288  0.4111
  398MPD2    C2 5944   2.622   4.252  17.364  0.0870  0.2121 -0.3367
  398MPD2    C3 5945   2.728   4.319  17.314  0.3753  0.8069 -0.7505
  398MPD2    C4 5946   2.719   4.396  17.204  0.0558  0.4690 -0.0228
  398MPD2    C5 5947   2.592   4.411  17.148  0.0919 -0.2964 -0.3675
  398MPD2     H 5948   2.632   4.190  17.453 -3.5606 -0.5117 -0.4340
  398MPD2    H1 5949   2.810   4.439  17.164  0.3644  0.6243  0.8494
  398MPD2    H2 5950   2.384   4.379  17.170  0.5019  1.6861 -0.0176
  398MPD2    H3 5951   2.573   4.477  17.065  0.8716  0.9006  0.3965
  398MPD2     N 5952   2.848   4.304  17.382  0.2125 -0.6189 -0.1267
  398MPD2    H5 5953   2.838   4.242  17.462  0.2938 -1.6145 -0.8918
  398MPD2    N1 5954   2.387   4.210  17.371  0.0133  0.5042  0.3572
  398MPD2    H7 5955   2.405   4.134  17.435  1.3259 -0.5384 -1.2404
  399TMC3    C1 5956   2.170   4.153  17.434 -0.2540 -0.3407  0.1140
  399TMC3    C2 5957   2.214   4.041  17.492  0.2334 -0.1657  0.2781
  399TMC3    C3 5958   2.165   4.002  17.608  0.0731  0.8116 -0.2621
  399TMC3    C4 5959   2.062   4.220  17.486  0.3159  0.9925 -0.5957
  399TMC3    C5 5960   2.009   4.178  17.605 -0.3320 -0.1391  0.2697
  399TMC3    C6 5961   2.067   4.069  17.670 -0.9624  0.2638 -0.6276
  399TMC3     C 5962   2.255   4.243  17.357 -0.1095 -0.2861 -0.5366
  399TMC3     O 5963   2.198   4.337  17.308 -0.0967 -0.5302 -0.0220
  399TMC3     H 5964   2.306   3.994  17.460  0.4494  1.3627 -1.3282
  399TMC3    H1 5965   2.033   4.318  17.452 -1.3552  0.1430 -1.6061
  399TMC3    H2 5966   2.009   4.040   0.058  0.2580  1.4024  0.5730
  399TMC3    C7 5967   1.881   4.216  17.658  0.5555 -0.1710  0.5335
  399TMC3    C8 5968   2.188   3.860  17.642 -0.0784 -0.0321  0.0415
  399TMC3    O1 5969   1.827   4.159   0.055  0.3765 -0.0803  0.0938
  399TMC3    O2 5970   2.218   3.786  17.551  1.2976 -0.3050  0.4467
  400TMC3    C1 5971   0.127   3.666  17.005 -0.0320  0.5482  0.1524
  400TMC3    C2 5972   0.029   3.672  16.914 -0.6696 -0.4668 -0.4822
  400TMC3    C3 5973   4.687   3.787  16.888  0.3495 -0.3265  0.5658
  400TMC3    C4 5974   0.155   3.779  17.080 -0.3518  0.2047 -0.3709
  400TMC3    C5 5975   0.085   3.891  17.056  0.4041 -0.1826 -0.7947
  400TMC3    C6 5976   4.711   3.896  16.962  0.3145 -0.5959 -0.0487
  400TMC3     C 5977   0.158   3.538  17.057 -0.2033 -0.7935  0.5548
  400TMC3     O 5978   0.094   3.451  17.005  0.0024  0.6420  0.5031
  400TMC3     H 5979   0.010   3.583  16.855  0.2593  0.4579 -2.1873
  400TMC3    H1 5980   0.220   3.770  17.166 -1.7756 -0.5331  0.6347
  400TMC3    H2 5981   4.664   3.990  16.934  4.1795  1.1040 -0.9276
  400TMC3    C7 5982   0.148   4.014  17.096 -0.1320 -0.3650  0.3059
  400TMC3    C8 5983   4.595   3.795  16.776 -0.5100 -0.1201 -0.2097
  400TMC3    O1 5984   0.269   4.003  17.122 -0.4313  0.3261  0.0173
  400TMC3    O2 5985   4.511   3.885  16.783 -0.2143  0.2474 -0.1394
  401MPD2     C 5986   3.251   2.662   1.287  0.2868  0.2733 -0.0813
  401MPD2    C1 5987   3.335   2.580   1.359  0.4277 -0.2468  0.1141
  401MPD2    C2 5988   3.354   2.448   1.308 -0.2198 -0.4736 -0.2909
  401MPD2    C3 5989   3.287   2.404   1.200  0.2822  0.0974  0.2500
  401MPD2    C4 5990   3.193   2.480   1.141 -0.1431 -0.3605  0.1151
  401MPD2    C5 5991   3.177   2.611   1.181  0.3080 -0.2103  0.1728
  401MPD2     H 5992   3.430   2.381   1.346 -1.8108 -3.2452 -2.0016
  401MPD2    H1 5993   3.138   2.449   1.052 -1.8808  1.8968  0.3938
  401MPD2    H2 5994   3.228   2.764   1.317 -1.2004  0.1772 -0.8621
  401MPD2    H3 5995   3.112   2.677   1.124  1.3103 -1.0922 -1.9909
  401MPD2     N 5996   3.333   2.276   1.152  0.7711  0.4123 -0.7376
  401MPD2    H5 5997   3.409   2.226   1.198  0.2686 -1.1333 -1.5819
  401MPD2    N1 5998   3.419   2.623   1.467 -0.2746  0.6235 -0.0580
  401MPD2    H7 5999   3.484   2.550   1.494  0.0138  1.2180  0.8361
  402TMC3    C1 6000   3.346   2.098   0.999 -0.3165  0.1224 -0.7226
  402TMC3    C2 6001   3.383   2.007   1.096  0.2426  0.0508  0.1619
  402TMC3    C3 6002   3.470   1.908   1.048 -0.2184 -0.5149  0.4454
  402TMC3    C4 6003   3.361   2.080   0.867  1.2500  0.4629  0.7774
  402TMC3    C5 6004   3.455   1.985   0.828  0.2355 -0.3537  0.3412
  402TMC3    C6 6005   3.509   1.903   0.917  0.2620  0.0431  0.0169
  402TMC3     C 6006   3.285   2.230   1.033 -0.1556  0.3413 -0.0203
  402TMC3     O 6007   3.211   2.279   0.950  0.4534 -0.4281  0.0115
  402TMC3     H 6008   3.372   2.026   1.202  1.0362  0.0836  0.2353
  402TMC3    H1 6009   3.332   2.158   0.799  2.1647  0.1600  0.0452
  402TMC3    H2 6010   3.579   1.829   0.880 -2.3928 -2.2385 -0.4294
  402TMC3    C7 6011   3.527   1.997   0.699  0.5442 -0.1854  0.6493
  402TMC3    C8 6012   3.510   1.802   1.137  0.2320  0.0615  0.1089
  402TMC3    O1 6013   3.514   2.106   0.646 -0.5395 -0.8666  0.1858
  402TMC3    O2 6014   3.493   1.686   1.095  0.4216  0.1790  0.2797
  403MPD2     C 6015   1.608   0.758  13.263 -0.1874  0.1853  0.0760
  403MPD2    C1 6016   1.587   0.632  13.312 -0.0844 -1.2619 -0.2552
  403MPD2    C2 6017   1.658   0.591  13.426 -0.2689  0.1143  0.5016
  403MPD2    C3 6018   1.723   0.682  13.508  0.2918  0.5429  0.1100
  403MPD2    C4 6019   1.732   0.818  13.465  0.0948  0.5635  0.3388
  403MPD2    C5 6020   1.680   0.849  13.335  1.2514 -0.3732  0.0812
  403MPD2     H 6021   1.655   0.490  13.466  0.7293  0.4875  1.5013
  403MPD2    H1 6022   1.772   0.895  13.529  0.9788  1.2121 -1.0013
  403MPD2    H2 6023   1.572   0.795  13.167 -0.1282 -2.3218 -0.9057
  403MPD2    H3 6024   1.689   0.954  13.312  1.4847 -0.6107 -0.9154
  403MPD2     N 6025   1.776   0.629  13.628 -0.0119  0.1712 -0.2639
  403MPD2    H5 6026   1.756   0.531  13.643  1.3079 -0.0509  0.0196
  403MPD2    N1 6027   1.494   0.539  13.250  0.0728  0.3278  0.0985
  403MPD2    H7 6028   1.458   0.557  13.156  2.4781 -0.0243 -0.8925
  404TMC3    C1 6029   1.335   0.375  13.235 -0.1351 -0.1871  0.0384
  404TMC3    C2 6030   1.277   0.269  13.301 -0.2990  0.2976 -0.0530
  404TMC3    C3 6031   1.150   0.245  13.283 -0.6965 -0.0732 -0.3663
  404TMC3    C4 6032   1.259   0.454  13.154  0.1931  0.0022 -0.2639
  404TMC3    C5 6033   1.133   0.411  13.127  0.0633  0.0753 -0.6939
  404TMC3    C6 6034   1.082   0.297  13.188 -0.0165 -0.1207  0.6515
  404TMC3     C 6035   1.439   0.427  13.314  0.1814  0.0146 -0.6626
  404TMC3     O 6036   1.471   0.375  13.422 -0.1927 -0.0073  0.6685
  404TMC3     H 6037   1.341   0.203  13.359  0.3604  0.6496 -0.3862
  404TMC3    H1 6038   1.305   0.537  13.101  0.1207  1.2414  1.6384
  404TMC3    H2 6039   0.983   0.258  13.167  0.4233 -0.0859 -1.5638
  404TMC3    C7 6040   1.062   0.482  13.027 -0.4724  0.3257 -0.9482
  404TMC3    C8 6041   1.095   0.143  13.381  1.6151 -0.3875 -0.4374
  404TMC3    O1 6042   1.140   0.548  12.960  0.4286 -0.3017 -0.4728
  404TMC3    O2 6043   1.013   0.060  13.355  0.0480 -0.2224  0.3392
  405MPD2     C 6044   2.250   1.251  14.922 -0.6116 -0.4399  0.0187
  405MPD2    C1 6045   2.146   1.174  14.869  0.6571 -0.0314  0.1632
  405MPD2    C2 6046   2.045   1.234  14.802  0.0802 -0.5065  0.1083
  405MPD2    C3 6047   2.043   1.370  14.782  0.6726 -0.6721  0.1692
  405MPD2    C4 6048   2.141   1.450  14.837  0.8106  0.5260 -0.0816
  405MPD2    C5 6049   2.240   1.390  14.909  0.2901  0.5222  0.7151
  405MPD2     H 6050   1.962   1.176  14.762 -0.5438  0.0157  0.6289
  405MPD2    H1 6051   2.139   1.555  14.812  1.1417 -0.6813 -5.0350
  405MPD2    H2 6052   2.331   1.204  14.975  1.1443  1.3992 -1.0143
  405MPD2    H3 6053   2.330   1.441  14.941  0.0250  0.6690  1.2279
  405MPD2     N 6054   1.936   1.441  14.716 -0.6992 -0.8772  0.1066
  405MPD2    H5 6055   1.942   1.540  14.696  1.1369 -1.3337 -1.5741
  405MPD2    N1 6056   2.152   1.031  14.885  0.8223 -0.0613  0.1795
  405MPD2    H7 6057   2.212   0.995  14.959  1.1149  1.5575  0.7384
  406TMC3    C1 6058   1.540   1.514  14.582 -0.0352  0.2473 -0.3415
  406TMC3    C2 6059   1.511   1.435  14.467 -0.2396 -0.0440  0.6501
  406TMC3    C3 6060   1.612   1.370  14.403  0.2388  0.5582 -0.5062
  406TMC3    C4 6061   1.674   1.532  14.624 -0.4596  0.2326 -0.3958
  406TMC3    C5 6062   1.774   1.470  14.544  0.2516 -0.8250 -0.9225
  406TMC3    C6 6063   1.742   1.400  14.428  0.1875  0.1786 -0.0177
  406TMC3     C 6064   1.439   1.598  14.639 -0.5471  0.8385  0.3396
  406TMC3     O 6065   1.489   1.702  14.684 -0.0069  0.7053 -0.3429
  406TMC3     H 6066   1.407   1.415  14.443 -0.0575 -0.9561  0.6420
  406TMC3    H1 6067   1.701   1.599  14.704 -0.3226  0.0336 -0.2757
  406TMC3    H2 6068   1.818   1.340  14.380 -0.6211 -0.7250 -0.1639
  406TMC3    C7 6069   1.848   1.377  14.628  0.0966 -0.7031 -0.6830
  406TMC3    C8 6070   1.581   1.234  14.350  0.3006  0.3387 -0.0072
  406TMC3    O1 6071   1.832   1.257  14.602  0.0675 -1.1336  0.2941
  406TMC3    O2 6072   1.475   1.217  14.292 -0.1404 -0.0458 -0.0259
  407MPD2     C 6073   3.499   2.765   9.435  0.5550  0.4085 -0.0334
  407MPD2    C1 6074   3.593   2.857   9.469  0.0409  0.4429 -0.1509
  407MPD2    C2 6075   3.664   2.855   9.589  0.4245  0.0627  0.3247
  407MPD2    C3 6076   3.612   2.770   9.687  0.2067  0.5210 -0.1669
  407MPD2    C4 6077   3.515   2.682   9.657  0.4148  0.9644 -0.0833
  407MPD2    C5 6078   3.459   2.676   9.533  0.1703  0.5508  0.0077
  407MPD2     H 6079   3.733   2.936   9.614  1.1953 -1.1569  2.1301
  407MPD2    H1 6080   3.485   2.603   9.725  1.2843  0.2909 -0.4817
  407MPD2    H2 6081   3.440   2.760   9.344 -1.9240 -0.1298  1.6117
  407MPD2    H3 6082   3.395   2.597   9.498 -0.9128  1.0196  0.9283
  407MPD2     N 6083   3.662   2.764   9.822 -0.5570  0.4937 -0.0953
  407MPD2    H5 6084   3.609   2.727   9.900 -1.4704 -0.4017 -1.1337
  407MPD2    N1 6085   3.626   2.952   9.373  0.3924  0.8376  0.5197
  407MPD2    H7 6086   3.717   2.995   9.387  0.2160  1.8949 -1.6204
  408TMC3    C1 6087   3.591   3.121   9.215 -0.6599 -0.3732 -0.0706
  408TMC3    C2 6088   3.725   3.130   9.195 -0.1851 -0.1156  0.5724
  408TMC3    C3 6089   3.772   3.241   9.135 -0.0490  0.0148  0.6626
  408TMC3    C4 6090   3.501   3.216   9.183 -0.0406 -0.0681  0.2327
  408TMC3    C5 6091   3.554   3.325   9.118 -0.0880 -0.1804  0.6713
  408TMC3    C6 6092   3.691   3.338   9.087 -0.3216 -0.2571  0.7569
  408TMC3     C 6093   3.547   2.996   9.269  0.4078 -0.0284 -0.4387
  408TMC3     O 6094   3.434   2.959   9.234 -0.0739 -0.4141 -0.2549
  408TMC3     H 6095   3.799   3.056   9.221  0.2695  0.8426  2.0365
  408TMC3    H1 6096   3.394   3.201   9.193 -0.5066  2.4888 -1.0039
  408TMC3    H2 6097   3.722   3.414   9.017  1.6324 -0.2331  1.6531
  408TMC3    C7 6098   3.485   3.452   9.127 -0.6116 -0.4842 -0.2203
  408TMC3    C8 6099   3.915   3.257   9.118  0.1488  0.1490 -0.0278
  408TMC3    O1 6100   3.553   3.547   9.096  0.3502 -0.2762 -0.0099
  408TMC3    O2 6101   3.981   3.155   9.095  0.3582 -0.4599  0.8746
  409MPD2     C 6102   3.776   3.157  16.950 -0.1185  0.0817  0.2004
  409MPD2    C1 6103   3.831   3.230  17.054  0.9252  0.1963  0.2464
  409MPD2    C2 6104   3.870   3.356  17.032 -0.3398 -0.3089  0.5395
  409MPD2    C3 6105   3.855   3.419  16.915  0.3501  0.3202  0.5186
  409MPD2    C4 6106   3.807   3.352  16.809  0.8428 -0.1185 -1.2932
  409MPD2    C5 6107   3.778   3.216  16.827 -0.4854 -0.1123 -0.5233
  409MPD2     H 6108   3.911   3.413  17.114  1.2988 -0.7797  0.0530
  409MPD2    H1 6109   3.797   3.411  16.719  0.4116 -0.0632 -1.2092
  409MPD2    H2 6110   3.741   3.055  16.959 -0.0865  0.1520  1.0621
  409MPD2    H3 6111   3.749   3.158  16.740  0.5919 -0.1792 -0.8361
  409MPD2     N 6112   3.885   3.556  16.906  0.4804 -0.2613 -0.3497
  409MPD2    H5 6113   3.907   3.577  16.809  1.9323 -0.3458 -0.0418
  409MPD2    N1 6114   3.832   3.183  17.189 -0.3552 -0.0379 -0.4725
  409MPD2    H7 6115   3.842   3.249  17.265 -1.9903  0.4418 -0.6749
  410TMC3    C1 6116   3.972   3.759  16.956 -0.5907 -0.6024 -0.0268
  410TMC3    C2 6117   4.079   3.798  17.038  0.4304 -0.6190  0.0754
  410TMC3    C3 6118   4.175   3.873  16.983 -0.3430  0.6627  0.1502
  410TMC3    C4 6119   3.965   3.793  16.827 -0.0094 -0.2666 -0.2056
  410TMC3    C5 6120   4.068   3.861  16.776 -0.3239  0.2459  0.0880
  410TMC3    C6 6121   4.177   3.903  16.848 -0.4149 -0.3990 -0.4940
  410TMC3     C 6122   3.914   3.645  17.006 -0.3215 -0.0409 -0.1154
  410TMC3     O 6123   3.918   3.625  17.130 -0.0090  0.3181  0.6644
  410TMC3     H 6124   4.095   3.767  17.141 -0.7702  3.1319  1.4069
  410TMC3    H1 6125   3.887   3.768  16.757  0.3973  1.0780 -1.1406
  410TMC3    H2 6126   4.263   3.957  16.811 -0.7456 -0.2321 -1.0222
  410TMC3    C7 6127   4.068   3.881  16.630  0.5493  0.6162  0.1555
  410TMC3    C8 6128   4.304   3.851  17.044 -0.2962  0.5964 -0.0918
  410TMC3    O1 6129   3.997   3.803  16.564  0.5263  0.3340 -0.0855
  410TMC3    O2 6130   4.344   3.949  17.109 -0.3303  0.2795 -0.0911
  411MPD2     C 6131   4.181   3.919  14.517  0.8664 -0.3725 -0.1897
  411MPD2    C1 6132   4.075   3.994  14.465 -0.6080  0.1454 -0.5640
  411MPD2    C2 6133   3.995   3.917  14.376 -0.8507  0.2233 -0.4232
  411MPD2    C3 6134   4.026   3.789  14.329 -0.4779  0.0127  0.1335
  411MPD2    C4 6135   4.140   3.731  14.382 -0.7182  0.8640  0.1441
  411MPD2    C5 6136   4.216   3.795  14.477  0.5863  0.7076  0.2897
  411MPD2     H 6137   3.914   3.970  14.327  1.7118  2.8560 -1.7851
  411MPD2    H1 6138   4.181   3.652  14.321 -1.6091  0.2866  0.2892
  411MPD2    H2 6139   4.248   3.975  14.581  1.4258  0.0492 -1.1614
  411MPD2    H3 6140   4.317   3.764  14.499  0.4874  0.4739  0.4145
  411MPD2     N 6141   3.953   3.723  14.225  0.3905 -0.0225 -0.6608
  411MPD2    H5 6142   3.982   3.636  14.184  2.2996  0.3864 -0.1733
  411MPD2    N1 6143   4.044   4.125  14.503  0.3119  0.2349 -0.7425
  411MPD2    H7 6144   3.969   4.173  14.453  0.3348  2.3242  1.2333
  412TMC3    C1 6145   3.789   3.718  14.055 -0.2883  0.1273  0.4589
  412TMC3    C2 6146   3.656   3.716  14.035  0.4402  0.2682  0.5081
  412TMC3    C3 6147   3.608   3.747  13.912  0.0503 -0.0319 -0.0376
  412TMC3    C4 6148   3.877   3.761  13.960 -0.2308 -0.1572 -0.1733
  412TMC3    C5 6149   3.831   3.794  13.828  0.4536  0.1035 -0.3918
  412TMC3    C6 6150   3.692   3.783  13.815  0.5399  0.0151 -0.0856
  412TMC3     C 6151   3.822   3.761  14.189 -0.0298  0.1002  0.2600
  412TMC3     O 6152   3.739   3.830  14.254 -0.0992  0.1548  0.4549
  412TMC3     H 6153   3.587   3.709  14.118  0.4397 -0.4786  0.4432
  412TMC3    H1 6154   3.977   3.787  13.991 -0.1029  0.1329 -0.8291
  412TMC3    H2 6155   3.648   3.821  13.724  1.2740  0.3262 -0.3091
  412TMC3    C7 6156   3.881   3.925  13.780  0.6584 -0.0330 -0.1787
  412TMC3    C8 6157   3.490   3.827  13.920 -0.4801  0.0082  0.2521
  412TMC3    O1 6158   3.819   4.012  13.837 -0.0721 -0.0770 -0.1805
  412TMC3    O2 6159   3.383   3.780  13.967 -0.0491  0.0440 -0.2593
  413MPD2     C 6160   1.091   2.540  15.675  0.5262 -0.4246  0.6547
  413MPD2    C1 6161   1.010   2.465  15.593 -0.1269  0.0187 -1.2856
  413MPD2    C2 6162   1.058   2.342  15.557 -0.6226 -1.1651 -0.0637
  413MPD2    C3 6163   1.180   2.290  15.596 -0.0581  0.1981  0.1989
  413MPD2    C4 6164   1.262   2.372  15.672  0.1819  0.2182 -0.5787
  413MPD2    C5 6165   1.215   2.489  15.715 -0.6235 -0.2154 -0.2513
  413MPD2     H 6166   1.012   2.274  15.486 -0.8067 -0.7875 -0.3028
  413MPD2    H1 6167   1.356   2.334  15.710 -0.6996  0.4060  1.7863
  413MPD2    H2 6168   1.056   2.636  15.712  2.1835  0.3623  0.1987
  413MPD2    H3 6169   1.271   2.538  15.794  0.0005  0.3122 -1.0202
  413MPD2     N 6170   1.209   2.164  15.563 -0.1988  0.1046 -0.5906
  413MPD2    H5 6171   1.134   2.120  15.511  0.6021 -1.9972  0.0449
  413MPD2    N1 6172   0.888   2.515  15.550 -0.2238  0.3771  0.0975
  413MPD2    H7 6173   0.856   2.603  15.589  0.2772  0.4198  0.4107
  414TMC3    C1 6174   1.319   1.977  15.503 -0.0871  0.2417  0.0280
  414TMC3    C2 6175   1.402   1.878  15.550 -0.1277  0.0742 -0.7082
  414TMC3    C3 6176   1.373   1.751  15.505  0.1350 -0.5467  0.6346
  414TMC3    C4 6177   1.241   1.951  15.397 -1.1561 -0.5502  0.0688
  414TMC3    C5 6178   1.233   1.824  15.348 -1.0281 -0.3063  0.8616
  414TMC3    C6 6179   1.285   1.723  15.406  0.2794 -0.3540  0.1999
  414TMC3     C 6180   1.331   2.101  15.568  1.1065  0.0509  0.1826
  414TMC3     O 6181   1.427   2.128  15.633 -0.1194 -0.4231 -0.3554
  414TMC3     H 6182   1.490   1.903  15.608 -1.6751 -0.0761  1.7000
  414TMC3    H1 6183   1.199   2.042  15.355  1.8051  1.8169  2.1765
  414TMC3    H2 6184   1.260   1.624  15.370  0.8887  0.5420 -2.6663
  414TMC3    C7 6185   1.173   1.826  15.219 -0.2405  0.0906 -0.3893
  414TMC3    C8 6186   1.470   1.647  15.541 -0.3463  0.0466  0.3994
  414TMC3    O1 6187   1.069   1.889  15.208  0.7139 -0.4363 -0.6375
  414TMC3    O2 6188   1.472   1.542  15.478 -0.4220 -0.1583  0.4638
  415TMC3    C1 6189   1.194   0.173  10.131 -0.1768  0.4359  0.6967
  415TMC3    C2 6190   1.242   0.243  10.021  0.7329 -0.2726  0.5868
  415TMC3    C3 6191   1.156   0.254   9.917 -0.0169 -0.3015 -0.4540
  415TMC3    C4 6192   1.075   0.118  10.133  0.2646  0.1107 -0.2587
  415TMC3    C5 6193   0.988   0.133  10.029  0.2393 -0.4035  0.7479
  415TMC3    C6 6194   1.036   0.195   9.917 -0.0250  0.7483 -0.2574
  415TMC3     C 6195   1.265   0.181  10.256 -0.3883  0.2907  0.8221
  415TMC3     O 6196   1.220   0.110  10.345  0.2306  0.8865 -0.2819
  415TMC3     H 6197   1.347   0.268  10.012  0.8825 -1.0394  0.2579
  415TMC3    H1 6198   1.053   0.052  10.216 -2.8834  1.5272  0.0453
  415TMC3    H2 6199   0.961   0.200   9.839  0.6267 -0.1180 -0.9370
  415TMC3    C7 6200   0.869   0.052  10.020  0.6813 -0.3146 -0.5538
  415TMC3    C8 6201   1.184   0.301   9.783 -0.5665  0.0103  0.2469
  415TMC3    O1 6202   0.846   0.010   9.908 -0.8050 -0.6816  0.3808
  415TMC3    O2 6203   1.111   0.252   9.695  0.0429 -0.6480  0.4629
  416MPD2     C 6204   3.100   4.362  10.931 -0.1668  0.5201  0.0702
  416MPD2    C1 6205   3.044   4.326  11.054  0.1623 -0.3325  0.2561
  416MPD2    C2 6206   2.997   4.198  11.066  0.5577 -0.0225  0.2763
  416MPD2    C3 6207   3.009   4.102  10.972 -0.4094 -0.0025 -0.0923
  416MPD2    C4 6208   3.064   4.136  10.857  1.0572 -0.0943  0.1007
  416MPD2    C5 6209   3.118   4.262  10.840  0.9053  0.1318  0.1621
  416MPD2     H 6210   2.942   4.170  11.155 -0.5675 -0.1019 -0.4560
  416MPD2    H1 6211   3.070   4.064  10.776 -1.0110  0.2431 -0.3544
  416MPD2    H2 6212   3.116   4.465  10.901  1.4847  0.2149 -0.0614
  416MPD2    H3 6213   3.167   4.286  10.746  0.3266  3.3457  0.6650
  416MPD2     N 6214   2.955   3.975  11.011 -0.4204 -0.0911 -0.4871
  416MPD2    H5 6215   2.914   3.963  11.103 -0.2064  1.0116 -0.2411
  416MPD2    N1 6216   3.036   4.431  11.155 -0.5378 -0.7348 -0.2962
  416MPD2    H7 6217   3.067   4.525  11.133 -2.4058  0.0701  0.5307
  417TMC3    C1 6218   2.994   4.518  11.376 -1.2195 -0.3387  0.5596
  417TMC3    C2 6219   3.013   4.507  11.508 -0.7794  0.5726 -0.2049
  417TMC3    C3 6220   2.929   4.572  11.594 -0.4479  0.5274 -0.2805
  417TMC3    C4 6221   2.914   4.618  11.326  0.2605 -0.3662 -0.5527
  417TMC3    C5 6222   2.821   4.674  11.410  0.1544 -0.1851 -0.1135
  417TMC3    C6 6223   2.826   4.651  11.546  0.5639  0.4359 -0.1015
  417TMC3     C 6224   3.021   4.399  11.293  0.1467  0.3792 -0.1198
  417TMC3     O 6225   3.027   4.292  11.354  0.0396 -0.3181 -0.7091
  417TMC3     H 6226   3.090   4.436  11.536 -0.8140  1.4824  2.1526
  417TMC3    H1 6227   2.894   4.634  11.221  1.2778 -1.3667 -0.9058
  417TMC3    H2 6228   2.754   4.682  11.621 -0.7703  0.5512 -1.4313
  417TMC3    C7 6229   2.735   0.040  11.343  0.1157  0.0173  0.1531
  417TMC3    C8 6230   2.947   4.553  11.735  0.4681  0.3740 -1.1279
  417TMC3    O1 6231   2.780   0.094  11.243  0.0185 -0.1571  0.5727
  417TMC3    O2 6232   2.846   4.553  11.807 -0.0765 -0.0115 -0.0135
  418TMC3    C1 6233   2.993   4.141  17.633 -0.0750  0.7025 -0.4732
  418TMC3    C2 6234   3.011   4.177  17.504  0.4139  0.9119 -0.1085
  418TMC3    C3 6235   3.057   4.306  17.467 -0.0996 -0.3746  0.2529
  418TMC3    C4 6236   3.038   4.223   0.028  0.4393 -0.3007 -0.2920
  418TMC3    C5 6237   3.087   4.347  17.690  0.2999  0.4183  0.2243
  418TMC3    C6 6238   3.095   4.391  17.567 -0.3363  0.9677  0.5201
  418TMC3     C 6239   2.878   4.055  17.651  0.5463  0.0736 -0.3321
  418TMC3     O 6240   2.807   4.039  17.551 -0.2174 -0.2584  0.4344
  418TMC3     H 6241   2.976   4.108  17.427  0.4487 -0.9100  1.4923
  418TMC3    H1 6242   3.016   4.203   0.132 -0.7992  2.0703 -0.0952
  418TMC3    H2 6243   3.132   4.491  17.546 -0.9671  0.2512 -3.9026
  418TMC3    C7 6244   3.086   4.444   0.096  0.7810  0.4507 -0.4704
  418TMC3    C8 6245   2.974   4.358  17.371 -0.0292 -0.1709  0.2009
  418TMC3    O1 6246   3.032   4.550   0.069 -0.7357 -0.0036  0.2452
  418TMC3    O2 6247   3.010   4.455  17.310 -0.7242 -0.6852  0.5994
  419MPD2     C 6248   0.759   4.127  12.896  0.7928 -0.6948 -0.6708
  419MPD2    C1 6249   0.659   4.200  12.835  0.7786  0.0903  0.2255
  419MPD2    C2 6250   0.568   4.261  12.919  0.0752 -0.4693  0.4295
  419MPD2    C3 6251   0.577   4.254  13.058  0.2068 -0.3147  0.3123
  419MPD2    C4 6252   0.685   4.179  13.116 -0.4951 -0.2100 -0.3342
  419MPD2    C5 6253   0.771   4.116  13.031  0.0397  0.8271  0.3342
  419MPD2     H 6254   0.483   4.317  12.882  1.1498 -0.3267 -1.8302
  419MPD2    H1 6255   0.701   4.159  13.221 -1.3636  0.9305  0.0120
  419MPD2    H2 6256   0.838   4.080  12.837  1.9766 -0.9474  1.1210
  419MPD2    H3 6257   0.855   4.060  13.071  0.6252  1.3864 -0.1068
  419MPD2     N 6258   0.469   4.317  13.132 -0.0677 -0.3003  0.4731
  419MPD2    H5 6259   0.393   4.362  13.082 -0.4769 -0.5715  0.8562
  419MPD2    N1 6260   0.625   4.193  12.696  0.1370  0.1255  0.2676
  419MPD2    H7 6261   0.534   4.225  12.664 -0.0330  0.5630  1.1855
  420TMC3    C1 6262   0.330   4.373  13.317 -0.3181 -0.3911  0.1693
  420TMC3    C2 6263   0.237   4.427  13.239 -0.1487  0.7377  0.0143
  420TMC3    C3 6264   0.106   4.436  13.284 -0.4413 -0.6844  0.6117
  420TMC3    C4 6265   0.298   4.341  13.444  0.1902 -0.3882 -0.0554
  420TMC3    C5 6266   0.168   4.345  13.490 -0.1353  0.5443  0.0947
  420TMC3    C6 6267   0.070   4.398  13.411  0.2455  0.0613  0.0230
  420TMC3     C 6268   0.457   4.332  13.272  0.8242 -0.1976  0.2328
  420TMC3     O 6269   0.530   4.279  13.352 -0.0274  0.0925 -0.1199
  420TMC3     H 6270   0.269   4.464  13.142  3.6072 -0.1344  0.9257
  420TMC3    H1 6271   0.368   4.291  13.509 -0.7058 -2.8751 -1.0132
  420TMC3    H2 6272   4.689   4.396  13.437  0.4453  0.6400  0.8784
  420TMC3    C7 6273   0.132   4.275  13.608 -0.0901 -0.9399 -0.6053
  420TMC3    C8 6274   0.017   4.535  13.222 -0.2157 -0.0437 -0.4681
  420TMC3    O1 6275   0.225   4.251  13.684 -0.1981 -0.0996 -0.7806
  420TMC3    O2 6276   0.048   4.576  13.109  0.1382  0.1017 -0.0933
  421TMC3    C1 6277   1.856   0.637  13.847 -0.3635  0.2512  0.1092
  421TMC3    C2 6278   1.865   0.723  13.953  0.6775 -0.1400 -0.1155
  421TMC3    C3 6279   1.882   0.676  14.077  0.5135 -0.6730 -0.4281
  421TMC3    C4 6280   1.857   0.501  13.864  1.0208  0.3160 -1.0001
  421TMC3    C5 6281   1.884   0.451  13.990  0.1792 -0.5311  0.0294
  421TMC3    C6 6282   1.896   0.541  14.093  0.6499 -0.2724 -0.3925
  421TMC3     C 6283   1.855   0.699  13.712 -0.1102  0.4792  0.1353
  421TMC3     O 6284   1.898   0.817  13.710  0.2112 -0.4325 -0.0498
  421TMC3     H 6285   1.858   0.828  13.928  1.8609 -0.5341 -2.0990
  421TMC3    H1 6286   1.864   0.430  13.782  0.9096 -1.8285  0.8545
  421TMC3    H2 6287   1.921   0.504  14.192 -0.2861  0.7232  0.2196
  421TMC3    C7 6288   1.965   0.336  13.993 -0.1674 -0.6647 -0.4966
  421TMC3    C8 6289   1.930   0.767  14.183 -0.1785 -0.2835  0.0597
  421TMC3    O1 6290   2.069   0.340  13.925  0.2416  0.8093  0.0886
  421TMC3    O2 6291   1.960   0.710  14.284 -0.7493  0.2898 -0.4773
  422TMC3    C1 6292   3.477   2.745  12.775 -0.1611  0.5783 -0.5555
  422TMC3    C2 6293   3.526   2.793  12.893 -0.5873 -0.2549  0.1927
  422TMC3    C3 6294   3.584   2.704  12.978  0.0252 -0.4498 -0.0068
  422TMC3    C4 6295   3.487   2.609  12.739 -0.1760 -0.2717 -0.3002
  422TMC3    C5 6296   3.551   2.529  12.832  0.1890  0.3474 -0.0107
  422TMC3    C6 6297   3.604   2.569  12.947 -0.1890  0.6579  0.3611
  422TMC3     C 6298   3.427   2.836  12.682  0.8559 -0.2493  0.3907
  422TMC3     O 6299   3.441   2.805  12.564  0.1387  0.0174  0.1767
  422TMC3     H 6300   3.538   2.899  12.910 -0.4279 -0.3649  0.7877
  422TMC3    H1 6301   3.435   2.562  12.656  0.1510  0.2441 -0.7969
  422TMC3    H2 6302   3.656   2.501  13.014  0.1376 -0.1553 -0.7278
  422TMC3    C7 6303   3.528   2.387  12.828  0.3066 -0.4398 -0.7296
  422TMC3    C8 6304   3.644   2.765  13.096  0.1518 -0.6497  0.3210
  422TMC3    O1 6305   3.625   2.317  12.851 -0.2331  0.0664 -0.1511
  422TMC3    O2 6306   3.656   2.885  13.100  0.0712 -0.0771  0.1348
  423MPD2     C 6307   0.352   3.034   0.492  0.0834 -0.7799  0.2967
  423MPD2    C1 6308   0.399   2.934   0.581 -0.0790 -0.2563 -0.1166
  423MPD2    C2 6309   0.433   2.810   0.526 -0.1212  0.7168  0.4630
  423MPD2    C3 6310   0.412   2.782   0.389  0.0882 -0.1021 -0.1909
  423MPD2    C4 6311   0.370   2.886   0.308  0.5530 -0.3868 -0.6340
  423MPD2    C5 6312   0.339   3.008   0.359 -0.2205 -0.2082 -0.1645
  423MPD2     H 6313   0.491   2.737   0.582  0.5430  1.8269  1.2104
  423MPD2    H1 6314   0.363   2.880   0.200 -2.4520  0.4631 -0.4885
  423MPD2    H2 6315   0.327   3.133   0.529  1.8538 -0.3449  0.2993
  423MPD2    H3 6316   0.302   3.087   0.295 -0.6669  1.1878  1.8221
  423MPD2     N 6317   0.451   2.662   0.329  0.4649  0.2802 -0.2750
  423MPD2    H5 6318   0.451   2.668   0.227 -0.5102  0.7388 -0.2573
  423MPD2    N1 6319   0.425   2.959   0.721 -0.4951 -0.5260 -0.4255
  423MPD2    H7 6320   0.481   2.887   0.765  2.6389  1.9685 -0.3681
  424TMC3    C1 6321   0.425   3.084   0.928  0.2783 -0.1548  0.1052
  424TMC3    C2 6322   0.553   3.038   0.958 -0.0308  0.1691  0.0885
  424TMC3    C3 6323   0.596   3.062   1.085  0.7289  0.3219 -0.0538
  424TMC3    C4 6324   0.346   3.159   1.018 -1.0298  0.5332 -0.0315
  424TMC3    C5 6325   0.391   3.152   1.148 -0.3997  0.5971  0.2873
  424TMC3    C6 6326   0.514   3.111   1.183 -0.1951 -0.1857  0.1195
  424TMC3     C 6327   0.390   3.076   0.787 -0.7647 -0.0719 -0.3683
  424TMC3     O 6328   0.307   3.164   0.753  0.0270 -0.4098 -0.2608
  424TMC3     H 6329   0.609   3.001   0.873 -0.8029 -0.6036 -0.0838
  424TMC3    H1 6330   0.253   3.201   0.982 -0.5378  1.4324 -0.2393
  424TMC3    H2 6331   0.557   3.136   1.280  1.0142 -2.1546  0.0892
  424TMC3    C7 6332   0.304   3.203   1.247  0.0059 -0.5354 -0.4702
  424TMC3    C8 6333   0.723   2.998   1.132  0.5687 -0.0591 -0.2554
  424TMC3    O1 6334   0.212   3.272   1.203  0.3388 -0.4955  0.2091
  424TMC3    O2 6335   0.728   2.960   1.250  0.1207 -0.6373 -0.1419
  425MPD2     C 6336   0.126   2.290  17.423  0.3881  0.2610  0.0825
  425MPD2    C1 6337   0.074   2.171  17.468  0.7338 -0.3538 -0.2669
  425MPD2    C2 6338   4.704   2.172  17.565  0.9208  0.1280 -0.1431
  425MPD2    C3 6339   4.654   2.292  17.608  0.2784  0.2810  0.0461
  425MPD2    C4 6340   4.713   2.407  17.576 -0.1047 -0.4418  0.1217
  425MPD2    C5 6341   0.080   2.409  17.466  0.5691  0.3825 -0.1851
  425MPD2     H 6342   4.654   2.081  17.596 -0.7331  1.1733  0.2082
  425MPD2    H1 6343   4.681   2.503  17.615  3.1341  0.8008 -0.2444
  425MPD2    H2 6344   0.215   2.285  17.361  0.6454 -1.9967  0.6502
  425MPD2    H3 6345   0.109   2.501  17.417  1.2908 -0.1036 -0.6680
  425MPD2     N 6346   4.546   2.290  17.696 -0.2636  0.2078 -0.0325
  425MPD2    H5 6347   4.496   2.201  17.691  0.6718 -0.3513  0.5613
  425MPD2    N1 6348   0.134   2.058  17.419  0.0519 -0.5016 -0.0621
  425MPD2    H7 6349   0.185   2.060  17.331  0.7097 -1.1616  0.3046
  426TMC3    C1 6350   0.122   1.818  17.419  0.1452 -0.1856 -1.1746
  426TMC3    C2 6351   0.100   1.813  17.286  0.3248  0.3548 -0.1272
  426TMC3    C3 6352   0.083   1.689  17.232 -0.0012 -0.2194  0.3796
  426TMC3    C4 6353   0.133   1.703  17.497  0.2455 -0.2276  0.1384
  426TMC3    C5 6354   0.109   1.581  17.439 -0.4292 -0.5852  1.2237
  426TMC3    C6 6355   0.070   1.575  17.302  0.3941  0.1364  0.4204
  426TMC3     C 6356   0.117   1.941  17.491 -0.2042 -0.3457 -0.1490
  426TMC3     O 6357   0.109   1.934  17.616  0.6132  0.3747  0.0788
  426TMC3     H 6358   0.104   1.902  17.224  1.4737  0.3062 -0.1223
  426TMC3    H1 6359   0.169   1.701  17.600  0.0565 -3.2054  0.1613
  426TMC3    H2 6360   0.048   1.481  17.253 -0.4771 -0.2365  1.5086
  426TMC3    C7 6361   0.074   1.475  17.526 -0.4496 -0.5994 -0.3261
  426TMC3    C8 6362   0.061   1.683  17.088  0.2092  0.7690 -0.0005
  426TMC3    O1 6363   0.091   1.368  17.467  0.4311 -0.3061  0.0595
  426TMC3    O2 6364   0.114   1.589  17.033 -0.2426 -0.3878  0.0038
  427MPD2     C 6365   3.061   4.195  14.752  0.5114  0.6785  0.9108
  427MPD2    C1 6366   3.027   4.153  14.873 -0.5332 -0.6967  0.1533
  427MPD2    C2 6367   2.906   4.189  14.934 -0.6013  0.4096 -0.4076
  427MPD2    C3 6368   2.809   4.260  14.866 -0.8597 -0.7417 -0.0825
  427MPD2    C4 6369   2.842   4.299  14.737 -0.0094  0.3394 -0.0520
  427MPD2    C5 6370   2.968   4.274  14.693  0.6979  0.0761  0.0130
  427MPD2     H 6371   2.890   4.155  15.036  2.4155 -1.0184 -0.4185
  427MPD2    H1 6372   2.790   4.381  14.688  1.8622  2.3384  1.2879
  427MPD2    H2 6373   3.154   4.175  14.699 -0.0655  0.4257 -0.0019
  427MPD2    H3 6374   2.985   4.313  14.592  1.4588 -0.3125 -0.0115
  427MPD2     N 6375   2.678   4.290  14.914 -0.2582  0.2528 -0.4474
  427MPD2    H5 6376   2.606   4.295  14.843  0.4583  1.4366 -1.0860
  427MPD2    N1 6377   3.105   4.063  14.941 -0.2314  0.3353 -0.1877
  427MPD2    H7 6378   3.059   4.022  15.021 -0.3890  3.5665  1.3433
  428TMC3    C1 6379   3.296   3.935  14.997 -0.5256  0.6894 -0.6131
  428TMC3    C2 6380   3.217   3.827  15.010  0.1288  0.3031 -0.1261
  428TMC3    C3 6381   3.270   3.709  15.057  0.2225  0.2085 -0.1979
  428TMC3    C4 6382   3.430   3.927  15.020  0.1394 -0.0971 -1.3757
  428TMC3    C5 6383   3.485   3.804  15.064 -0.8062 -0.0580 -0.3984
  428TMC3    C6 6384   3.404   3.693  15.089  0.0745 -0.0704 -0.5783
  428TMC3     C 6385   3.244   4.047  14.927 -0.5463  0.6759  0.5436
  428TMC3     O 6386   3.315   4.122  14.868 -0.5256 -0.4114 -0.3142
  428TMC3     H 6387   3.113   3.830  14.980  0.4230 -1.3769 -1.3090
  428TMC3    H1 6388   3.491   4.016  15.009  0.7570 -0.3739 -0.2275
  428TMC3    H2 6389   3.446   3.610  15.146 -2.2891 -0.1949  0.9925
  428TMC3    C7 6390   3.621   3.805  15.104  0.3678 -0.7040 -0.1826
  428TMC3    C8 6391   3.183   3.597  15.084  0.2099  0.5048 -0.0978
  428TMC3    O1 6392   3.657   3.740  15.203 -0.1713 -0.1595  0.2314
  428TMC3    O2 6393   3.067   3.628  15.097  0.7532  0.0473  0.0633
  429MPD2     C 6394   3.851   4.355  17.469  0.7472  0.6828  0.0886
  429MPD2    C1 6395   3.985   4.323  17.485  0.1673 -0.2945 -0.0379
  429MPD2    C2 6396   4.080   4.400  17.411  0.1643 -0.9999 -0.3007
  429MPD2    C3 6397   4.050   4.514  17.341 -0.1830 -0.2994  0.4101
  429MPD2    C4 6398   3.915   4.544  17.330 -0.8075  0.4439 -0.7442
  429MPD2    C5 6399   3.820   4.468  17.395 -0.0382  0.3587  0.3801
  429MPD2     H 6400   4.184   4.371  17.421  1.1918  3.4434  1.8422
  429MPD2    H1 6401   3.876   4.619  17.262 -0.8286  1.4018  0.3341
  429MPD2    H2 6402   3.767   4.294  17.502  1.3647  0.5641  1.4322
  429MPD2    H3 6403   3.718   4.503  17.388 -0.5992 -1.0072  1.6649
  429MPD2     N 6404   4.150   4.589  17.274 -0.0674  0.4112  0.1506
  429MPD2    H5 6405   4.247   4.563  17.290 -0.8893 -0.2357  4.0300
  429MPD2    N1 6406   4.030   4.219  17.575  0.2100 -0.4723 -0.7093
  429MPD2    H7 6407   4.130   4.212  17.587  0.2193  2.2414  0.8418
  430TMC3    C1 6408   4.264   0.065  17.211 -0.2381  0.1516  0.5241
  430TMC3    C2 6409   4.256   0.187  17.148  0.2341  0.2885  0.4403
  430TMC3    C3 6410   4.354   0.232  17.062 -0.6706  0.7748  0.3673
  430TMC3    C4 6411   4.376   4.711  17.184  0.4019 -0.0403  0.8254
  430TMC3    C5 6412   4.462   0.027  17.085  0.2691 -0.6928  0.6094
  430TMC3    C6 6413   4.451   0.147  17.021 -0.1560  0.0367 -0.5273
  430TMC3     C 6414   4.134   4.720  17.229 -0.4230 -0.0727  0.6502
  430TMC3     O 6415   4.037   0.067  17.225  0.5165 -0.0747  0.3425
  430TMC3     H 6416   4.163   0.239  17.169  0.5059  0.3635  1.4610
  430TMC3    H1 6417   4.401   4.631  17.253  0.1610  1.0115  2.1264
  430TMC3    H2 6418   4.524   0.176  16.946  1.1935  0.2889  0.8911
  430TMC3    C7 6419   4.599   4.688  17.078 -0.7014 -0.1688 -0.1490
  430TMC3    C8 6420   4.292   0.297  16.957  0.0395 -0.5396  0.4533
  430TMC3    O1 6421   4.695   0.024  17.025  0.0090 -0.0806 -0.2343
  430TMC3    O2 6422   4.242   0.407  16.977 -0.5650 -0.4761 -0.0317
  431MPD2     C 6423   4.654   4.458  12.659  0.5761  0.2294  0.9740
  431MPD2    C1 6424   0.047   4.527  12.691  0.2420 -0.0451 -0.1406
  431MPD2    C2 6425   0.155   4.480  12.623  0.1906 -0.2215 -0.3097
  431MPD2    C3 6426   0.156   4.378  12.527  0.0026  0.2958 -0.2678
  431MPD2    C4 6427   0.037   4.311  12.500 -0.0626  0.8042 -0.5579
  431MPD2    C5 6428   4.654   4.351  12.574  0.7075  0.2570 -0.3223
  431MPD2     H 6429   0.255   4.518  12.640 -0.3328  1.3656 -0.8421
  431MPD2    H1 6430   0.037   4.237  12.420 -0.5387 -0.1681  0.3350
  431MPD2    H2 6431   4.562   4.488  12.708 -0.1620 -1.3521  0.5454
  431MPD2    H3 6432   4.556   4.303  12.568  0.8277 -0.2723  2.1408
  431MPD2     N 6433   0.276   4.358  12.467 -0.4669  0.3664 -0.0617
  431MPD2    H5 6434   0.353   4.399  12.519 -0.8964 -1.4632  1.9816
  431MPD2    N1 6435   0.061   4.624  12.803  0.3071 -0.1715 -0.3160
  431MPD2    H7 6436   4.700   4.663  12.843 -0.3092  0.3300 -2.1291
  432TMC3    C1 6437   0.442   4.238  12.352  0.4005  0.2459 -0.2731
  432TMC3    C2 6438   0.503   4.225  12.230 -0.4968  0.2306 -0.1193
  432TMC3    C3 6439   0.632   4.169  12.234 -0.6993  0.6150 -0.4551
  432TMC3    C4 6440   0.499   4.197  12.471 -0.3912  0.5344  0.0583
  432TMC3    C5 6441   0.628   4.151  12.466 -0.4998 -0.5726  0.0900
  432TMC3    C6 6442   0.698   4.142  12.350  0.3898 -1.1552 -0.7401
  432TMC3     C 6443   0.306   4.281  12.353 -0.0306 -0.3092 -0.1106
  432TMC3     O 6444   0.238   4.237  12.263 -0.3651 -0.0627 -0.1643
  432TMC3     H 6445   0.455   4.242  12.134  3.3266 -1.3892 -2.3453
  432TMC3    H1 6446   0.429   4.200  12.554 -0.7629  1.3362 -0.2857
  432TMC3    H2 6447   0.795   4.094  12.344  0.5752 -0.9539  0.6086
  432TMC3    C7 6448   0.699   4.142  12.592  0.5547  0.2913 -0.0649
  432TMC3    C8 6449   0.668   4.101  12.114 -0.1968 -0.0883 -0.4875
  432TMC3    O1 6450   0.814   4.102  12.588  0.4294 -0.1618 -0.0459
  432TMC3    O2 6451   0.582   4.076  12.033 -0.4694  0.2538  0.5416
  433MPD2     C 6452   3.793   3.588  10.799  0.0820  0.5314  0.5015
  433MPD2    C1 6453   3.790   3.483  10.884 -0.2475  0.3814 -0.5169
  433MPD2    C2 6454   3.857   3.494  11.009  0.3294 -0.1630 -0.2049
  433MPD2    C3 6455   3.928   3.618  11.034 -0.2430  0.1206  0.1398
  433MPD2    C4 6456   3.930   3.722  10.939  1.0973  0.2429  0.3035
  433MPD2    C5 6457   3.862   3.702  10.823 -0.2161 -0.2085 -0.4503
  433MPD2     H 6458   3.845   3.414  11.081 -1.8424 -0.1201 -0.5246
  433MPD2    H1 6459   3.975   3.819  10.954  0.3158  0.6353  0.1244
  433MPD2    H2 6460   3.746   3.583  10.701 -0.5452 -1.1942  0.8933
  433MPD2    H3 6461   3.861   3.779  10.746 -1.3638 -0.2776 -0.5115
  433MPD2     N 6462   3.985   3.626  11.166 -0.1433 -0.2940 -0.5853
  433MPD2    H5 6463   3.965   3.545  11.224  0.7508 -0.0278  0.0817
  433MPD2    N1 6464   3.730   3.363  10.858  0.1751  0.5516 -0.0231
  433MPD2    H7 6465   3.757   3.282  10.913 -2.4440  2.1692  3.6196
  434TMC3    C1 6466   3.664   3.199  10.707 -1.0120  0.4596 -0.2045
  434TMC3    C2 6467   3.714   3.105  10.797 -0.1523  0.0632 -0.1224
  434TMC3    C3 6468   3.734   2.975  10.750  0.5097 -0.4693 -0.8004
  434TMC3    C4 6469   3.607   3.160  10.593  0.3992 -0.0767  0.2871
  434TMC3    C5 6470   3.613   3.026  10.554 -0.0656  0.0626  0.4621
  434TMC3    C6 6471   3.675   2.934  10.633  0.1161  0.5363  0.9417
  434TMC3     C 6472   3.661   3.339  10.740  0.4324 -0.6187  0.5876
  434TMC3     O 6473   3.606   3.420  10.664 -0.2933 -0.1251 -0.1492
  434TMC3     H 6474   3.759   3.133  10.892  1.3123  2.1953 -1.4518
  434TMC3    H1 6475   3.559   3.238  10.534  3.5686  1.7471  0.0883
  434TMC3    H2 6476   3.671   2.827  10.616  2.1906  0.2783  2.0319
  434TMC3    C7 6477   3.537   2.981  10.437 -0.1835 -0.1224  0.5631
  434TMC3    C8 6478   3.788   2.875  10.843 -0.4269 -0.1118 -0.3786
  434TMC3    O1 6479   3.440   3.037  10.390 -0.3420  0.1190 -0.0811
  434TMC3    O2 6480   3.792   2.919  10.960 -0.1377 -0.0568 -0.0375
  435MPD2     C 6481   1.479   2.728  15.747  0.4889 -0.3166 -0.0994
  435MPD2    C1 6482   1.457   2.725  15.880 -0.4012  0.0687  0.3090
  435MPD2    C2 6483   1.545   2.660  15.960 -0.3890  0.1082  0.5079
  435MPD2    C3 6484   1.654   2.593  15.913 -0.4665 -0.1276 -0.0905
  435MPD2    C4 6485   1.678   2.593  15.780 -1.0833  0.8335 -0.0166
  435MPD2    C5 6486   1.593   2.664  15.704  0.2626  0.6511 -0.1398
  435MPD2     H 6487   1.532   2.666  16.068 -0.4707  0.0041  0.5044
  435MPD2    H1 6488   1.741   2.526  15.723 -0.4082  0.2276  1.4281
  435MPD2    H2 6489   1.422   2.784  15.674 -0.2499 -0.4650  0.3615
  435MPD2    H3 6490   1.612   2.667  15.597 -0.5247  4.3544 -0.1706
  435MPD2     N 6491   1.728   2.531  16.010 -0.2154  0.1464  0.3239
  435MPD2    H5 6492   1.701   2.547  16.107 -0.1865 -0.3741  0.4229
  435MPD2    N1 6493   1.344   2.786  15.950  0.1981 -0.1341  0.4466
  435MPD2    H7 6494   1.328   2.761  16.047 -1.8574 -0.5713 -0.0091
  436TMC3    C1 6495   1.054   2.998  16.172  0.1230 -0.0618 -0.4105
  436TMC3    C2 6496   1.148   2.930  16.108 -0.2621 -0.1975 -0.5715
  436TMC3    C3 6497   1.137   2.903  15.968  0.0304 -0.3221 -0.1717
  436TMC3    C4 6498   0.945   3.047  16.105 -0.1734  0.1584  0.8694
  436TMC3    C5 6499   0.930   3.000  15.971 -0.0632  0.1640  0.6859
  436TMC3    C6 6500   1.024   2.933  15.905 -0.5009  0.4614 -0.2710
  436TMC3     C 6501   1.057   3.021  16.313  0.8105  0.0552 -0.6408
  436TMC3     O 6502   1.169   3.020  16.361  0.0079  0.2073 -0.4451
  436TMC3     H 6503   1.243   2.911  16.156 -0.0479  0.2063 -0.8305
  436TMC3    H1 6504   0.873   3.108  16.160 -1.3414 -1.1919  0.8273
  436TMC3    H2 6505   1.017   2.910  15.799  1.2412  0.4335 -0.3777
  436TMC3    C7 6506   0.796   3.010  15.913  1.0474 -0.3872 -0.7501
  436TMC3    C8 6507   1.255   2.870  15.891 -0.2749 -0.3038 -0.2605
  436TMC3    O1 6508   0.705   3.006  15.993  0.0112 -0.1255 -0.0048
  436TMC3    O2 6509   1.256   2.915  15.780  0.6118  0.4932  0.3963
  437TMC3    C1 6510   4.646   0.836  12.682  0.1142 -0.1055  0.7480
  437TMC3    C2 6511   4.540   0.921  12.666  0.2518  0.0354 -0.0044
  437TMC3    C3 6512   4.547   1.027  12.574 -0.1259  0.0601 -0.0579
  437TMC3    C4 6513   0.044   0.862  12.628 -0.0805  0.1244  0.1492
  437TMC3    C5 6514   0.054   0.972  12.538 -0.2763  0.9003 -0.3265
  437TMC3    C6 6515   4.668   1.056  12.510 -0.0064  0.0807  0.0215
  437TMC3     C 6516   4.627   0.720  12.767 -0.8968 -0.1546 -0.2372
  437TMC3     O 6517   4.508   0.688  12.790 -0.4376  0.3012 -0.0224
  437TMC3     H 6518   4.450   0.889  12.718  2.0811 -1.4652  2.2386
  437TMC3    H1 6519   0.131   0.797  12.635  0.6497  1.2962  1.7640
  437TMC3    H2 6520   4.679   1.150  12.458  2.2698  0.0170  0.3787
  437TMC3    C7 6521   0.175   1.011  12.474  0.4515  0.5577 -0.1013
  437TMC3    C8 6522   4.432   1.122  12.570 -0.3747 -0.3901  0.2999
  437TMC3    O1 6523   0.170   1.084  12.375 -0.5269  0.4969 -0.1194
  437TMC3    O2 6524   4.336   1.085  12.638 -0.2519  0.0636  0.4080
  438MPD2     C 6525   2.380   0.996  16.194  0.3489 -0.2502  0.2568
  438MPD2    C1 6526   2.460   0.946  16.293 -0.0937 -0.3609 -0.0817
  438MPD2    C2 6527   2.403   0.930  16.417 -0.2704  1.1543 -0.1970
  438MPD2    C3 6528   2.277   0.976  16.453  0.1682 -0.3103  0.0865
  438MPD2    C4 6529   2.197   1.026  16.357 -0.2213  0.3381  0.4391
  438MPD2    C5 6530   2.250   1.031  16.227  0.1234  0.5169  0.2977
  438MPD2     H 6531   2.474   0.895  16.491  2.6403  1.8415 -2.7030
  438MPD2    H1 6532   2.098   1.065  16.377 -0.2825 -0.1798  1.1182
  438MPD2    H2 6533   2.415   1.021  16.095 -0.7987  0.9815  0.1616
  438MPD2    H3 6534   2.194   1.082  16.150 -0.4605 -0.6951 -0.0765
  438MPD2     N 6535   2.237   0.955  16.591 -0.3715 -0.3502 -0.6751
  438MPD2    H5 6536   2.137   0.968  16.608 -0.0167  1.8139 -0.2460
  438MPD2    N1 6537   2.594   0.912  16.271 -0.2871  0.1361 -1.0292
  438MPD2    H7 6538   2.639   0.845  16.333 -0.9524  0.2044 -0.4733
  439TMC3    C1 6539   2.787   0.856  16.154  0.1298  0.2574 -0.4477
  439TMC3    C2 6540   2.825   0.800  16.031 -0.2795 -0.4341 -0.3555
  439TMC3    C3 6541   2.917   0.697  16.034 -0.1959  0.0052 -0.1266
  439TMC3    C4 6542   2.841   0.817  16.272  0.5322 -0.3638 -0.0469
  439TMC3    C5 6543   2.939   0.720  16.262 -0.1272 -0.7706  0.5413
  439TMC3    C6 6544   2.973   0.652  16.151 -0.1620  0.2302 -0.7548
  439TMC3     C 6545   2.669   0.941  16.160 -0.9306 -0.1389  0.7334
  439TMC3     O 6546   2.648   1.014  16.063 -0.3566 -0.0470  0.6093
  439TMC3     H 6547   2.785   0.849  15.943  0.7101 -2.1343 -1.7506
  439TMC3    H1 6548   2.817   0.867  16.365 -0.2553  0.0356 -0.4661
  439TMC3    H2 6549   3.033   0.562  16.164  0.7221  0.7930 -0.9613
  439TMC3    C7 6550   3.021   0.690  16.380 -0.6479  1.2068 -0.1104
  439TMC3    C8 6551   2.956   0.631  15.911 -0.5596 -0.0527  0.1318
  439TMC3    O1 6552   2.974   0.646  16.478  0.0314  0.1216 -0.1093
  439TMC3    O2 6553   3.033   0.536  15.922 -0.0149 -0.4754  0.7828
  440MPD2     C 6554   1.483   1.059  14.958 -0.0993  0.3764 -0.3839
  440MPD2    C1 6555   1.506   1.141  15.067 -0.0891  0.0597  0.5832
  440MPD2    C2 6556   1.630   1.166  15.109  0.2492  0.8469  0.0438
  440MPD2    C3 6557   1.741   1.126  15.040  0.0588 -0.2763  0.7461
  440MPD2    C4 6558   1.720   1.049  14.927 -0.9651  0.0155  0.5498
  440MPD2    C5 6559   1.597   1.019  14.884 -0.2190  0.4076 -0.3452
  440MPD2     H 6560   1.640   1.223  15.200  1.5118 -1.1976  1.1842
  440MPD2    H1 6561   1.803   1.014  14.867 -0.4291 -0.6827  1.7000
  440MPD2    H2 6562   1.386   1.028  14.923 -0.1268 -0.5009  0.4587
  440MPD2    H3 6563   1.586   0.955  14.797 -0.7917 -4.8644  3.6801
  440MPD2     N 6564   1.872   1.158  15.084  0.2846 -0.8508  0.1867
  440MPD2    H5 6565   1.944   1.106  15.036  0.9211  1.5381 -1.4713
  440MPD2    N1 6566   1.402   1.191  15.150  0.1844 -0.3414  0.2753
  440MPD2    H7 6567   1.431   1.237  15.236 -1.0730 -2.4454  1.8460
  441TMC3    C1 6568   2.027   1.235  15.245 -0.0601 -0.3598  0.2248
  441TMC3    C2 6569   2.039   1.324  15.350  0.3587 -0.4719  0.4678
  441TMC3    C3 6570   2.109   1.299  15.457  0.1399 -0.4922 -0.0076
  441TMC3    C4 6571   2.081   1.110  15.252 -0.3819 -0.6109 -0.0838
  441TMC3    C5 6572   2.161   1.096  15.361  0.4593  0.2349 -0.2385
  441TMC3    C6 6573   2.178   1.181  15.464  0.6371  0.0592  0.7613
  441TMC3     C 6574   1.907   1.262  15.164 -0.5671  0.2312 -0.0871
  441TMC3     O 6575   1.851   1.370  15.171 -0.0898  0.0979 -0.2732
  441TMC3     H 6576   1.996   1.424  15.350  0.8119 -0.2726 -0.3481
  441TMC3    H1 6577   2.074   1.034  15.175 -4.0063 -0.3803 -0.0070
  441TMC3    H2 6578   2.237   1.135  15.542  1.7706  0.8611  0.3960
  441TMC3    C7 6579   2.190   0.959  15.399 -0.0816  0.1727 -0.1428
  441TMC3    C8 6580   2.058   1.358  15.585 -0.5252  0.0396  0.0029
  441TMC3    O1 6581   2.297   0.933  15.450  0.2647 -0.5424  0.2690
  441TMC3    O2 6582   2.148   1.401  15.655  0.3368  0.4174 -0.7372
  442MPD2     C 6583   4.278   2.008  16.267  0.2070 -0.5300 -0.7777
  442MPD2    C1 6584   4.166   1.928  16.301 -0.0184 -0.3009  0.2591
  442MPD2    C2 6585   4.134   1.818  16.222 -0.7415 -0.3965  0.5473
  442MPD2    C3 6586   4.204   1.790  16.101 -1.1041 -0.5277 -0.2192
  442MPD2    C4 6587   4.319   1.862  16.077 -0.6172 -0.1569  0.0678
  442MPD2    C5 6588   4.353   1.962  16.165 -0.2422  0.4262 -0.2076
  442MPD2     H 6589   4.054   1.753  16.254 -1.8076  0.9140  0.5213
  442MPD2    H1 6590   4.383   1.830  15.997  2.8556 -1.0484  3.2053
  442MPD2    H2 6591   4.302   2.091  16.332  1.2715 -1.3128 -0.1650
  442MPD2    H3 6592   4.434   2.022  16.127 -0.0331  1.0662  1.2456
  442MPD2     N 6593   4.185   1.675  16.021 -0.3965 -0.6254 -0.5262
  442MPD2    H5 6594   4.246   1.655  15.942 -0.7310 -0.5970 -0.7935
  442MPD2    N1 6595   4.094   1.951  16.423 -0.7746 -0.3609 -0.1830
  442MPD2    H7 6596   4.017   1.892  16.453  1.3466 -2.4968  1.0951
  443TMC3    C1 6597   4.044   2.043  16.639  0.0743  0.3210  0.0484
  443TMC3    C2 6598   3.938   2.129  16.625 -0.1028  0.3973 -0.3634
  443TMC3    C3 6599   3.819   2.090  16.676 -0.5647 -0.1060 -0.2243
  443TMC3    C4 6600   4.027   1.922  16.700 -0.6617 -0.1735 -0.0673
  443TMC3    C5 6601   3.912   1.911  16.772  0.1383  0.6397  0.7793
  443TMC3    C6 6602   3.804   1.996  16.771 -0.2580 -0.0793  0.7752
  443TMC3     C 6603   4.137   2.043  16.524 -0.6968 -0.5290  0.8189
  443TMC3     O 6604   4.199   2.147  16.510  0.4073 -0.4032  0.2422
  443TMC3     H 6605   3.938   2.197  16.540  2.3529  1.3522  0.4093
  443TMC3    H1 6606   4.108   1.852  16.719 -2.8103 -2.6180  0.1046
  443TMC3    H2 6607   3.708   1.953  16.795 -1.3458  0.9581 -1.7510
  443TMC3    C7 6608   3.881   1.772  16.810 -0.1759 -0.5233 -0.0375
  443TMC3    C8 6609   3.735   2.056  16.561  0.0343  0.4085  0.4571
  443TMC3    O1 6610   3.846   1.699  16.720 -0.2574  0.1801  0.2342
  443TMC3    O2 6611   3.692   1.942  16.551  0.5437 -0.0441 -0.1329
  444MPD2     C 6612   4.424   1.408  16.998 -0.1539  0.0439  0.8114
  444MPD2    C1 6613   4.328   1.307  16.980  0.0737 -0.3484  0.0831
  444MPD2    C2 6614   4.349   1.209  16.892 -0.4874 -0.4302  0.7635
  444MPD2    C3 6615   4.471   1.190  16.830  0.5193 -0.4551  0.2443
  444MPD2    C4 6616   4.566   1.289  16.852 -0.3105 -0.3264 -0.1759
  444MPD2    C5 6617   4.541   1.396  16.934 -0.2239  0.0901 -0.0230
  444MPD2     H 6618   4.270   1.138  16.871 -0.1037 -0.2471 -1.3875
  444MPD2    H1 6619   4.669   1.290  16.819  0.0313 -1.7408  0.8615
  444MPD2    H2 6620   4.407   1.498  17.056 -1.7060  1.0440 -1.1928
  444MPD2    H3 6621   4.622   1.467  16.944  0.6160 -1.0780  1.4604
  444MPD2     N 6622   4.486   1.074  16.757  0.6922 -0.5354 -0.3316
  444MPD2    H5 6623   4.406   1.013  16.744  1.1154 -1.4445  1.3583
  444MPD2    N1 6624   4.205   1.309  17.041  0.0898 -0.6271 -0.2725
  444MPD2    H7 6625   4.144   1.228  17.030  1.9238 -2.0362 -0.2209
  445TMC3    C1 6626   4.602   0.895  16.657 -0.5198  0.7943  0.2349
  445TMC3    C2 6627   4.492   0.854  16.579  0.5762  0.2787 -0.2715
  445TMC3    C3 6628   4.506   0.740  16.501  0.0972 -0.7574 -0.4296
  445TMC3    C4 6629   0.002   0.826  16.653 -0.3438  0.2421  0.0885
  445TMC3    C5 6630   0.005   0.706  16.588  0.1832 -0.3385 -0.7919
  445TMC3    C6 6631   4.617   0.662  16.512  0.1487  0.4835  0.1632
  445TMC3     C 6632   4.610   1.026  16.714 -0.4235 -1.2190 -0.3258
  445TMC3     O 6633   4.723   1.072  16.737 -0.5318  0.4370  0.7225
  445TMC3     H 6634   4.397   0.905  16.570 -0.1134 -0.9690 -0.0849
  445TMC3    H1 6635   0.094   0.868  16.693  1.2331  0.0907 -3.3608
  445TMC3    H2 6636   4.617   0.571  16.453  0.2348 -0.6372  1.8895
  445TMC3    C7 6637   0.143   0.654  16.551  0.1608 -0.0683 -0.5835
  445TMC3    C8 6638   4.402   0.689  16.410  0.0952 -0.4290  0.6551
  445TMC3    O1 6639   0.143   0.587  16.449  0.0003 -0.6618  0.2019
  445TMC3    O2 6640   4.434   0.611  16.326  0.2053  0.3021  0.0120
  446MPD2     C 6641   3.533   2.747  11.424  0.1888 -0.2269 -0.0085
  446MPD2    C1 6642   3.537   2.771  11.291  0.4303  0.0681  0.3610
  446MPD2    C2 6643   3.638   2.854  11.233 -0.4046 -0.3346  0.1598
  446MPD2    C3 6644   3.738   2.907  11.311  1.4098 -0.3011  0.3368
  446MPD2    C4 6645   3.726   2.883  11.446 -0.4066  0.1911 -0.4861
  446MPD2    C5 6646   3.623   2.812  11.502 -0.2509 -0.8901 -0.2582
  446MPD2     H 6647   3.638   2.879  11.128 -0.6982  0.4907  0.3587
  446MPD2    H1 6648   3.802   2.913  11.517 -0.9380 -2.0797  1.0110
  446MPD2    H2 6649   3.453   2.703  11.481 -0.0180  1.8697  1.3119
  446MPD2    H3 6650   3.612   2.813  11.610  0.9815 -3.8969 -0.1066
  446MPD2     N 6651   3.839   2.984  11.250 -0.5605 -0.2978 -0.2044
  446MPD2    H5 6652   3.846   2.986  11.149 -0.2270  1.4375 -0.1522
  446MPD2    N1 6653   3.432   2.727  11.199 -0.0484 -0.0508 -0.6673
  446MPD2    H7 6654   3.431   2.775  11.110 -0.7088 -0.5327 -0.9163
  447TMC3    C1 6655   4.059   3.056  11.217  0.2600 -0.2140 -0.6106
  447TMC3    C2 6656   4.044   3.056  11.082 -0.5083  0.0867 -0.4060
  447TMC3    C3 6657   4.162   3.028  11.010  0.3468 -0.4679  0.4145
  447TMC3    C4 6658   4.181   3.035  11.276  0.1284  0.4391 -0.3147
  447TMC3    C5 6659   4.296   3.001  11.204 -0.2369  0.4889 -0.1294
  447TMC3    C6 6660   4.282   2.993  11.067  0.3207  0.1702 -0.3017
  447TMC3     C 6661   3.955   3.012  11.312  0.1398 -0.4107  0.1334
  447TMC3     O 6662   3.980   3.025  11.435 -0.4463  0.4740  0.6119
  447TMC3     H 6663   3.951   3.073  11.029 -1.1560 -1.1972  0.3125
  447TMC3    H1 6664   4.195   3.032  11.384 -3.0591 -0.6212  0.0588
  447TMC3    H2 6665   4.374   2.976  11.012 -0.4198 -2.0509 -0.8367
  447TMC3    C7 6666   4.408   2.934  11.259  0.6910 -0.1623  1.1319
  447TMC3    C8 6667   4.138   3.017  10.863  0.5828  0.2089  0.1664
  447TMC3    O1 6668   4.489   2.877  11.188 -0.3408  0.3360 -0.0374
  447TMC3    O2 6669   4.037   3.065  10.815  0.4319  0.1097  0.2461
  448TMC3    C1 6670   1.997   1.683  17.284 -0.1619  0.0856 -0.2845
  448TMC3    C2 6671   1.974   1.681  17.151 -0.1860 -0.0442 -1.0255
  448TMC3    C3 6672   1.982   1.556  17.089  0.0249 -0.9871  1.1064
  448TMC3    C4 6673   1.995   1.572  17.364 -0.8470 -0.6605  0.1735
  448TMC3    C5 6674   2.010   1.449  17.297 -0.0520  0.1989 -0.0733
  448TMC3    C6 6675   2.009   1.442  17.158 -0.2617 -0.6331  0.9665
  448TMC3     C 6676   1.961   1.807  17.356  0.7398 -0.3432 -0.9164
  448TMC3     O 6677   1.905   1.792  17.464 -0.0143  0.5343  0.4682
  448TMC3     H 6678   1.947   1.774  17.101 -0.3865  1.4229  1.8141
  448TMC3    H1 6679   2.001   1.579  17.472  1.1278  1.0185 -0.0356
  448TMC3    H2 6680   2.023   1.346  17.109 -1.6756  0.6683 -2.0078
  448TMC3    C7 6681   2.079   1.348  17.367  0.4819  0.5497 -0.0653
  448TMC3    C8 6682   2.021   1.546  16.949 -0.6296  0.1022 -0.2018
  448TMC3    O1 6683   2.128   1.264  17.295 -0.0178 -0.1352 -0.2849
  448TMC3    O2 6684   2.035   1.433  16.906 -0.4909  0.3050  0.0752
  449MPD2     C 6685   3.796   0.902  13.835 -0.7521 -0.7003  0.4050
  449MPD2    C1 6686   3.657   0.895  13.818 -0.1282 -0.1472  0.2169
  449MPD2    C2 6687   3.583   0.804  13.885 -0.4865  0.7743  0.5339
  449MPD2    C3 6688   3.643   0.691  13.946  0.5590  0.5023 -0.0976
  449MPD2    C4 6689   3.779   0.691  13.963 -0.0270 -0.0493  0.3318
  449MPD2    C5 6690   3.848   0.800  13.913  0.2067  0.4460 -0.2462
  449MPD2     H 6691   3.475   0.812  13.879 -0.8541 -2.3114  2.7037
  449MPD2    H1 6692   3.830   0.602  13.998  0.8015  0.9171  1.5517
  449MPD2    H2 6693   3.860   0.973  13.785  0.0153 -2.9422 -1.8319
  449MPD2    H3 6694   3.956   0.793  13.903  0.2171  3.0428 -1.8033
  449MPD2     N 6695   3.553   0.588  13.989  0.1576  0.0798  0.1192
  449MPD2    H5 6696   3.455   0.605  13.971  0.7211  0.6190 -2.4953
  449MPD2    N1 6697   3.581   0.993  13.755 -0.6890 -0.2713 -0.3291
  449MPD2    H7 6698   3.480   0.986  13.758 -0.6438 -1.3822 -1.0419
  450TMC3    C1 6699   3.511   1.168  13.626 -0.5631 -0.5073  0.2518
  450TMC3    C2 6700   3.522   1.168  13.486 -0.0018 -0.2383 -0.6875
  450TMC3    C3 6701   3.407   1.137  13.405 -0.4735 -0.4287 -0.5972
  450TMC3    C4 6702   3.385   1.136  13.685  0.3504 -0.0523  0.1455
  450TMC3    C5 6703   3.277   1.117  13.604 -0.2162  0.2569 -0.0949
  450TMC3    C6 6704   3.290   1.112  13.468  0.3039 -0.3819  0.5243
  450TMC3     C 6705   3.625   1.099  13.681 -0.5624  0.4302  0.5475
  450TMC3     O 6706   3.739   1.136  13.650 -0.6277  0.3716  0.2011
  450TMC3     H 6707   3.620   1.189  13.445  0.6677 -1.8444  0.0942
  450TMC3    H1 6708   3.377   1.160  13.790 -0.3421  2.5680 -0.5055
  450TMC3    H2 6709   3.204   1.086  13.407  1.2444 -1.9259 -0.1311
  450TMC3    C7 6710   3.208   1.008  13.666 -0.2143 -0.6984  0.5089
  450TMC3    C8 6711   3.424   1.076  13.273  0.1315 -0.0964  0.2892
  450TMC3    O1 6712   3.276   0.955  13.748 -0.2379 -0.0094 -0.5264
  450TMC3    O2 6713   3.338   0.990  13.255  0.1386  0.2093 -0.0466
  451MPD2     C 6714   0.223   3.540   1.495 -0.4404  0.7308 -0.2393
  451MPD2    C1 6715   0.248   3.615   1.377 -0.5162  0.3851 -0.2452
  451MPD2    C2 6716   0.380   3.634   1.337 -0.2628 -0.7159 -0.0172
  451MPD2    C3 6717   0.490   3.590   1.421  0.1580 -0.1367  0.2764
  451MPD2    C4 6718   0.460   3.533   1.542  0.1762  0.3736 -0.4295
  451MPD2    C5 6719   0.330   3.506   1.575 -0.3732  0.2852 -0.5283
  451MPD2     H 6720   0.393   3.674   1.237 -1.0340 -2.1713 -0.7032
  451MPD2    H1 6721   0.546   3.502   1.600 -1.0641 -0.5908  0.8918
  451MPD2    H2 6722   0.123   3.523   1.532  0.2177 -0.5713  0.9610
  451MPD2    H3 6723   0.311   3.464   1.673  0.9015  1.3997  0.1991
  451MPD2     N 6724   0.622   3.604   1.380 -0.7088  0.0679 -0.2471
  451MPD2    H5 6725   0.701   3.584   1.441 -1.1620 -1.6855 -0.2518
  451MPD2    N1 6726   0.144   3.677   1.311 -0.2400 -0.3267 -0.2323
  451MPD2    H7 6727   0.050   3.665   1.348 -0.1695 -3.4088 -0.9993
  452TMC3    C1 6728   0.805   3.683   1.252 -0.6496 -0.5693  0.4773
  452TMC3    C2 6729   0.867   3.705   1.373  0.7708  0.1218 -0.1156
  452TMC3    C3 6730   0.994   3.751   1.368  0.5191 -0.6010 -0.0926
  452TMC3    C4 6731   0.857   3.732   1.131  1.1269 -0.1747  0.5126
  452TMC3    C5 6732   0.990   3.768   1.135  0.1495 -0.1962 -0.6163
  452TMC3    C6 6733   1.060   3.772   1.249  0.3175  0.2037 -0.2190
  452TMC3     C 6734   0.663   3.652   1.254  0.2598 -0.6903 -0.1829
  452TMC3     O 6735   0.602   3.697   1.155 -0.8367  0.5132 -0.0942
  452TMC3     H 6736   0.820   3.677   1.467 -0.2441  1.3414 -0.2656
  452TMC3    H1 6737   0.815   3.723   1.032  2.6598  2.2430 -0.3529
  452TMC3    H2 6738   1.162   3.807   1.243  0.4339 -0.2539 -0.8913
  452TMC3    C7 6739   1.058   3.790   1.001 -0.3266 -0.3251  0.3012
  452TMC3    C8 6740   1.068   3.745   1.491  0.3909  0.0875 -0.6594
  452TMC3    O1 6741   0.980   3.810   0.908 -0.1254  0.0907  0.6239
  452TMC3    O2 6742   1.028   3.668   1.574 -0.0343 -0.2508  0.2083
  453TMC3    C1 6743   1.518   1.504  11.912  0.3594 -0.2000 -0.7044
  453TMC3    C2 6744   1.405   1.433  11.948  0.5164  0.3247 -0.0472
  453TMC3    C3 6745   1.318   1.396  11.847  0.1513 -0.0262  0.2951
  453TMC3    C4 6746   1.552   1.546  11.788  0.1053 -0.1074  0.6430
  453TMC3    C5 6747   1.464   1.504  11.693 -0.0812  0.8057  0.2614
  453TMC3    C6 6748   1.344   1.437  11.720 -0.1884  1.1792 -0.6670
  453TMC3     C 6749   1.608   1.556  12.012 -0.4179 -0.8741 -0.0638
  453TMC3     O 6750   1.687   1.647  11.984 -0.0528 -0.1160 -0.5643
  453TMC3     H 6751   1.383   1.410  12.051 -0.7077  0.1219 -0.3542
  453TMC3    H1 6752   1.649   1.588  11.763 -0.5397  2.1035  1.8341
  453TMC3    H2 6753   1.268   1.402  11.650 -0.2690  0.4561 -0.2125
  453TMC3    C7 6754   1.476   1.568  11.562 -0.2253  0.4162 -0.5314
  453TMC3    C8 6755   1.191   1.339  11.887  0.5764  0.6205  0.6552
  453TMC3    O1 6756   1.524   1.679  11.556 -0.2481  0.5325  0.3613
  453TMC3    O2 6757   1.094   1.359  11.818  0.4767  0.1851  0.7155
  454MPD2     C 6758   0.377   0.894  16.228 -0.0116  0.0908  0.0543
  454MPD2    C1 6759   0.324   0.968  16.120 -0.2793  0.7370 -0.0581
  454MPD2    C2 6760   0.267   1.093  16.138  0.5516  0.1665 -0.2603
  454MPD2    C3 6761   0.279   1.155  16.260 -0.0168  0.5678  0.6620
  454MPD2    C4 6762   0.340   1.084  16.369  0.6306 -0.1861 -0.1414
  454MPD2    C5 6763   0.379   0.956  16.351  0.3783 -0.0658 -0.1307
  454MPD2     H 6764   0.224   1.152  16.058 -0.8803  1.1656  1.2444
  454MPD2    H1 6765   0.350   1.120  16.471 -0.2461 -0.4284  0.0360
  454MPD2    H2 6766   0.433   0.801  16.232 -1.6019 -0.8816 -0.8142
  454MPD2    H3 6767   0.428   0.915  16.438  0.8904 -0.0274 -0.4030
  454MPD2     N 6768   0.224   1.285  16.282 -0.4502 -0.2902  0.1560
  454MPD2    H5 6769   0.223   1.314  16.380 -2.3968 -0.5703  0.2166
  454MPD2    N1 6770   0.322   0.919  15.989 -0.1082 -0.5743 -0.2821
  454MPD2    H7 6771   0.275   0.973  15.916  0.3325 -0.0196 -0.1518
  455TMC3    C1 6772   0.074   1.444  16.242 -0.7859  0.2844 -0.5214
  455TMC3    C2 6773   0.071   1.505  16.364 -0.0631  0.6412 -0.5253
  455TMC3    C3 6774   4.676   1.512  16.427  0.8295 -0.5469  0.1303
  455TMC3    C4 6775   4.686   1.393  16.182  0.6826  0.3043 -0.2393
  455TMC3    C5 6776   4.577   1.387  16.262 -0.1824  0.0759 -0.7967
  455TMC3    C6 6777   4.567   1.435  16.383  0.7169 -0.5557 -0.0848
  455TMC3     C 6778   0.194   1.375  16.186  0.4992  0.0514 -0.0603
  455TMC3     O 6779   0.210   1.367  16.062 -0.3464  0.5178  0.5446
  455TMC3     H 6780   0.162   1.545  16.407  0.3845 -1.8826  0.8945
  455TMC3    H1 6781   4.695   1.339  16.088  0.3996  0.5094 -0.3838
  455TMC3    H2 6782   4.480   1.403  16.440  1.9630  0.2961  2.3107
  455TMC3    C7 6783   4.517   1.253  16.241  0.3294  0.1041  0.6215
  455TMC3    C8 6784   4.673   1.569  16.556 -0.2218 -0.8047  0.4399
  455TMC3    O1 6785   4.403   1.240  16.192  0.1456 -0.0459  0.1097
  455TMC3    O2 6786   0.051   1.574  16.620  0.0043 -0.1415  1.1346
  456MPD2     C 6787   2.892   1.460  15.759  0.5009 -0.1769 -0.7637
  456MPD2    C1 6788   2.895   1.328  15.799 -1.1917  0.1910  0.2528
  456MPD2    C2 6789   2.795   1.278  15.880  0.2338  0.2818  0.1664
  456MPD2    C3 6790   2.704   1.369  15.937  1.0206  0.7383 -0.0670
  456MPD2    C4 6791   2.714   1.502  15.912  0.2473  0.1401  0.0115
  456MPD2    C5 6792   2.796   1.544  15.815 -0.4522 -0.1341 -0.5039
  456MPD2     H 6793   2.800   1.179  15.926 -3.0315  0.4775  0.9608
  456MPD2    H1 6794   2.644   1.570  15.958 -0.4129  0.4979 -1.5070
  456MPD2    H2 6795   2.961   1.495  15.683  0.9393 -3.5375 -1.9394
  456MPD2    H3 6796   2.800   1.649  15.790  3.2544  0.0847  0.8930
  456MPD2     N 6797   2.628   1.321  16.042 -0.1408 -1.1744  0.9957
  456MPD2    H5 6798   2.643   1.222  16.063  0.9980 -1.1118  0.4650
  456MPD2    N1 6799   2.978   1.236  15.728 -0.3882 -0.6514 -0.0049
  456MPD2    H7 6800   3.042   1.288  15.669  1.2252 -0.2802  2.0794
  457TMC3    C1 6801   2.494   1.321  16.243  0.3820 -0.3369  0.5018
  457TMC3    C2 6802   2.366   1.358  16.289 -0.3588  0.1289 -0.0318
  457TMC3    C3 6803   2.341   1.325  16.421 -0.4102  0.3675  0.7766
  457TMC3    C4 6804   2.590   1.260  16.318  0.0712  0.2201  0.1999
  457TMC3    C5 6805   2.562   1.235  16.452  0.4847 -0.2011  0.0813
  457TMC3    C6 6806   2.433   1.249  16.495  0.3153  0.5291  0.0075
  457TMC3     C 6807   2.531   1.388  16.118  0.2897 -1.2736 -0.4075
  457TMC3     O 6808   2.469   1.485  16.077  0.2494  0.0937 -0.0598
  457TMC3     H 6809   2.288   1.399  16.225  0.6476  0.5152 -1.0117
  457TMC3    H1 6810   2.687   1.240  16.273 -0.7006 -0.3714 -1.1829
  457TMC3    H2 6811   2.406   1.212  16.593  0.0556 -1.3153 -0.7688
  457TMC3    C7 6812   2.663   1.212  16.545  0.5291 -0.1487  0.4727
  457TMC3    C8 6813   2.231   1.385  16.489  0.6301 -0.3730  0.4205
  457TMC3    O1 6814   2.652   1.135  16.644  0.3538 -0.1853  0.2898
  457TMC3    O2 6815   2.185   1.312  16.577  0.1895 -0.2003  0.1687
  458MPD2     C 6816   0.678   1.038  12.433 -0.4928 -0.1280 -0.1993
  458MPD2    C1 6817   0.649   1.001  12.569  0.3110 -0.3768  0.3188
  458MPD2    C2 6818   0.514   0.973  12.594  0.0154  0.8648 -0.6173
  458MPD2    C3 6819   0.419   0.991  12.500 -0.5589  0.0293 -0.7014
  458MPD2    C4 6820   0.452   1.033  12.377  0.0521  1.2003  0.3950
  458MPD2    C5 6821   0.581   1.050  12.342 -0.0169  0.3797 -0.0740
  458MPD2     H 6822   0.490   0.939  12.694  0.5287  3.5038  0.4006
  458MPD2    H1 6823   0.375   1.056  12.304 -0.1302 -0.7294 -0.0114
  458MPD2    H2 6824   0.779   1.046  12.392  0.0370 -0.1533  1.1184
  458MPD2    H3 6825   0.612   1.081  12.243 -0.6613  0.9990 -0.0831
  458MPD2     N 6826   0.288   0.968  12.544 -0.4491 -0.2745  0.1671
  458MPD2    H5 6827   0.274   0.938  12.640  0.1042  0.7845  0.5632
  458MPD2    N1 6828   0.760   0.997  12.660  0.0181  0.5629 -0.5450
  458MPD2    H7 6829   0.847   1.026  12.615  0.4970 -1.9917 -1.2289
  459TMC3    C1 6830   0.877   0.914  12.856  0.0139 -0.0524  0.8013
  459TMC3    C2 6831   0.999   0.915  12.797 -0.2069  0.5468  1.1925
  459TMC3    C3 6832   1.108   0.884  12.870  0.4525 -0.1826 -0.5243
  459TMC3    C4 6833   0.870   0.882  12.985 -0.0083  0.8359  0.1882
  459TMC3    C5 6834   0.981   0.849  13.060 -0.7087  0.3885  0.1497
  459TMC3    C6 6835   1.103   0.838  13.000 -0.2943 -0.8941 -0.2330
  459TMC3     C 6836   0.759   0.952  12.789  0.0786 -0.4163 -1.1657
  459TMC3     O 6837   0.662   0.928  12.859 -0.7484 -0.4515  0.2389
  459TMC3     H 6838   1.008   0.921  12.689 -1.7760 -1.2185  0.9699
  459TMC3    H1 6839   0.777   0.879  13.041 -0.1817 -1.9640 -0.2357
  459TMC3    H2 6840   1.194   0.803  13.046 -0.2592  1.2883  1.3455
  459TMC3    C7 6841   0.956   0.780  13.184 -0.0892  0.2378 -0.4624
  459TMC3    C8 6842   1.243   0.896  12.823  0.3975  0.4205  0.5470
  459TMC3    O1 6843   0.844   0.739  13.206  0.1677  0.2943 -0.2415
  459TMC3    O2 6844   1.329   0.830  12.874  0.1131 -0.6750  0.1369
  460MPD2     C 6845   4.382   2.870  10.635 -0.1736 -0.0879 -0.4493
  460MPD2    C1 6846   4.265   2.929  10.664  0.5190  0.3587  0.3521
  460MPD2    C2 6847   4.169   2.959  10.565  0.9869 -0.3623  0.6561
  460MPD2    C3 6848   4.190   2.899  10.435  0.1573 -0.0667  0.0166
  460MPD2    C4 6849   4.304   2.823  10.413 -0.0005 -0.3174  0.1748
  460MPD2    C5 6850   4.398   2.805  10.516 -0.0781  0.1062 -0.9386
  460MPD2     H 6851   4.082   3.016  10.596  0.8996 -1.2767  2.0874
  460MPD2    H1 6852   4.317   2.763  10.323  1.6518  0.6926 -0.2672
  460MPD2    H2 6853   4.460   2.842  10.705  0.1576 -0.8410 -1.1203
  460MPD2    H3 6854   4.485   2.741  10.504 -0.3392 -0.1897 -1.2280
  460MPD2     N 6855   4.099   2.929  10.333 -0.1070  0.3893 -0.4580
  460MPD2    H5 6856   4.019   2.988  10.355 -1.0524 -1.4687  1.0904
  460MPD2    N1 6857   4.247   2.956  10.799  0.0385  0.5737  0.9757
  460MPD2    H7 6858   4.316   2.920  10.864  1.9900  1.8173 -0.4115
  461TMC3    C1 6859   3.981   2.912  10.131  0.5435 -0.1446 -0.1915
  461TMC3    C2 6860   3.919   2.822  10.053  0.4414  0.1262  0.1750
  461TMC3    C3 6861   3.785   2.848  10.012 -0.3286 -0.7330  0.3028
  461TMC3    C4 6862   3.928   3.037  10.146  0.5482 -0.6887 -0.0662
  461TMC3    C5 6863   3.800   3.063  10.108  0.9575  0.5600 -0.0919
  461TMC3    C6 6864   3.726   2.965  10.046 -0.0294  0.0337  0.0725
  461TMC3     C 6865   4.104   2.878  10.205 -0.2511 -0.6306  0.4086
  461TMC3     O 6866   4.172   2.790  10.163 -0.4240  0.5107 -0.1011
  461TMC3     H 6867   3.948   2.718  10.038 -0.1153  0.4134 -2.8584
  461TMC3    H1 6868   3.993   3.106  10.198 -0.3810  0.0752  0.0804
  461TMC3    H2 6869   3.623   2.986  10.019  1.0072  1.7638 -2.5317
  461TMC3    C7 6870   3.778   3.190  10.049  0.7029  0.1719  0.2263
  461TMC3    C8 6871   3.775   2.836   9.865  0.5583 -0.2800 -0.5345
  461TMC3    O1 6872   3.676   3.215   9.989 -0.1167  0.1330 -0.7004
  461TMC3    O2 6873   3.874   2.884   9.801  0.8608 -0.6948  0.4005
  462TMC3    C1 6874   4.394   3.870  17.627  0.1081  0.1621 -0.4425
  462TMC3    C2 6875   4.322   3.790  17.545 -0.9840 -0.6914  0.3535
  462TMC3    C3 6876   4.316   3.661  17.578  0.4376  0.8318 -0.6785
  462TMC3    C4 6877   4.446   3.831   0.050  0.6297 -0.1423 -0.5416
  462TMC3    C5 6878   4.431   3.691   0.078  0.4224 -0.0151 -0.5223
  462TMC3    C6 6879   4.377   3.608  17.686  0.3928 -0.7667 -0.0199
  462TMC3     C 6880   4.378   4.010  17.602 -0.7491  0.3100  0.7828
  462TMC3     O 6881   4.277   4.050  17.541  0.2801 -0.6650 -0.0890
  462TMC3     H 6882   4.295   3.823  17.445  3.0787  0.0129 -0.5355
  462TMC3    H1 6883   4.501   3.897   0.117 -0.7129 -0.6718  1.0760
  462TMC3    H2 6884   4.338   3.514   0.025  1.1659 -1.0276  0.1407
  462TMC3    C7 6885   4.440   3.637   0.214 -0.0323 -0.3303  0.4745
  462TMC3    C8 6886   4.246   3.560  17.503  0.5112  0.1559  1.0142
  462TMC3    O1 6887   4.419   3.516   0.236  0.1173 -0.4040  0.3252
  462TMC3    O2 6888   4.139   3.585  17.453 -1.0605 -0.0570  0.9737
  463MPD2     C 6889   0.982   2.038   1.689 -0.5290 -0.3202  0.7360
  463MPD2    C1 6890   0.889   2.113   1.764 -0.0890 -0.3499  0.6273
  463MPD2    C2 6891   0.916   2.241   1.798 -0.1126  0.2130 -0.1381
  463MPD2    C3 6892   1.023   2.305   1.740  0.7994  0.4461  0.5453
  463MPD2    C4 6893   1.110   2.235   1.662  0.0417  0.4392  0.7108
  463MPD2    C5 6894   1.096   2.095   1.648 -0.4841 -0.2260  0.5859
  463MPD2     H 6895   0.845   2.287   1.865  1.0748  0.2077  1.1013
  463MPD2    H1 6896   1.188   2.280   1.602  0.2924 -0.6921  0.1837
  463MPD2    H2 6897   0.967   1.933   1.671  0.9317 -0.7579  2.0028
  463MPD2    H3 6898   1.180   2.040   1.608  1.5497  1.6931  2.2594
  463MPD2     N 6899   1.061   2.438   1.756 -0.3781 -0.1746  0.3850
  463MPD2    H5 6900   1.148   2.472   1.716 -1.0857  1.0132 -0.1337
  463MPD2    N1 6901   0.772   2.059   1.810  0.7463 -0.1902 -0.0141
  463MPD2    H7 6902   0.708   2.124   1.855  2.1054  1.2514 -0.1689
  464TMC3    C1 6903   0.582   1.924   1.812 -0.1032 -0.6221 -0.3923
  464TMC3    C2 6904   0.505   2.030   1.830 -0.1353 -0.5318 -0.5266
  464TMC3    C3 6905   0.370   2.003   1.843  0.8524 -0.4292  0.0152
  464TMC3    C4 6906   0.531   1.798   1.826 -0.9914 -0.4601  0.9074
  464TMC3    C5 6907   0.398   1.770   1.816  0.3474  0.3334 -0.2321
  464TMC3    C6 6908   0.316   1.874   1.842  0.2080 -0.3665 -0.2208
  464TMC3     C 6909   0.723   1.937   1.781 -0.5994  0.4535  0.7354
  464TMC3     O 6910   0.777   1.840   1.741 -0.0357 -0.6470 -0.0138
  464TMC3     H 6911   0.542   2.127   1.800  0.7245 -1.1762 -1.5736
  464TMC3    H1 6912   0.591   1.708   1.833 -0.3980 -0.3442 -2.5360
  464TMC3    H2 6913   0.212   1.857   1.868  1.3763 -2.7926  2.7643
  464TMC3    C7 6914   0.349   1.633   1.849 -0.1737 -0.4443 -0.4548
  464TMC3    C8 6915   0.282   2.105   1.886 -0.3283  0.2894 -0.2107
  464TMC3    O1 6916   0.424   1.548   1.893 -0.7224 -0.8658 -0.3741
  464TMC3    O2 6917   0.159   2.088   1.894  0.2254  0.2220 -0.1197
  465MPD2     C 6918   1.955   0.254  17.095  0.2192  0.6677  0.3409
  465MPD2    C1 6919   1.880   0.268  17.214  0.7909  0.2964 -0.0443
  465MPD2    C2 6920   1.792   0.382  17.214 -0.1415  0.3793  0.0204
  465MPD2    C3 6921   1.770   0.459  17.102  0.3375 -0.5780 -0.0830
  465MPD2    C4 6922   1.844   0.437  16.984 -1.3179 -0.5933  0.0052
  465MPD2    C5 6923   1.930   0.332  16.986 -0.3889  0.0258  0.0419
  465MPD2     H 6924   1.738   0.408  17.304 -1.0110 -0.9782 -0.1081
  465MPD2    H1 6925   1.822   0.495  16.895 -0.4439  0.3699  0.4267
  465MPD2    H2 6926   2.028   0.174  17.080  0.2008  0.4924  1.1504
  465MPD2    H3 6927   1.972   0.315  16.888 -1.0803  1.1867 -0.4538
  465MPD2     N 6928   1.690   0.580  17.119 -0.4049 -0.1163  0.5298
  465MPD2    H5 6929   1.673   0.609  17.214  1.9084 -0.2729  1.0012
  465MPD2    N1 6930   1.889   0.184  17.333 -0.2534  0.5277  0.1089
  465MPD2    H7 6931   1.854   0.219  17.422 -0.8311  0.7375 -0.2048
  466TMC3    C1 6932   1.403   0.873  17.229 -0.9541  0.4092 -0.5672
  466TMC3    C2 6933   1.396   0.979  17.142 -0.2564 -0.4715  0.3113
  466TMC3    C3 6934   1.469   0.986  17.036 -0.1419 -0.3168  0.1920
  466TMC3    C4 6935   1.493   0.768  17.197  0.7511 -0.0440 -0.2944
  466TMC3    C5 6936   1.562   0.772  17.078 -0.7808  0.4612 -0.2265
  466TMC3    C6 6937   1.554   0.887  16.995 -0.5627  0.7386 -0.1397
  466TMC3     C 6938   1.342   0.885  17.361 -0.3568 -0.2879 -0.3821
  466TMC3     O 6939   1.246   0.958  17.355  0.3667  0.1728 -0.2966
  466TMC3     H 6940   1.308   1.041  17.147  0.2573  0.2680  0.1374
  466TMC3    H1 6941   1.489   0.679  17.258  1.2007  0.9369  1.1767
  466TMC3    H2 6942   1.623   0.898  16.912 -2.6795 -3.6490 -2.5195
  466TMC3    C7 6943   1.644   0.666  17.023 -0.4851 -0.4689  0.2823
  466TMC3    C8 6944   1.446   1.095  16.943  0.1774 -0.2878 -1.2126
  466TMC3    O1 6945   1.686   0.671  16.908 -0.3796  0.1367 -0.1000
  466TMC3    O2 6946   1.471   1.079  16.826 -0.1847 -0.0923 -0.4048
  467TMC3    C1 6947   2.331   4.666  13.778  0.5079 -0.4384 -0.4927
  467TMC3    C2 6948   2.366   4.584  13.674  0.2930 -0.7535  0.3479
  467TMC3    C3 6949   2.273   4.567  13.573  0.5726  0.8632  0.2294
  467TMC3    C4 6950   2.196   4.692  13.806 -0.0181  0.5508 -0.9913
  467TMC3    C5 6951   2.109   4.646  13.716  0.6223 -0.3588 -0.0088
  467TMC3    C6 6952   2.140   4.594  13.595  0.1180 -0.4583 -0.1014
  467TMC3     C 6953   2.415   0.060  13.788 -0.0624 -0.3057 -0.5462
  467TMC3     O 6954   2.385   0.145  13.872 -0.1433 -0.0795 -0.9127
  467TMC3     H 6955   2.463   4.535  13.665  0.4314 -0.3038 -0.7094
  467TMC3    H1 6956   2.172   0.015  13.901  1.0207 -0.8922 -0.0028
  467TMC3    H2 6957   2.071   4.582  13.512  0.3437  0.2120 -0.3852
  467TMC3    C7 6958   1.969   4.686  13.733 -0.3067  0.4354 -0.0085
  467TMC3    C8 6959   2.312   4.626  13.448  0.6316 -0.0665 -0.5100
  467TMC3    O1 6960   1.916   4.723  13.630  0.4522 -0.5534 -0.3739
  467TMC3    O2 6961   2.236   4.712  13.402  0.3519 -0.2428 -0.2676
  468MPD2     C 6962   1.059   3.129  10.482 -0.9514  0.4468 -0.7019
  468MPD2    C1 6963   1.134   3.085  10.592  0.2499  0.5719  0.9178
  468MPD2    C2 6964   1.172   2.952  10.599 -0.1359  0.1982 -0.2013
  468MPD2    C3 6965   1.131   2.872  10.494 -0.1158 -0.6307  0.0325
  468MPD2    C4 6966   1.051   2.914  10.383 -0.7364  0.6667 -0.0674
  468MPD2    C5 6967   1.013   3.043  10.382  0.3111  0.0337  0.0440
  468MPD2     H 6968   1.244   2.917  10.673  1.9973  2.8511 -1.0143
  468MPD2    H1 6969   1.016   2.844  10.309  1.1543 -1.0695  0.6930
  468MPD2    H2 6970   1.026   3.232  10.487 -0.6022  0.6082 -1.8719
  468MPD2    H3 6971   0.962   3.086  10.297  0.0111  2.4640  1.4775
  468MPD2     N 6972   1.155   2.734  10.492 -0.2470 -0.3711 -0.0484
  468MPD2    H5 6973   1.131   2.682  10.408  0.0585 -1.4021  0.5120
  468MPD2    N1 6974   1.168   3.170  10.704 -0.2194 -0.6734  0.1261
  468MPD2    H7 6975   1.222   3.121  10.775  0.5694 -0.3606 -0.2514
  469TMC3    C1 6976   1.154   3.362  10.848 -0.0299  0.5343  0.4796
  469TMC3    C2 6977   1.171   3.279  10.952 -1.5901 -0.5070  0.0313
  469TMC3    C3 6978   1.224   3.333  11.066  0.1233  0.3892 -0.4069
  469TMC3    C4 6979   1.168   3.498  10.852 -0.7945  0.3289  0.5516
  469TMC3    C5 6980   1.242   3.542  10.963 -0.0247 -0.1995  0.5790
  469TMC3    C6 6981   1.264   3.460  11.073  0.6712 -0.8458 -0.6131
  469TMC3     C 6982   1.124   3.302  10.718 -0.4817 -0.2009 -0.3063
  469TMC3     O 6983   1.074   3.379  10.637  0.0096  0.2585 -0.2956
  469TMC3     H 6984   1.131   3.178  10.953  1.1934 -1.6070  1.1586
  469TMC3    H1 6985   1.149   3.557  10.763  0.7153  0.4353  0.3015
  469TMC3    H2 6986   1.328   3.487  11.157 -2.8912  2.1015  1.1525
  469TMC3    C7 6987   1.307   3.669  10.963  0.1099  0.8775  0.3738
  469TMC3    C8 6988   1.292   3.230  11.145 -0.4873  0.2920  0.1936
  469TMC3    O1 6989   1.270   3.754  10.884 -0.5724  0.3659  0.4202
  469TMC3    O2 6990   1.346   3.138  11.084 -0.2144  0.6107 -0.1312
  470TMC3    C1 6991   3.748   3.467   0.224  0.1718  1.2811  0.0407
  470TMC3    C2 6992   3.769   3.600   0.250 -0.0346 -0.5383  0.4172
  470TMC3    C3 6993   3.816   3.625   0.376 -0.9305  0.5509  0.0243
  470TMC3    C4 6994   3.782   3.371   0.314  0.2343  0.1565  0.3276
  470TMC3    C5 6995   3.834   3.397   0.439  0.2386  1.1626  0.0521
  470TMC3    C6 6996   3.846   3.530   0.476 -0.3962 -0.7286 -1.1645
  470TMC3     C 6997   3.711   3.434   0.088 -0.5189 -0.4891 -0.1886
  470TMC3     O 6998   3.735   3.524   0.008 -0.1210  0.0395 -0.1615
  470TMC3     H 6999   3.743   3.679   0.180 -0.2175 -1.5879 -0.6870
  470TMC3    H1 7000   3.787   3.268   0.280  1.1038 -0.1226  1.3264
  470TMC3    H2 7001   3.890   3.570   0.567 -3.1648 -0.3896  0.0364
  470TMC3    C7 7002   3.861   3.278   0.524  0.5402  1.1045 -0.4279
  470TMC3    C8 7003   3.795   3.758   0.434 -1.1586 -0.2907 -0.0459
  470TMC3    O1 7004   3.838   3.171   0.476 -0.3513 -0.3181 -0.7057
  470TMC3    O2 7005   3.798   3.773   0.556  0.9132  0.2646  0.2492
  471MPD2     C 7006   4.223   0.314  16.442  0.6907 -0.3147 -0.8583
  471MPD2    C1 7007   4.288   0.194  16.483 -1.2631  0.0638 -0.9176
  471MPD2    C2 7008   4.316   0.167  16.615 -0.5788  0.2570 -0.2617
  471MPD2    C3 7009   4.279   0.253  16.711  0.4277  0.8408  0.5873
  471MPD2    C4 7010   4.215   0.377  16.673  0.0636 -0.2534  0.3115
  471MPD2    C5 7011   4.196   0.406  16.542 -0.4478  0.3041 -0.2339
  471MPD2     H 7012   4.356   0.072  16.649  1.2439  1.1745  0.1709
  471MPD2    H1 7013   4.182   0.453  16.743 -0.7720 -0.1818 -0.1568
  471MPD2    H2 7014   4.210   0.342  16.338 -1.4077  0.4027 -0.3924
  471MPD2    H3 7015   4.158   0.500  16.504  0.9258  2.0243  2.6164
  471MPD2     N 7016   4.303   0.214  16.850  0.1988 -0.4210  0.6889
  471MPD2    H5 7017   4.337   0.119  16.862  1.6553  0.2834  2.0221
  471MPD2    N1 7018   4.332   0.093  16.399  0.0735 -0.0214 -0.1117
  471MPD2    H7 7019   4.380   0.015  16.443  2.0505  1.3603  0.1927
  472TMC3    C1 7020   4.366   4.696  16.196 -0.2468 -0.5077  0.5326
  472TMC3    C2 7021   4.314   4.652  16.075 -0.0864 -0.8653  0.3569
  472TMC3    C3 7022   4.349   4.533  16.017  0.1601  0.5544 -0.7818
  472TMC3    C4 7023   4.428   4.610  16.273  0.3386 -0.3185 -0.0946
  472TMC3    C5 7024   4.432   4.481  16.228  0.5544 -0.2027 -0.7564
  472TMC3    C6 7025   4.424   4.451  16.091 -0.7071  0.3549  0.7009
  472TMC3     C 7026   4.298   0.078  16.268 -0.3193  0.1016  0.4077
  472TMC3     O 7027   4.211   0.139  16.204 -0.2751 -0.5708 -0.4602
  472TMC3     H 7028   4.243   4.719  16.029  1.4203  0.6902  0.2975
  472TMC3    H1 7029   4.484   4.624  16.365 -0.9070 -0.5212  0.6991
  472TMC3    H2 7030   4.446   4.352  16.053 -2.2667 -0.1769  1.1528
  472TMC3    C7 7031   4.367   4.388  16.310 -0.0135  0.3548  0.8442
  472TMC3    C8 7032   4.244   4.461  15.950  0.3234 -0.2146 -0.0084
  472TMC3    O1 7033   4.358   4.407  16.435 -0.6849 -0.2792  0.3257
  472TMC3    O2 7034   4.251   4.340  15.976 -0.0567 -0.0201 -0.1211
  473MPD2     C 7035   4.388   2.127  13.839  0.3525  0.0630 -0.3611
  473MPD2    C1 7036   4.260   2.163  13.881 -0.6621  0.2752  0.0560
  473MPD2    C2 7037   4.252   2.230  13.995  0.2709  0.3902  0.2692
  473MPD2    C3 7038   4.369   2.269  14.066  0.0960 -0.6096 -0.6058
  473MPD2    C4 7039   4.494   2.230  14.027  0.8730  0.1458 -0.2129
  473MPD2    C5 7040   4.501   2.167  13.908 -0.2760  0.2021 -0.3783
  473MPD2     H 7041   4.153   2.263  14.027  0.2215  1.0465 -0.5741
  473MPD2    H1 7042   4.591   2.256  14.067  0.6402 -0.5792  0.8046
  473MPD2    H2 7043   4.401   2.075  13.745  1.7580 -2.2988  1.1493
  473MPD2    H3 7044   4.599   2.144  13.869  0.5818  0.3096  1.7217
  473MPD2     N 7045   4.366   2.352  14.178  0.7044 -0.6299 -0.1715
  473MPD2    H5 7046   4.447   2.343  14.238  1.8596  0.8571 -1.5056
  473MPD2    N1 7047   4.135   2.132  13.819 -0.1677  0.1935  0.6049
  473MPD2    H7 7048   4.045   2.144  13.864 -0.3817 -1.7544  0.7054
  474TMC3    C1 7049   4.312   2.543  14.305 -1.2635  0.4587 -0.7227
  474TMC3    C2 7050   4.211   2.613  14.368  0.3430 -0.6666 -0.1101
  474TMC3    C3 7051   4.256   2.708  14.459 -0.3563  0.0489  0.6282
  474TMC3    C4 7052   4.448   2.560  14.317  0.5260  0.5535  0.0882
  474TMC3    C5 7053   4.480   2.648  14.416 -0.5736  0.9292 -0.3259
  474TMC3    C6 7054   4.390   2.729  14.483 -0.3827  0.0928 -0.2956
  474TMC3     C 7055   4.263   2.447  14.206  0.3598  0.2732  0.4210
  474TMC3     O 7056   4.179   2.484  14.127  0.4164  0.3982 -0.2574
  474TMC3     H 7057   4.105   2.597  14.354  0.3051 -1.5074  1.1858
  474TMC3    H1 7058   4.520   2.534  14.240  3.0232  0.3104  2.5025
  474TMC3    H2 7059   4.420   2.811  14.547  0.2325 -0.9686  0.7691
  474TMC3    C7 7060   4.628   2.684  14.433 -0.6586  0.1119 -0.3081
  474TMC3    C8 7061   4.160   2.820  14.472  0.0061  0.5572  0.1361
  474TMC3    O1 7062   4.695   2.669  14.330  0.3853 -0.3773  0.0186
  474TMC3    O2 7063   4.043   2.802  14.509  0.5732  0.4960 -0.2871
  475MPD2     C 7064   2.017   0.829  10.739  0.1528 -0.1119 -0.5289
  475MPD2    C1 7065   1.998   0.782  10.614  0.7336  0.1269 -0.0741
  475MPD2    C2 7066   1.876   0.726  10.581  0.2217  0.2263  0.1155
  475MPD2    C3 7067   1.779   0.709  10.679 -0.7208 -0.6869  0.4063
  475MPD2    C4 7068   1.807   0.746  10.809 -0.1080  0.3568  0.3482
  475MPD2    C5 7069   1.918   0.818  10.836  1.1065 -0.5587  0.6860
  475MPD2     H 7070   1.850   0.688  10.483  3.4189 -1.5599 -0.0674
  475MPD2    H1 7071   1.746   0.722  10.895 -1.6776 -0.5605 -1.0321
  475MPD2    H2 7072   2.114   0.865  10.773  0.8029 -2.2631 -0.0905
  475MPD2    H3 7073   1.931   0.854  10.937 -0.0172  2.3469 -0.2201
  475MPD2     N 7074   1.653   0.651  10.649 -0.8241 -0.2163 -0.1296
  475MPD2    H5 7075   1.620   0.637  10.554 -2.1265  1.2308  0.1213
  475MPD2    N1 7076   2.101   0.789  10.525 -0.3230 -0.0213  0.2249
  475MPD2    H7 7077   2.177   0.850  10.552 -0.2888 -0.4586  1.1047
  476TMC3    C1 7078   2.237   0.708  10.339 -0.1562  0.0291 -0.3761
  476TMC3    C2 7079   2.262   0.590  10.277 -0.5568 -0.0596  0.4608
  476TMC3    C3 7080   2.385   0.557  10.232 -0.1074 -0.7488  0.1748
  476TMC3    C4 7081   2.338   0.806  10.361 -0.4008 -0.2370  0.0696
  476TMC3    C5 7082   2.465   0.771  10.315 -0.0645 -0.3255  0.1414
  476TMC3    C6 7083   2.484   0.643  10.260 -0.3595  0.4591  0.1686
  476TMC3     C 7084   2.111   0.707  10.416  0.3601 -0.1503  0.2184
  476TMC3     O 7085   2.034   0.621  10.382 -0.3702 -0.5504 -0.2682
  476TMC3     H 7086   2.180   0.522  10.259 -0.3202 -0.2063 -0.0753
  476TMC3    H1 7087   2.320   0.904  10.404 -1.2407 -0.2971 -0.1481
  476TMC3    H2 7088   2.578   0.626  10.207 -1.3829  0.2677 -1.5759
  476TMC3    C7 7089   2.579   0.858  10.343 -0.1854  0.1275  1.0693
  476TMC3    C8 7090   2.410   0.418  10.234  0.6623  0.8219 -0.1564
  476TMC3    O1 7091   2.669   0.851  10.261  0.3637  0.2811  1.1537
  476TMC3    O2 7092   2.517   0.372  10.189  0.2947  0.4012  0.8356
  477MPD2     C 7093   4.600   2.257  11.290 -0.4415 -0.4030  0.1572
  477MPD2    C1 7094   4.565   2.287  11.415  0.1639 -0.5851  0.6907
  477MPD2    C2 7095   4.631   2.222  11.522 -0.0915  0.6675  0.1554
  477MPD2    C3 7096   4.712   2.113  11.495 -0.3263  0.3402 -0.1832
  477MPD2    C4 7097   0.017   2.081  11.361 -0.2330  0.2028 -0.6990
  477MPD2    C5 7098   4.688   2.158  11.261  0.0535 -0.1747 -0.6523
  477MPD2     H 7099   4.627   2.263  11.622 -0.1404 -0.3642  0.5732
  477MPD2    H1 7100   0.075   1.995  11.331  0.8199  0.4194  0.7309
  477MPD2    H2 7101   4.556   2.311  11.206  1.2932  0.4602 -0.2155
  477MPD2    H3 7102   4.719   2.140  11.159  0.0925  1.3798 -0.9112
  477MPD2     N 7103   0.044   2.042  11.604 -0.7101  0.1528  0.3960
  477MPD2    H5 7104   0.011   2.072  11.695 -0.3300  1.8563 -0.0130
  477MPD2    N1 7105   4.467   2.391  11.421 -0.1984 -0.0962  0.0472
  477MPD2    H7 7106   4.433   2.433  11.335  1.1110  1.6252  0.3529
  478TMC3    C1 7107   4.327   2.551  11.505  0.4074  0.1866  0.2036
  478TMC3    C2 7108   4.298   2.629  11.613 -0.7572  0.4124 -0.6467
  478TMC3    C3 7109   4.202   2.722  11.608 -0.5370 -0.8150  0.0767
  478TMC3    C4 7110   4.243   2.546  11.403 -0.7183 -0.0072 -0.0628
  478TMC3    C5 7111   4.141   2.633  11.397 -0.7544 -0.9861 -0.0744
  478TMC3    C6 7112   4.116   2.725  11.501 -0.2883 -0.8577  0.8166
  478TMC3     C 7113   4.418   2.445  11.539  0.1835  0.3011 -0.0751
  478TMC3     O 7114   4.429   2.412  11.656  0.9049 -0.3638 -0.6187
  478TMC3     H 7115   4.374   2.631  11.690 -0.9773  1.0953 -0.4478
  478TMC3    H1 7116   4.251   2.470  11.326  0.5652 -0.2853  0.3510
  478TMC3    H2 7117   4.023   2.779  11.506 -0.4013 -0.7025 -2.6062
  478TMC3    C7 7118   4.077   2.650  11.264 -0.1907 -0.4988 -0.2639
  478TMC3    C8 7119   4.198   2.826  11.709  0.2041 -0.4155  0.3343
  478TMC3    O1 7120   3.956   2.674  11.267 -0.1465  0.0507  0.6225
  478TMC3    O2 7121   4.286   2.812  11.799 -0.1718  0.3279 -0.5452
  479MPD2     C 7122   3.859   3.985  14.919 -0.3394  0.2437 -0.8762
  479MPD2    C1 7123   3.813   3.920  15.027  0.7921  0.0113 -0.2407
  479MPD2    C2 7124   3.884   3.926  15.153  0.0424 -0.7211  0.0767
  479MPD2    C3 7125   3.996   4.007  15.166  0.2685 -0.0665  0.0850
  479MPD2    C4 7126   4.037   4.083  15.051  0.1757  0.9291  0.0042
  479MPD2    C5 7127   3.969   4.062  14.934 -0.7853 -0.0774  0.1146
  479MPD2     H 7128   3.842   3.876  15.240  0.8443  0.0262  0.8938
  479MPD2    H1 7129   4.115   4.157  15.060 -0.5004  1.4025  2.1350
  479MPD2    H2 7130   3.815   3.972  14.821  1.1968  0.2048 -1.5546
  479MPD2    H3 7131   4.000   4.112  14.843  4.1823  0.9469  2.3484
  479MPD2     N 7132   4.068   4.033  15.283 -0.0429  0.4287  0.2544
  479MPD2    H5 7133   4.151   4.090  15.274 -0.3597  0.9017  0.2962
  479MPD2    N1 7134   3.686   3.872  15.012  0.3620 -0.2779  0.0466
  479MPD2    H7 7135   3.641   3.887  14.922 -2.4849 -2.3334  1.1070
  480TMC3    C1 7136   4.039   4.019  15.748 -0.2630 -0.2910  0.4573
  480TMC3    C2 7137   3.987   4.145  15.734  0.1510 -0.2716  0.2586
  480TMC3    C3 7138   4.004   4.222  15.626 -0.0852 -0.3255 -0.1445
  480TMC3    C4 7139   4.096   3.963  15.633  0.2946  0.1962 -0.0937
  480TMC3    C5 7140   4.106   4.036  15.518 -0.0583  0.4461 -0.3893
  480TMC3    C6 7141   4.077   4.171  15.520 -0.7696 -0.7563  0.1430
  480TMC3     C 7142   3.980   3.920  15.841  0.6457 -0.2549  0.3814
  480TMC3     O 7143   4.035   3.812  15.853 -0.9873 -0.7650 -0.2911
  480TMC3     H 7144   3.928   4.200  15.805 -0.3592 -1.0439  0.4317
  480TMC3    H1 7145   4.139   3.863  15.636 -0.8623 -0.2603  1.1271
  480TMC3    H2 7146   4.089   4.237  15.434  4.1149  0.8165  2.0082
  480TMC3    C7 7147   4.043   3.974  15.401 -0.6268  0.5347  0.2243
  480TMC3    C8 7148   3.863   4.265  15.582  0.2280  0.8104  0.3133
  480TMC3    O1 7149   3.965   3.885  15.429 -0.1905  0.4345 -0.3776
  480TMC3    O2 7150   3.783   4.190  15.630  0.1545  0.6844 -0.1378
  481MPD2     C 7151   0.747   3.969  14.050  0.3095  0.2035  0.0059
  481MPD2    C1 7152   0.687   3.850  14.081  0.4313  0.6244 -0.1487
  481MPD2    C2 7153   0.692   3.811  14.213  0.5386 -0.3374  0.3675
  481MPD2    C3 7154   0.736   3.899  14.313 -0.1526 -0.1228 -0.0631
  481MPD2    C4 7155   0.789   4.021  14.277 -0.3330 -0.3085 -0.2428
  481MPD2    C5 7156   0.795   4.060  14.144  1.1133  0.3420 -0.2036
  481MPD2     H 7157   0.643   3.720  14.245 -1.5986  0.1434 -1.5420
  481MPD2    H1 7158   0.830   4.082  14.356 -2.9909  0.3274  0.6575
  481MPD2    H2 7159   0.762   4.003  13.948 -2.3736 -0.0314 -0.4841
  481MPD2    H3 7160   0.860   4.141  14.113  1.9104 -0.2914 -0.1856
  481MPD2     N 7161   0.738   3.866  14.452 -0.2326 -0.0997 -1.2247
  481MPD2    H5 7162   0.788   3.934  14.508 -1.9238 -0.2470  0.4594
  481MPD2    N1 7163   0.619   3.780  13.983  0.0362  0.2898  0.1879
  481MPD2    H7 7164   0.622   3.819  13.889  1.4588  0.4558  0.2900
  482TMC3    C1 7165   0.505   3.599  13.886  0.1823 -0.9453 -0.2434
  482TMC3    C2 7166   0.515   3.461  13.864 -0.9414  0.4665 -0.5527
  482TMC3    C3 7167   0.402   3.393  13.818 -0.3472 -0.5855 -0.4803
  482TMC3    C4 7168   0.396   3.675  13.873 -0.5578  0.2633 -0.3263
  482TMC3    C5 7169   0.281   3.595  13.835 -0.7743  0.0096  0.4893
  482TMC3    C6 7170   0.289   3.462  13.801  0.3772 -0.7015 -0.3939
  482TMC3     C 7171   0.575   3.651  14.000 -0.3829 -0.2781  1.1892
  482TMC3     O 7172   0.597   3.570  14.085 -0.6208  0.3610  0.6428
  482TMC3     H 7173   0.608   3.408  13.881  0.0729  1.6449 -2.4572
  482TMC3    H1 7174   0.392   3.771  13.923 -0.3370 -0.4939  1.1292
  482TMC3    H2 7175   0.205   3.409  13.757 -0.7133 -0.7028  1.7017
  482TMC3    C7 7176   0.148   3.662  13.812  0.4209 -0.5825  0.0272
  482TMC3    C8 7177   0.427   3.276  13.743  0.7120  0.8201  0.5148
  482TMC3    O1 7178   0.057   3.581  13.793  0.4892  0.3080  0.6006
  482TMC3    O2 7179   0.540   3.265  13.700  0.0677 -0.5125  0.6183
  483TMC3    C1 7180   3.569   2.744   1.593 -0.3008  0.5879  0.3669
  483TMC3    C2 7181   3.658   2.851   1.582 -0.4024 -0.3877  0.0349
  483TMC3    C3 7182   3.779   2.846   1.643 -0.2666  1.0462 -0.5458
  483TMC3    C4 7183   3.594   2.639   1.684  0.3339 -0.3854 -0.0211
  483TMC3    C5 7184   3.722   2.634   1.743  0.6145 -0.2522  0.3944
  483TMC3    C6 7185   3.812   2.738   1.717  0.5365  0.1139 -0.2825
  483TMC3     C 7186   3.455   2.745   1.509  0.1991 -0.1612 -0.2654
  483TMC3     O 7187   3.426   2.855   1.464 -0.2799  0.0153  0.0462
  483TMC3     H 7188   3.640   2.941   1.524 -0.9639 -1.2195 -1.0856
  483TMC3    H1 7189   3.530   2.554   1.703 -2.3905  1.6922  0.0769
  483TMC3    H2 7190   3.917   2.714   1.727  0.6852  1.2885  1.0847
  483TMC3    C7 7191   3.773   2.499   1.770 -0.7734 -0.0666 -0.2971
  483TMC3    C8 7192   3.879   2.880   1.550  0.2439  0.6126 -0.1156
  483TMC3    O1 7193   3.711   2.412   1.719  0.1348 -0.1466 -0.3161
  483TMC3    O2 7194   3.857   2.863   1.426  0.4635  0.4604  0.2337
  484MPD2     C 7195   1.375   1.078  12.528 -0.1329 -0.6034 -0.3400
  484MPD2    C1 7196   1.385   0.999  12.643  0.2869  0.1229  0.7337
  484MPD2    C2 7197   1.510   0.957  12.685 -0.2521 -0.2187  0.3628
  484MPD2    C3 7198   1.626   0.995  12.621  0.4203  0.3898 -0.0238
  484MPD2    C4 7199   1.616   1.077  12.511 -0.0983 -0.8725  0.1581
  484MPD2    C5 7200   1.489   1.125  12.466  0.2683  0.0641 -0.0589
  484MPD2     H 7201   1.518   0.899  12.777 -2.1399  0.7319  1.1331
  484MPD2    H1 7202   1.707   1.096  12.456 -0.3408 -1.3289 -0.4046
  484MPD2    H2 7203   1.277   1.110  12.492  0.2447 -0.8293 -1.5544
  484MPD2    H3 7204   1.465   1.194  12.386 -0.4418 -0.9359 -0.7073
  484MPD2     N 7205   1.760   0.957  12.651 -0.5360  0.0311  0.1094
  484MPD2    H5 7206   1.833   0.991  12.591 -0.4044  0.6231  0.6038
  484MPD2    N1 7207   1.257   0.962  12.700 -0.2372  0.1923  0.5448
  484MPD2    H7 7208   1.175   1.015  12.671  0.7173  0.3413 -1.7883
  485TMC3    C1 7209   1.921   0.811  12.734  0.0706  0.7128 -0.3880
  485TMC3    C2 7210   1.941   0.680  12.769  0.0933 -0.1520 -0.3920
  485TMC3    C3 7211   2.064   0.628  12.779 -0.0682 -0.7078  0.6040
  485TMC3    C4 7212   2.023   0.898  12.721  0.6820  0.4694  0.3941
  485TMC3    C5 7213   2.152   0.848  12.749 -0.1770  0.9266 -0.6459
  485TMC3    C6 7214   2.169   0.718  12.783  0.0170  0.8197  0.2358
  485TMC3     C 7215   1.787   0.854  12.735  0.3462 -0.8720  0.1163
  485TMC3     O 7216   1.709   0.785  12.802  0.1815 -0.4677 -0.0153
  485TMC3     H 7217   1.857   0.612  12.760 -0.1497  0.6547 -4.0785
  485TMC3    H1 7218   2.007   1.000  12.689 -3.0110 -0.3419 -0.3692
  485TMC3    H2 7219   2.266   0.679  12.811  0.1784 -1.0221 -2.8908
  485TMC3    C7 7220   2.247   0.887  12.655 -0.5377 -0.2512  0.2794
  485TMC3    C8 7221   2.097   0.517  12.692  0.3139 -0.2826  0.0559
  485TMC3    O1 7222   2.240   0.998  12.611  0.0921 -0.2137 -0.9154
  485TMC3    O2 7223   2.212   0.504  12.654 -0.0422  0.3450 -0.1415
  486MPD2     C 7224   3.695   4.568  12.710  0.7377 -0.2808 -0.0247
  486MPD2    C1 7225   3.604   4.464  12.675  0.0668 -0.4080 -0.3712
  486MPD2    C2 7226   3.474   4.498  12.641  0.5194  0.3399  0.3325
  486MPD2    C3 7227   3.436   4.633  12.617 -0.4331  0.3279 -1.1595
  486MPD2    C4 7228   3.526   0.003  12.662  0.0687  0.4205 -0.1638
  486MPD2    C5 7229   3.644   4.690  12.713  0.2193  0.4820  0.0821
  486MPD2     H 7230   3.402   4.421  12.615  0.1716 -0.3777  3.4304
  486MPD2    H1 7231   3.495   0.106  12.666  1.5786  0.8681 -0.1162
  486MPD2    H2 7232   3.798   4.550  12.740 -0.0663 -1.2741  2.1233
  486MPD2    H3 7233   3.705   0.047  12.751  0.6331 -0.3581  1.2293
  486MPD2     N 7234   3.313   4.673  12.556  0.0719 -0.3014 -0.4833
  486MPD2    H5 7235   3.261   4.596  12.515  0.0396 -0.5663  0.0623
  486MPD2    N1 7236   3.660   4.334  12.682 -0.3577 -0.0361 -0.2337
  486MPD2    H7 7237   3.758   4.331  12.706 -0.5364  0.7917  0.6165
  487TMC3    C1 7238   3.657   4.099  12.728 -0.1848 -0.3820 -0.0616
  487TMC3    C2 7239   3.583   3.987  12.751  0.3421  0.2573 -0.0282
  487TMC3    C3 7240   3.629   3.888  12.831 -0.9840 -0.5004 -0.1633
  487TMC3    C4 7241   3.774   4.118  12.793  0.1604  0.1064 -0.3621
  487TMC3    C5 7242   3.818   4.025  12.884 -0.4476  0.1651  0.1061
  487TMC3    C6 7243   3.753   3.904  12.889  0.5801  0.7993 -0.0496
  487TMC3     C 7244   3.584   4.215  12.681  0.0573  0.5552 -0.0369
  487TMC3     O 7245   3.463   4.201  12.674 -0.3507 -0.0656  0.0779
  487TMC3     H 7246   3.489   3.980  12.698 -0.3975 -2.8114  1.6594
  487TMC3    H1 7247   3.831   4.211  12.791 -0.3600  0.5051  2.5913
  487TMC3    H2 7248   3.776   3.837  12.972 -0.6180 -0.3679 -0.6540
  487TMC3    C7 7249   3.839   4.089  13.014  0.3187  0.5741  0.0718
  487TMC3    C8 7250   3.528   3.838  12.920 -0.4485 -0.4764  0.5453
  487TMC3    O1 7251   3.870   4.204  13.006  0.0357  0.3935  0.6528
  487TMC3    O2 7252   3.412   3.879  12.902 -0.0111 -0.0110 -0.2569
  488MPD2     C 7253   3.541   1.053  16.081  0.4504 -0.2984  0.4859
  488MPD2    C1 7254   3.598   1.157  16.153  0.1735 -0.2848  0.8647
  488MPD2    C2 7255   3.633   1.140  16.287  0.1426 -0.3112  0.6349
  488MPD2    C3 7256   3.625   1.015  16.346 -0.0300  0.2786  0.0043
  488MPD2    C4 7257   3.577   0.909  16.271  0.0861  0.0796 -0.9633
  488MPD2    C5 7258   3.530   0.932  16.140 -0.7534  0.1472 -0.0364
  488MPD2     H 7259   3.669   1.227  16.341  0.5583 -0.5027  0.6688
  488MPD2    H1 7260   3.576   0.807  16.309  1.6651  0.1531 -0.7246
  488MPD2    H2 7261   3.496   1.058  15.982  2.1984  2.5136 -0.1672
  488MPD2    H3 7262   3.498   0.841  16.091 -1.3608  1.3672 -1.8981
  488MPD2     N 7263   3.652   1.011  16.487 -0.1474  0.1052 -0.4679
  488MPD2    H5 7264   3.708   1.084  16.530 -0.1303 -1.0268  1.4279
  488MPD2    N1 7265   3.605   1.288  16.105  0.0881 -0.3805  0.1432
  488MPD2    H7 7266   3.661   1.347  16.166 -2.5386 -0.1168  2.3090
  489TMC3    C1 7267   3.622   0.945  16.707  0.2828  0.1835 -0.5159
  489TMC3    C2 7268   3.686   1.063  16.737 -1.1570  0.0044 -0.1285
  489TMC3    C3 7269   3.652   1.127  16.849 -0.3525 -0.3907  0.1044
  489TMC3    C4 7270   3.521   0.900  16.789 -0.6955  0.0837 -0.2170
  489TMC3    C5 7271   3.496   0.970  16.900  0.8477  0.1470  0.7916
  489TMC3    C6 7272   3.560   1.083  16.934 -0.1145  0.5216 -0.2170
  489TMC3     C 7273   3.602   0.916  16.568  0.2502 -0.3121  0.1118
  489TMC3     O 7274   3.533   0.817  16.542  0.1210  0.3794  0.4948
  489TMC3     H 7275   3.768   1.100  16.676 -0.7590 -0.1863  0.2972
  489TMC3    H1 7276   3.479   0.801  16.775 -0.3055 -0.1527  0.2873
  489TMC3    H2 7277   3.521   1.144  17.015  3.1516  4.3790 -1.5148
  489TMC3    C7 7278   3.420   0.911  17.008 -0.2304 -0.4784  0.1424
  489TMC3    C8 7279   3.696   1.269  16.870 -0.3387 -0.4698  0.3873
  489TMC3    O1 7280   3.452   0.954  17.121 -0.1422  0.1781 -1.0457
  489TMC3    O2 7281   3.722   1.328  16.770  0.7444 -0.0426 -0.5178
  490MPD2     C 7282   4.315   1.086  17.298 -0.4580  0.1447  0.1247
  490MPD2    C1 7283   4.298   0.971  17.368 -0.1300 -0.0039  0.3406
  490MPD2    C2 7284   4.371   0.949  17.488 -0.0672 -0.0192 -0.4865
  490MPD2    C3 7285   4.470   1.036  17.518  0.6922  0.1276  0.7551
  490MPD2    C4 7286   4.492   1.149  17.441 -0.2519 -0.1134  0.2406
  490MPD2    C5 7287   4.403   1.175  17.340 -0.6464 -0.1783  0.1973
  490MPD2     H 7288   4.354   0.856  17.542 -2.1068  2.1035  2.4656
  490MPD2    H1 7289   4.579   1.211  17.459  0.8495 -1.6353  0.1750
  490MPD2    H2 7290   4.267   1.109  17.204 -0.3650  1.6948  0.4657
  490MPD2    H3 7291   4.419   1.259  17.274  1.7824 -0.6078  0.2309
  490MPD2     N 7292   4.559   1.007  17.624 -0.2315 -0.5151 -0.9594
  490MPD2    H5 7293   4.640   1.067  17.635  1.9271 -3.7864  0.6964
  490MPD2    N1 7294   4.218   0.861  17.327 -0.3233 -0.2964 -0.0078
  490MPD2    H7 7295   4.225   0.776  17.383  3.5490  0.8319  1.2036
  491TMC3    C1 7296   4.070   0.726  17.211 -0.1789  0.3587  0.3674
  491TMC3    C2 7297   4.092   0.644  17.321  0.3894 -0.3826 -0.1632
  491TMC3    C3 7298   4.045   0.517  17.314  0.3287 -0.1182 -0.7173
  491TMC3    C4 7299   4.025   0.677  17.093 -0.0902 -0.2396  0.2720
  491TMC3    C5 7300   3.976   0.550  17.089  1.0042 -0.3656  0.1419
  491TMC3    C6 7301   3.985   0.462  17.198  0.2679  0.0500 -0.0975
  491TMC3     C 7302   4.154   0.849  17.204  0.8331 -0.1363 -0.1088
  491TMC3     O 7303   4.183   0.907  17.097  1.5215  0.4465 -0.2243
  491TMC3     H 7304   4.119   0.676  17.421  1.6853 -0.1947 -0.5674
  491TMC3    H1 7305   4.036   0.738  17.004  2.4956 -1.8551 -0.5215
  491TMC3    H2 7306   3.963   0.355  17.199  0.9452 -0.1469 -6.4972
  491TMC3    C7 7307   3.947   0.487  16.959 -0.4720 -0.0836  0.0380
  491TMC3    C8 7308   4.017   0.445  17.427 -0.1926 -0.0043  0.1723
  491TMC3    O1 7309   3.932   0.367  16.960  0.2049  0.1428 -0.3345
  491TMC3    O2 7310   3.917   0.376  17.423  0.1917  0.2474  0.0544
  492MPD2     C 7311   4.304   1.377  11.516 -0.1763 -0.0428  0.2641
  492MPD2    C1 7312   4.319   1.267  11.429  0.2506 -0.4921  1.0607
  492MPD2    C2 7313   4.331   1.143  11.490  0.0722  0.7439 -0.0334
  492MPD2    C3 7314   4.298   1.122  11.619  0.0978 -0.1608 -0.0484
  492MPD2    C4 7315   4.254   1.227  11.699 -0.7201  0.5932  0.1858
  492MPD2    C5 7316   4.269   1.360  11.651 -0.0797  0.3634  0.2223
  492MPD2     H 7317   4.353   1.063  11.421 -2.6630 -0.5345  0.5715
  492MPD2    H1 7318   4.233   1.221  11.806  1.1188 -2.7195  0.4040
  492MPD2    H2 7319   4.302   1.479  11.479  0.1313  0.6130  2.0849
  492MPD2    H3 7320   4.262   1.443  11.721  2.2766 -0.6097  1.6041
  492MPD2     N 7321   4.310   0.991  11.679 -0.6552  0.0102  0.2108
  492MPD2    H5 7322   4.268   0.984  11.771 -2.5495  1.7252 -0.5201
  492MPD2    N1 7323   4.325   1.296  11.287 -0.1433 -0.0938 -0.4856
  492MPD2    H7 7324   4.316   1.394  11.262 -0.7534 -0.3643 -1.3413
  493TMC3    C1 7325   4.327   1.237  11.049 -0.1958 -1.0368  0.4480
  493TMC3    C2 7326   4.419   1.327  11.016  0.4032 -0.0931  0.2753
  493TMC3    C3 7327   4.426   1.358  10.888  0.1491 -0.8373  0.4840
  493TMC3    C4 7328   4.264   1.152  10.966 -0.6752 -0.6050  0.0109
  493TMC3    C5 7329   4.275   1.188  10.834  0.2003  0.6426  0.8532
  493TMC3    C6 7330   4.346   1.297  10.794 -0.0824  0.2048  0.0765
  493TMC3     C 7331   4.321   1.195  11.195  0.4407  0.0341 -0.3875
  493TMC3     O 7332   4.296   1.074  11.209 -0.1285 -0.6064  0.2347
  493TMC3     H 7333   4.478   1.368  11.097 -1.6230 -1.5308  2.4659
  493TMC3    H1 7334   4.197   1.074  11.002 -2.3476  0.1006 -1.6255
  493TMC3    H2 7335   4.375   1.316  10.692 -0.6388  2.0476  0.2499
  493TMC3    C7 7336   4.237   1.084  10.741  0.0475  0.9955  0.4175
  493TMC3    C8 7337   4.533   1.444  10.845 -0.5296  0.0354  0.5657
  493TMC3    O1 7338   4.196   1.124  10.634  0.0674  0.4182 -0.1198
  493TMC3    O2 7339   4.620   1.439  10.926  0.8784  0.3943  0.7977
  494TMC3    C1 7340   4.526   2.603   0.680  0.9062  0.6523  0.2565
  494TMC3    C2 7341   4.483   2.470   0.677 -0.3186  0.2033  0.0032
  494TMC3    C3 7342   4.554   2.386   0.601  0.0030 -0.0009 -0.3348
  494TMC3    C4 7343   4.608   2.650   0.576  0.4272  0.6135  0.4837
  494TMC3    C5 7344   4.652   2.563   0.483 -0.7685 -0.3794 -0.6840
  494TMC3    C6 7345   4.628   2.425   0.503 -0.5532  1.0003 -0.8578
  494TMC3     C 7346   4.494   2.686   0.797  0.5543 -0.0644 -0.3677
  494TMC3     O 7347   4.420   2.632   0.874 -0.1753 -0.2629  0.1875
  494TMC3     H 7348   4.430   2.433   0.764 -1.2865 -1.5699 -1.3612
  494TMC3    H1 7349   4.621   2.758   0.571 -0.1828  0.6584 -0.1315
  494TMC3    H2 7350   4.657   2.357   0.424 -1.4805  0.3438 -0.6326
  494TMC3    C7 7351   4.716   2.601   0.357 -0.8033 -0.2577  0.2008
  494TMC3    C8 7352   4.589   2.267   0.665 -0.3537  0.4685  0.0145
  494TMC3    O1 7353   0.036   2.510   0.289 -0.3013 -0.0352 -0.3093
  494TMC3    O2 7354   4.507   2.227   0.752  0.2928  0.4033 -0.0962
  495TMC3    C1 7355   4.038   4.316  14.635  0.8211  0.2444 -0.5836
  495TMC3    C2 7356   3.965   4.377  14.540  0.4125  0.7547 -0.1326
  495TMC3    C3 7357   3.860   4.448  14.589  0.6375  0.1173  0.2133
  495TMC3    C4 7358   4.038   4.343  14.770  0.3129  0.3089  0.1749
  495TMC3    C5 7359   3.909   4.384  14.807 -0.3864 -0.2103  0.2807
  495TMC3    C6 7360   3.818   4.436  14.717 -0.2730 -0.8085 -1.1391
  495TMC3     C 7361   4.109   4.192  14.599 -0.0615 -0.0859  0.0545
  495TMC3     O 7362   4.177   4.154  14.693  0.0638  0.7285  0.3965
  495TMC3     H 7363   3.986   4.363  14.434  0.4054 -1.0717  0.1246
  495TMC3    H1 7364   4.100   4.292  14.843 -1.2679 -0.6474  0.8595
  495TMC3    H2 7365   3.730   4.482  14.762  2.1975  1.2665  1.6289
  495TMC3    C7 7366   3.879   4.385  14.948 -0.4273  0.4398  0.3731
  495TMC3    C8 7367   3.756   4.474  14.497  0.8545 -0.1765 -0.0126
  495TMC3    O1 7368   3.985   4.390  15.011  0.1098  0.0243 -0.4640
  495TMC3    O2 7369   3.647   4.435  14.532 -0.0182 -0.0433 -0.0302
  496MPD2     C 7370   1.230   4.718  15.457  0.7053 -0.9902  0.4154
  496MPD2    C1 7371   1.272   4.629  15.555  0.2690 -0.6927 -0.6845
  496MPD2    C2 7372   1.181   4.607  15.662 -0.3302  0.2322  0.3637
  496MPD2    C3 7373   1.054   4.669  15.659 -0.4395  0.8461 -0.2722
  496MPD2    C4 7374   1.028   0.042  15.568 -0.5944 -0.8297  0.1557
  496MPD2    C5 7375   1.113   0.058  15.467 -0.3597 -0.2180 -0.1600
  496MPD2     H 7376   1.195   4.539  15.746 -1.5739 -1.1998 -0.5727
  496MPD2    H1 7377   0.942   0.108  15.568  0.7750  0.9599  0.3520
  496MPD2    H2 7378   1.307   0.014  15.383 -0.7044  0.3244 -0.6790
  496MPD2    H3 7379   1.082   0.129  15.391 -1.4418  0.0416  0.5275
  496MPD2     N 7380   0.951   4.632  15.747 -0.2774  0.1263 -0.4953
  496MPD2    H5 7381   0.860   4.674  15.728  0.4105  1.9445  0.2143
  496MPD2    N1 7382   1.392   4.552  15.528  1.0106 -0.8299  0.8149
  496MPD2    H7 7383   1.433   4.570  15.437 -2.9083 -3.5820 -1.5000
  497TMC3    C1 7384   0.823   4.489  15.892 -0.3711  0.6983  0.0136
  497TMC3    C2 7385   0.724   4.489  15.800 -0.4351 -0.1187 -0.0022
  497TMC3    C3 7386   0.599   4.445  15.834  0.0795  0.6904  0.4208
  497TMC3    C4 7387   0.807   4.438  16.019 -0.5121  0.3392  0.4601
  497TMC3    C5 7388   0.678   4.388  16.052 -0.0920 -0.8660 -0.0439
  497TMC3    C6 7389   0.573   4.392  15.959 -0.3820 -0.0456  0.4116
  497TMC3     C 7390   0.950   4.546  15.855  0.5889 -0.2673  0.6952
  497TMC3     O 7391   1.043   4.515  15.924  0.2379  0.2221 -0.2251
  497TMC3     H 7392   0.740   4.526  15.699  0.3387 -0.4238  0.0126
  497TMC3    H1 7393   0.884   4.448  16.095  1.0375  0.0989 -1.0718
  497TMC3    H2 7394   0.479   4.342  15.980 -0.4611 -0.0176  0.1208
  497TMC3    C7 7395   0.660   4.302  16.168 -0.1444 -0.6138 -0.0371
  497TMC3    C8 7396   0.482   4.462  15.744 -0.7307  0.1853 -0.2484
  497TMC3    O1 7397   0.562   4.239  16.186 -0.2639  0.1095 -0.0928
  497TMC3    O2 7398   0.377   4.413  15.783  0.0848 -0.0923  0.0009
  498MPD2     C 7399   1.475   0.547   9.439 -0.2937 -0.2512 -0.0085
  498MPD2    C1 7400   1.518   0.588   9.564 -0.5966  0.2331 -0.1795
  498MPD2    C2 7401   1.451   0.537   9.671 -0.2991 -0.0383  0.6145
  498MPD2    C3 7402   1.354   0.437   9.663 -0.3428 -0.5936 -0.3694
  498MPD2    C4 7403   1.302   0.409   9.540 -0.2611 -0.3163 -0.5232
  498MPD2    C5 7404   1.359   0.472   9.431  0.6756  1.0880 -0.4599
  498MPD2     H 7405   1.467   0.566   9.774  0.8981  1.5153 -0.0079
  498MPD2    H1 7406   1.216   0.345   9.521 -0.0328 -0.6705 -0.3638
  498MPD2    H2 7407   1.510   0.587   9.344  3.3113 -0.3941  1.2602
  498MPD2    H3 7408   1.321   0.442   9.335  1.5986 -0.3531 -0.3729
  498MPD2     N 7409   1.294   0.379   9.779 -0.3314  0.1373 -0.2452
  498MPD2    H5 7410   1.329   0.403   9.871 -0.3352 -0.6061 -0.0571
  498MPD2    N1 7411   1.619   0.679   9.586  0.1052  0.2977  0.2140
  498MPD2    H7 7412   1.628   0.712   9.682 -0.7613 -0.0617  0.4217
  499TMC3    C1 7413   1.786   0.836   9.540 -0.4738 -0.9497 -0.0066
  499TMC3    C2 7414   1.838   0.828   9.664  1.1316  0.4833 -0.1233
  499TMC3    C3 7415   1.921   0.924   9.696  0.2469  0.3562 -0.7037
  499TMC3    C4 7416   1.829   0.923   9.444  0.7838  0.3337 -0.1066
  499TMC3    C5 7417   1.912   1.021   9.490  0.3844 -0.1221  0.2770
  499TMC3    C6 7418   1.960   1.023   9.612 -0.0790  0.2150 -0.4418
  499TMC3     C 7419   1.692   0.740   9.489 -0.5325  0.2223 -0.5796
  499TMC3     O 7420   1.692   0.725   9.366  0.3604  0.0956  0.3126
  499TMC3     H 7421   1.809   0.757   9.740  1.4378 -0.5848 -0.9961
  499TMC3    H1 7422   1.789   0.911   9.344  0.9113 -1.2448  0.0277
  499TMC3    H2 7423   2.000   1.119   9.643 -0.5953 -0.1810  1.4367
  499TMC3    C7 7424   1.908   1.156   9.422  0.2538 -0.0613  0.1572
  499TMC3    C8 7425   1.950   0.948   9.834  0.3150 -0.3393  0.2693
  499TMC3    O1 7426   2.003   1.233   9.427 -0.2332 -0.1227 -0.6848
  499TMC3    O2 7427   1.875   0.908   9.922  0.2734 -0.3295 -0.5174
  500MPD2     C 7428   3.332   1.948  10.488  0.2799 -0.1972  0.7074
  500MPD2    C1 7429   3.358   2.011  10.370 -0.4319 -0.1587 -0.9054
  500MPD2    C2 7430   3.260   2.017  10.271  0.7169 -0.1000  0.3084
  500MPD2    C3 7431   3.136   1.955  10.294  0.0948 -0.6753 -0.4990
  500MPD2    C4 7432   3.107   1.889  10.417 -0.1201 -0.6214  0.9603
  500MPD2    C5 7433   3.213   1.881  10.510  0.4033 -1.0370 -0.1222
  500MPD2     H 7434   3.286   2.068  10.179 -0.2355  1.0339  0.6718
  500MPD2    H1 7435   3.007   1.855  10.440  0.1140 -2.7960 -1.2292
  500MPD2    H2 7436   3.409   1.947  10.564  0.8076 -0.4223  0.1668
  500MPD2    H3 7437   3.193   1.849  10.611  0.3990  1.6684  0.7285
  500MPD2     N 7438   3.034   1.940  10.191 -0.3584 -0.0406 -0.1330
  500MPD2    H5 7439   2.947   1.892  10.211 -0.1581  0.1025  1.0544
  500MPD2    N1 7440   3.476   2.074  10.338  0.0042 -0.2850  0.7376
  500MPD2    H7 7441   3.474   2.129  10.252 -0.5676 -0.0289  0.9126
  501TMC3    C1 7442   3.710   2.128  10.351 -0.1176  0.5935  0.6119
  501TMC3    C2 7443   3.691   2.248  10.281  0.6728  0.5062  0.1459
  501TMC3    C3 7444   3.805   2.318  10.245  0.3597  0.5542  0.2160
  501TMC3    C4 7445   3.836   2.092  10.391 -0.3805  0.1807  0.6544
  501TMC3    C5 7446   3.941   2.177  10.373 -0.6415  0.8360  0.3984
  501TMC3    C6 7447   3.932   2.280  10.295  0.4402 -0.5347 -0.2735
  501TMC3     C 7448   3.596   2.060  10.405 -0.3295  0.7469  0.7102
  501TMC3     O 7449   3.622   1.970  10.486  0.0341  0.5193  0.4646
  501TMC3     H 7450   3.593   2.294  10.275  1.4316  2.3182  1.8129
  501TMC3    H1 7451   3.846   2.007  10.457 -0.2840 -0.4738 -0.2144
  501TMC3    H2 7452   4.015   2.343  10.264  0.2413  0.1945  0.6496
  501TMC3    C7 7453   4.052   2.165  10.461  0.0481 -0.8269 -0.4941
  501TMC3    C8 7454   3.783   2.456  10.202 -0.0202 -0.1846 -0.0463
  501TMC3    O1 7455   4.046   2.088  10.548 -0.2614  0.2283  0.1928
  501TMC3    O2 7456   3.868   2.535  10.244 -0.4007  0.2964 -0.0389
  502TMC3    C1 7457   3.403   0.453  14.559  0.0815  0.4629  0.6813
  502TMC3    C2 7458   3.324   0.567  14.537  0.7001 -0.0222 -0.2145
  502TMC3    C3 7459   3.197   0.574  14.587  0.1711  0.6030  0.3810
  502TMC3    C4 7460   3.345   0.352  14.627 -0.0376 -0.1848  0.8163
  502TMC3    C5 7461   3.216   0.360  14.677 -0.9930  0.2774 -0.3636
  502TMC3    C6 7462   3.144   0.475  14.660  0.1331  0.1048 -1.0825
  502TMC3     C 7463   3.534   0.479  14.600 -0.7013  0.5454 -0.1569
  502TMC3     O 7464   3.580   0.583  14.556 -0.3223  0.1093  0.2259
  502TMC3     H 7465   3.365   0.656  14.492 -1.6558  0.8608 -0.6279
  502TMC3    H1 7466   3.390   0.253  14.630 -1.2331 -0.7682 -0.1375
  502TMC3    H2 7467   3.052   0.502  14.711  0.2676 -1.3095 -0.0691
  502TMC3    C7 7468   3.197   0.297  14.808 -0.7708 -0.1465 -0.2735
  502TMC3    C8 7469   3.154   0.703  14.630  0.1482 -0.6037 -0.2046
  502TMC3    O1 7470   3.304   0.286  14.860  0.1244 -0.1331  0.5167
  502TMC3    O2 7471   3.185   0.783  14.541  0.3007 -0.1869 -0.0428
  503MPD2     C 7472   0.563   1.054  16.927 -0.0036  0.1927  0.3256
  503MPD2    C1 7473   0.648   1.128  17.006  0.7571 -0.7879  0.1378
  503MPD2    C2 7474   0.760   1.068  17.066 -0.4234  0.0217 -0.3252
  503MPD2    C3 7475   0.776   0.929  17.054  0.0592  0.0201  0.2244
  503MPD2    C4 7476   0.689   0.854  16.984 -0.6964  0.3878  0.1123
  503MPD2    C5 7477   0.584   0.915  16.921  0.0271 -0.4312 -1.1215
  503MPD2     H 7478   0.822   1.134  17.126  0.7810 -2.0664  0.7026
  503MPD2    H1 7479   0.701   0.748  16.962  0.2982  0.4638  0.2721
  503MPD2    H2 7480   0.478   1.100  16.877 -0.6903 -2.0435 -0.5888
  503MPD2    H3 7481   0.519   0.854  16.861 -0.7381 -0.1630 -0.5682
  503MPD2     N 7482   0.864   0.864  17.131  0.5182  0.4948 -0.0838
  503MPD2    H5 7483   0.898   0.921  17.208  1.7604 -1.4712  0.8260
  503MPD2    N1 7484   0.627   1.265  17.028  0.0640 -0.9232 -0.0119
  503MPD2    H7 7485   0.685   1.317  17.093  0.4105 -1.1996 -0.0947
  504TMC3    C1 7486   0.998   0.694  17.205 -0.8596  0.6904 -0.2492
  504TMC3    C2 7487   0.953   0.697  17.330  0.2996  0.7153  0.4597
  504TMC3    C3 7488   1.030   0.635  17.420  0.3288 -0.8368  0.0362
  504TMC3    C4 7489   1.102   0.614  17.163  0.0456 -0.0170  0.7254
  504TMC3    C5 7490   1.175   0.557  17.262 -0.4585  0.1060 -1.1771
  504TMC3    C6 7491   1.150   0.576  17.396 -0.5123  0.0963 -0.2824
  504TMC3     C 7492   0.914   0.741  17.107  0.7923 -0.0333  0.0635
  504TMC3     O 7493   0.899   0.670  17.010 -1.1569 -0.3604  0.1713
  504TMC3     H 7494   0.865   0.748  17.366 -0.2393 -0.2836  0.5799
  504TMC3    H1 7495   1.127   0.606  17.058 -0.6927 -3.2505  0.8102
  504TMC3    H2 7496   1.225   0.538  17.465  0.4854 -0.7064 -1.7914
  504TMC3    C7 7497   1.285   0.480  17.212 -0.2988  0.0276 -1.1784
  504TMC3    C8 7498   0.980   0.642  17.560  0.0798 -0.1699 -0.6172
  504TMC3    O1 7499   1.318   0.493  17.095  0.0323 -0.3893 -0.9386
  504TMC3    O2 7500   0.879   0.709  17.585  0.1009 -0.1407 -0.0562
  505MPD2     C 7501   0.722   0.251  10.943 -0.2092  0.5648  0.6635
  505MPD2    C1 7502   0.781   0.127  10.953 -0.3478 -0.1029 -0.4506
  505MPD2    C2 7503   0.911   0.125  10.997 -0.1304 -0.2757 -0.1665
  505MPD2    C3 7504   0.993   0.242  11.014  0.1672 -0.0856 -0.2556
  505MPD2    C4 7505   0.928   0.366  10.988 -0.1270 -0.8962  0.4468
  505MPD2    C5 7506   0.795   0.371  10.951  0.1553 -0.3196 -0.0063
  505MPD2     H 7507   0.971   0.035  11.003 -1.1356 -0.9517 -0.2404
  505MPD2    H1 7508   0.986   0.458  10.988 -1.3827 -0.1155 -1.9272
  505MPD2    H2 7509   0.616   0.256  10.925  0.1240 -1.8053 -1.9350
  505MPD2    H3 7510   0.750   0.460  10.910  0.3848 -0.1664  0.0780
  505MPD2     N 7511   1.122   0.224  11.065  0.0788 -0.4176 -0.2707
  505MPD2    H5 7512   1.150   0.128  11.081 -0.3603 -0.8329 -2.0221
  505MPD2    N1 7513   0.709   0.004  10.932  0.1088 -0.3609  0.2485
  505MPD2    H7 7514   0.615   0.014  10.895 -0.1832 -0.5710  0.9293
  506TMC3    C1 7515   0.669   4.492  10.916  1.0366 -0.0014  0.2457
  506TMC3    C2 7516   0.647   4.494  10.786  0.0280  0.2364 -0.2833
  506TMC3    C3 7517   0.670   4.369  10.726  0.6233  0.2549  0.4783
  506TMC3    C4 7518   0.704   4.379  10.993  0.3532 -0.5547 -0.0541
  506TMC3    C5 7519   0.718   4.261  10.923 -0.3270  0.1415  0.1602
  506TMC3    C6 7520   0.695   4.253  10.788  0.8207  0.0421  0.4754
  506TMC3     C 7521   0.756   4.599  10.959  0.7680  0.1390  0.2189
  506TMC3     O 7522   0.859   4.562  11.017  0.9872  0.6816  0.5829
  506TMC3     H 7523   0.613   4.581  10.731 -3.0243 -1.1688 -0.6553
  506TMC3    H1 7524   0.716   4.391  11.100 -0.3393 -2.5740  0.2631
  506TMC3    H2 7525   0.712   4.163  10.730 -1.2991 -0.1679  0.1905
  506TMC3    C7 7526   0.851   4.194  10.948  0.2310 -0.8986 -0.0640
  506TMC3    C8 7527   0.655   4.351  10.586 -0.1064  0.4007  0.2376
  506TMC3    O1 7528   0.873   4.092  10.884 -0.0009 -0.0948  0.0508
  506TMC3    O2 7529   0.601   4.250  10.539  0.1571 -0.1244  0.2747
  507TMC3    C1 7530   1.934   0.681  14.975 -0.6192  0.2430  0.2118
  507TMC3    C2 7531   1.903   0.606  14.864  0.5065 -0.8542  0.9548
  507TMC3    C3 7532   1.958   0.628  14.744  0.1500 -0.3503 -0.6575
  507TMC3    C4 7533   2.040   0.769  14.968 -0.2568 -0.1580 -0.6962
  507TMC3    C5 7534   2.084   0.797  14.839  0.4361  0.1647 -0.0043
  507TMC3    C6 7535   2.036   0.733  14.729 -0.1243  0.4729  0.4993
  507TMC3     C 7536   1.831   0.714  15.072  0.0938  0.0655 -0.1735
  507TMC3     O 7537   1.854   0.775  15.178 -0.0521  0.4158  0.7949
  507TMC3     H 7538   1.834   0.523  14.866 -0.1117 -0.3618 -0.4819
  507TMC3    H1 7539   2.067   0.831  15.052 -0.2689  1.8115 -2.1557
  507TMC3    H2 7540   2.081   0.757  14.633 -1.0227  0.5916  0.0998
  507TMC3    C7 7541   2.080   0.940  14.813 -0.2781  0.6430 -0.5195
  507TMC3    C8 7542   1.861   0.627  14.632 -0.6716  0.9958  0.0001
  507TMC3    O1 7543   1.988   0.961  14.737 -0.1269 -0.1864  0.0899
  507TMC3    O2 7544   1.780   0.533  14.621  0.1342 -0.2530  0.0240
  508MPD2     C 7545   2.462   2.855  16.224 -0.3074 -0.1698  0.4736
  508MPD2    C1 7546   2.546   2.964  16.213 -0.0467  0.2583  0.0584
  508MPD2    C2 7547   2.572   3.015  16.078 -0.2118 -0.4887 -0.2449
  508MPD2    C3 7548   2.509   2.969  15.970  0.0219 -0.2020  0.5297
  508MPD2    C4 7549   2.422   2.861  15.985 -0.0156  0.2748  0.6373
  508MPD2    C5 7550   2.402   2.811  16.113  1.0511 -0.1846 -0.0219
  508MPD2     H 7551   2.645   3.095  16.071 -0.2812 -0.1732  2.5687
  508MPD2    H1 7552   2.364   2.827  15.900 -0.4585  1.3803  0.4915
  508MPD2    H2 7553   2.446   2.803  16.317 -0.6179 -0.5978  0.1841
  508MPD2    H3 7554   2.340   2.722  16.121  0.5363  0.1962  0.2058
  508MPD2     N 7555   2.533   3.040  15.848  0.3170  0.5041  0.8812
  508MPD2    H5 7556   2.605   3.111  15.855  0.8312  0.0353  0.3752
  508MPD2    N1 7557   2.612   2.998  16.329  0.5893  0.2568 -0.2401
  508MPD2    H7 7558   2.593   2.944  16.413 -0.4580  2.6014  1.0529
  509TMC3    C1 7559   2.418   3.266  15.433 -0.0981  1.4385 -0.2084
  509TMC3    C2 7560   2.549   3.316  15.428 -0.4902 -0.8304 -0.4305
  509TMC3    C3 7561   2.643   3.269  15.515 -0.5017 -0.2995  0.2321
  509TMC3    C4 7562   2.390   3.175  15.537  0.6924 -0.5330  0.0387
  509TMC3    C5 7563   2.489   3.131  15.622 -0.8057 -0.8198  0.9222
  509TMC3    C6 7564   2.617   3.164  15.603 -0.3426  0.3161  0.1429
  509TMC3     C 7565   2.309   3.331  15.366  0.2596  0.1351  0.2417
  509TMC3     O 7566   2.206   3.264  15.377  0.1351 -0.6324 -0.3147
  509TMC3     H 7567   2.589   3.374  15.346  2.1662  0.7886  2.0061
  509TMC3    H1 7568   2.289   3.159  15.572 -0.4055 -0.3709 -2.9787
  509TMC3    H2 7569   2.693   3.124  15.671  1.3631 -0.2335 -2.0880
  509TMC3    C7 7570   2.453   3.036  15.735  0.3471  0.1094 -0.1137
  509TMC3    C8 7571   2.781   3.301  15.503  0.1995  0.5205 -0.4198
  509TMC3    O1 7572   2.347   2.975  15.720 -0.1757 -0.0785  0.1807
  509TMC3    O2 7573   2.859   3.215  15.538  0.1894  0.0886 -0.3202
  510MPD2     C 7574   0.417   0.513  14.456  0.4844  0.3649 -0.2289
  510MPD2    C1 7575   0.478   0.427  14.542 -0.3331 -0.0869 -0.1394
  510MPD2    C2 7576   0.618   0.408  14.548 -0.1700 -0.3784  0.4626
  510MPD2    C3 7577   0.696   0.456  14.440 -0.1874 -0.3549  0.6636
  510MPD2    C4 7578   0.626   0.528  14.344  0.1308  0.3317 -0.2039
  510MPD2    C5 7579   0.491   0.558  14.348  0.2640  0.9038  0.0650
  510MPD2     H 7580   0.658   0.337  14.620 -0.1229 -1.5414 -0.7025
  510MPD2    H1 7581   0.679   0.560  14.255  1.5517  1.7558  1.1467
  510MPD2    H2 7582   0.309   0.529  14.454  0.5588  0.8081 -1.1579
  510MPD2    H3 7583   0.451   0.624  14.272 -1.8369  0.4491  0.7510
  510MPD2     N 7584   0.826   0.406  14.424 -0.7762 -0.3629 -0.5470
  510MPD2    H5 7585   0.871   0.348  14.494 -0.7100  0.8461  0.4145
  510MPD2    N1 7586   0.385   0.382  14.635  0.2021  0.1195 -0.3214
  510MPD2    H7 7587   0.286   0.399  14.624 -0.2835 -0.5481  2.9489
  511TMC3    C1 7588   0.296   0.237  14.799 -0.2553 -0.4422 -0.0647
  511TMC3    C2 7589   0.261   0.255  14.927  0.6564 -0.4024 -0.3593
  511TMC3    C3 7590   0.187   0.147  14.967 -0.1568  0.6041 -0.5726
  511TMC3    C4 7591   0.255   0.141  14.716 -0.8169 -0.0772 -0.4238
  511TMC3    C5 7592   0.188   0.035  14.768 -0.4751 -1.2850  0.1986
  511TMC3    C6 7593   0.152   0.034  14.896 -0.3921  0.3101 -0.3344
  511TMC3     C 7594   0.411   0.315  14.750 -0.5278 -0.3661  0.7763
  511TMC3     O 7595   0.518   0.301  14.807 -0.4410 -0.2786  0.1111
  511TMC3     H 7596   0.288   0.345  14.981 -1.4367 -0.5835  1.0267
  511TMC3    H1 7597   0.287   0.139  14.612 -2.1992 -0.4770 -0.8395
  511TMC3    H2 7598   0.111   4.670  14.945  1.3247  0.3244  1.1248
  511TMC3    C7 7599   0.167   4.653  14.669 -0.0587  0.4504  0.0359
  511TMC3    C8 7600   0.121   0.161  15.098 -0.3631 -0.3290  0.5974
  511TMC3    O1 7601   0.158   4.693  14.553 -0.3744  0.3418 -0.0083
  511TMC3    O2 7602   0.170   0.237  15.179 -0.1734  0.2588  0.1736
  512TMC3    C1 7603   4.188   4.436  13.053  0.6846  0.5491 -0.0207
  512TMC3    C2 7604   4.256   4.453  13.168  0.6614 -0.4737 -0.3505
  512TMC3    C3 7605   4.312   4.347  13.239  1.3515 -0.0247 -0.5407
  512TMC3    C4 7606   4.183   4.311  13.002  0.6072  0.1936  0.4172
  512TMC3    C5 7607   4.241   4.202  13.065  0.1352  0.5008  1.5534
  512TMC3    C6 7608   4.306   4.222  13.186 -0.4601 -0.4455 -0.3116
  512TMC3     C 7609   4.086   4.542  13.025 -0.2428  0.0242 -0.3080
  512TMC3     O 7610   4.109   4.651  13.074  0.2521 -0.1178 -0.3574
  512TMC3     H 7611   4.279   4.553  13.202  2.6722 -0.9567 -0.2718
  512TMC3    H1 7612   4.129   4.301  12.909 -1.7890 -1.1351  1.9427
  512TMC3    H2 7613   4.340   4.134  13.239 -0.8438 -0.4238 -0.0308
  512TMC3    C7 7614   4.201   4.067  13.013  0.0612 -0.3603  0.9795
  512TMC3    C8 7615   4.370   4.367  13.370 -0.1607  0.5106 -0.7310
  512TMC3    O1 7616   4.141   4.068  12.906  0.4313  0.2222  0.1862
  512TMC3    O2 7617   4.445   4.283  13.419  0.3028  0.2502 -0.3830
  513MPD2     C 7618   1.353   3.651  12.735  0.8567  0.8612 -0.1158
  513MPD2    C1 7619   1.486   3.652  12.758 -0.2049  0.4513 -0.8954
  513MPD2    C2 7620   1.539   3.776  12.807  0.3558  0.6002  0.1113
  513MPD2    C3 7621   1.462   3.889  12.821  0.5847 -0.2350  1.0301
  513MPD2    C4 7622   1.330   3.887  12.786 -0.1282  0.9440 -0.0924
  513MPD2    C5 7623   1.277   3.765  12.747 -0.1496 -0.6047 -0.1663
  513MPD2     H 7624   1.645   3.797  12.814  0.5090  0.1497 -0.7856
  513MPD2    H1 7625   1.270   3.976  12.772 -0.7374  0.4435 -0.6278
  513MPD2    H2 7626   1.308   3.566  12.684  3.3145 -1.6284  1.8849
  513MPD2    H3 7627   1.179   3.753  12.703 -0.0044 -2.2173 -0.0648
  513MPD2     N 7628   1.539   3.995  12.853 -0.3753  0.2983 -0.1168
  513MPD2    H5 7629   1.640   3.986  12.846 -0.2648  1.9350 -0.8582
  513MPD2    N1 7630   1.568   3.543  12.740 -0.2226 -0.0476  0.2791
  513MPD2    H7 7631   1.523   3.460  12.702  1.8823 -1.6678  1.2635
  514TMC3    C1 7632   1.765   3.416  12.748  0.3455  0.2946 -0.5288
  514TMC3    C2 7633   1.747   3.358  12.624  0.1388 -0.0027  0.5934
  514TMC3    C3 7634   1.852   3.281  12.586 -0.0921  0.9409  0.0646
  514TMC3    C4 7635   1.880   3.398  12.821 -0.2072 -0.0475  0.1427
  514TMC3    C5 7636   1.982   3.332  12.770  0.1745  0.5591 -0.5964
  514TMC3    C6 7637   1.971   3.272  12.646 -0.0550  0.7734 -0.7255
  514TMC3     C 7638   1.703   3.534  12.772  0.1948  1.1410 -1.0858
  514TMC3     O 7639   1.776   3.612  12.827 -0.3801 -0.0026 -0.0697
  514TMC3     H 7640   1.660   3.355  12.560  1.0394  1.2156 -0.7107
  514TMC3    H1 7641   1.885   3.447  12.918  0.7402 -0.7610  0.4480
  514TMC3    H2 7642   2.045   3.214  12.593 -0.8857  0.1352 -1.1778
  514TMC3    C7 7643   2.102   3.406  12.802  0.3228 -0.4663 -0.1155
  514TMC3    C8 7644   1.849   3.232  12.446  0.0836  0.3000 -0.2511
  514TMC3    O1 7645   2.212   3.351  12.812 -0.2916  0.1727  0.0792
  514TMC3    O2 7646   1.900   3.125  12.419 -0.6459  0.0826 -0.2685
  515MPD2     C 7647   3.990   1.298  14.564 -0.4982 -0.1942 -0.2446
  515MPD2    C1 7648   4.008   1.172  14.629 -0.6362  0.2261 -0.1045
  515MPD2    C2 7649   4.075   1.173  14.754 -0.1944 -0.4394  0.5957
  515MPD2    C3 7650   4.139   1.289  14.795 -0.3427 -0.0890  0.6804
  515MPD2    C4 7651   4.122   1.407  14.729 -0.1425 -0.1656 -0.3472
  515MPD2    C5 7652   4.037   1.418  14.619 -0.1297  0.4135 -0.5003
  515MPD2     H 7653   4.097   1.077  14.799  2.7953  0.3069  0.7153
  515MPD2    H1 7654   4.179   1.493  14.763  0.6309 -0.2551 -1.4483
  515MPD2    H2 7655   3.953   1.292  14.462 -2.8032  0.5152  0.5450
  515MPD2    H3 7656   4.024   1.520  14.584  2.2694  1.1001  0.6225
  515MPD2     N 7657   4.229   1.301  14.910  0.9836 -0.8236  0.3124
  515MPD2    H5 7658   4.270   1.393  14.920  0.4970 -0.2143 -3.1189
  515MPD2    N1 7659   3.953   1.064  14.570 -0.2823 -0.5645 -0.1884
  515MPD2    H7 7660   3.928   1.065  14.471 -0.6157 -0.1864 -0.0973
  516TMC3    C1 7661   3.868   0.851  14.525  0.0028  0.6751 -0.2320
  516TMC3    C2 7662   3.791   0.903  14.433 -0.1368  0.3958 -0.0351
  516TMC3    C3 7663   3.743   0.818  14.342 -0.3006 -0.0822 -0.6545
  516TMC3    C4 7664   3.888   0.716  14.532 -0.1787 -0.0153  0.0964
  516TMC3    C5 7665   3.859   0.635  14.430 -0.4450  0.4158  0.2700
  516TMC3    C6 7666   3.762   0.683  14.340 -0.6899 -0.5822  0.0386
  516TMC3     C 7667   3.931   0.938  14.618  0.6500 -0.1139 -0.4380
  516TMC3     O 7668   3.971   0.889  14.724  0.0366  0.3210  0.5803
  516TMC3     H 7669   3.754   1.004  14.447 -0.9668 -0.2272  2.3100
  516TMC3    H1 7670   3.948   0.667  14.608  0.1159  0.5873  0.2528
  516TMC3    H2 7671   3.721   0.609  14.272  1.5942 -2.6798  0.9233
  516TMC3    C7 7672   3.905   0.495  14.421  0.0813  0.4385  0.3786
  516TMC3    C8 7673   3.625   0.859  14.265 -0.7892  0.1355 -0.2303
  516TMC3    O1 7674   4.006   0.468  14.488 -0.5785 -0.1455 -0.1175
  516TMC3    O2 7675   3.547   0.765  14.253  0.2724 -0.3179 -0.0724
  517MPD2     C 7676   4.090   2.459   0.675 -0.1280 -0.0113  0.0121
  517MPD2    C1 7677   4.157   2.536   0.586 -0.9765 -0.4552  0.7126
  517MPD2    C2 7678   4.194   2.665   0.620  0.1932  0.0765  0.7893
  517MPD2    C3 7679   4.149   2.722   0.739  0.1629 -0.3352  0.6433
  517MPD2    C4 7680   4.075   2.643   0.826 -0.4086 -0.5246  0.6814
  517MPD2    C5 7681   4.051   2.513   0.795 -0.1240 -0.1935 -0.2068
  517MPD2     H 7682   4.270   2.718   0.563 -0.2721  0.4998  0.5584
  517MPD2    H1 7683   4.057   2.682   0.926  1.0860 -0.9789  1.1272
  517MPD2    H2 7684   4.080   2.353   0.657  2.6100 -0.7436  2.9695
  517MPD2    H3 7685   4.005   2.444   0.865 -0.4281  0.2895  0.0668
  517MPD2     N 7686   4.197   2.837   0.794 -0.1431 -1.0464  0.3459
  517MPD2    H5 7687   4.178   2.843   0.893 -1.0904 -1.5446  0.1894
  517MPD2    N1 7688   4.199   2.489   0.458  0.1077 -0.2835  0.4658
  517MPD2    H7 7689   4.255   2.556   0.407  1.4159 -2.1402 -0.5408
  518TMC3    C1 7690   4.193   2.335   0.271 -0.7397  0.1039  0.0436
  518TMC3    C2 7691   4.127   2.232   0.205 -0.1000  0.5130  0.2747
  518TMC3    C3 7692   4.183   2.189   0.088 -0.2660  0.6734  0.0417
  518TMC3    C4 7693   4.309   2.395   0.221  0.0861  0.1840  0.2168
  518TMC3    C5 7694   4.355   2.348   0.104  0.6499  0.0278  0.4639
  518TMC3    C6 7695   4.293   2.251   0.037  0.0135  0.5425  0.4833
  518TMC3     C 7696   4.133   2.380   0.395 -0.4751 -0.1178  0.3667
  518TMC3     O 7697   4.040   2.316   0.434 -0.2900  0.0930  0.7474
  518TMC3     H 7698   4.052   2.176   0.261  0.5546 -4.1927 -3.5392
  518TMC3    H1 7699   4.370   2.455   0.288  1.3830  0.3089 -1.0656
  518TMC3    H2 7700   4.330   2.214  17.641  2.3013 -0.2080  1.6766
  518TMC3    C7 7701   4.481   2.393   0.057  0.6664  0.5783  0.0973
  518TMC3    C8 7702   4.133   2.068   0.010  0.3918  0.1557 -1.1364
  518TMC3    O1 7703   4.506   2.511   0.072 -0.1587 -0.1772  0.2711
  518TMC3    O2 7704   4.207   2.024  17.623 -0.2621  0.7977  0.3490
  519MPD2     C 7705   0.483   1.226  14.561  0.2046  0.2283  1.1059
  519MPD2    C1 7706   0.446   1.201  14.434  0.0095  0.1975  0.1456
  519MPD2    C2 7707   0.543   1.152  14.347 -0.6770  0.1676  0.3903
  519MPD2    C3 7708   0.675   1.116  14.391 -0.2265 -0.0318  0.4468
  519MPD2    C4 7709   0.700   1.136  14.523  0.2410 -0.0206 -0.0248
  519MPD2    C5 7710   0.610   1.190  14.604 -0.5939  0.6937  0.5293
  519MPD2     H 7711   0.507   1.136  14.245  0.7901 -0.9161  0.0398
  519MPD2    H1 7712   0.795   1.117  14.572 -0.8416 -1.3024  1.5771
  519MPD2    H2 7713   0.414   1.275  14.630 -1.7149  0.7300 -1.1769
  519MPD2    H3 7714   0.638   1.206  14.707  2.4794 -1.2008 -0.0047
  519MPD2     N 7715   0.768   1.064  14.299  0.4727  0.4840  0.2906
  519MPD2    H5 7716   0.859   1.045  14.339  2.0923  2.2429 -2.5599
  519MPD2    N1 7717   0.315   1.234  14.395  0.0021 -0.1501  0.4500
  519MPD2    H7 7718   0.290   1.233  14.296  0.3244 -2.5746  0.4098
  520TMC3    C1 7719   0.874   1.000  14.097  0.1430  0.0609 -0.0937
  520TMC3    C2 7720   0.852   1.007  13.960  0.1044 -0.4184  0.0117
  520TMC3    C3 7721   0.920   0.919  13.881 -0.2930 -0.3259  0.2214
  520TMC3    C4 7722   0.965   0.908  14.150  0.2002  0.1318 -0.0823
  520TMC3    C5 7723   1.024   0.815  14.065 -0.7453 -0.0564  0.5746
  520TMC3    C6 7724   1.001   0.816  13.928 -1.0593  0.2234  0.3408
  520TMC3     C 7725   0.750   1.043  14.167  0.7199  0.2982 -0.0767
  520TMC3     O 7726   0.643   1.023  14.108 -0.4171  0.0256 -0.3165
  520TMC3     H 7727   0.786   1.085  13.922  1.1612  0.5073  0.0675
  520TMC3    H1 7728   1.003   0.907  14.251  0.6228  0.2793 -0.2383
  520TMC3    H2 7729   1.045   0.747  13.857 -2.4307 -1.3829  1.0599
  520TMC3    C7 7730   1.134   0.736  14.128 -0.9645 -0.1566 -0.0330
  520TMC3    C8 7731   0.880   0.902  13.745  0.5310 -0.1831  0.2317
  520TMC3    O1 7732   1.138   0.715  14.249 -0.5974 -0.1807 -0.2146
  520TMC3    O2 7733   0.966   0.902  13.657  0.5636 -0.1997  0.0401
  521MPD2     C 7734   1.656   3.349   0.294 -0.0397  0.0158  0.0648
  521MPD2    C1 7735   1.626   3.388   0.165 -0.1086  0.2167 -0.1580
  521MPD2    C2 7736   1.731   3.364   0.074  0.2798  0.2087 -0.3963
  521MPD2    C3 7737   1.862   3.318   0.114  0.6974  0.7368  0.7723
  521MPD2    C4 7738   1.890   3.300   0.245 -0.0826 -0.9034  0.2926
  521MPD2    C5 7739   1.781   3.311   0.331 -0.2413 -0.6796 -0.1864
  521MPD2     H 7740   1.709   3.374  17.668  3.2954  1.3041 -0.9307
  521MPD2    H1 7741   1.981   3.256   0.283  0.4821  0.5073  0.5595
  521MPD2    H2 7742   1.575   3.346   0.366 -1.3227 -0.5851 -1.4007
  521MPD2    H3 7743   1.798   3.288   0.435 -0.3328  1.3314  0.2697
  521MPD2     N 7744   1.951   3.277   0.011  0.2891 -0.4377  0.6199
  521MPD2    H5 7745   1.920   3.286  17.614 -0.0812  0.9109  0.8716
  521MPD2    N1 7746   1.492   3.427   0.132  0.4415  0.0532  0.6646
  521MPD2    H7 7747   1.425   3.417   0.208  0.0877  0.9889  0.4704
  522TMC3    C1 7748   2.119   3.177  17.587 -0.1476 -0.0910  0.2200
  522TMC3    C2 7749   2.255   3.183  17.563  0.3769 -0.2524  0.4934
  522TMC3    C3 7750   2.291   3.146  17.440 -0.2686 -0.2141  0.0797
  522TMC3    C4 7751   2.023   3.132  17.495  0.0751  0.5881  0.3835
  522TMC3    C5 7752   2.068   3.087  17.369 -0.4917  0.4335  0.2722
  522TMC3    C6 7753   2.202   3.097  17.342  0.3063  0.4266 -0.3323
  522TMC3     C 7754   2.072   3.210   0.021  0.3395  0.1488 -0.0699
  522TMC3     O 7755   2.134   3.174   0.121  0.3204 -0.2460 -0.0488
  522TMC3     H 7756   2.320   3.215  17.643 -0.4181 -1.3889  1.5867
  522TMC3    H1 7757   1.924   3.101  17.528  0.2236 -0.4918 -0.1762
  522TMC3    H2 7758   2.241   3.055  17.250 -1.3305  0.5046 -1.0596
  522TMC3    C7 7759   1.990   2.996  17.286  0.2543  0.3626 -0.1549
  522TMC3    C8 7760   2.427   3.089  17.427  0.1513 -0.0005  0.7629
  522TMC3    O1 7761   2.049   2.903  17.239  0.0952 -0.4774 -0.0809
  522TMC3    O2 7762   2.491   3.049  17.521 -0.3644  0.1197  0.0270
  523MPD2     C 7763   4.051   3.412   9.931  0.3333  0.3683 -0.6179
  523MPD2    C1 7764   3.923   3.379   9.969  0.3602  0.3072  0.1584
  523MPD2    C2 7765   3.820   3.462   9.930  0.4721  0.1068 -0.0628
  523MPD2    C3 7766   3.842   3.573   9.854  0.1530 -0.1594  0.0297
  523MPD2    C4 7767   3.969   3.607   9.817 -0.3547  0.0705  1.2156
  523MPD2    C5 7768   4.068   3.527   9.853  0.3336  0.9997 -0.2331
  523MPD2     H 7769   3.718   3.437   9.960  0.6216  2.2397  2.2193
  523MPD2    H1 7770   3.995   3.690   9.753 -1.0162 -0.0899  0.7421
  523MPD2    H2 7771   4.133   3.345   9.953 -0.7829 -0.6940  0.3279
  523MPD2    H3 7772   4.170   3.536   9.817  0.1333 -0.7213 -1.2446
  523MPD2     N 7773   3.750   3.673   9.830 -1.0219  0.5070  0.4387
  523MPD2    H5 7774   3.780   3.756   9.779  0.2856 -0.0705  0.2567
  523MPD2    N1 7775   3.903   3.254  10.036 -0.0639 -0.3480  0.2842
  523MPD2    H7 7776   3.981   3.215  10.088  0.8961  0.8237 -0.2660
  524TMC3    C1 7777   3.570   3.806   9.881 -0.4593  0.6827 -0.1598
  524TMC3    C2 7778   3.655   3.907   9.925  0.1810 -0.4802  0.6169
  524TMC3    C3 7779   3.589   4.029   9.952 -0.4055  0.2969  0.8638
  524TMC3    C4 7780   3.435   3.818   9.888  0.6008 -0.6877  0.0922
  524TMC3    C5 7781   3.381   3.942   9.919 -0.0862  0.0343 -0.1370
  524TMC3    C6 7782   3.456   4.053   9.945  1.0283  0.3834 -0.0497
  524TMC3     C 7783   3.624   3.675   9.884 -0.3816  0.4063 -0.3773
  524TMC3     O 7784   3.553   3.585   9.925 -0.3318  0.2761  0.1267
  524TMC3     H 7785   3.762   3.892   9.926  0.0609 -1.3752  0.1179
  524TMC3    H1 7786   3.377   3.726   9.889 -1.1018  0.3994 -0.4928
  524TMC3    H2 7787   3.417   4.152   9.965 -0.7670 -0.6934  1.7835
  524TMC3    C7 7788   3.231   3.939   9.922  0.2377  0.1102 -0.1749
  524TMC3    C8 7789   3.676   4.131  10.011  0.2640 -0.5267 -0.8493
  524TMC3    O1 7790   3.171   3.835   9.910  0.3963 -0.3307  0.0683
  524TMC3    O2 7791   3.617   4.222  10.075 -0.8316  0.2191  0.3890
  525MPD2     C 7792   2.011   0.274  14.547  0.7652 -0.2518 -0.5164
  525MPD2    C1 7793   2.137   0.214  14.574 -0.0523  0.3393  0.2771
  525MPD2    C2 7794   2.248   0.262  14.504 -0.1487 -0.2467 -0.3953
  525MPD2    C3 7795   2.242   0.379  14.429 -0.2255  0.3482  0.6384
  525MPD2    C4 7796   2.120   0.450  14.424 -0.0819 -0.3220 -0.3066
  525MPD2    C5 7797   2.009   0.390  14.474 -0.6153  0.3693  0.5284
  525MPD2     H 7798   2.348   0.221  14.514 -0.4424 -0.8671 -0.0253
  525MPD2    H1 7799   2.112   0.551  14.386 -3.1907 -0.3827  0.2450
  525MPD2    H2 7800   1.923   0.239  14.600  0.4486 -2.2366 -2.3502
  525MPD2    H3 7801   1.919   0.445  14.451 -0.8009 -0.6695 -1.1714
  525MPD2     N 7802   2.352   0.450  14.364 -0.4502 -0.8862  0.1443
  525MPD2    H5 7803   2.329   0.541  14.324 -0.0501 -1.5264 -1.5511
  525MPD2    N1 7804   2.160   0.118  14.669 -0.6201  0.0772  0.0527
  525MPD2    H7 7805   2.258   0.092  14.674 -0.8546 -0.5203  1.6968
  526TMC3    C1 7806   2.133   4.702  14.852  0.2956  0.6708 -0.5221
  526TMC3    C2 7807   2.050   4.660  14.947  0.0114  0.0967  0.3939
  526TMC3    C3 7808   2.094   4.620  15.077  0.4522 -0.1711 -0.2413
  526TMC3    C4 7809   2.267   4.705  14.877  0.6336 -0.0793  0.6442
  526TMC3    C5 7810   2.309   4.646  14.996 -0.3713 -0.7506 -0.5210
  526TMC3    C6 7811   2.229   4.606  15.098  0.6341 -0.0436  0.7937
  526TMC3     C 7812   2.069   0.053  14.747  0.9297  0.2169 -0.4940
  526TMC3     O 7813   1.949   0.050  14.758  0.3906 -0.2933 -0.2185
  526TMC3     H 7814   1.949   4.631  14.919  0.2292  0.7970 -1.0771
  526TMC3    H1 7815   2.330   0.034  14.807  0.0998  1.2807  1.2088
  526TMC3    H2 7816   2.260   4.560  15.191 -0.6263 -0.5365  0.9736
  526TMC3    C7 7817   2.452   4.649  15.021 -0.6251  0.2365 -0.1011
  526TMC3    C8 7818   2.010   4.600  15.193 -0.3892  0.4840 -0.4822
  526TMC3    O1 7819   2.489   4.641  15.137  0.2958  0.1251 -0.2815
  526TMC3    O2 7820   2.074   4.565  15.291 -0.1886 -0.0557  0.0697
  527MPD2     C 7821   0.095   3.176   1.699  0.0924  0.0306 -0.8129
  527MPD2    C1 7822   0.227   3.135   1.714 -0.5853  0.5597  0.0948
  527MPD2    C2 7823   0.302   3.142   1.602 -0.5978  0.1597  0.7113
  527MPD2    C3 7824   0.248   3.179   1.483 -0.5974  0.6533  0.9609
  527MPD2    C4 7825   0.112   3.214   1.468 -0.0676  1.3148  0.7458
  527MPD2    C5 7826   0.042   3.207   1.581  0.1809  0.0167  0.2115
  527MPD2     H 7827   0.407   3.114   1.610 -0.0786  1.8213 -0.3490
  527MPD2    H1 7828   0.061   3.213   1.372  2.4032  0.4650 -0.5598
  527MPD2    H2 7829   0.025   3.167   1.781 -0.3201  1.2723 -1.0303
  527MPD2    H3 7830   4.662   3.235   1.570 -0.1217 -1.6643 -1.2000
  527MPD2     N 7831   0.339   3.167   1.371 -0.3281 -0.2927 -0.5418
  527MPD2    H5 7832   0.422   3.109   1.386  0.2187  0.7968  0.6490
  527MPD2    N1 7833   0.289   3.092   1.837  0.7107 -0.0599 -0.2724
  527MPD2    H7 7834   0.385   3.060   1.828  0.0950 -2.5220  1.8687
  528TMC3    C1 7835   0.315   3.020   2.049 -0.5077  0.9885  0.1865
  528TMC3    C2 7836   0.458   3.042   2.040 -0.4123 -0.0162 -0.1828
  528TMC3    C3 7837   0.539   2.950   2.107 -0.7052 -0.0817  0.5032
  528TMC3    C4 7838   0.270   2.906   2.111  0.2911 -0.2302  0.1621
  528TMC3    C5 7839   0.358   2.828   2.183  0.9330  0.5290  1.0185
  528TMC3    C6 7840   0.488   2.853   2.182  0.3778  0.8049  0.0781
  528TMC3     C 7841   0.227   3.081   1.957 -0.4606 -0.2234  0.1828
  528TMC3     O 7842   0.109   3.096   1.981 -0.4965 -0.5197 -0.1031
  528TMC3     H 7843   0.492   3.128   1.983 -0.0231  1.1250  1.7725
  528TMC3    H1 7844   0.163   2.897   2.122  0.3967 -0.3289  1.0617
  528TMC3    H2 7845   0.559   2.794   2.238 -1.4867  0.5179  2.0940
  528TMC3    C7 7846   0.312   2.703   2.246 -0.8673  0.4346 -0.2330
  528TMC3    C8 7847   0.671   3.004   2.133  0.1668  0.7598  0.4881
  528TMC3    O1 7848   0.392   2.614   2.257  0.5450  0.1171  0.1624
  528TMC3    O2 7849   0.693   3.122   2.118 -0.0626 -0.4134  0.2973
  529MPD2     C 7850   2.603   0.658   0.977 -0.2235  0.3970  0.0289
  529MPD2    C1 7851   2.583   0.789   1.024 -0.1157 -0.2453 -0.2655
  529MPD2    C2 7852   2.500   0.880   0.957 -0.0435  0.4178 -0.0949
  529MPD2    C3 7853   2.436   0.847   0.840 -0.1536 -0.5674  0.5609
  529MPD2    C4 7854   2.453   0.715   0.792  0.6021 -0.7810  0.1336
  529MPD2    C5 7855   2.532   0.622   0.864  0.0556 -0.5726 -0.1357
  529MPD2     H 7856   2.494   0.984   0.987  0.8560  0.0020  1.4961
  529MPD2    H1 7857   2.397   0.688   0.703  1.6706 -1.6246 -0.2779
  529MPD2    H2 7858   2.664   0.580   1.021 -0.9720  0.1498  0.6181
  529MPD2    H3 7859   2.537   0.521   0.825  2.2294 -0.4367 -0.1952
  529MPD2     N 7860   2.362   0.945   0.763 -0.0809 -0.2356  0.3163
  529MPD2    H5 7861   2.329   0.924   0.669 -0.6092  1.5941  0.1085
  529MPD2    N1 7862   2.646   0.837   1.139 -0.1706 -0.1348 -0.2779
  529MPD2    H7 7863   2.622   0.930   1.171  3.6146 -0.0461  2.3586
  530TMC3    C1 7864   2.737   0.837   1.349  0.4248  0.4626  0.6079
  530TMC3    C2 7865   2.861   0.829   1.417  0.0383  0.0702  0.2140
  530TMC3    C3 7866   2.855   0.870   1.547  0.1723 -0.8697 -0.0110
  530TMC3    C4 7867   2.612   0.866   1.398 -0.1898  0.4102 -0.0349
  530TMC3    C5 7868   2.623   0.883   1.526  0.4563 -0.2330 -0.4616
  530TMC3    C6 7869   2.736   0.915   1.601 -0.0517 -0.1923  0.3367
  530TMC3     C 7870   2.738   0.774   1.222  0.2304 -0.3650  0.1521
  530TMC3     O 7871   2.814   0.680   1.202  0.1194  0.0982  0.3188
  530TMC3     H 7872   2.952   0.795   1.371 -0.7964 -1.0647 -0.6128
  530TMC3    H1 7873   2.520   0.863   1.342 -0.5871 -0.1198  0.6386
  530TMC3    H2 7874   2.724   0.924   1.709 -0.8019  0.2706  0.2153
  530TMC3    C7 7875   2.497   0.899   1.596 -0.0887  0.1647  0.3056
  530TMC3    C8 7876   2.973   0.883   1.626 -0.6145 -0.0249  0.8097
  530TMC3    O1 7877   2.495   0.982   1.687  0.6769 -0.3955  0.7416
  530TMC3    O2 7878   2.967   0.962   1.722 -0.1285 -0.1582  0.6174
  531MPD2     C 7879   2.208   3.871  13.016 -0.2457  0.3245  0.2645
  531MPD2    C1 7880   2.094   3.882  12.933  0.2915  0.0033  0.1100
  531MPD2    C2 7881   2.045   3.767  12.869 -0.2238 -0.2516 -0.3080
  531MPD2    C3 7882   2.120   3.650  12.868 -0.1864 -0.1181  0.3788
  531MPD2    C4 7883   2.236   3.643  12.936  0.4756 -0.2171  0.0269
  531MPD2    C5 7884   2.267   3.745  13.025 -0.0413  0.4082 -0.0940
  531MPD2     H 7885   1.963   3.774  12.799  0.6520  2.0136 -1.0773
  531MPD2    H1 7886   2.308   3.562  12.940  0.8212  0.1051  0.3301
  531MPD2    H2 7887   2.244   3.949  13.081  2.3022  0.1837 -0.9777
  531MPD2    H3 7888   2.357   3.733  13.085 -0.2637 -0.6906  0.0143
  531MPD2     N 7889   2.066   3.538  12.807 -0.0030 -0.2342 -0.1074
  531MPD2    H5 7890   1.972   3.561  12.776 -0.3822 -0.6133  0.7667
  531MPD2    N1 7891   2.027   4.003  12.936  0.4605 -0.5254 -0.4601
  531MPD2    H7 7892   2.066   4.077  12.993  0.0544 -1.4101  0.9680
  532TMC3    C1 7893   1.853   4.167  12.897 -0.0133  0.0079  0.1559
  532TMC3    C2 7894   1.723   4.181  12.848  0.3175  0.2450 -0.3272
  532TMC3    C3 7895   1.616   4.198  12.931 -0.0112 -0.0310 -0.1855
  532TMC3    C4 7896   1.869   4.187  13.025  0.0278  0.0716 -0.0544
  532TMC3    C5 7897   1.757   4.189  13.102 -0.3143  0.2099 -0.8326
  532TMC3    C6 7898   1.627   4.189  13.063 -0.9141 -0.0377  0.2830
  532TMC3     C 7899   1.920   4.045  12.853 -0.0217  0.4443  0.3618
  532TMC3     O 7900   1.877   3.992  12.753 -0.0636 -0.3307  0.7341
  532TMC3     H 7901   1.705   4.165  12.743 -1.9753 -2.2202  0.4563
  532TMC3    H1 7902   1.961   4.161  13.075  0.9893  0.9762 -1.3814
  532TMC3    H2 7903   1.541   4.182  13.129 -0.6079 -0.7571  0.6059
  532TMC3    C7 7904   1.784   4.155  13.244  0.6086  0.2005  0.0573
  532TMC3    C8 7905   1.499   4.119  12.891 -0.3326 -1.3547 -0.6201
  532TMC3    O1 7906   1.756   4.234  13.331 -0.2498  0.4492 -0.4820
  532TMC3    O2 7907   1.386   4.138  12.939 -0.4999 -0.4445 -0.7553
  533TMC3    C1 7908   2.584   0.512  14.350  0.2377  0.3427 -0.0780
  533TMC3    C2 7909   2.556   0.628  14.280  0.2943  0.1445 -0.1439
  533TMC3    C3 7910   2.620   0.739  14.337  0.0998 -0.1869 -0.6302
  533TMC3    C4 7911   2.676   0.509  14.450 -0.1584  0.1353 -0.3453
  533TMC3    C5 7912   2.715   0.625  14.509  0.7493 -0.7823  0.0849
  533TMC3    C6 7913   2.696   0.743  14.450 -0.3216 -0.2705  0.4365
  533TMC3     C 7914   2.482   0.404  14.344 -0.0267  0.3054 -0.4515
  533TMC3     O 7915   2.512   0.285  14.356 -0.0422 -0.1892  0.3981
  533TMC3     H 7916   2.490   0.634  14.194 -0.4554  0.8066  0.4848
  533TMC3    H1 7917   2.668   0.412  14.497  0.2758  0.1344 -0.2750
  533TMC3    H2 7918   2.740   0.833  14.492  3.5976 -2.7128  1.5394
  533TMC3    C7 7919   2.705   0.624  14.652  0.2051 -0.4116 -0.2342
  533TMC3    C8 7920   2.588   0.866  14.281  0.1972  0.0330 -0.3815
  533TMC3    O1 7921   2.662   0.520  14.697 -0.2444  0.6679  0.4319
  533TMC3    O2 7922   2.478   0.889  14.237  0.3820 -0.4376  0.1848
  534MPD2     C 7923   0.179   1.384   1.868 -0.2273 -0.5807  0.1080
  534MPD2    C1 7924   0.124   1.506   1.830  0.2290 -0.2375  0.3163
  534MPD2    C2 7925   0.004   1.508   1.771 -0.3768  0.1842 -0.1131
  534MPD2    C3 7926   4.658   1.391   1.750  0.8594  0.0574  0.3593
  534MPD2    C4 7927   4.711   1.269   1.796  0.2057 -0.8681  0.2771
  534MPD2    C5 7928   0.103   1.266   1.860 -0.1142 -1.0851  0.5681
  534MPD2     H 7929   4.699   1.608   1.741  1.3378  0.2396 -1.6512
  534MPD2    H1 7930   4.647   1.181   1.787 -0.6623 -0.4381  2.4004
  534MPD2    H2 7931   0.274   1.371   1.918  0.0331  1.5326  0.1644
  534MPD2    H3 7932   0.148   1.172   1.888 -0.0314 -0.8370  1.2759
  534MPD2     N 7933   4.534   1.382   1.666 -0.2431  0.3641 -0.4096
  534MPD2    H5 7934   4.482   1.296   1.654  0.2766 -0.0633  0.3874
  534MPD2    N1 7935   0.209   1.617   1.823  0.6444 -0.2528 -0.4630
  534MPD2    H7 7936   0.173   1.700   1.776  2.8158 -0.3329 -2.2556
  535TMC3    C1 7937   4.375   1.463   1.506 -0.0369  0.1123 -0.4163
  535TMC3    C2 7938   4.308   1.345   1.533  0.4695  0.6271 -0.3969
  535TMC3    C3 7939   4.272   1.269   1.424  0.3898 -0.1559  0.1300
  535TMC3    C4 7940   4.393   1.517   1.383 -0.1132  0.5888 -0.1270
  535TMC3    C5 7941   4.345   1.444   1.282  1.5342 -0.2730 -0.4281
  535TMC3    C6 7942   4.292   1.320   1.296  0.6287 -0.3342 -0.1545
  535TMC3     C 7943   4.483   1.497   1.600 -0.0736  0.5647  0.4571
  535TMC3     O 7944   4.518   1.614   1.600 -0.2052 -0.1246 -0.5383
  535TMC3     H 7945   4.295   1.301   1.631  0.4482  1.9744  0.1940
  535TMC3    H1 7946   4.469   1.591   1.361  1.2337  0.0577  2.6211
  535TMC3    H2 7947   4.261   1.265   1.208 -1.3266 -0.5173  0.6529
  535TMC3    C7 7948   4.416   1.463   1.162  0.1058 -0.1075  0.1418
  535TMC3    C8 7949   4.161   1.173   1.454  0.8965  0.2521 -0.3624
  535TMC3    O1 7950   4.479   1.373   1.113  0.3427  0.3226 -0.0353
  535TMC3    O2 7951   4.092   1.184   1.556  0.2166  0.4888 -0.1788
  536MPD2     C 7952   4.138   0.244  15.902 -0.1014  0.4351  0.9073
  536MPD2    C1 7953   4.016   0.180  15.922  0.0877  0.8925 -0.0659
  536MPD2    C2 7954   3.910   0.195  15.836  0.0821  0.4067 -0.0571
  536MPD2    C3 7955   3.920   0.276  15.729  0.0932  0.4380 -0.4254
  536MPD2    C4 7956   4.044   0.325  15.703 -1.0787  0.1947 -1.1705
  536MPD2    C5 7957   4.152   0.314  15.789 -0.7077  1.0126  0.4922
  536MPD2     H 7958   3.812   0.156  15.860 -0.7225  1.3243 -1.9164
  536MPD2    H1 7959   4.060   0.393  15.620 -2.1292  0.2471 -1.3233
  536MPD2    H2 7960   4.222   0.236  15.970  0.2599  0.9135  0.5193
  536MPD2    H3 7961   4.243   0.371  15.771  0.6679 -1.5441 -0.6389
  536MPD2     N 7962   3.814   0.308  15.643  0.3972 -0.6777  0.0063
  536MPD2    H5 7963   3.828   0.353  15.553  1.7357  0.2859  0.6968
  536MPD2    N1 7964   3.996   0.109  16.038  0.3857  0.4124  0.1875
  536MPD2    H7 7965   4.070   0.108  16.108  0.8055  2.4358 -0.2147
  537TMC3    C1 7966   3.894   4.709  16.217  0.3228 -0.5562  1.2926
  537TMC3    C2 7967   3.925   0.082  16.311  0.7865  0.0564  0.4434
  537TMC3    C3 7968   3.853   0.074  16.426 -0.2067  0.2465  0.2026
  537TMC3    C4 7969   3.791   4.625  16.236  0.3184  0.6827 -0.1449
  537TMC3    C5 7970   3.718   4.634  16.346  0.3552 -0.3520  0.5529
  537TMC3    C6 7971   3.752   4.712  16.452  0.2458  0.0156  0.1611
  537TMC3     C 7972   3.887   0.035  16.078 -0.9276  0.2049 -0.0157
  537TMC3     O 7973   3.779   0.016  16.020 -0.6905 -0.1287 -0.0311
  537TMC3     H 7974   3.997   0.158  16.285 -0.4879  0.7091 -1.2286
  537TMC3    H1 7975   3.745   4.567  16.157  2.5987 -2.5260  0.8814
  537TMC3    H2 7976   3.694   0.014  16.539 -0.8333  1.3025 -0.9620
  537TMC3    C7 7977   3.608   4.546  16.375 -0.9283  0.2792  0.6699
  537TMC3    C8 7978   3.887   0.171  16.527 -0.4370 -0.0521  0.1111
  537TMC3    O1 7979   3.525   4.515  16.291  0.4688 -0.3838 -0.3072
  537TMC3    O2 7980   3.880   0.134  16.646  0.3651  0.4946 -0.0408
  538TMC3    C1 7981   4.428   3.216  10.533 -0.4693 -0.7155  0.3460
  538TMC3    C2 7982   4.545   3.289  10.557  0.3855 -0.0789  0.6419
  538TMC3    C3 7983   4.560   3.397  10.480  1.1756  0.3333  0.2428
  538TMC3    C4 7984   4.346   3.229  10.426  0.3234  0.1066  0.0360
  538TMC3    C5 7985   4.374   3.337  10.343 -0.0039  0.2193  0.4537
  538TMC3    C6 7986   4.478   3.427  10.371 -0.6062  0.2166 -0.0015
  538TMC3     C 7987   4.347   3.250  10.650  0.3392  0.1094 -0.4629
  538TMC3     O 7988   4.238   3.286  10.615 -0.8083 -0.3580 -0.3988
  538TMC3     H 7989   4.618   3.260  10.631  0.7302  0.1685  0.3993
  538TMC3    H1 7990   4.262   3.162  10.416  0.8248 -0.4968 -0.0715
  538TMC3    H2 7991   4.488   3.519  10.315 -0.5558  0.0450 -0.2739
  538TMC3    C7 7992   4.254   3.365  10.266  0.1580 -0.0888 -0.0876
  538TMC3    C8 7993   4.604   3.508  10.559 -0.3635  0.6047  0.1213
  538TMC3    O1 7994   4.161   3.287  10.255 -0.1978  0.0155 -0.1002
  538TMC3    O2 7995   4.617   3.493  10.684 -0.3382  0.4988 -0.2147
  539MPD2     C 7996   4.167   3.048  11.911  0.6411 -0.2089 -0.4222
  539MPD2    C1 7997   4.126   3.048  11.775 -0.4066  0.2136 -0.8368
  539MPD2    C2 7998   4.088   3.165  11.724  0.7254  0.1510 -0.5913
  539MPD2    C3 7999   4.086   3.280  11.795 -0.1004  0.2657 -0.6740
  539MPD2    C4 8000   4.116   3.276  11.929  0.0668 -0.1857  0.0404
  539MPD2    C5 8001   4.155   3.160  11.989  0.0620 -0.4207 -0.8345
  539MPD2     H 8002   4.050   3.162  11.622 -2.1910  1.3732  0.4675
  539MPD2    H1 8003   4.113   3.366  11.989 -2.8113 -2.0094  2.6194
  539MPD2    H2 8004   4.205   2.956  11.951  0.6704 -0.8001 -1.7944
  539MPD2    H3 8005   4.186   3.166  12.093 -0.6659  2.0441 -0.7566
  539MPD2     N 8006   4.069   3.412  11.736  0.2282 -0.4858  0.2343
  539MPD2    H5 8007   4.053   3.495  11.794 -0.8989 -0.6548  0.1650
  539MPD2    N1 8008   4.126   2.937  11.684  0.1565  0.6499 -0.5345
  539MPD2    H7 8009   4.075   2.948  11.596  2.7794 -4.0014 -2.6253
  540TMC3    C1 8010   4.052   3.573  11.561 -0.1312  0.1241  0.4722
  540TMC3    C2 8011   4.080   3.596  11.430  0.3254  0.3317  0.0760
  540TMC3    C3 8012   4.044   3.714  11.374  0.4702  0.2086  0.0486
  540TMC3    C4 8013   4.027   3.670  11.644 -0.2874  0.3200  0.0076
  540TMC3    C5 8014   4.006   3.795  11.597  0.1662  0.0891  0.3123
  540TMC3    C6 8015   4.005   3.816  11.458 -0.2088 -0.0295 -0.6976
  540TMC3     C 8016   4.059   3.434  11.599  0.5951 -0.4364  0.2518
  540TMC3     O 8017   4.088   3.357  11.507  0.5159  0.2910 -0.0417
  540TMC3     H 8018   4.120   3.521  11.364 -0.2007 -0.8962  1.1628
  540TMC3    H1 8019   4.002   3.653  11.748  2.2634  1.5609  0.8465
  540TMC3    H2 8020   3.979   3.911  11.412  1.7901  0.4367 -0.8394
  540TMC3    C7 8021   3.929   3.889  11.672 -0.0570  0.1623 -0.2972
  540TMC3    C8 8022   4.039   3.739  11.226 -0.8191  0.6459  0.7486
  540TMC3    O1 8023   3.873   3.851  11.772 -0.4441  0.4363 -0.3062
  540TMC3    O2 8024   4.042   3.856  11.187 -0.3715  0.6997  0.2528
  541MPD2     C 8025   3.144   4.508  13.167  0.3912 -0.6201  0.0253
  541MPD2    C1 8026   3.059   4.392  13.170 -0.2601  0.0634  0.2431
  541MPD2    C2 8027   3.003   4.365  13.041 -0.5316  0.1858 -0.3714
  541MPD2    C3 8028   3.015   4.445  12.932 -0.3789  0.1176 -0.0593
  541MPD2    C4 8029   3.094   4.564  12.938 -0.7145  0.1623 -0.1034
  541MPD2    C5 8030   3.150   4.598  13.059 -0.3841  0.2265 -0.6878
  541MPD2     H 8031   2.958   4.267  13.032 -0.6771  0.3043 -0.9062
  541MPD2    H1 8032   3.110   4.633  12.856 -1.4048  0.9533  0.4221
  541MPD2    H2 8033   3.215   4.528  13.246  0.7167 -2.2651  0.1586
  541MPD2    H3 8034   3.209   4.688  13.069 -2.8890  1.9187 -0.8812
  541MPD2     N 8035   2.971   4.407  12.809 -0.5207 -0.2988  0.1738
  541MPD2    H5 8036   2.986   4.459  12.723  1.0560  1.3454  1.4624
  541MPD2    N1 8037   3.057   4.312  13.283  0.0478 -0.4741 -0.4906
  541MPD2    H7 8038   3.103   4.355  13.363  2.2577 -0.7065 -1.6289
  542TMC3    C1 8039   2.862   4.311  12.639 -0.9388  0.0638  0.4174
  542TMC3    C2 8040   2.973   4.362  12.573  0.2420 -0.3790 -0.0024
  542TMC3    C3 8041   2.947   4.400  12.448 -0.8256 -0.0227 -0.6676
  542TMC3    C4 8042   2.732   4.306  12.596 -0.2224  0.0764 -0.3591
  542TMC3    C5 8043   2.711   4.350  12.464 -0.2858  0.0791  0.4245
  542TMC3    C6 8044   2.820   4.400  12.396 -0.3010  0.5391  0.4068
  542TMC3     C 8045   2.891   4.302  12.779  0.3451  0.2778 -0.0549
  542TMC3     O 8046   2.826   4.231  12.850 -0.1854 -0.2664  0.5154
  542TMC3     H 8047   3.074   4.362  12.613  1.0050 -0.5451 -1.9309
  542TMC3    H1 8048   2.657   4.255  12.655 -0.1353  0.1594 -0.1787
  542TMC3    H2 8049   2.795   4.436  12.297  0.9682 -0.4342 -0.2504
  542TMC3    C7 8050   2.590   4.416  12.434 -0.1467  0.8605 -0.7670
  542TMC3    C8 8051   3.061   4.459  12.371 -0.1823 -0.3084  0.2825
  542TMC3    O1 8052   2.567   4.443  12.315  0.2617 -0.0813  0.0596
  542TMC3    O2 8053   3.165   4.469  12.430 -0.6806 -0.0251 -0.0776
  543TMC3    C1 8054   2.213   0.829  16.785 -0.6357  0.1854  1.3211
  543TMC3    C2 8055   2.264   0.736  16.873  0.2327  0.2865  0.3925
  543TMC3    C3 8056   2.212   0.733  16.999 -0.1888  0.1368 -0.5743
  543TMC3    C4 8057   2.116   0.920  16.828 -0.5551 -0.2041 -0.3032
  543TMC3    C5 8058   2.080   0.921  16.964 -0.5054  0.1373  0.4360
  543TMC3    C6 8059   2.129   0.823  17.057  0.5293  0.3118 -0.2866
  543TMC3     C 8060   2.300   0.873  16.682  0.4103  0.8460 -0.6962
  543TMC3     O 8061   2.416   0.838  16.681 -0.1356 -0.2010  0.5855
  543TMC3     H 8062   2.339   0.665  16.839 -0.0994  0.0454  0.1671
  543TMC3    H1 8063   2.090   1.005  16.766  0.9641 -1.5442 -2.7575
  543TMC3    H2 8064   2.093   0.795  17.156  0.3477  1.0606 -0.1457
  543TMC3    C7 8065   1.975   1.008  17.012 -0.1562  0.2713 -0.2063
  543TMC3    C8 8066   2.243   0.611  17.080  0.0854 -0.1966  0.1653
  543TMC3    O1 8067   1.920   1.074  16.924 -0.4107 -0.1842  0.9350
  543TMC3    O2 8068   2.245   0.629  17.199 -0.1243 -0.3008 -0.2866
  544MPD2     C 8069   2.301   0.106  17.150  0.6611  0.2380  0.5555
  544MPD2    C1 8070   2.288   0.122  17.020 -0.6745  0.3048 -0.2813
  544MPD2    C2 8071   2.285   0.254  16.970  0.2219 -0.0969  0.4833
  544MPD2    C3 8072   2.288   0.361  17.056  0.8418  0.0194  0.0109
  544MPD2    C4 8073   2.313   0.341  17.190  0.1390  0.3294 -0.0320
  544MPD2    C5 8074   2.326   0.216  17.228 -0.3033 -0.8540  0.5970
  544MPD2     H 8075   2.275   0.272  16.864 -1.5684 -0.7631  0.5489
  544MPD2    H1 8076   2.329   0.423  17.258  0.0894  1.4131 -1.3229
  544MPD2    H2 8077   2.315   0.005  17.186 -1.4138 -0.8591 -1.7678
  544MPD2    H3 8078   2.342   0.193  17.332  2.8240 -2.6004 -0.2676
  544MPD2     N 8079   2.267   0.493  17.003  0.2211 -0.2579 -0.4696
  544MPD2    H5 8080   2.262   0.498  16.901  1.1916  0.9049 -0.4637
  544MPD2    N1 8081   2.276   0.008  16.943 -0.0010  0.5629  0.2477
  544MPD2    H7 8082   2.261   4.646  16.994  1.3895 -0.0527 -0.4074
  545TMC3    C1 8083   2.307   4.586  16.772  0.7916 -0.4786 -0.0098
  545TMC3    C2 8084   2.403   4.574  16.678  0.7482 -0.0859 -0.1391
  545TMC3    C3 8085   2.481   4.462  16.662 -0.8247  0.6837  0.6695
  545TMC3    C4 8086   2.294   4.475  16.855  0.4179 -0.0417 -0.0573
  545TMC3    C5 8087   2.364   4.358  16.829  0.4905 -0.2889 -0.2886
  545TMC3    C6 8088   2.462   4.347  16.736  0.7329 -0.0656  0.6042
  545TMC3     C 8089   2.264   4.721  16.810 -0.0552  0.5689 -0.2560
  545TMC3     O 8090   2.258   0.082  16.723 -1.0064 -0.1513 -0.1628
  545TMC3     H 8091   2.424   4.661  16.615 -0.5129 -2.7087 -4.1695
  545TMC3    H1 8092   2.212   4.465  16.925  1.0801 -0.1835  0.6882
  545TMC3    H2 8093   2.518   4.259  16.706 -0.6490 -1.8660  3.3905
  545TMC3    C7 8094   2.342   4.246  16.918 -0.3168  0.3499 -0.4802
  545TMC3    C8 8095   2.590   4.473  16.561 -0.6166 -0.3682  0.4130
  545TMC3    O1 8096   2.220   4.239  16.947 -0.0027 -0.2687  0.3735
  545TMC3    O2 8097   2.590   4.573  16.489 -0.0477 -0.2001 -0.1731
  546MPD2     C 8098   3.713   0.637  17.509  0.1876 -0.5159 -0.1983
  546MPD2    C1 8099   3.719   0.673  17.378 -0.2004  0.2209 -0.0899
  546MPD2    C2 8100   3.777   0.788  17.341 -0.8953  0.2106 -0.2205
  546MPD2    C3 8101   3.841   0.862  17.445 -1.1393 -0.5658  0.1737
  546MPD2    C4 8102   3.847   0.815  17.575 -0.2218 -0.0761  0.4894
  546MPD2    C5 8103   3.786   0.698  17.605 -0.1343  0.1336 -0.6207
  546MPD2     H 8104   3.771   0.819  17.237  2.4366 -1.1826 -0.7919
  546MPD2    H1 8105   3.906   0.870  17.648 -0.5201  1.9158 -0.7601
  546MPD2    H2 8106   3.659   0.550  17.544 -1.1308  0.6148  0.5759
  546MPD2    H3 8107   3.782   0.657   0.006 -1.7317 -0.0277 -0.7525
  546MPD2     N 8108   3.889   0.992  17.428  0.4569 -0.1682 -0.7703
  546MPD2    H5 8109   3.943   1.030  17.505 -0.0413  0.5222 -0.7703
  546MPD2    N1 8110   3.646   0.591  17.286  0.3761  0.3292  0.4794
  546MPD2    H7 8111   3.595   0.514  17.329  0.7223  0.2901  0.8130
  547TMC3    C1 8112   3.531   0.507  17.104  0.2106  0.0596  0.0154
  547TMC3    C2 8113   3.487   0.522  16.972 -0.3209  0.1522  0.2881
  547TMC3    C3 8114   3.363   0.465  16.937 -0.3128 -0.4684  0.2546
  547TMC3    C4 8115   3.452   0.439  17.190  0.2305  0.3745  0.4470
  547TMC3    C5 8116   3.333   0.380  17.147 -0.7313 -0.3323  0.1127
  547TMC3    C6 8117   3.283   0.400  17.024 -0.1678 -0.2052  0.0380
  547TMC3     C 8118   3.622   0.609  17.150 -0.3433 -0.3702 -0.3881
  547TMC3     O 8119   3.678   0.679  17.071  0.5085  0.1983 -0.4441
  547TMC3     H 8120   3.547   0.589  16.912  1.5096 -0.6092  1.2786
  547TMC3    H1 8121   3.474   0.429  17.295  0.1560  1.9748  0.6259
  547TMC3    H2 8122   3.186   0.368  16.989 -0.1532  1.3555 -1.4476
  547TMC3    C7 8123   3.257   0.314  17.241  0.3103  0.6655 -0.1915
  547TMC3    C8 8124   3.309   0.480  16.808 -0.1261 -1.0923  0.7764
  547TMC3    O1 8125   3.254   0.356  17.355  0.3786 -0.1354 -0.0032
  547TMC3    O2 8126   3.188   0.501  16.792 -0.2067 -0.4282 -0.0828
  548MPD2     C 8127   3.449   1.340  12.822 -0.3802 -1.3505  0.3005
  548MPD2    C1 8128   3.401   1.229  12.754 -0.3984  0.3799  0.5418
  548MPD2    C2 8129   3.493   1.135  12.709  0.3600  1.0286 -0.2723
  548MPD2    C3 8130   3.624   1.162  12.703 -0.5388  1.1210 -0.4193
  548MPD2    C4 8131   3.674   1.279  12.761 -0.6130  0.4857 -0.5984
  548MPD2    C5 8132   3.585   1.362  12.824  0.4475  0.0125  0.5554
  548MPD2     H 8133   3.456   1.039  12.674 -0.3268  0.6576  1.4938
  548MPD2    H1 8134   3.780   1.302  12.765 -0.4783 -0.3882  0.7768
  548MPD2    H2 8135   3.376   1.409  12.863 -0.0712 -1.1697  0.5491
  548MPD2    H3 8136   3.625   1.452  12.870 -1.2580  0.6125  0.8562
  548MPD2     N 8137   3.707   1.073  12.632 -0.1971  0.1739  0.2513
  548MPD2    H5 8138   3.672   0.984  12.596  0.1166 -0.5559  1.7517
  548MPD2    N1 8139   3.259   1.219  12.742  0.4421 -0.0048 -0.6518
  548MPD2    H7 8140   3.205   1.282  12.800  2.1231  1.5911 -0.8028
  549TMC3    C1 8141   3.049   1.126  12.698  0.5334 -0.1172 -0.4282
  549TMC3    C2 8142   2.996   1.256  12.704  0.1848  0.5164 -0.1032
  549TMC3    C3 8143   2.862   1.269  12.719 -0.0858  0.0526  0.1074
  549TMC3    C4 8144   2.977   1.015  12.732 -0.0044  0.2392  0.1717
  549TMC3    C5 8145   2.844   1.036  12.743 -0.3690  0.2340  0.2478
  549TMC3    C6 8146   2.779   1.158  12.732  0.4797 -0.7859 -0.2417
  549TMC3     C 8147   3.193   1.116  12.684  0.1893 -0.0976 -0.2255
  549TMC3     O 8148   3.225   0.998  12.665  0.1109 -0.5379  0.3580
  549TMC3     H 8149   3.068   1.335  12.681  0.6392  0.5911  1.5961
  549TMC3    H1 8150   3.025   0.919  12.749 -0.6497 -0.1932 -0.4333
  549TMC3    H2 8151   2.672   1.175  12.729  0.6423 -0.0277 -1.8986
  549TMC3    C7 8152   2.750   0.927  12.765  0.2260 -0.1453 -0.3001
  549TMC3    C8 8153   2.801   1.402  12.706 -0.4958 -0.3122  0.6704
  549TMC3    O1 8154   2.640   0.963  12.811 -0.5528 -0.2637 -0.1502
  549TMC3    O2 8155   2.687   1.404  12.754  0.1205 -0.3059 -0.0819
  550TMC3    C1 8156   2.353   4.050  12.560 -0.0459  0.2580 -0.1024
  550TMC3    C2 8157   2.327   4.108  12.684  0.1392 -0.4080  0.3992
  550TMC3    C3 8158   2.248   4.220  12.685 -0.1805 -0.2050  0.1685
  550TMC3    C4 8159   2.328   4.124  12.448 -0.2805  0.5035 -0.8203
  550TMC3    C5 8160   2.249   4.234  12.454 -0.4012 -0.4610 -0.0270
  550TMC3    C6 8161   2.209   4.285  12.570  0.5004 -0.1294 -0.0624
  550TMC3     C 8162   2.314   3.906  12.550 -0.0314  0.5832 -0.2392
  550TMC3     O 8163   2.338   3.837  12.647  0.4934 -0.5495  1.0146
  550TMC3     H 8164   2.328   4.034  12.764  0.0517 -1.6697 -0.7689
  550TMC3    H1 8165   2.350   4.080  12.351  0.9157 -1.2927  0.2513
  550TMC3    H2 8166   2.147   4.372  12.585  1.8141  0.9783 -1.1483
  550TMC3    C7 8167   2.159   4.253  12.343  0.3212  0.2074  0.2122
  550TMC3    C8 8168   2.195   4.262  12.805 -0.2113  0.2661  0.4019
  550TMC3    O1 8169   2.183   4.177  12.250  0.6033  0.4051  0.6084
  550TMC3    O2 8170   2.091   4.328  12.795 -0.0794 -0.0814  0.4100
  551TMC3    C1 8171   4.530   2.716  13.421 -0.0597 -0.4801 -0.2924
  551TMC3    C2 8172   4.611   2.774  13.326 -0.2245  0.6282  0.1908
  551TMC3    C3 8173   0.016   2.736  13.327  0.0471 -0.1848 -0.1566
  551TMC3    C4 8174   4.575   2.633  13.524 -0.3983  0.1977  0.1814
  551TMC3    C5 8175   4.708   2.605  13.522 -0.6096  0.4887  0.1812
  551TMC3    C6 8176   0.071   2.660  13.424 -0.0416  0.1441  0.1377
  551TMC3     C 8177   4.388   2.705  13.397 -0.2106  0.5189  0.0261
  551TMC3     O 8178   4.350   2.589  13.397  0.2940 -0.3024 -0.3048
  551TMC3     H 8179   4.565   2.820  13.239 -0.0750  0.9341  0.2731
  551TMC3    H1 8180   4.499   2.590  13.587  0.4252  0.9028  1.6714
  551TMC3    H2 8181   0.173   2.624  13.420  0.5514  1.6209  2.1049
  551TMC3    C7 8182   0.036   2.532  13.639 -0.1489 -0.2717  0.2748
  551TMC3    C8 8183   0.110   2.779  13.228  0.4483 -0.0647  0.1791
  551TMC3    O1 8184   4.683   2.489  13.722  0.1363  0.2678 -0.3461
  551TMC3    O2 8185   0.223   2.735  13.238 -0.4979 -0.7142 -0.4836
  552MPD2     C 8186   1.671   4.149  13.682  0.5990  0.1026  0.1138
  552MPD2    C1 8187   1.681   4.015  13.708  0.2620 -0.6579  0.6834
  552MPD2    C2 8188   1.772   3.973  13.804 -0.5865  0.3438 -0.4707
  552MPD2    C3 8189   1.849   4.064  13.873 -0.0778  0.1382  1.0144
  552MPD2    C4 8190   1.842   4.201  13.850  0.7882  0.2312 -0.1279
  552MPD2    C5 8191   1.754   4.236  13.749  0.1496  0.1639  0.9727
  552MPD2     H 8192   1.776   3.867  13.825 -0.8596  0.2447 -0.9140
  552MPD2    H1 8193   1.886   4.283  13.905  0.3279  0.5549 -0.2410
  552MPD2    H2 8194   1.599   4.188  13.612 -0.9979  0.0338  1.7299
  552MPD2    H3 8195   1.748   4.338  13.711 -0.1158 -0.2327 -0.0350
  552MPD2     N 8196   1.950   4.036  13.970 -0.3815 -0.4712 -0.2535
  552MPD2    H5 8197   2.009   4.113  13.997  0.6792 -1.5104  0.4004
  552MPD2    N1 8198   1.624   3.915  13.629 -0.3786 -0.2500 -0.1048
  552MPD2    H7 8199   1.647   3.819  13.653 -0.1382 -0.0228  0.5753
  553TMC3    C1 8200   1.472   3.813  13.482  0.0049 -0.4632  0.3311
  553TMC3    C2 8201   1.451   3.803  13.348 -0.4238  0.6156  0.1510
  553TMC3    C3 8202   1.416   3.680  13.295  0.2478  0.3737 -0.0584
  553TMC3    C4 8203   1.457   3.710  13.572  0.6124 -0.1620 -0.2699
  553TMC3    C5 8204   1.428   3.591  13.516 -0.1448  0.0731 -1.0242
  553TMC3    C6 8205   1.397   3.572  13.384  0.0245  0.0577  0.0894
  553TMC3     C 8206   1.533   3.936  13.528  0.4647  0.3914  0.3994
  553TMC3     O 8207   1.501   4.041  13.473 -1.0989  0.2540 -0.3541
  553TMC3     H 8208   1.481   3.887  13.286 -0.2530 -0.6168 -1.4379
  553TMC3    H1 8209   1.481   3.712  13.678 -1.2098  0.1334  0.1366
  553TMC3    H2 8210   1.384   3.469  13.352  0.6558  0.2960 -0.9473
  553TMC3    C7 8211   1.430   3.460  13.585 -0.6992 -0.0242 -0.5767
  553TMC3    C8 8212   1.516   3.641  13.206 -0.6851 -0.3430 -0.0762
  553TMC3    O1 8213   1.345   3.374  13.554  0.6006 -0.0112 -0.0931
  553TMC3    O2 8214   1.619   3.707  13.210  0.5055 -0.1976 -0.1376
  554TMC3    C1 8215   3.031   3.295  11.393  0.0431  0.6448  0.9907
  554TMC3    C2 8216   2.908   3.345  11.349 -0.0360 -0.0865  0.0392
  554TMC3    C3 8217   2.905   3.427  11.242  0.0255 -0.4224  0.0887
  554TMC3    C4 8218   3.152   3.345  11.345 -0.4395  0.1011 -0.7837
  554TMC3    C5 8219   3.137   3.431  11.242 -0.2097  0.3275 -0.0091
  554TMC3    C6 8220   3.022   3.467  11.182  0.3456 -0.2483 -1.6620
  554TMC3     C 8221   3.039   3.237  11.521  0.4416  0.3698 -0.1276
  554TMC3     O 8222   3.147   3.247  11.579 -0.0382 -0.9190  0.0115
  554TMC3     H 8223   2.813   3.295  11.367 -0.5761  0.2336 -1.9071
  554TMC3    H1 8224   3.250   3.333  11.391  0.1624  1.1329 -1.8030
  554TMC3    H2 8225   3.033   3.545  11.107 -0.4755  1.0099 -0.4681
  554TMC3    C7 8226   3.251   3.483  11.176  0.0713 -0.4126 -0.5721
  554TMC3    C8 8227   2.811   3.374  11.146 -0.1358 -0.1404  0.3650
  554TMC3    O1 8228   3.331   3.410  11.119  0.4907 -0.3869 -0.2871
  554TMC3    O2 8229   2.854   3.358  11.032 -0.5669 -0.2888  0.6347
  555TMC3    C1 8230   2.837   1.819  15.109 -0.4954  0.3441  0.4685
  555TMC3    C2 8231   2.869   1.929  15.188  0.2685 -0.1352 -0.8643
  555TMC3    C3 8232   2.852   1.916  15.326  0.0495 -0.6207  0.0790
  555TMC3    C4 8233   2.812   1.697  15.175 -0.6857  0.7552  0.7808
  555TMC3    C5 8234   2.811   1.688  15.308 -0.2081  0.0186  0.4177
  555TMC3    C6 8235   2.834   1.792  15.390  0.1335  0.1600 -0.1795
  555TMC3     C 8236   2.791   1.822  14.967 -0.3329 -1.0418 -0.8564
  555TMC3     O 8237   2.805   1.729  14.892 -0.4185  0.2690 -0.1261
  555TMC3     H 8238   2.864   2.026  15.140  1.2326  1.2038  1.7114
  555TMC3    H1 8239   2.797   1.606  15.119 -0.1969  0.7071  0.7273
  555TMC3    H2 8240   2.830   1.785  15.498 -2.2197  1.3567 -0.1963
  555TMC3    C7 8241   2.765   1.571  15.370  0.0247 -0.6735  0.6461
  555TMC3    C8 8242   2.849   2.033  15.407 -0.1828  0.3959  0.7588
  555TMC3    O1 8243   2.695   1.585  15.471  0.0080 -0.2296  0.1992
  555TMC3    O2 8244   2.780   2.020  15.506 -0.7393 -0.2302 -0.6614
  556MPD2     C 8245   0.401   0.072  10.761 -0.7585  0.0684  0.0542
  556MPD2    C1 8246   0.362   4.668  10.804 -0.1430 -0.5872  0.7607
  556MPD2    C2 8247   0.333   4.572  10.713  0.1119 -0.2165  0.1238
  556MPD2    C3 8248   0.343   4.597  10.577  0.0704 -0.3657  0.0017
  556MPD2    C4 8249   0.378   4.723  10.536  0.0254  0.9745  0.4637
  556MPD2    C5 8250   0.400   0.097  10.626  0.2250  0.0885  0.5827
  556MPD2     H 8251   0.313   4.471  10.749 -0.0065 -0.4953 -0.7200
  556MPD2    H1 8252   0.375   0.032  10.433  1.5771 -1.6636 -0.4424
  556MPD2    H2 8253   0.432   0.151  10.829  1.6576 -1.0918  0.3108
  556MPD2    H3 8254   0.413   0.199  10.591  2.5432 -1.0933 -2.0618
  556MPD2     N 8255   0.335   4.490  10.486 -0.3374 -1.1020 -0.5521
  556MPD2    H5 8256   0.326   4.400  10.533 -0.3254 -0.8287 -0.0247
  556MPD2    N1 8257   0.353   4.646  10.946 -0.2050  0.4924 -0.7138
  556MPD2    H7 8258   0.358   0.005  11.004 -0.1464 -2.1888  3.1499
  557TMC3    C1 8259   0.297   4.375  10.283 -0.2345 -0.3340  0.0784
  557TMC3    C2 8260   0.336   4.371  10.152  0.3816 -0.1875 -0.6437
  557TMC3    C3 8261   0.329   4.249  10.088  0.1459 -0.4410  0.1557
  557TMC3    C4 8262   0.249   4.265  10.349 -0.0449 -0.0797 -0.3593
  557TMC3    C5 8263   0.246   4.147  10.279  0.3592 -0.4673 -0.4235
  557TMC3    C6 8264   0.286   4.142  10.155  0.7213  0.2090 -0.7856
  557TMC3     C 8265   0.333   4.500  10.348  0.2502 -1.1495 -0.0843
  557TMC3     O 8266   0.326   4.599  10.277  0.1422  0.6792  0.3051
  557TMC3     H 8267   0.358   4.467  10.105 -2.1182  0.8163  0.2469
  557TMC3    H1 8268   0.192   4.277  10.441  0.1743  1.4137 -0.4081
  557TMC3    H2 8269   0.286   4.049  10.100  0.6919 -1.0989  1.4467
  557TMC3    C7 8270   0.147   4.051  10.322  0.8127 -0.0821 -0.0036
  557TMC3    C8 8271   0.358   4.243   9.949 -0.6935  0.1014  0.0349
  557TMC3    O1 8272   0.107   3.979  10.231 -0.2609 -0.3808 -0.1741
  557TMC3    O2 8273   0.446   4.315   9.908  0.0063 -0.2910  0.6859
  558TMC3    C1 8274   2.922   1.954   9.990 -0.2476 -0.3653  0.4332
  558TMC3    C2 8275   2.804   1.955  10.069 -0.0245  0.6645 -0.0530
  558TMC3    C3 8276   2.689   1.953   9.989  0.8936  0.0811  0.0859
  558TMC3    C4 8277   2.927   1.953   9.852  0.0624 -1.0791 -0.6393
  558TMC3    C5 8278   2.812   1.971   9.779 -0.0526 -0.1322  0.4968
  558TMC3    C6 8279   2.695   1.959   9.848  0.5692  0.3526  0.2285
  558TMC3     C 8280   3.043   1.987  10.062 -0.2594  0.7229  0.2270
  558TMC3     O 8281   3.131   2.054  10.003 -0.0785 -0.2439 -0.0351
  558TMC3     H 8282   2.798   1.955  10.177 -0.4341  1.8309 -0.0770
  558TMC3    H1 8283   3.027   1.966   9.811 -0.0407 -0.5771 -0.7331
  558TMC3    H2 8284   2.596   1.957   9.804  0.0553  1.1683  1.3444
  558TMC3    C7 8285   2.819   1.947   9.635 -0.6069  0.1944 -0.1804
  558TMC3    C8 8286   2.556   1.956  10.051 -0.1289  0.2770  0.4062
  558TMC3    O1 8287   2.912   1.878   9.594 -0.5191 -0.1287 -0.2508
  558TMC3    O2 8288   2.459   1.968   9.982 -0.6206  0.2410  0.2969
  559MPD2     C 8289   2.754   2.808  10.459 -0.3419  0.2708  0.4999
  559MPD2    C1 8290   2.674   2.781  10.567  1.0165 -1.0025 -0.1376
  559MPD2    C2 8291   2.730   2.771  10.689 -0.3220  0.1370  0.0822
  559MPD2    C3 8292   2.865   2.780  10.709 -0.1713 -1.0201 -0.7795
  559MPD2    C4 8293   2.946   2.808  10.603 -0.1938  0.6862 -0.1242
  559MPD2    C5 8294   2.890   2.809  10.474  0.2404  0.1880  0.6098
  559MPD2     H 8295   2.668   2.756  10.777 -0.5589  0.0492 -0.1022
  559MPD2    H1 8296   3.052   2.826  10.614  0.5057 -2.5787 -1.3372
  559MPD2    H2 8297   2.717   2.824  10.359  1.4491 -1.6627 -0.4975
  559MPD2    H3 8298   2.945   2.832  10.384  2.6168  0.5815  2.1604
  559MPD2     N 8299   2.908   2.750  10.839  0.3387 -0.1088  0.0882
  559MPD2    H5 8300   2.840   2.726  10.911  2.7338  3.3353  3.4676
  559MPD2    N1 8301   2.534   2.760  10.543 -0.3326 -0.0305  0.4900
  559MPD2    H7 8302   2.507   2.751  10.446 -1.4634  0.6737  0.7459
  560TMC3    C1 8303   3.069   2.684  11.005  0.0799  0.1685 -0.1056
  560TMC3    C2 8304   2.994   2.579  11.046 -0.0997 -0.3379  0.6644
  560TMC3    C3 8305   3.053   2.473  11.108 -0.0629  1.0191 -0.2269
  560TMC3    C4 8306   3.200   2.699  11.044 -0.1502 -0.5767  0.5871
  560TMC3    C5 8307   3.251   2.600  11.121  0.0448  0.3988 -0.5325
  560TMC3    C6 8308   3.184   2.478  11.141 -0.8942  0.3222  0.4709
  560TMC3     C 8309   3.039   2.743  10.878  0.5308 -0.2391  0.0309
  560TMC3     O 8310   3.139   2.768  10.818 -0.4336  0.4099 -0.7403
  560TMC3     H 8311   2.889   2.568  11.021 -0.7306  3.4604  1.5669
  560TMC3    H1 8312   3.252   2.793  11.025  0.8641 -0.9932  1.3420
  560TMC3    H2 8313   3.225   2.396  11.198  0.7952  0.3012 -0.7882
  560TMC3    C7 8314   3.338   2.630  11.229  0.0772 -0.3706 -0.4497
  560TMC3    C8 8315   2.996   2.349  11.082  0.5446 -0.4091 -0.4773
  560TMC3    O1 8316   3.343   2.556  11.328 -0.0838  0.6367  0.4551
  560TMC3    O2 8317   2.872   2.336  11.085  0.1655  0.1466  0.1000
  561TMC3    C1 8318   1.057   1.404  11.080 -0.4259  0.2835  1.1195
  561TMC3    C2 8319   0.975   1.342  11.177  0.9550  0.8642 -0.5361
  561TMC3    C3 8320   0.903   1.418  11.263  0.4794 -0.2236  1.0201
  561TMC3    C4 8321   1.050   1.541  11.067 -0.2404  0.1270  0.0389
  561TMC3    C5 8322   0.956   1.611  11.139  0.3413 -0.2306 -0.5676
  561TMC3    C6 8323   0.898   1.553  11.245 -0.1417 -0.7009  0.1656
  561TMC3     C 8324   1.129   1.326  10.984 -0.1412 -0.1542  0.9972
  561TMC3     O 8325   1.158   1.386  10.881 -0.2700  0.3019  0.6260
  561TMC3     H 8326   0.972   1.235  11.190 -1.2542  1.1338  1.2870
  561TMC3    H1 8327   1.113   1.591  10.995 -0.6907 -0.1859 -0.5718
  561TMC3    H2 8328   0.869   1.611  11.333  0.2150 -1.5667  0.8566
  561TMC3    C7 8329   0.959   1.763  11.155  0.3341  0.0678  0.4903
  561TMC3    C8 8330   0.837   1.357  11.377 -0.4759  0.3043  1.0109
  561TMC3    O1 8331   0.895   1.802  11.250 -0.3426 -0.0829 -0.1829
  561TMC3    O2 8332   0.853   1.237  11.385  0.1913  0.1426 -0.0302
  562TMC3    C1 8333   1.960   2.775  16.020 -0.7272  1.1625  0.0253
  562TMC3    C2 8334   1.859   2.860  15.994  0.5691  0.9508 -0.1103
  562TMC3    C3 8335   1.850   2.912  15.866 -0.0203  0.4721 -0.0841
  562TMC3    C4 8336   2.035   2.731  15.916 -0.4875 -0.9993 -0.5690
  562TMC3    C5 8337   2.015   2.778  15.789 -0.8656  0.5683 -0.5828
  562TMC3    C6 8338   1.913   2.858  15.756  0.4113  0.1928 -0.5923
  562TMC3     C 8339   2.017   2.763  16.149 -0.7974  0.1345  0.4814
  562TMC3     O 8340   2.094   2.667  16.163  0.3564 -0.0890  0.1576
  562TMC3     H 8341   1.817   2.922  16.073  3.0380 -0.5295  2.3290
  562TMC3    H1 8342   2.124   2.677  15.945  0.0322 -0.4356 -1.1134
  562TMC3    H2 8343   1.897   2.892  15.654 -2.4273  0.3364 -0.0876
  562TMC3    C7 8344   2.077   2.699  15.687 -0.3727  0.0962 -0.1252
  562TMC3    C8 8345   1.736   3.012  15.847 -0.0372  0.2868 -0.3053
  562TMC3    O1 8346   2.062   2.729  15.570  0.4227 -0.0449 -0.1901
  562TMC3    O2 8347   1.674   3.039  15.949 -0.7312 -0.1259  0.5231
  563MPD2     C 8348   0.070   3.899  15.730 -0.3796  0.2892  0.2437
  563MPD2    C1 8349   0.061   3.965  15.852 -0.4105 -0.5140  0.6530
  563MPD2    C2 8350   0.148   3.936  15.955  0.1797 -0.2574  0.8060
  563MPD2    C3 8351   0.237   3.829  15.949 -0.1619  0.1553 -0.2316
  563MPD2    C4 8352   0.257   3.775  15.823 -0.7820  0.4274 -0.3352
  563MPD2    C5 8353   0.181   3.815  15.720 -0.5549  0.0149  1.2218
  563MPD2     H 8354   0.141   3.979  16.054 -0.0571 -1.6728  1.4059
  563MPD2    H1 8355   0.324   3.691  15.812 -0.3012  1.2449 -3.5088
  563MPD2    H2 8356   0.021   3.929  15.639  0.5556 -0.1008 -0.3846
  563MPD2    H3 8357   0.205   3.762  15.629  0.6673  2.5519  0.0725
  563MPD2     N 8358   0.298   3.788  16.065 -0.9244 -0.4765 -0.5717
  563MPD2    H5 8359   0.276   3.839  16.150  1.1337 -0.1698 -0.2234
  563MPD2    N1 8360   4.681   4.057  15.880  0.3475  0.8119 -0.6697
  563MPD2    H7 8361   4.596   4.044  15.826  0.0362  0.8633 -0.1957
  564TMC3    C1 8362   4.557   4.084  16.077 -0.1034  0.4859 -1.2222
  564TMC3    C2 8363   4.458   4.020  16.004 -0.0883 -0.1856  0.4514
  564TMC3    C3 8364   4.392   3.918  16.067 -0.0486  0.2951 -0.2851
  564TMC3    C4 8365   4.592   4.041  16.197 -0.0124  0.5502  0.1133
  564TMC3    C5 8366   4.533   3.932  16.248  0.3091 -0.0733 -0.8177
  564TMC3    C6 8367   4.436   3.875  16.186 -0.1228 -0.3648 -0.7481
  564TMC3     C 8368   4.664   4.136  15.992 -0.6774  0.3280  0.5448
  564TMC3     O 8369   0.030   4.195  16.048 -0.0685  0.0463  0.3375
  564TMC3     H 8370   4.426   4.068  15.912 -1.3773  0.6713  1.3417
  564TMC3    H1 8371   4.680   4.082  16.246  1.2863 -0.7807 -1.0914
  564TMC3    H2 8372   4.396   3.784  16.230  0.1092 -1.2901 -2.4418
  564TMC3    C7 8373   4.633   3.834  16.284  0.2254 -0.0655 -0.3260
  564TMC3    C8 8374   4.342   3.820  15.979 -0.0856  0.1297  0.4272
  564TMC3    O1 8375   4.712   3.860  16.368 -0.5120 -0.6950  0.4867
  564TMC3    O2 8376   4.275   3.728  16.029  0.3765 -0.1733 -0.4890
  565TMC3    C1 8377   0.126   1.195   9.854  0.0013 -0.2095 -0.0925
  565TMC3    C2 8378   0.112   1.081   9.934 -0.4889  0.7982 -0.1362
  565TMC3    C3 8379   0.067   0.965   9.870  0.3456  0.3365  0.0053
  565TMC3    C4 8380   0.088   1.193   9.725 -0.8340  0.3018 -0.0816
  565TMC3    C5 8381   0.041   1.078   9.671  0.8823 -0.0035  0.5532
  565TMC3    C6 8382   0.028   0.961   9.734 -0.2460  0.0557 -1.0372
  565TMC3     C 8383   0.133   1.329   9.916 -0.3422 -0.1226  0.6876
  565TMC3     O 8384   0.161   1.422   9.842 -0.1457  0.5906  0.3706
  565TMC3     H 8385   0.142   1.073  10.038  1.9845  2.4144 -0.7334
  565TMC3    H1 8386   0.122   1.272   9.659 -2.8767  0.1751 -1.2813
  565TMC3    H2 8387   0.011   0.865   9.686 -2.4246 -0.5744  0.9800
  565TMC3    C7 8388   0.005   1.088   9.531 -0.1546  0.0366 -0.3075
  565TMC3    C8 8389   0.061   0.841   9.946  0.3485 -0.1424 -0.6309
  565TMC3    O1 8390   4.717   1.204   9.488  0.2620 -0.4805  0.4138
  565TMC3    O2 8391   0.088   0.856  10.068 -0.0326  0.0263 -0.6715
  566MPD2     C 8392   1.465   2.196  14.722 -0.2953  0.1123 -0.7040
  566MPD2    C1 8393   1.541   2.197  14.603  0.0411 -0.4149  0.3102
  566MPD2    C2 8394   1.491   2.138  14.481 -0.4869 -1.0378 -0.1269
  566MPD2    C3 8395   1.367   2.082  14.478 -0.1683 -0.2064  0.5320
  566MPD2    C4 8396   1.281   2.097  14.587  0.3216  0.2976 -0.7946
  566MPD2    C5 8397   1.333   2.158  14.707 -0.0086 -0.0773 -0.5667
  566MPD2     H 8398   1.550   2.143  14.391 -0.1138 -1.9286  0.0699
  566MPD2    H1 8399   1.177   2.068  14.588  0.3861  0.0531 -1.4942
  566MPD2    H2 8400   1.497   2.241  14.815 -3.2952 -1.9204  1.3173
  566MPD2    H3 8401   1.267   2.177  14.791 -0.1523 -2.5697 -0.0983
  566MPD2     N 8402   1.321   2.024  14.361  0.5093 -0.3822 -0.0145
  566MPD2    H5 8403   1.224   2.039  14.335  0.1875 -1.2026  0.7492
  566MPD2    N1 8404   1.677   2.247  14.605 -0.1049 -0.5291 -0.3144
  566MPD2    H7 8405   1.721   2.255  14.697 -1.1747 -0.6260  0.1994
  567TMC3    C1 8406   1.870   2.354  14.504  0.1838  0.7551 -0.4848
  567TMC3    C2 8407   1.917   2.438  14.408 -0.6467  0.2325 -0.5169
  567TMC3    C3 8408   2.037   2.412  14.346  0.9875  0.1298  0.4340
  567TMC3    C4 8409   1.956   2.253  14.553 -0.4499  0.3140 -0.2110
  567TMC3    C5 8410   2.074   2.226  14.493 -0.0708 -0.3577 -0.2122
  567TMC3    C6 8411   2.112   2.302  14.384 -0.0030  0.1454  0.1295
  567TMC3     C 8412   1.735   2.308  14.493 -0.7686  0.4553 -0.8712
  567TMC3     O 8413   1.678   2.335  14.390 -0.5407 -0.5169 -0.0914
  567TMC3     H 8414   1.856   2.522  14.379 -0.7960 -0.0098 -0.9117
  567TMC3    H1 8415   1.919   2.205  14.643  0.9301  0.4742  0.4518
  567TMC3    H2 8416   2.205   2.281  14.331 -0.7143  3.0213 -2.2485
  567TMC3    C7 8417   2.183   2.153  14.549  0.0349  0.0010  0.1013
  567TMC3    C8 8418   2.036   2.444  14.204 -0.4445  0.0273 -0.5065
  567TMC3    O1 8419   2.289   2.164  14.486 -0.0203 -0.0012 -0.2738
  567TMC3    O2 8420   1.932   2.498  14.159 -0.5982 -0.4953  0.7899
  568MPD2     C 8421   4.213   2.409  16.211  0.2882 -0.0132  0.3097
  568MPD2    C1 8422   4.269   2.481  16.312  0.6597 -0.4882  0.1733
  568MPD2    C2 8423   4.310   2.612  16.290  0.4632  0.7345 -0.7277
  568MPD2    C3 8424   4.295   2.667  16.163  0.3091  0.5028  0.0362
  568MPD2    C4 8425   4.243   2.587  16.056 -0.4086 -1.6577 -0.7011
  568MPD2    C5 8426   4.208   2.462  16.082  0.5215 -0.0804 -0.1463
  568MPD2     H 8427   4.351   2.681  16.362 -1.8356  0.1253  1.1693
  568MPD2    H1 8428   4.235   2.615  15.951 -1.8018 -1.8108 -0.6308
  568MPD2    H2 8429   4.178   2.307  16.219 -2.6212  0.9095 -0.6672
  568MPD2    H3 8430   4.173   2.395  16.004 -0.2609 -1.4319  1.3568
  568MPD2     N 8431   4.319   2.808  16.153 -0.5859  0.1294  0.1421
  568MPD2    H5 8432   4.336   2.856  16.241 -0.3028  0.3385 -0.0273
  568MPD2    N1 8433   4.278   2.423  16.445  0.2966  0.8594 -0.0756
  568MPD2    H7 8434   4.238   2.331  16.456 -0.5656  0.9639 -2.2105
  569TMC3    C1 8435   4.382   3.009  16.063  0.2011 -0.7985 -0.5725
  569TMC3    C2 8436   4.356   3.080  16.176  0.1471  0.0104 -0.4809
  569TMC3    C3 8437   4.437   3.186  16.212 -0.0513 -0.4200  0.5428
  569TMC3    C4 8438   4.482   3.047  15.978 -0.2085 -0.7626 -0.2024
  569TMC3    C5 8439   4.574   3.142  16.015  0.3695 -0.2009 -1.0792
  569TMC3    C6 8440   4.551   3.214  16.135  1.4273  0.0747 -0.1304
  569TMC3     C 8441   4.322   2.880  16.039  0.1233 -0.3321  0.5026
  569TMC3     O 8442   4.301   2.834  15.923  0.4215 -0.2958  0.2501
  569TMC3     H 8443   4.265   3.062  16.231  0.8608  0.5880  0.8739
  569TMC3    H1 8444   4.497   2.985  15.890 -1.7092 -0.6976 -0.5103
  569TMC3    H2 8445   4.611   3.302  16.156 -0.9670  2.0800 -1.7615
  569TMC3    C7 8446   4.598   3.226  15.904  0.3233 -0.3504  0.8040
  569TMC3    C8 8447   4.376   3.306  16.265  0.3987 -0.1295 -0.2930
  569TMC3    O1 8448   4.676   3.191  15.818  0.1852  0.1065  0.0899
  569TMC3    O2 8449   4.263   3.345  16.231 -0.1660  0.4226 -0.4250
  570TMC3    C1 8450   3.601   1.474  15.944 -0.4572  0.3693 -0.4899
  570TMC3    C2 8451   3.645   1.497  15.813 -0.1416 -0.4922 -0.3302
  570TMC3    C3 8452   3.692   1.622  15.783 -0.3690 -0.3095 -0.0979
  570TMC3    C4 8453   3.599   1.563  16.046 -0.4842  0.8269  0.6699
  570TMC3    C5 8454   3.637   1.690  16.012  0.1378 -0.1198  0.6285
  570TMC3    C6 8455   3.692   1.717  15.881 -0.6950  0.1891 -0.4674
  570TMC3     C 8456   3.572   1.335  15.978 -0.1535  0.3700 -0.5766
  570TMC3     O 8457   3.538   1.264  15.886  0.1536 -0.1831 -0.1214
  570TMC3     H 8458   3.648   1.421  15.736  1.2984  0.4188 -1.1519
  570TMC3    H1 8459   3.543   1.537  16.135  0.0794  0.4149  0.9006
  570TMC3    H2 8460   3.720   1.819  15.858 -0.7468  0.7220  1.7957
  570TMC3    C7 8461   3.634   1.789  16.110 -0.2872 -0.2928  0.1318
  570TMC3    C8 8462   3.801   1.640  15.687 -0.2226 -0.8922 -0.1098
  570TMC3    O1 8463   3.621   1.759  16.224  0.7003  0.4898  0.0195
  570TMC3    O2 8464   3.858   1.746  15.694 -0.4986 -0.2533 -0.1536
  571MPD2     C 8465   1.099   2.528   0.246  0.4592 -0.3980 -0.3922
  571MPD2    C1 8466   1.008   2.553   0.344  0.6034 -0.0499  0.3491
  571MPD2    C2 8467   0.997   2.687   0.384  0.6552 -0.4889 -0.0726
  571MPD2    C3 8468   1.071   2.786   0.322 -0.7507 -0.0994  0.1319
  571MPD2    C4 8469   1.161   2.751   0.227 -0.5689  0.2217 -0.1346
  571MPD2    C5 8470   1.170   2.621   0.186 -0.7195  0.3230  0.2057
  571MPD2     H 8471   0.934   2.711   0.468  0.0155 -0.1353 -0.6569
  571MPD2    H1 8472   1.223   2.824   0.176 -1.7492 -0.2474 -2.2542
  571MPD2    H2 8473   1.111   2.429   0.203  1.1163 -0.0873 -0.9291
  571MPD2    H3 8474   1.238   2.593   0.106  0.1504  1.8321  0.4213
  571MPD2     N 8475   1.068   2.925   0.361 -0.4422  0.0132 -0.0458
  571MPD2    H5 8476   1.133   2.990   0.318 -0.3953  1.9523  2.9562
  571MPD2    N1 8477   0.949   2.443   0.418  0.1104 -0.0007  0.6571
  571MPD2    H7 8478   0.972   2.350   0.383 -1.4094  0.8666 -2.6541
  572TMC3    C1 8479   1.020   3.109   0.507  0.1490  0.1084  0.0653
  572TMC3    C2 8480   0.968   3.127   0.634 -0.5056  0.4216 -0.5493
  572TMC3    C3 8481   1.020   3.242   0.698 -0.1092 -0.3754 -0.1149
  572TMC3    C4 8482   1.124   3.183   0.458  0.6587 -0.0170 -0.3799
  572TMC3    C5 8483   1.174   3.285   0.527 -0.1425  0.1568 -0.1396
  572TMC3    C6 8484   1.127   3.318   0.647  0.0546 -0.1491 -0.3754
  572TMC3     C 8485   0.983   2.977   0.459  0.0805 -0.1462  0.3771
  572TMC3     O 8486   0.892   2.920   0.526 -0.3108  0.3370  0.2982
  572TMC3     H 8487   0.870   3.088   0.659  1.0966 -2.4226  1.2728
  572TMC3    H1 8488   1.175   3.162   0.365  0.8440 -2.7114  0.3201
  572TMC3    H2 8489   1.170   3.411   0.683 -2.5634  0.6463  0.6908
  572TMC3    C7 8490   1.279   3.370   0.463  0.5590  0.1724 -0.1491
  572TMC3    C8 8491   0.966   3.266   0.831  0.1685 -0.1086  0.0872
  572TMC3    O1 8492   1.289   3.367   0.342  0.3956 -0.5676 -0.6576
  572TMC3    O2 8493   0.872   3.195   0.865  0.6406 -0.1586  0.7104
  573MPD2     C 8494   2.839   3.440   0.405  0.7429 -0.2000 -0.0692
  573MPD2    C1 8495   2.939   3.533   0.389 -0.3830 -1.1880 -0.1412
  573MPD2    C2 8496   2.961   3.586   0.256  0.1113 -0.3912  0.5570
  573MPD2    C3 8497   2.878   3.537   0.155 -0.2058 -0.7980  0.3748
  573MPD2    C4 8498   2.765   3.466   0.186  0.1394  0.2395  0.4917
  573MPD2    C5 8499   2.742   3.418   0.310  0.5554 -0.0046 -0.3893
  573MPD2     H 8500   3.044   3.653   0.240 -2.0097  2.3456  1.1377
  573MPD2    H1 8501   2.687   3.449   0.112  0.3326 -2.0217  0.8242
  573MPD2    H2 8502   2.825   3.396   0.503  0.4435  0.0827  0.0187
  573MPD2    H3 8503   2.648   3.366   0.325 -0.2726  0.9517 -2.1717
  573MPD2     N 8504   2.883   3.580   0.020 -0.1043 -0.8532 -0.4164
  573MPD2    H5 8505   2.800   3.546  17.673  0.7129 -2.5064 -0.6783
  573MPD2    N1 8506   3.020   3.567   0.497  0.0624  0.0386 -0.3489
  573MPD2    H7 8507   3.008   3.524   0.588  0.0737 -0.3696 -0.5401
  574TMC3    C1 8508   2.967   3.699  17.534  0.5236 -0.3275  0.2914
  574TMC3    C2 8509   2.845   3.683  17.482 -0.4145 -0.3893  0.1918
  574TMC3    C3 8510   2.832   3.737  17.357  0.1486  0.2354 -0.0815
  574TMC3    C4 8511   3.076   3.757  17.473 -0.9496  0.4744 -0.6630
  574TMC3    C5 8512   3.051   3.822  17.349 -0.4534 -0.1431  0.1567
  574TMC3    C6 8513   2.929   3.809  17.293 -0.4482  1.0374  0.4551
  574TMC3     C 8514   2.981   3.658  17.673  0.3546  0.2486 -0.7831
  574TMC3     O 8515   3.086   3.692   0.026  0.0292  0.0941 -0.0195
  574TMC3     H 8516   2.753   3.654  17.531 -0.2480  0.3331  0.9367
  574TMC3    H1 8517   3.170   3.773  17.525 -1.9257 -0.9874  1.6015
  574TMC3    H2 8518   2.914   3.826  17.187 -0.3839 -0.5599  0.1920
  574TMC3    C7 8519   3.140   3.923  17.284 -0.5402 -0.3846 -0.6615
  574TMC3    C8 8520   2.692   3.756  17.323  0.4870  0.9390 -0.4182
  574TMC3    O1 8521   3.104   3.976  17.179 -0.0342 -0.1362  0.4669
  574TMC3    O2 8522   2.611   3.679  17.366  0.1315 -0.1556  0.2674
  575TMC3    C1 8523   0.137   0.367  10.686 -0.8659  0.2543 -0.2681
  575TMC3    C2 8524   0.088   0.241  10.689 -0.4989  0.1742 -0.2638
  575TMC3    C3 8525   0.038   0.194  10.574 -0.1039 -0.2660 -0.2429
  575TMC3    C4 8526   0.127   0.445  10.571  0.2692 -0.1927 -0.3836
  575TMC3    C5 8527   0.062   0.400  10.458 -0.3958  0.0283 -0.1498
  575TMC3    C6 8528   0.025   0.270  10.459 -0.3137  0.7559 -0.5907
  575TMC3     C 8529   0.224   0.402  10.792 -0.1108  0.2140 -0.0142
  575TMC3     O 8530   0.224   0.324  10.887 -0.4703 -0.4468 -0.3298
  575TMC3     H 8531   0.104   0.169  10.769 -0.8873 -0.6847 -0.9639
  575TMC3    H1 8532   0.162   0.548  10.562  0.8989 -0.5479 -1.9832
  575TMC3    H2 8533   4.698   0.226  10.374  2.2455 -1.3549 -1.0402
  575TMC3    C7 8534   0.077   0.478  10.334  0.1607  0.2355  0.1082
  575TMC3    C8 8535   4.710   0.059  10.580  0.2003  0.2868 -0.0460
  575TMC3    O1 8536   0.086   0.600  10.355 -0.1292  0.3058 -0.1194
  575TMC3    O2 8537   4.642   0.018  10.676 -0.1114  0.4625  0.1118
  576MPD2     C 8538   4.716   2.094  12.323  0.7401  0.1724 -1.2085
  576MPD2    C1 8539   4.678   2.098  12.190  0.5910  0.2657 -0.3230
  576MPD2    C2 8540   4.561   2.173  12.166 -0.4232  0.6408  0.0206
  576MPD2    C3 8541   4.484   2.227  12.268 -0.8601 -0.3427 -0.0213
  576MPD2    C4 8542   4.529   2.225  12.402 -0.1385  0.3703  0.7402
  576MPD2    C5 8543   4.643   2.150  12.422  0.1252 -0.0417  0.4195
  576MPD2     H 8544   4.528   2.192  12.064 -1.6317  0.2767  0.3458
  576MPD2    H1 8545   4.472   2.273  12.482 -1.5760 -1.4310  0.7920
  576MPD2    H2 8546   0.081   2.043  12.358 -0.2325 -0.0279  0.9705
  576MPD2    H3 8547   4.685   2.148  12.522  1.7958  1.0113 -0.2590
  576MPD2     N 8548   4.357   2.282  12.248 -0.8882 -0.6500  0.2744
  576MPD2    H5 8549   4.323   2.341  12.323 -0.0425 -1.0202  0.9502
  576MPD2    N1 8550   0.021   2.038  12.080 -0.5467  0.0421  0.0321
  576MPD2    H7 8551   4.724   2.049  11.982 -2.0942  0.4532  0.4334
  577TMC3    C1 8552   0.179   1.894  11.965 -0.3481 -0.2110  0.3719
  577TMC3    C2 8553   0.232   1.765  11.968  0.4218  0.7084 -0.5261
  577TMC3    C3 8554   0.253   1.704  11.843 -1.2006 -0.4113  0.5084
  577TMC3    C4 8555   0.152   1.953  11.847  0.2265 -0.1175  0.1826
  577TMC3    C5 8556   0.178   1.889  11.726  0.5731  0.9575  0.0364
  577TMC3    C6 8557   0.223   1.765  11.723  0.2482 -0.3067  0.0858
  577TMC3     C 8558   0.124   1.944  12.090 -0.6550 -1.2614 -0.0168
  577TMC3     O 8559   0.172   1.890  12.194 -0.4072  0.5454 -0.4228
  577TMC3     H 8560   0.265   1.725  12.064  2.8874  3.2298 -0.3240
  577TMC3    H1 8561   0.153   2.061  11.849  0.9717 -0.1506  1.5872
  577TMC3    H2 8562   0.238   1.722  11.624  1.0901 -2.1514  1.0099
  577TMC3    C7 8563   0.129   1.940  11.596 -0.4997 -0.2365  0.0842
  577TMC3    C8 8564   0.336   1.590  11.857  0.2147 -0.0213  0.5156
  577TMC3    O1 8565   0.177   1.892  11.493  0.1857 -0.4623  0.3933
  577TMC3    O2 8566   0.334   1.522  11.955 -0.6845  0.1361 -0.4807
  578MPD2     C 8567   3.579   1.848   1.503  0.2592  0.1425  0.4886
  578MPD2    C1 8568   3.552   1.781   1.384  0.6668 -0.0989 -0.4488
  578MPD2    C2 8569   3.524   1.644   1.390 -1.2312 -0.2490 -0.0730
  578MPD2    C3 8570   3.542   1.569   1.504  0.5516 -0.3116  0.2974
  578MPD2    C4 8571   3.587   1.632   1.617  0.0305 -0.5015 -0.7831
  578MPD2    C5 8572   3.604   1.767   1.617  0.5552 -0.1421 -0.6155
  578MPD2     H 8573   3.478   1.591   1.307 -1.0682  0.5469 -0.6755
  578MPD2    H1 8574   3.627   1.586   1.707  2.6439 -1.3847 -2.3967
  578MPD2    H2 8575   3.581   1.957   1.507  0.0046  0.1672 -0.0947
  578MPD2    H3 8576   3.645   1.823   1.700  0.7606 -1.1350 -0.0383
  578MPD2     N 8577   3.499   1.433   1.510  0.3806 -0.1030  0.0817
  578MPD2    H5 8578   3.461   1.398   1.422  0.3566 -2.0097  0.8519
  578MPD2    N1 8579   3.530   1.852   1.265 -0.0989  0.0031  0.8437
  578MPD2    H7 8580   3.543   1.951   1.282 -1.1593  0.1160  0.9713
  579TMC3    C1 8581   3.423   1.232   1.585 -0.5020 -0.8232 -0.0653
  579TMC3    C2 8582   3.495   1.122   1.591 -0.5291 -0.2877  0.0225
  579TMC3    C3 8583   3.454   1.006   1.537  0.0813 -0.2778 -0.1168
  579TMC3    C4 8584   3.295   1.237   1.530 -0.2845  0.5549 -0.4422
  579TMC3    C5 8585   3.251   1.115   1.471 -0.0292 -0.9355 -0.1678
  579TMC3    C6 8586   3.330   1.005   1.477 -0.7584  0.2670 -0.0345
  579TMC3     C 8587   3.495   1.349   1.621 -0.2867  0.2224 -0.0199
  579TMC3     O 8588   3.555   1.359   1.728 -0.0361  0.3119 -0.1925
  579TMC3     H 8589   3.579   1.117   1.659 -1.0059  0.8076  0.6826
  579TMC3    H1 8590   3.239   1.330   1.536 -0.1221  0.5905  0.5633
  579TMC3    H2 8591   3.284   0.917   1.434 -1.5623  1.3590 -1.3998
  579TMC3    C7 8592   3.147   1.120   1.377  0.2667  0.4891  0.1430
  579TMC3    C8 8593   3.556   0.927   1.472 -0.9444 -0.6019 -0.5583
  579TMC3    O1 8594   3.097   1.230   1.367 -0.1080 -0.1379  0.5876
  579TMC3    O2 8595   3.523   0.823   1.418  0.0250 -0.3324 -0.0800
  580TMC3    C1 8596   3.110   1.208  12.320 -0.1501  0.3522  0.0192
  580TMC3    C2 8597   3.232   1.233  12.261 -0.0152 -0.4943 -0.5208
  580TMC3    C3 8598   3.287   1.132  12.190 -0.2150 -0.6446 -0.3472
  580TMC3    C4 8599   3.056   1.077  12.328  0.2517  0.8513  0.4234
  580TMC3    C5 8600   3.116   0.979  12.257 -0.3312  0.1727  0.3369
  580TMC3    C6 8601   3.231   1.004  12.193  0.5140 -0.4992  0.8830
  580TMC3     C 8602   3.015   1.316  12.337 -0.2092 -0.5145  0.2007
  580TMC3     O 8603   2.925   1.319  12.418 -0.1900 -0.1722  0.1262
  580TMC3     H 8604   3.262   1.337  12.261 -1.0976 -0.1848  0.7100
  580TMC3    H1 8605   2.967   1.061  12.388 -1.3114  2.5039 -1.4858
  580TMC3    H2 8606   3.273   0.920  12.138  1.6734  0.5865  0.1073
  580TMC3    C7 8607   3.083   0.839  12.267 -0.1093  0.0348 -0.0028
  580TMC3    C8 8608   3.363   1.164  12.068  0.1810 -0.2037  0.4297
  580TMC3    O1 8609   3.046   0.796  12.376 -0.0569  0.3297 -0.0129
  580TMC3    O2 8610   3.362   1.074  11.980  0.5940 -0.1890 -0.3844
  581MPD2     C 8611   0.533   0.806  14.564 -0.2082  0.3684 -0.2664
  581MPD2    C1 8612   0.505   0.772  14.697  0.4370  0.4911 -0.3167
  581MPD2    C2 8613   0.371   0.797  14.737 -0.3597 -0.3554  0.0217
  581MPD2    C3 8614   0.271   0.826  14.648  0.2761  0.2609  0.4461
  581MPD2    C4 8615   0.304   0.860  14.517  0.9083 -0.4760  0.0476
  581MPD2    C5 8616   0.437   0.852  14.482  0.0849  0.3572  0.5083
  581MPD2     H 8617   0.344   0.770  14.838  0.3358  0.4250  0.4151
  581MPD2    H1 8618   0.231   0.904  14.450  0.8757 -1.0042 -0.2607
  581MPD2    H2 8619   0.631   0.787  14.523 -0.8254 -0.6141 -1.2858
  581MPD2    H3 8620   0.457   0.883  14.380  2.4048 -1.7208  0.3440
  581MPD2     N 8621   0.133   0.833  14.687 -0.5613  0.3266  0.0878
  581MPD2    H5 8622   0.115   0.833  14.787 -2.5649  2.5953 -0.2510
  581MPD2    N1 8623   0.607   0.700  14.767  0.4130  0.1672 -0.1648
  581MPD2    H7 8624   0.693   0.680  14.717  0.8677 -0.0558  0.7149
  582TMC3    C1 8625   0.739   0.609  14.941 -0.1186  0.2046 -0.0876
  582TMC3    C2 8626   0.779   0.609  15.073  0.7677  0.1122 -0.2064
  582TMC3    C3 8627   0.881   0.527  15.117  0.1013  0.2080 -0.5433
  582TMC3    C4 8628   0.778   0.506  14.861  0.0388  0.1993  0.3801
  582TMC3    C5 8629   0.863   0.411  14.909 -1.1670 -0.1221 -0.3636
  582TMC3    C6 8630   0.929   0.430  15.031 -0.1493 -0.1345  0.6366
  582TMC3     C 8631   0.619   0.676  14.906 -0.3529  0.5995 -0.1502
  582TMC3     O 8632   0.528   0.688  14.987  0.5957  0.0089 -0.2418
  582TMC3     H 8633   0.738   0.690  15.132 -2.2757 -0.5815 -1.3213
  582TMC3    H1 8634   0.719   0.493  14.771  0.8767  0.2218 -0.1658
  582TMC3    H2 8635   1.003   0.357  15.064 -1.2009 -0.7198  1.6812
  582TMC3    C7 8636   0.878   0.284  14.842 -0.1770  0.0082  0.7302
  582TMC3    C8 8637   0.879   0.494  15.260  0.6421 -0.0611 -0.2494
  582TMC3    O1 8638   0.879   0.288  14.719  0.4887  0.5787 -0.0421
  582TMC3    O2 8639   0.777   0.524  15.324 -0.2506  0.2693 -0.0020
  583MPD2     C 8640   0.838   1.933  17.204  0.1687 -0.0225  0.5609
  583MPD2    C1 8641   0.821   2.029  17.109 -1.0911 -0.2505 -0.0186
  583MPD2    C2 8642   0.737   2.142  17.143  0.3428  0.2959 -0.3343
  583MPD2    C3 8643   0.684   2.161  17.264 -0.5195 -0.2376  0.0974
  583MPD2    C4 8644   0.726   2.072  17.367  0.2363 -0.4506  0.6454
  583MPD2    C5 8645   0.799   1.962  17.333 -0.4638  0.0840 -0.1401
  583MPD2     H 8646   0.716   2.214  17.065 -1.0438  0.2763  0.0146
  583MPD2    H1 8647   0.693   2.079  17.470 -0.7295  0.6059  0.2693
  583MPD2    H2 8648   0.887   1.839  17.182 -0.5816 -0.1748 -0.4927
  583MPD2    H3 8649   0.823   1.886  17.407 -0.6645 -0.3501 -0.5279
  583MPD2     N 8650   0.612   2.282  17.282  0.5464 -0.7837 -0.3225
  583MPD2    H5 8651   0.605   2.342  17.201 -2.3839 -2.2571 -1.1682
  583MPD2    N1 8652   0.875   2.019  16.982 -0.2013 -0.0486 -0.5094
  583MPD2    H7 8653   0.862   2.094  16.915  0.3278  0.2907 -0.2341
  584TMC3    C1 8654   0.504   2.458  17.398  0.7925  1.4016  0.0120
  584TMC3    C2 8655   0.550   2.559  17.316  0.4196 -0.2986 -0.5404
  584TMC3    C3 8656   0.531   2.690  17.356  0.2910 -0.9269  0.1008
  584TMC3    C4 8657   0.453   2.491  17.521 -0.0615 -0.2465 -0.1298
  584TMC3    C5 8658   0.437   2.624  17.554 -0.2092  0.6852  0.1438
  584TMC3    C6 8659   0.484   2.726  17.478 -0.2037  0.5446  0.5502
  584TMC3     C 8660   0.555   2.320  17.397  0.3273 -0.2246  0.1662
  584TMC3     O 8661   0.538   2.255  17.498 -0.2094 -0.2812 -0.2563
  584TMC3     H 8662   0.583   2.535  17.216  2.7546  1.1233 -0.1092
  584TMC3    H1 8663   0.421   2.413  17.590 -1.0241  0.6028  0.3967
  584TMC3    H2 8664   0.485   2.832  17.503 -1.3419  0.5697  0.4739
  584TMC3    C7 8665   0.356   2.655  17.662  0.2380  0.6930 -0.7768
  584TMC3    C8 8666   0.607   2.782  17.274 -0.0595  0.5849 -0.3319
  584TMC3    O1 8667   0.355   2.570   0.048 -0.0499 -0.4389  0.8863
  584TMC3    O2 8668   0.619   2.752  17.156  0.8733 -0.0104 -0.4166
  585MPD2     C 8669   0.158   1.083   0.832  0.2887  0.4285 -0.0223
  585MPD2    C1 8670   0.214   1.144   0.720 -0.5344 -1.2062  0.5456
  585MPD2    C2 8671   0.215   1.065   0.606  0.1715  0.2249  0.4184
  585MPD2    C3 8672   0.149   0.941   0.594  0.4004  0.2719 -0.4896
  585MPD2    C4 8673   0.092   0.888   0.708 -0.2073 -0.1662 -0.9372
  585MPD2    C5 8674   0.098   0.963   0.820 -0.1550 -0.0030  0.4378
  585MPD2     H 8675   0.248   1.115   0.515  2.2448  0.4515  1.2893
  585MPD2    H1 8676   0.053   0.788   0.723  1.6554 -0.6393  0.8715
  585MPD2    H2 8677   0.154   1.123   0.933  1.5872 -0.0866  0.2317
  585MPD2    H3 8678   0.059   0.916   0.910 -0.6241 -1.7588 -0.6908
  585MPD2     N 8679   0.131   0.886   0.467  0.1713 -0.6184  0.0095
  585MPD2    H5 8680   0.208   0.902   0.403  0.7340  1.0306  1.1228
  585MPD2    N1 8681   0.242   1.288   0.721  0.2543  0.1235 -0.0228
  585MPD2    H7 8682   0.202   1.344   0.796 -0.8583  1.1523 -1.4011
  586TMC3    C1 8683   0.029   0.783   0.289  0.0078 -0.2358  0.2146
  586TMC3    C2 8684   0.152   0.796   0.231  0.0842  0.2879  0.2341
  586TMC3    C3 8685   0.165   0.848   0.107  0.5091  0.0821  0.0850
  586TMC3    C4 8686   4.643   0.833   0.228  0.4789  0.1559 -0.0827
  586TMC3    C5 8687   4.662   0.893   0.101 -0.6840  0.1381 -0.2968
  586TMC3    C6 8688   0.061   0.899   0.035  0.0504  0.2288  0.1168
  586TMC3     C 8689   0.028   0.804   0.433 -0.8508  0.6840  0.4215
  586TMC3     O 8690   4.641   0.800   0.486  0.4172  0.3994 -0.4664
  586TMC3     H 8691   0.233   0.743   0.278 -2.5584 -5.0394 -1.1364
  586TMC3    H1 8692   4.547   0.832   0.278  0.6876  1.3244  0.3292
  586TMC3    H2 8693   0.071   0.917  17.627 -0.1084 -1.0999 -0.1132
  586TMC3    C7 8694   4.543   0.907   0.020 -0.3452 -0.3924 -0.1557
  586TMC3    C8 8695   0.272   0.793   0.033  0.5070  0.0238 -0.0285
  586TMC3    O1 8696   4.441   0.862   0.067  0.1518 -0.1367 -0.3486
  586TMC3    O2 8697   0.294   0.677   0.058  0.2526  0.3739 -0.0166
  587TMC3    C1 8698   2.254   3.826  16.791  0.1400 -0.6287 -0.2734
  587TMC3    C2 8699   2.246   3.915  16.689  0.6373  0.4158 -0.1460
  587TMC3    C3 8700   2.369   3.945  16.625 -0.1198  0.1232  0.0318
  587TMC3    C4 8701   2.364   3.775  16.843 -0.2913 -0.2880 -0.1891
  587TMC3    C5 8702   2.483   3.820  16.789  0.1090 -0.1548  0.1974
  587TMC3    C6 8703   2.487   3.900  16.680  0.1354  0.9506  0.9236
  587TMC3     C 8704   2.123   3.785  16.856  0.2015 -0.3852  0.1473
  587TMC3     O 8705   2.120   3.674  16.906  0.3495 -0.6114 -0.4920
  587TMC3     H 8706   2.150   3.938  16.643 -1.2150 -0.5351  3.3044
  587TMC3    H1 8707   2.347   3.716  16.932  1.7535 -2.7816 -1.4559
  587TMC3    H2 8708   2.583   3.925  16.638 -0.6141  1.8999 -0.2253
  587TMC3    C7 8709   2.607   3.763  16.828 -0.6391 -0.5225  0.2925
  587TMC3    C8 8710   2.386   4.069  16.545  0.5528 -0.0771  0.0264
  587TMC3    O1 8711   2.714   3.802  16.783  0.1402  0.5861 -0.0300
  587TMC3    O2 8712   2.494   4.096  16.493 -0.0080 -0.4828  0.2651
  588TMC3    C1 8713   4.231   2.857   9.401 -0.1270 -0.6761  0.5037
  588TMC3    C2 8714   4.224   2.725   9.374  0.5067 -0.0157 -0.2492
  588TMC3    C3 8715   4.325   2.643   9.418 -0.0920  0.0734  0.0369
  588TMC3    C4 8716   4.327   2.909   9.485  1.1123  0.1156  0.0488
  588TMC3    C5 8717   4.432   2.825   9.512 -0.1425 -0.7352 -0.5762
  588TMC3    C6 8718   4.434   2.689   9.488  0.4991  0.0528  1.0015
  588TMC3     C 8719   4.106   2.931   9.406  0.5358  0.8051  0.4485
  588TMC3     O 8720   4.011   2.874   9.460 -0.2629 -0.3184 -0.0883
  588TMC3     H 8721   4.142   2.684   9.316  0.4210 -2.9531  1.9067
  588TMC3    H1 8722   4.323   3.009   9.527  1.9196  0.0685  0.2528
  588TMC3    H2 8723   4.518   2.629   9.519  0.9397  0.5785  0.8200
  588TMC3    C7 8724   4.545   2.890   9.582 -0.3726 -0.0186 -0.2484
  588TMC3    C8 8725   4.283   2.503   9.431  0.0876  0.0600  0.4351
  588TMC3    O1 8726   4.613   2.821   9.659 -0.4942 -1.4432  0.3142
  588TMC3    O2 8727   4.189   2.471   9.363  0.1861 -0.0007 -0.5446
  589TMC3    C1 8728   3.586   4.434   0.987 -0.2570 -0.3778  0.2361
  589TMC3    C2 8729   3.635   4.394   1.112 -0.0764 -0.3190  0.2171
  589TMC3    C3 8730   3.722   4.289   1.104 -0.1008 -0.5484 -0.1822
  589TMC3    C4 8731   3.611   4.378   0.864  0.1781  0.1451  0.0157
  589TMC3    C5 8732   3.688   4.265   0.870  0.2436 -0.0815 -0.1338
  589TMC3    C6 8733   3.757   4.230   0.984 -0.1838 -0.3894 -1.0711
  589TMC3     C 8734   3.523   4.555   0.975 -0.5100 -0.5217 -0.4603
  589TMC3     O 8735   3.548   4.619   0.870  0.6699  0.1938 -0.2733
  589TMC3     H 8736   3.617   4.450   1.203  0.6977  0.3830 -0.0627
  589TMC3    H1 8737   3.575   4.417   0.770  0.4819  0.2852 -0.0446
  589TMC3    H2 8738   3.811   4.136   0.987 -0.1865 -0.3467  0.3174
  589TMC3    C7 8739   3.734   4.200   0.747  0.1481 -0.0627  0.0272
  589TMC3    C8 8740   3.800   4.249   1.216 -0.1713 -0.6156 -0.1655
  589TMC3    O1 8741   3.822   4.117   0.763 -0.3413  0.0297 -0.2376
  589TMC3    O2 8742   3.748   4.276   1.324 -0.3107  0.2932 -0.2285
  590MPD2     C 8743   3.353   2.888  16.766  0.3691  0.0160 -0.0828
  590MPD2    C1 8744   3.305   2.993  16.682  0.0934  0.3357  0.2766
  590MPD2    C2 8745   3.395   3.059  16.598 -0.1607 -0.7176  0.2924
  590MPD2    C3 8746   3.531   3.031  16.609 -0.0543 -0.2300 -0.3822
  590MPD2    C4 8747   3.580   2.938  16.700  0.3853  0.7900 -0.0570
  590MPD2    C5 8748   3.491   2.871  16.779  0.3815  0.3250  0.3118
  590MPD2     H 8749   3.364   3.141  16.534 -1.7587 -1.2160  0.4297
  590MPD2    H1 8750   3.686   2.938  16.722  0.4655 -0.3809 -0.4680
  590MPD2    H2 8751   3.295   2.829  16.836 -0.2641 -0.7335 -1.2484
  590MPD2    H3 8752   3.531   2.799  16.849 -0.5440  0.1093  0.6113
  590MPD2     N 8753   3.615   3.111  16.524  0.6426 -1.0665 -0.1515
  590MPD2    H5 8754   3.573   3.185  16.470  0.0122 -0.5030  1.1176
  590MPD2    N1 8755   3.167   3.016  16.682  0.0399 -0.1909 -0.5039
  590MPD2    H7 8756   3.112   2.954  16.740 -1.4412  0.6552 -1.0055
  591TMC3    C1 8757   3.785   3.164  16.384 -0.5732  0.4306  0.0319
  591TMC3    C2 8758   3.870   3.108  16.288  0.1621  0.6065  0.5399
  591TMC3    C3 8759   3.893   3.189  16.177  0.2845  0.4559  0.1128
  591TMC3    C4 8760   3.740   3.292  16.369 -0.1375  0.2306 -0.0024
  591TMC3    C5 8761   3.769   3.371  16.266 -0.4061 -0.2149  0.2273
  591TMC3    C6 8762   3.840   3.319  16.159 -0.4920 -0.0982 -0.8507
  591TMC3     C 8763   3.741   3.076  16.487 -0.0857  0.3531 -0.2566
  591TMC3     O 8764   3.801   2.970  16.492 -0.1880  0.2002  0.1949
  591TMC3     H 8765   3.908   3.007  16.294 -1.3183  0.0309  0.2005
  591TMC3    H1 8766   3.684   3.342  16.447  2.1089  1.6772  0.6841
  591TMC3    H2 8767   3.844   3.372  16.065  2.3393 -1.1966 -1.3593
  591TMC3    C7 8768   3.706   3.500  16.266  0.6619 -0.5464 -0.5203
  591TMC3    C8 8769   3.990   3.141  16.077 -0.2842  0.2915 -0.4321
  591TMC3    O1 8770   3.589   3.489  16.292 -0.6758 -0.4109  0.3419
  591TMC3    O2 8771   4.013   3.021  16.083 -0.2189 -0.0765  1.1364
  592MPD2     C 8772   3.912   0.669  11.463 -0.0811 -0.2417  0.5075
  592MPD2    C1 8773   3.836   0.736  11.557 -1.2655  0.0169  0.4168
  592MPD2    C2 8774   3.740   0.665  11.627  0.6622  0.8647 -0.1269
  592MPD2    C3 8775   3.711   0.537  11.601  0.4690 -0.3483 -0.5123
  592MPD2    C4 8776   3.783   0.466  11.501 -0.1160  0.5339  0.3148
  592MPD2    C5 8777   3.892   0.533  11.443  0.6141 -0.0162 -0.0270
  592MPD2     H 8778   3.684   0.709  11.709 -1.5786 -0.4454 -0.9523
  592MPD2    H1 8779   3.758   0.363  11.478 -2.4649  1.1642  0.0632
  592MPD2    H2 8780   3.978   0.723  11.397 -2.9190  3.0967  0.3723
  592MPD2    H3 8781   3.946   0.480  11.365 -0.7160  0.1714 -1.0702
  592MPD2     N 8782   3.604   0.478  11.675 -0.0802  0.2266 -0.2939
  592MPD2    H5 8783   3.558   0.530  11.750 -0.3781 -2.1199  1.1312
  592MPD2    N1 8784   3.870   0.871  11.577  0.1261 -0.0889 -0.1956
  592MPD2    H7 8785   3.940   0.908  11.514 -0.1992 -0.7693 -0.9669
  593TMC3    C1 8786   3.889   1.096  11.667 -0.9586  0.3592 -0.6407
  593TMC3    C2 8787   3.868   1.174  11.781 -0.4813 -0.7053  0.1898
  593TMC3    C3 8788   3.865   1.308  11.773 -0.4114  0.0575  0.1540
  593TMC3    C4 8789   3.905   1.161  11.549  0.0058 -0.8848  0.2518
  593TMC3    C5 8790   3.911   1.296  11.551 -0.5369 -0.0780 -0.2342
  593TMC3    C6 8791   3.890   1.374  11.657 -0.5936 -0.1696 -0.6034
  593TMC3     C 8792   3.826   0.961  11.672  0.6715 -0.4794 -0.8859
  593TMC3     O 8793   3.736   0.944  11.752 -0.2467  0.3350 -0.0508
  593TMC3     H 8794   3.865   1.123  11.876 -1.3032 -2.0822 -0.5626
  593TMC3    H1 8795   3.914   1.107  11.456  1.8068 -1.3579  0.7025
  593TMC3    H2 8796   3.888   1.482  11.648  2.3252 -0.1288 -1.0330
  593TMC3    C7 8797   3.937   1.369  11.425 -0.0714 -1.0580  0.2858
  593TMC3    C8 8798   3.858   1.376  11.899  1.2578  0.6492 -0.1811
  593TMC3    O1 8799   3.984   1.478  11.441 -0.9282 -0.1100  0.5265
  593TMC3    O2 8800   3.791   1.320  11.983  0.3289  0.0081 -0.6235
  594MPD2     C 8801   2.542   4.131  13.857 -0.9700  1.0525  0.9009
  594MPD2    C1 8802   2.542   4.116  13.994 -0.1968  0.7465  0.1594
  594MPD2    C2 8803   2.635   4.179  14.064 -0.5993 -0.3085  0.2839
  594MPD2    C3 8804   2.738   4.249  14.009 -0.0083  0.9960 -0.3762
  594MPD2    C4 8805   2.747   4.258  13.871 -0.6642  0.4481  0.1922
  594MPD2    C5 8806   2.648   4.197  13.801 -1.0487  0.7727 -0.0376
  594MPD2     H 8807   2.630   4.169  14.172 -4.8674  1.1414  0.2308
  594MPD2    H1 8808   2.809   4.323  13.810  0.6496 -0.9379  0.0361
  594MPD2    H2 8809   2.460   4.117  13.787 -0.3460 -2.8962  0.9563
  594MPD2    H3 8810   2.643   4.207  13.693  1.7231 -1.4070 -0.3848
  594MPD2     N 8811   2.808   4.326  14.102  0.3412  0.0483 -1.0743
  594MPD2    H5 8812   2.780   4.326  14.200  2.5477 -0.9754 -0.4447
  594MPD2    N1 8813   2.437   4.043  14.046  0.2087  0.2712 -0.5377
  594MPD2    H7 8814   2.388   3.986  13.977  1.0317 -0.4297 -0.5341
  595TMC3    C1 8815   3.143   4.627  14.266 -0.2492 -0.1245 -0.4423
  595TMC3    C2 8816   3.095   4.550  14.162  0.0548  0.0762 -0.1486
  595TMC3    C3 8817   2.975   4.487  14.179  0.4613 -0.6541 -0.2867
  595TMC3    C4 8818   3.066   4.649  14.377  0.7658  0.2276 -0.0279
  595TMC3    C5 8819   2.943   4.600  14.380 -0.8777 -0.7716 -0.2183
  595TMC3    C6 8820   2.894   4.514  14.281 -0.0759  0.1866 -0.1034
  595TMC3     C 8821   3.289   4.625  14.286 -0.3954  0.4944 -0.2816
  595TMC3     O 8822   3.320   4.646  14.403 -0.1197 -0.4793 -0.6406
  595TMC3     H 8823   3.155   4.546  14.072  1.3720 -0.2257  0.7399
  595TMC3    H1 8824   3.095   0.002  14.447  0.8272 -0.6536  0.9184
  595TMC3    H2 8825   2.794   4.473  14.291 -0.7228  1.3398 -1.7885
  595TMC3    C7 8826   2.856   4.612  14.497 -0.5540  0.1246 -0.4883
  595TMC3    C8 8827   2.927   4.396  14.076  0.3470 -0.2107 -0.5722
  595TMC3    O1 8828   2.738   4.620  14.459 -0.4520  0.1775 -0.4035
  595TMC3    O2 8829   2.999   4.393  13.979 -0.1471  0.6250  0.6188
  596MPD2     C 8830   1.647   1.677  17.200  0.1043 -0.1828  0.1838
  596MPD2    C1 8831   1.660   1.798  17.135  0.0224  0.4950  0.2549
  596MPD2    C2 8832   1.669   1.800  16.996  0.0209  0.6782 -0.2009
  596MPD2    C3 8833   1.671   1.687  16.916  0.1974 -0.2552 -0.1276
  596MPD2    C4 8834   1.653   1.569  16.979  0.3291  0.4674 -0.5048
  596MPD2    C5 8835   1.642   1.564  17.117 -0.5336  0.5050 -0.4128
  596MPD2     H 8836   1.705   1.892  16.951  2.3352 -0.7424 -1.2297
  596MPD2    H1 8837   1.642   1.481  16.917  0.6304 -1.0326  1.5496
  596MPD2    H2 8838   1.648   1.663  17.308 -0.9717 -1.6387  0.0043
  596MPD2    H3 8839   1.622   1.470  17.166  2.1132 -0.1238 -0.5203
  596MPD2     N 8840   1.678   1.691  16.770 -0.2022 -0.8155  0.2441
  596MPD2    H5 8841   1.710   1.605  16.726  2.1388 -0.3471  1.0318
  596MPD2    N1 8842   1.659   1.931  17.188 -0.2745  0.0511 -0.6959
  596MPD2    H7 8843   1.692   2.005  17.127 -1.5141 -0.6801 -2.2493
  597TMC3    C1 8844   1.604   2.097  17.350  0.3568 -0.0618 -0.3093
  597TMC3    C2 8845   1.672   2.190  17.272  0.3190  0.4259 -0.0522
  597TMC3    C3 8846   1.658   2.323  17.302 -0.1010  0.9103  0.1411
  597TMC3    C4 8847   1.510   2.137  17.438  0.5543  1.2520 -0.2770
  597TMC3    C5 8848   1.484   2.269  17.454 -0.2555 -0.1087 -0.6300
  597TMC3    C6 8849   1.554   2.366  17.389 -0.5351  0.3899  0.7907
  597TMC3     C 8850   1.597   1.957  17.308  0.3015 -0.1940 -0.2403
  597TMC3     O 8851   1.540   1.881  17.388 -0.6223 -0.5701 -0.2803
  597TMC3     H 8852   1.766   2.155  17.230 -0.2796  0.7259 -1.6197
  597TMC3    H1 8853   1.454   2.069  17.501  1.5980  1.4242  0.8293
  597TMC3    H2 8854   1.531   2.471  17.398 -0.7133  0.2337  2.2210
  597TMC3    C7 8855   1.348   2.305  17.492  0.3355  0.1527 -0.5526
  597TMC3    C8 8856   1.733   2.433  17.239  0.5297 -0.4896 -0.5969
  597TMC3    O1 8857   1.285   2.231  17.568  0.3735  0.5442  1.0970
  597TMC3    O2 8858   1.730   2.550  17.290  0.2438  0.7103  0.5511
  598TMC3    C1 8859   0.006   3.702  14.931  0.1179  0.1225  0.0117
  598TMC3    C2 8860   4.623   3.624  14.919 -0.4730  0.6272  0.1082
  598TMC3    C3 8861   4.536   3.661  14.820 -0.1416  0.6178 -0.3084
  598TMC3    C4 8862   0.032   3.813  14.857  0.8230 -1.0912 -0.2000
  598TMC3    C5 8863   4.662   3.845  14.761  0.2103  0.1526 -0.3556
  598TMC3    C6 8864   4.551   3.765  14.740 -0.3198  0.3249  0.5085
  598TMC3     C 8865   0.107   3.671  15.033  0.0892  0.7180  0.2356
  598TMC3     O 8866   0.197   3.754  15.025  0.1630  0.4981  0.1990
  598TMC3     H 8867   4.627   3.525  14.964 -0.7623  0.9118  0.7561
  598TMC3    H1 8868   0.114   3.883  14.873 -1.5766  1.5599  0.5840
  598TMC3    H2 8869   4.474   3.805  14.674  1.1710  0.7907 -0.9323
  598TMC3    C7 8870   4.672   3.957  14.671  0.4178  0.6340 -0.3668
  598TMC3    C8 8871   4.419   3.577  14.789  0.0554  0.0124  0.5042
  598TMC3    O1 8872   4.620   3.947  14.560  0.0373 -0.6841 -0.1850
  598TMC3    O2 8873   4.374   3.599  14.676  0.1594 -0.0219  0.9472
  599MPD2     C 8874   0.135   1.325  15.720  0.1241  0.5122 -0.0726
  599MPD2    C1 8875   0.065   1.206  15.733  0.3682  0.5752 -0.2512
  599MPD2    C2 8876   4.654   1.219  15.764 -0.3915 -0.1965 -0.2239
  599MPD2    C3 8877   4.590   1.341  15.781  0.0334  0.2388 -0.4563
  599MPD2    C4 8878   4.671   1.455  15.767  0.2206 -0.9919  0.1613
  599MPD2    C5 8879   0.074   1.445  15.730  1.1269  0.1813  0.5383
  599MPD2     H 8880   4.602   1.125  15.776  1.2127 -0.7948  2.0235
  599MPD2    H1 8881   4.621   1.552  15.768  2.6328  0.2381  1.2495
  599MPD2    H2 8882   0.236   1.320  15.683 -0.9413  2.3227 -3.2069
  599MPD2    H3 8883   0.126   1.538  15.709 -1.9434  1.5589 -0.9266
  599MPD2     N 8884   4.458   1.357  15.808  0.7064  0.7742 -0.1851
  599MPD2    H5 8885   4.415   1.449  15.805  0.3597  0.5474 -2.1985
  599MPD2    N1 8886   0.132   1.083  15.711 -0.4639  0.2601 -0.1961
  599MPD2    H7 8887   0.231   1.096  15.693  0.0739  1.0074  3.2636
  600TMC3    C1 8888   4.243   1.304  15.867  0.2277 -0.7303 -0.0344
  600TMC3    C2 8889   4.138   1.228  15.839 -0.4045 -0.6523  0.3010
  600TMC3    C3 8890   4.013   1.272  15.854  0.3113  0.1075  0.5116
  600TMC3    C4 8891   4.230   1.421  15.933  0.2810  0.0749 -0.6800
  600TMC3    C5 8892   4.101   1.466  15.946  0.4290 -0.3241  0.2350
  600TMC3    C6 8893   3.993   1.392  15.915 -0.4028 -0.4160 -0.1309
  600TMC3     C 8894   4.374   1.252  15.843  0.4977 -0.7150 -0.2997
  600TMC3     O 8895   4.386   1.131  15.845  0.0488 -0.3316  0.1760
  600TMC3     H 8896   4.159   1.140  15.778  1.2707  0.8885 -1.3527
  600TMC3    H1 8897   4.313   1.482  15.966  0.4836 -1.0490  0.9132
  600TMC3    H2 8898   3.895   1.430  15.944 -0.8576  0.3024 -2.5946
  600TMC3    C7 8899   4.079   1.589  16.031 -0.4288  0.1878 -0.7809
  600TMC3    C8 8900   3.902   1.192  15.814  0.7112 -0.0306 -0.1595
  600TMC3    O1 8901   3.976   1.584  16.094  0.3690  0.3744 -0.2467
  600TMC3    O2 8902   3.826   1.261  15.754  0.1372  0.3140 -0.2504
  601MPD2     C 8903   1.659   3.706   0.451  0.0031 -0.0344 -0.2752
  601MPD2    C1 8904   1.553   3.694   0.361 -0.1296 -0.7247 -0.1368
  601MPD2    C2 8905   1.452   3.609   0.407 -0.0357 -0.5104  0.1830
  601MPD2    C3 8906   1.458   3.529   0.521 -0.2622  0.3944  0.3049
  601MPD2    C4 8907   1.562   3.552   0.611  0.0759  0.3620 -0.7659
  601MPD2    C5 8908   1.653   3.637   0.571  0.3137 -0.2344  0.0876
  601MPD2     H 8909   1.365   3.603   0.343  0.6020  0.7023 -0.7948
  601MPD2    H1 8910   1.564   3.501   0.707 -0.8046  1.9092  0.0625
  601MPD2    H2 8911   1.735   3.783   0.439  1.0247 -1.1078 -0.6715
  601MPD2    H3 8912   1.731   3.673   0.638 -2.7312  2.1808  2.3257
  601MPD2     N 8913   1.360   3.431   0.550 -0.0655  0.0207  0.2364
  601MPD2    H5 8914   1.362   3.402   0.647 -2.0924  1.4845  0.7228
  601MPD2    N1 8915   1.528   3.770   0.245  0.0700  0.2379 -0.4666
  601MPD2    H7 8916   1.435   3.763   0.204 -0.2156  0.5142  0.1402
  602TMC3    C1 8917   1.590   3.868   0.038 -0.1006  0.5765  0.3670
  602TMC3    C2 8918   1.689   3.888  17.648 -0.0189  0.0026 -0.1958
  602TMC3    C3 8919   1.651   3.920  17.514 -0.2463  0.2399  0.6495
  602TMC3    C4 8920   1.458   3.856  17.696  0.0122  0.1872 -0.0844
  602TMC3    C5 8921   1.424   3.876  17.559  0.3311  0.8927  0.2878
  602TMC3    C6 8922   1.516   3.925  17.476  0.4541  0.0429 -0.1458
  602TMC3     C 8923   1.623   3.838   0.174 -0.5540 -0.5304  0.5556
  602TMC3     O 8924   1.747   3.829   0.190 -0.7980 -0.2621 -0.2422
  602TMC3     H 8925   1.791   3.891  17.685 -0.1281  1.4286 -0.0055
  602TMC3    H1 8926   1.381   3.837   0.070 -0.1140  0.4740 -0.1447
  602TMC3    H2 8927   1.503   3.927  17.369 -0.4083  2.4102 -0.0098
  602TMC3    C7 8928   1.292   3.937  17.541 -0.1371  0.5377  0.1289
  602TMC3    C8 8929   1.748   3.970  17.424 -0.2063 -0.2182 -0.2405
  602TMC3    O1 8930   1.229   3.938  17.645 -0.1224  0.1405  0.6087
  602TMC3    O2 8931   1.860   3.937  17.447 -0.2753 -0.1135 -0.0222
  603TMC3    C1 8932   4.592   4.625  11.158 -0.2490  0.2817 -0.3817
  603TMC3    C2 8933   4.618   4.604  11.289 -0.3024  0.6375  0.4335
  603TMC3    C3 8934   4.634   4.704  11.374  0.1347 -0.8665  0.0452
  603TMC3    C4 8935   4.570   0.027  11.121  0.2477  0.1047 -0.4468
  603TMC3    C5 8936   4.569   0.128  11.214 -0.0697  0.9929 -0.0337
  603TMC3    C6 8937   4.609   0.110  11.337  0.4003  0.1329 -0.1604
  603TMC3     C 8938   4.527   4.516  11.085  0.1823 -0.3141 -0.0992
  603TMC3     O 8939   4.543   4.401  11.128 -0.0837  0.1618 -0.0002
  603TMC3     H 8940   4.655   4.503  11.306 -0.6527  0.0711 -2.2482
  603TMC3    H1 8941   4.563   0.045  11.014  0.6425  0.8956 -0.3434
  603TMC3    H2 8942   4.641   0.192  11.400 -2.5954 -0.2378  1.8590
  603TMC3    C7 8943   4.558   0.259  11.169  0.8476  0.7180  0.4822
  603TMC3    C8 8944   4.659   4.675  11.513  0.8202 -0.0467  0.0794
  603TMC3    O1 8945   4.534   0.347  11.252 -0.2979  0.5753 -0.0039
  603TMC3    O2 8946   4.686   4.558  11.546 -0.1188  0.2674  0.5777
  604MPD2     C 8947   0.849   3.154  16.756 -1.0581  0.5854  0.9345
  604MPD2    C1 8948   0.749   3.114  16.666  0.2977 -0.3522 -0.0938
  604MPD2    C2 8949   0.783   3.080  16.535 -0.0213  0.2997 -0.2041
  604MPD2    C3 8950   0.915   3.076  16.503 -0.0218 -1.0794  0.2262
  604MPD2    C4 8951   1.014   3.096  16.595 -0.2584  0.1014 -0.0200
  604MPD2    C5 8952   0.984   3.143  16.717  0.0687  0.3143  0.1617
  604MPD2     H 8953   0.708   3.076  16.457  1.3789 -0.0779 -1.5253
  604MPD2    H1 8954   1.114   3.079  16.558 -0.3264 -1.0748  0.3149
  604MPD2    H2 8955   0.826   3.190  16.855  0.3412  0.7681  1.1935
  604MPD2    H3 8956   1.058   3.167  16.793  0.6363 -2.0487  0.3571
  604MPD2     N 8957   0.938   3.032  16.376 -0.0902  0.1263  0.7712
  604MPD2    H5 8958   0.858   3.008  16.318  1.3592  0.9433 -1.5363
  604MPD2    N1 8959   0.616   3.132  16.708  0.2395 -0.0763 -0.0900
  604MPD2    H7 8960   0.604   3.169  16.802  2.7158  0.8381 -0.1238
  605TMC3    C1 8961   0.378   3.160  16.700 -0.0937  0.1520 -0.0921
  605TMC3    C2 8962   0.413   3.228  16.817  0.1527 -0.5204  0.3322
  605TMC3    C3 8963   0.384   3.360  16.835  0.0970 -0.6162  0.9794
  605TMC3    C4 8964   0.294   3.226  16.615  0.4052  0.0858  0.7594
  605TMC3    C5 8965   0.251   3.348  16.641  0.2931  0.1054 -0.4044
  605TMC3    C6 8966   0.301   3.419  16.743 -0.1199 -0.6810  0.9725
  605TMC3     C 8967   0.503   3.123  16.629  0.0420 -1.0456  0.0672
  605TMC3     O 8968   0.493   3.085  16.513 -0.0877  0.5211  0.0637
  605TMC3     H 8969   0.466   3.189  16.903 -0.3796  0.7022  1.2236
  605TMC3    H1 8970   0.250   3.164  16.538  0.4197  0.7817  0.1909
  605TMC3    H2 8971   0.264   3.519  16.765 -0.0653 -0.3063 -0.5952
  605TMC3    C7 8972   0.169   3.423  16.549 -0.1203 -0.8910  0.6204
  605TMC3    C8 8973   0.504   3.433  16.875 -0.3126 -0.3690  0.1282
  605TMC3    O1 8974   0.090   3.499  16.602  0.0758  0.1130  0.2850
  605TMC3    O2 8975   0.595   3.367  16.926  0.0745 -0.3344 -0.2527
  606TMC3    C1 8976   1.192   1.638   1.006 -0.5507 -0.6486  0.7322
  606TMC3    C2 8977   1.297   1.642   0.918  0.2075  0.2143 -0.4574
  606TMC3    C3 8978   1.380   1.536   0.912 -0.2507 -1.1785 -0.2947
  606TMC3    C4 8979   1.167   1.528   1.086 -0.0971 -0.4407  0.8394
  606TMC3    C5 8980   1.254   1.421   1.080  0.1674 -0.1127  0.3708
  606TMC3    C6 8981   1.355   1.425   0.985 -0.3564  0.1780  0.0932
  606TMC3     C 8982   1.096   1.746   1.027  0.2074 -0.1904 -0.1443
  606TMC3     O 8983   0.990   1.715   1.078  0.0042  0.2195 -0.0753
  606TMC3     H 8984   1.312   1.729   0.855  1.4049  2.2243  2.5830
  606TMC3    H1 8985   1.079   1.525   1.149 -0.1063  0.5419  0.8760
  606TMC3    H2 8986   1.430   1.347   0.981 -1.4887 -1.0024  1.7950
  606TMC3    C7 8987   1.194   1.287   1.070 -0.3577  0.2323  0.1493
  606TMC3    C8 8988   1.500   1.534   0.828 -0.2600  0.2122  0.6756
  606TMC3    O1 8989   1.252   1.202   1.136  0.1451  0.6080 -0.5290
  606TMC3    O2 8990   1.538   1.420   0.801 -0.2042 -0.1812 -0.1812
  607MPD2     C 8991   3.984   0.193  11.582  0.5317  0.1060  0.3101
  607MPD2    C1 8992   3.995   0.275  11.692 -0.1335  0.7717 -0.3977
  607MPD2    C2 8993   3.919   0.250  11.803 -0.7131 -0.3941 -0.3772
  607MPD2    C3 8994   3.826   0.146  11.808  0.3728  0.1981  0.0253
  607MPD2    C4 8995   3.812   0.069  11.698 -1.0009 -0.0721  0.9261
  607MPD2    C5 8996   3.894   0.088  11.593 -0.4011 -0.6927  0.2001
  607MPD2     H 8997   3.926   0.313  11.890 -0.1781 -0.7877 -0.1326
  607MPD2    H1 8998   3.745   4.708  11.696 -0.1237 -0.7233 -0.5371
  607MPD2    H2 8999   4.041   0.204  11.490  0.3884  0.6908  0.2904
  607MPD2    H3 9000   3.886   0.021  11.508 -1.4564 -0.3938  0.0668
  607MPD2     N 9001   3.761   0.132  11.925  0.7030  0.1868 -0.3837
  607MPD2    H5 9002   3.787   0.206  11.989 -0.4479  1.1102 -0.9871
  607MPD2    N1 9003   4.090   0.379  11.718 -0.2534  0.2911  0.1016
  607MPD2    H7 9004   4.084   0.420  11.810 -1.6205 -0.8349  0.5257
  608TMC3    C1 9005   4.270   0.525  11.708 -0.1527 -0.1142 -0.4221
  608TMC3    C2 9006   4.271   0.528  11.848 -0.5468  0.6724 -0.3919
  608TMC3    C3 9007   4.327   0.645  11.912  0.0921  0.0394 -0.4566
  608TMC3    C4 9008   4.305   0.633  11.639  0.3641 -0.4822 -0.0463
  608TMC3    C5 9009   4.338   0.753  11.702  0.5264 -1.0368 -0.2280
  608TMC3    C6 9010   4.365   0.756  11.836  0.2071  0.1849  0.0464
  608TMC3     C 9011   4.189   0.421  11.638 -0.5291 -0.2619 -0.6922
  608TMC3     O 9012   4.220   0.389  11.521 -0.1887 -0.0619 -0.0066
  608TMC3     H 9013   4.264   0.436  11.904 -0.1226  0.9298  0.0920
  608TMC3    H1 9014   4.304   0.625  11.531 -0.5472  2.0381 -0.2293
  608TMC3    H2 9015   4.413   0.838  11.887  0.7446 -0.1717  0.1129
  608TMC3    C7 9016   4.350   0.875  11.618 -0.2588 -0.1756 -0.5405
  608TMC3    C8 9017   4.321   0.662  12.061 -0.2129  0.5265 -0.0512
  608TMC3    O1 9018   4.365   0.855  11.499 -0.4635  0.2835 -0.1379
  608TMC3    O2 9019   4.423   0.703  12.119 -0.7232 -0.1857  0.0928
  609TMC3    C1 9020   2.040   3.306   9.505 -0.6032 -0.6971  0.3648
  609TMC3    C2 9021   1.933   3.223   9.514  0.6003 -0.3408 -0.6905
  609TMC3    C3 9022   1.953   3.090   9.474  0.0504 -0.1575  0.6331
  609TMC3    C4 9023   2.168   3.270   9.486 -0.5696  0.1303  0.0758
  609TMC3    C5 9024   2.187   3.142   9.461 -0.1698 -0.1858 -1.3050
  609TMC3    C6 9025   2.078   3.053   9.450 -0.6944  0.0179  0.6498
  609TMC3     C 9026   2.001   3.447   9.492 -0.2866 -0.0958  0.1415
  609TMC3     O 9027   1.889   3.467   9.446 -0.3458  0.2751  0.2340
  609TMC3     H 9028   1.833   3.257   9.539  1.5682  1.6798  0.4216
  609TMC3    H1 9029   2.249   3.342   9.481 -0.9277  0.6115  1.1041
  609TMC3    H2 9030   2.089   2.947   9.430 -1.0958 -0.0221  0.6546
  609TMC3    C7 9031   2.322   3.099   9.427  0.5451  0.6021 -0.1504
  609TMC3    C8 9032   1.840   2.999   9.454  0.0710  0.1239 -0.0890
  609TMC3    O1 9033   2.413   3.176   9.450  0.3947 -0.1676 -0.6908
  609TMC3    O2 9034   1.868   2.893   9.401  0.4227  0.2383  0.3259
  610TMC3    C1 9035   4.113   0.150  12.716 -0.3080  0.0236 -0.2027
  610TMC3    C2 9036   4.148   0.127  12.579 -0.2209 -0.0670  0.3737
  610TMC3    C3 9037   4.279   0.096  12.553 -0.2030  0.4191 -0.0146
  610TMC3    C4 9038   4.206   0.145  12.814 -0.3908 -0.9851 -0.0057
  610TMC3    C5 9039   4.341   0.128  12.781  0.3140  0.1323 -0.4576
  610TMC3    C6 9040   4.377   0.098  12.649  0.5713 -0.3753 -0.6720
  610TMC3     C 9041   3.987   0.225  12.736  0.4394  0.1847  0.0705
  610TMC3     O 9042   3.901   0.210  12.649 -0.0770 -0.0943  0.6227
  610TMC3     H 9043   4.071   0.146  12.505 -0.0154 -1.5604 -0.2153
  610TMC3    H1 9044   4.165   0.146  12.914 -2.1682  1.4487 -0.7353
  610TMC3    H2 9045   4.480   0.093  12.616  0.6953  1.2000 -0.5477
  610TMC3    C7 9046   4.428   0.087  12.881  0.5360 -0.6316 -0.2501
  610TMC3    C8 9047   4.319   0.113  12.416  0.1999  0.1661  0.0447
  610TMC3    O1 9048   4.509   4.723  12.855  0.6215 -0.1655  0.5344
  610TMC3    O2 9049   4.435   0.159  12.401 -0.3587  0.2600  0.1996
  611MPD2     C 9050   3.904   0.048   9.957  0.0107  0.0654  0.1550
  611MPD2    C1 9051   3.876   0.130  10.061  0.2980 -0.0501  0.0323
  611MPD2    C2 9052   3.975   0.213  10.111 -0.2019 -0.3871 -0.2759
  611MPD2    C3 9053   4.107   0.213  10.062  0.5361 -0.4850  0.1266
  611MPD2    C4 9054   4.138   0.136   9.955  0.5491 -0.5025  0.0973
  611MPD2    C5 9055   4.033   0.053   9.901 -0.4722  0.6816  0.2863
  611MPD2     H 9056   3.950   0.287  10.186 -0.4233  0.1024 -0.8419
  611MPD2    H1 9057   4.237   0.138   9.910 -1.5061 -1.4574 -4.5032
  611MPD2    H2 9058   3.837   4.703   9.906  1.2673 -1.8929  1.1712
  611MPD2    H3 9059   4.058   4.714   9.817  0.9240  1.1223  0.3685
  611MPD2     N 9060   4.205   0.298  10.122  0.4219 -0.4065 -0.2957
  611MPD2    H5 9061   4.293   0.308  10.074  1.3391  2.9336  2.0675
  611MPD2    N1 9062   3.736   0.145  10.088  0.0949  0.4188 -0.2783
  611MPD2    H7 9063   3.674   0.079  10.041  1.9176 -1.4312 -0.0876
  612TMC3    C1 9064   4.298   0.475  10.248 -0.3035  0.6354  0.3665
  612TMC3    C2 9065   4.332   0.501  10.382  0.2627 -0.3724  0.2544
  612TMC3    C3 9066   4.441   0.587  10.397  0.7598 -0.3079 -0.7307
  612TMC3    C4 9067   4.355   0.524  10.136  0.1969  0.5479 -0.3543
  612TMC3    C5 9068   4.451   0.617  10.163 -0.1638  0.3638  0.2847
  612TMC3    C6 9069   4.498   0.643  10.290  0.1147 -0.0220  0.2683
  612TMC3     C 9070   4.201   0.366  10.237  0.0519 -0.1552  0.2945
  612TMC3     O 9071   4.124   0.343  10.334  0.0417 -0.1018  0.0011
  612TMC3     H 9072   4.288   0.475  10.477 -0.7767 -1.0357 -0.4050
  612TMC3    H1 9073   4.310   0.507  10.039  1.5895 -4.3626 -0.1397
  612TMC3    H2 9074   4.563   0.729  10.300 -1.8216  1.4115  0.4914
  612TMC3    C7 9075   4.471   0.723  10.066  0.4874 -0.5771 -0.8447
  612TMC3    C8 9076   4.506   0.611  10.526 -1.0070  0.0700 -0.2662
  612TMC3    O1 9077   4.500   0.835  10.114 -0.3134 -0.4566  0.4131
  612TMC3    O2 9078   4.561   0.720  10.533  0.0779 -0.2338  0.2873
  613MPD2     C 9079   2.966   2.846  15.938  0.0570  0.2175  0.6120
  613MPD2    C1 9080   3.020   2.742  15.869 -0.6253  0.3850  0.0101
  613MPD2    C2 9081   2.971   2.609  15.880 -0.0302 -0.3053  0.0630
  613MPD2    C3 9082   2.885   2.580  15.984 -0.3793  0.1723 -0.9248
  613MPD2    C4 9083   2.830   2.682  16.054 -0.4338 -0.4247 -0.1926
  613MPD2    C5 9084   2.872   2.809  16.034  0.4342  0.2692  0.1373
  613MPD2     H 9085   3.023   2.532  15.824 -0.2395  0.9966 -1.9307
  613MPD2    H1 9086   2.749   2.659  16.123  0.4330 -0.0075  0.9558
  613MPD2    H2 9087   2.985   2.951  15.920 -0.6913  0.0574 -1.1577
  613MPD2    H3 9088   2.821   2.887  16.089  0.2817  1.2430 -1.3951
  613MPD2     N 9089   2.844   2.445  16.009  0.4054  0.1426 -0.0063
  613MPD2    H5 9090   2.769   2.430  16.076  0.0828  1.6427 -0.0448
  613MPD2    N1 9091   3.110   2.768  15.761 -0.1746  0.4209  0.0155
  613MPD2    H7 9092   3.140   2.681  15.717 -1.0146  0.8085 -1.2968
  614TMC3    C1 9093   3.245   2.867  15.599 -0.3421  0.4067  0.5924
  614TMC3    C2 9094   3.325   2.758  15.622  0.2360  0.3534 -0.8404
  614TMC3    C3 9095   3.342   2.659  15.529 -0.5644 -0.6522 -0.1832
  614TMC3    C4 9096   3.187   2.897  15.480 -0.0270  0.1839 -0.9020
  614TMC3    C5 9097   3.198   2.795  15.390  0.0463 -1.1000  0.1380
  614TMC3    C6 9098   3.282   2.691  15.409 -0.1412 -0.2987 -1.0559
  614TMC3     C 9099   3.160   2.885  15.720 -0.3240  0.2083  0.3525
  614TMC3     O 9100   3.125   2.999  15.749  0.1861 -0.1377 -0.0922
  614TMC3     H 9101   3.364   2.748  15.723 -0.3974 -0.1382 -0.6414
  614TMC3    H1 9102   3.110   2.972  15.477 -2.2274 -2.0567 -0.2526
  614TMC3    H2 9103   3.312   2.626  15.327 -0.3487 -0.2863 -1.1435
  614TMC3    C7 9104   3.062   2.741  15.380  0.1894  0.2439 -0.5101
  614TMC3    C8 9105   3.309   2.527  15.583 -0.9027  0.5362 -0.0483
  614TMC3    O1 9106   2.974   2.821  15.403  0.4522  0.1633 -0.1232
  614TMC3    O2 9107   3.243   2.539  15.687 -0.5712 -0.4194 -0.2191
  615MPD2     C 9108   2.300   3.349  16.464  0.5447 -0.4408  0.3650
  615MPD2    C1 9109   2.410   3.384  16.385 -0.0282 -0.3021  0.0024
  615MPD2    C2 9110   2.413   3.366  16.248  0.9348  0.2562  0.6488
  615MPD2    C3 9111   2.306   3.321  16.175  0.0164 -0.8375 -0.0098
  615MPD2    C4 9112   2.194   3.292  16.248  0.0091  0.1294  0.0865
  615MPD2    C5 9113   2.194   3.305  16.386  0.5102 -0.2757  0.8170
  615MPD2     H 9114   2.505   3.386  16.194  0.2972  0.1174 -0.4949
  615MPD2    H1 9115   2.095   3.265  16.213 -0.4353  1.3654  0.3728
  615MPD2    H2 9116   2.290   3.362  16.571  0.1529 -0.0391  0.2774
  615MPD2    H3 9117   2.101   3.277  16.434  0.2156  0.4297  0.6645
  615MPD2     N 9118   2.311   3.309  16.032  0.4935 -0.0460  0.4883
  615MPD2    H5 9119   2.388   3.352  15.982  1.2599 -0.9508  0.8933
  615MPD2    N1 9120   2.525   3.438  16.446 -0.1806 -0.0741 -0.3567
  615MPD2    H7 9121   2.602   3.443  16.379  0.7559  1.8687  0.8846
  616TMC3    C1 9122   2.682   3.523  16.593  0.1083  0.6502 -0.7278
  616TMC3    C2 9123   2.711   3.618  16.499  0.4966 -0.5889 -0.0536
  616TMC3    C3 9124   2.846   3.649  16.476 -0.4275  0.5262 -0.0923
  616TMC3    C4 9125   2.780   3.470  16.674 -0.3242  0.2667 -0.6351
  616TMC3    C5 9126   2.911   3.499  16.649 -0.1551  0.2862  0.2755
  616TMC3    C6 9127   2.951   3.585  16.547  0.2306 -0.2837  0.7590
  616TMC3     C 9128   2.547   3.459  16.583 -0.2934  0.0215 -0.4774
  616TMC3     O 9129   2.487   3.434  16.691 -0.7166  0.6598 -0.6771
  616TMC3     H 9130   2.635   3.676  16.447  3.4114  1.9310 -1.5271
  616TMC3    H1 9131   2.754   3.400  16.753 -0.4514  2.6384  1.4220
  616TMC3    H2 9132   3.055   3.577  16.517 -0.0829  0.9431 -0.6796
  616TMC3    C7 9133   3.018   3.433  16.729 -0.2817 -1.1329  0.7806
  616TMC3    C8 9134   2.886   3.742  16.375  0.3459 -0.4703 -0.4568
  616TMC3    O1 9135   2.989   3.325  16.781  0.8026 -0.1453 -0.3043
  616TMC3    O2 9136   2.804   3.764  16.285  0.3616  0.3214  0.2939
  617MPD2     C 9137   0.443   1.897  13.930 -0.4910 -0.1890 -0.2903
  617MPD2    C1 9138   0.375   1.837  14.037 -0.9926  0.0596  1.2370
  617MPD2    C2 9139   0.240   1.852  14.051 -0.1535 -0.7023  0.7160
  617MPD2    C3 9140   0.169   1.906  13.945  0.2141 -0.6009 -0.3298
  617MPD2    C4 9141   0.235   1.961  13.840  0.2178 -0.0454 -0.4415
  617MPD2    C5 9142   0.373   1.951  13.825 -0.3250  0.5968 -0.1511
  617MPD2     H 9143   0.185   1.810  14.135 -3.0932  2.7752  0.5085
  617MPD2    H1 9144   0.176   2.003  13.759  0.0720  0.0707 -0.2750
  617MPD2    H2 9145   0.547   1.872  13.914 -0.2018  1.8248 -1.6283
  617MPD2    H3 9146   0.428   2.001  13.747 -2.2673  1.7253 -0.7927
  617MPD2     N 9147   0.023   1.910  13.956  0.3011 -0.3554 -0.1361
  617MPD2    H5 9148   4.692   1.911  13.871  0.5177  0.2532 -0.2696
  617MPD2    N1 9149   0.449   1.773  14.141  0.4465 -0.0744  0.0291
  617MPD2    H7 9150   0.548   1.771  14.119 -0.0544  1.1003 -2.2971
  618TMC3    C1 9151   0.504   1.625  14.318  0.1072 -0.0887  0.9546
  618TMC3    C2 9152   0.542   1.502  14.287 -0.4065 -0.3936 -0.6439
  618TMC3    C3 9153   0.674   1.466  14.297  0.3992  0.5228  0.0595
  618TMC3    C4 9154   0.594   1.718  14.355  0.0207 -0.3671 -0.4212
  618TMC3    C5 9155   0.724   1.683  14.364 -0.1975 -0.1802  0.6624
  618TMC3    C6 9156   0.764   1.552  14.343  0.0563  0.3374  0.6579
  618TMC3     C 9157   0.400   1.678  14.231 -0.1277 -0.1335  0.2161
  618TMC3     O 9158   0.303   1.608  14.211  0.7431  0.2504 -0.5244
  618TMC3     H 9159   0.465   1.440  14.243 -3.8996  3.8385 -0.4875
  618TMC3    H1 9160   0.566   1.820  14.377 -0.8527 -1.2301  2.3872
  618TMC3    H2 9161   0.864   1.522  14.374 -0.3031 -1.2711  0.2979
  618TMC3    C7 9162   0.802   1.777  14.449 -0.0642  0.1229  0.0649
  618TMC3    C8 9163   0.712   1.406  14.174  0.0042 -0.4767  0.1815
  618TMC3    O1 9164   0.736   1.844  14.526  0.4347 -0.5009  0.5149
  618TMC3    O2 9165   0.627   1.364  14.092 -0.1197 -0.1294 -0.0524
  619MPD2     C 9166   2.043   3.067  13.855 -0.0439 -0.6209 -0.5058
  619MPD2    C1 9167   1.968   3.105  13.751 -1.0369  0.4247  0.1185
  619MPD2    C2 9168   1.835   3.079  13.760  0.2883 -0.1251  0.0716
  619MPD2    C3 9169   1.774   3.025  13.871 -0.3231 -0.3928 -0.6475
  619MPD2    C4 9170   1.855   2.993  13.979 -0.7192  0.2709 -0.0020
  619MPD2    C5 9171   1.990   3.010  13.968 -0.0874 -0.1328 -0.2340
  619MPD2     H 9172   1.767   3.105  13.680 -0.3413  1.7819  1.2431
  619MPD2    H1 9173   1.811   2.955  14.070  0.7597 -2.2817 -0.3529
  619MPD2    H2 9174   2.149   3.085  13.862 -0.1991 -0.6000  1.6305
  619MPD2    H3 9175   2.051   2.984  14.053  0.3174  1.5959 -0.0183
  619MPD2     N 9176   1.635   3.017  13.900  0.1786  0.8211  0.7231
  619MPD2    H5 9177   1.600   2.975  13.985 -1.5290  1.0639  0.1308
  619MPD2    N1 9178   2.022   3.182  13.639 -0.4775 -0.1226  0.0974
  619MPD2    H7 9179   1.956   3.199  13.564 -0.7687 -0.0169  0.3790
  620TMC3    C1 9180   2.172   3.301  13.501 -0.4955  0.3271  0.3322
  620TMC3    C2 9181   2.094   3.274  13.390  0.4981  0.3665 -0.0379
  620TMC3    C3 9182   2.117   3.356  13.276 -0.4225  0.1862  0.3823
  620TMC3    C4 9183   2.247   3.410  13.504 -0.6505 -0.1596  0.0356
  620TMC3    C5 9184   2.256   3.492  13.400  0.1010  0.7266  0.1604
  620TMC3    C6 9185   2.197   3.466  13.278  0.1005  0.2645  0.4356
  620TMC3     C 9186   2.150   3.226  13.628 -0.4489 -0.4694  0.7467
  620TMC3     O 9187   2.237   3.237  13.713  0.6357  0.4387  0.3975
  620TMC3     H 9188   2.035   3.186  13.366  0.7498 -0.5451  2.7786
  620TMC3    H1 9189   2.286   3.441  13.601  2.9350 -0.5851 -1.2651
  620TMC3    H2 9190   2.191   3.528  13.190 -0.9760 -1.7181 -0.8916
  620TMC3    C7 9191   2.244   3.630  13.443 -0.5348 -0.3443 -0.1563
  620TMC3    C8 9192   1.991   3.401  13.220 -0.0207 -0.5825 -0.2023
  620TMC3    O1 9193   2.320   3.665  13.533  0.3643 -0.7879 -0.0298
  620TMC3    O2 9194   1.977   3.524  13.211 -0.2067  0.4329 -0.4387
  621MPD2     C 9195   1.256   3.785  10.572 -0.5077 -0.6420  0.6963
  621MPD2    C1 9196   1.214   3.756  10.448  1.3443 -0.3153 -0.2047
  621MPD2    C2 9197   1.130   3.843  10.380 -0.0749  0.0688 -0.3910
  621MPD2    C3 9198   1.097   3.972  10.428 -0.0352 -0.3235  0.1823
  621MPD2    C4 9199   1.136   3.997  10.558 -0.1649 -0.6056 -0.0761
  621MPD2    C5 9200   1.205   3.901  10.633  0.2177  1.0824  0.0216
  621MPD2     H 9201   1.098   3.812  10.281 -0.0108 -0.9705 -0.0776
  621MPD2    H1 9202   1.124   4.094  10.605 -2.7169 -0.5291 -0.8841
  621MPD2    H2 9203   1.313   3.714  10.629  1.7241 -0.5760 -1.4537
  621MPD2    H3 9204   1.237   3.924  10.734  0.7367  1.0614 -0.1372
  621MPD2     N 9205   1.024   4.066  10.351 -0.6212 -0.2518 -0.0346
  621MPD2    H5 9206   0.982   4.037  10.263 -1.9642 -0.2116  0.5871
  621MPD2    N1 9207   1.241   3.631  10.384 -0.6987 -0.1482 -0.6037
  621MPD2    H7 9208   1.190   3.625  10.296 -1.0355  0.1158 -0.4246
  622TMC3    C1 9209   1.312   3.417  10.333 -1.1583 -0.5578  0.2357
  622TMC3    C2 9210   1.247   3.435  10.214 -0.4029 -0.0043  0.1847
  622TMC3    C3 9211   1.254   3.322  10.144 -0.3974 -0.5398 -0.0194
  622TMC3    C4 9212   1.359   3.295  10.380 -0.1046  0.5216  0.0845
  622TMC3    C5 9213   1.359   3.181  10.299  1.2675 -0.0679 -0.0286
  622TMC3    C6 9214   1.300   3.200  10.181 -0.3113  0.3654 -0.5507
  622TMC3     C 9215   1.317   3.525  10.434 -1.0988 -0.3980  0.4145
  622TMC3     O 9216   1.382   3.522  10.540  0.5554 -0.3228 -0.3728
  622TMC3     H 9217   1.226   3.528  10.163 -0.0430 -2.1582 -3.9256
  622TMC3    H1 9218   1.406   3.280  10.477  0.8250  0.0515 -0.4431
  622TMC3    H2 9219   1.293   3.122  10.106  0.1466  0.2727 -0.4970
  622TMC3    C7 9220   1.435   3.058  10.331  0.6273 -0.6305 -0.1235
  622TMC3    C8 9221   1.241   3.345   9.998  0.4496  0.7190 -0.1421
  622TMC3    O1 9222   1.526   3.065  10.410 -0.3767 -0.0575 -0.2417
  622TMC3    O2 9223   1.322   3.275   9.941 -0.3066  0.4916  0.2037
  623MPD2     C 9224   0.977   3.394  16.187  0.1331  0.4000 -1.2562
  623MPD2    C1 9225   0.899   3.419  16.300 -0.4721  0.2860  0.0505
  623MPD2    C2 9226   0.967   3.408  16.419  0.3272 -0.0566  0.2019
  623MPD2    C3 9227   1.103   3.385  16.431 -0.4089 -0.3201  0.4035
  623MPD2    C4 9228   1.179   3.370  16.315  0.1449  0.5186  0.1049
  623MPD2    C5 9229   1.110   3.362  16.191 -0.8865  0.0483  0.5504
  623MPD2     H 9230   0.912   3.411  16.513  0.4651 -1.0519  0.3111
  623MPD2    H1 9231   1.286   3.356  16.314 -0.1109 -1.3534 -0.5637
  623MPD2    H2 9232   0.940   3.403  16.085 -2.0960  0.6039 -0.4492
  623MPD2    H3 9233   1.171   3.343  16.104 -2.4783  0.9967 -0.7756
  623MPD2     N 9234   1.170   3.406  16.556  0.0529  0.5712 -0.0736
  623MPD2    H5 9235   1.102   3.412  16.631 -0.2810  1.8353 -0.4883
  623MPD2    N1 9236   0.758   3.451  16.287  0.1833  0.5572 -0.1037
  623MPD2    H7 9237   0.716   3.442  16.195  1.0387 -0.6563 -0.3677
  624TMC3    C1 9238   1.348   3.271  16.917  0.2851  0.3270  0.0454
  624TMC3    C2 9239   1.241   3.331  16.981  0.3794  0.1607  1.0168
  624TMC3    C3 9240   1.190   3.441  16.919  0.1380  0.6754 -0.8459
  624TMC3    C4 9241   1.389   3.305  16.790  0.6398  0.2596 -0.2545
  624TMC3    C5 9242   1.330   3.411  16.725  0.1221 -0.0818 -0.2989
  624TMC3    C6 9243   1.224   3.472  16.793 -0.2580 -0.0777 -0.3887
  624TMC3     C 9244   1.443   3.204  17.011  0.2273 -0.4268 -0.1359
  624TMC3     O 9245   1.451   3.250  17.123  0.3685 -0.0461  0.4944
  624TMC3     H 9246   1.206   3.291  17.076 -0.5024  0.0451  0.6440
  624TMC3    H1 9247   1.480   3.267  16.747  0.1529 -0.5142 -0.6146
  624TMC3    H2 9248   1.181   3.562  16.750  1.2343  0.5189 -0.6570
  624TMC3    C7 9249   1.308   3.404  16.581 -0.1633 -0.1898  0.7236
  624TMC3    C8 9250   1.045   3.468  16.941 -0.2796 -0.3794  0.5623
  624TMC3    O1 9251   1.398   3.439  16.512 -0.3617  0.0146 -0.0997
  624TMC3    O2 9252   0.975   3.374  16.983 -0.0535  0.0966  0.0762
  625MPD2     C 9253   1.956   0.300   0.172 -0.6035 -0.4380 -0.0702
  625MPD2    C1 9254   1.922   0.232   0.284  0.3398 -0.1028  0.4890
  625MPD2    C2 9255   2.029   0.185   0.364 -0.3346 -0.3606  0.1219
  625MPD2    C3 9256   2.161   0.218   0.326  0.1262 -0.5920 -0.6229
  625MPD2    C4 9257   2.190   0.274   0.202  0.2408 -0.3675 -0.2491
  625MPD2    C5 9258   2.085   0.320   0.128 -0.2774 -0.5088 -0.2900
  625MPD2     H 9259   2.009   0.123   0.451 -4.3695  0.3434 -0.2998
  625MPD2    H1 9260   2.288   0.280   0.157  0.9477 -2.4359  1.0161
  625MPD2    H2 9261   1.874   0.331   0.108 -0.8103 -1.2378 -0.1908
  625MPD2    H3 9262   2.094   0.358   0.026 -0.6161  0.5577  0.0740
  625MPD2     N 9263   2.267   0.164   0.409 -0.0169 -0.0812  0.2896
  625MPD2    H5 9264   2.241   0.118   0.496 -0.0563 -0.1244  0.2550
  625MPD2    N1 9265   1.778   0.204   0.303 -0.6981 -0.0256 -0.0645
  625MPD2    H7 9266   1.712   0.234   0.232  0.7378  1.1355 -0.8944
  626TMC3    C1 9267   1.582   0.111   0.406  0.0379  0.1106  0.1743
  626TMC3    C2 9268   1.512   0.220   0.372 -0.3317 -0.8036 -0.1982
  626TMC3    C3 9269   1.382   0.218   0.399 -0.2190 -0.3853 -0.2222
  626TMC3    C4 9270   1.524   4.721   0.461  0.8788 -0.2915 -0.4421
  626TMC3    C5 9271   1.392   4.724   0.484  0.4917  0.8595  0.9861
  626TMC3    C6 9272   1.314   0.109   0.448  0.1955 -0.5386  0.4440
  626TMC3     C 9273   1.731   0.118   0.403 -0.5545  0.4023  0.1269
  626TMC3     O 9274   1.789   0.051   0.491 -0.1065 -0.7637 -0.0839
  626TMC3     H 9275   1.562   0.316   0.371  0.4675 -1.2219 -0.1288
  626TMC3    H1 9276   1.592   4.640   0.484  1.5787 -0.0008 -1.4718
  626TMC3    H2 9277   1.210   0.117   0.477  0.3953  1.0457  0.7368
  626TMC3    C7 9278   1.336   4.599   0.524  0.3051 -0.2054  0.0772
  626TMC3    C8 9279   1.318   0.311   0.313 -0.1968  0.8040  0.5510
  626TMC3    O1 9280   1.417   4.512   0.563  0.1083  0.1397  0.5501
  626TMC3    O2 9281   1.374   0.353   0.213 -0.7304 -0.3426 -0.6242
  627MPD2     C 9282   4.150   0.720  14.252 -1.0867  0.2856  0.2870
  627MPD2    C1 9283   4.241   0.654  14.327  0.7835  0.7803  0.1722
  627MPD2    C2 9284   4.278   0.516  14.313 -0.1009 -0.3301  0.2935
  627MPD2    C3 9285   4.194   0.443  14.226  0.5697 -0.5240 -0.6264
  627MPD2    C4 9286   4.107   0.506  14.142  0.4816 -0.5780  1.1199
  627MPD2    C5 9287   4.084   0.641  14.161 -0.0609 -0.7328 -0.8492
  627MPD2     H 9288   4.352   0.470  14.379  0.4957 -0.9067 -0.7852
  627MPD2    H1 9289   4.053   0.461  14.059  0.3388  1.0344  0.3506
  627MPD2    H2 9290   4.114   0.823  14.252 -1.9968 -0.0288  2.2124
  627MPD2    H3 9291   4.004   0.691  14.108 -1.1540 -0.6691  0.8318
  627MPD2     N 9292   4.205   0.303  14.237  0.0106 -0.4991 -0.3963
  627MPD2    H5 9293   4.265   0.263  14.309  1.5612  2.0868 -0.2481
  627MPD2    N1 9294   4.311   0.720  14.430  0.3912  0.0889 -0.1450
  627MPD2    H7 9295   4.370   0.659  14.484 -0.3149  0.3128  0.8981
  628TMC3    C1 9296   4.397   0.874  14.572  0.9806  0.5818  0.2436
  628TMC3    C2 9297   4.521   0.812  14.561  0.3276 -0.0535 -0.3787
  628TMC3    C3 9298   4.624   0.843  14.645 -0.6945  0.3642 -0.1824
  628TMC3    C4 9299   4.395   0.996  14.629  0.6860 -0.4860 -0.1905
  628TMC3    C5 9300   4.503   1.032  14.707  0.2859  0.3126  0.6880
  628TMC3    C6 9301   4.619   0.955  14.725  0.1774 -0.0216 -0.4832
  628TMC3     C 9302   4.299   0.850  14.471 -0.2832  0.0283  0.0500
  628TMC3     O 9303   4.210   0.929  14.447  0.1356  0.3514  0.1503
  628TMC3     H 9304   4.533   0.717  14.512  0.2152  0.3160 -1.1200
  628TMC3    H1 9305   4.311   1.064  14.623  1.1312  0.1614  0.9655
  628TMC3    H2 9306   4.695   0.993  14.792  0.7659 -0.8959 -0.6611
  628TMC3    C7 9307   4.508   1.175  14.736 -0.0136  0.9860  0.4678
  628TMC3    C8 9308   0.033   0.800  14.597  0.4527  0.1060 -0.4969
  628TMC3    O1 9309   4.579   1.202  14.835 -0.5550 -0.5593  0.1790
  628TMC3    O2 9310   0.039   0.752  14.483  0.0708  0.4503  0.1237
  629MPD2     C 9311   3.215   4.035  16.147 -0.4460 -0.0247  0.0529
  629MPD2    C1 9312   3.264   4.020  16.271  0.2846 -0.6621 -0.4257
  629MPD2    C2 9313   3.185   3.940  16.355 -0.0994 -0.5369 -0.5583
  629MPD2    C3 9314   3.072   3.877  16.308  0.2751  0.7105  0.5699
  629MPD2    C4 9315   3.038   3.881  16.178  0.1157  0.1072  0.1062
  629MPD2    C5 9316   3.104   3.975  16.102 -0.3263  0.3071  0.0055
  629MPD2     H 9317   3.218   3.925  16.457 -0.5750 -1.1810 -0.5068
  629MPD2    H1 9318   2.958   3.820  16.138 -0.1790  0.5731 -0.0201
  629MPD2    H2 9319   3.258   4.095  16.068 -1.6490  2.5957  1.4046
  629MPD2    H3 9320   3.074   3.991  15.999 -2.8668  0.8810  0.8262
  629MPD2     N 9321   3.010   3.789  16.399  0.3521 -0.0725  0.0726
  629MPD2    H5 9322   3.062   3.762  16.482 -0.9880  0.1481  1.0005
  629MPD2    N1 9323   3.384   4.085  16.311 -0.9349  0.1107  0.4649
  629MPD2    H7 9324   3.425   4.155  16.250  0.4137 -0.2628  0.9372
  630TMC3    C1 9325   3.586   4.102  16.429 -0.6608  0.4671  0.3658
  630TMC3    C2 9326   3.648   4.156  16.322 -0.1015 -0.4557 -0.3585
  630TMC3    C3 9327   3.776   4.189  16.341 -0.0664  0.1591 -0.2658
  630TMC3    C4 9328   3.645   4.077  16.546  0.2074 -0.3091  0.4003
  630TMC3    C5 9329   3.767   4.132  16.565  0.1319 -0.1753 -0.4260
  630TMC3    C6 9330   3.838   4.185  16.465 -0.7807 -0.0331  0.1074
  630TMC3     C 9331   3.460   4.038  16.413  0.1477 -0.2481  0.4139
  630TMC3     O 9332   3.441   3.945  16.485  0.5032  0.1260 -1.0082
  630TMC3     H 9333   3.613   4.147  16.220  0.7428 -0.1044 -0.6766
  630TMC3    H1 9334   3.581   4.041  16.626  0.1587 -0.5511  0.2518
  630TMC3    H2 9335   3.945   4.203  16.466 -0.8540  0.4182  0.0113
  630TMC3    C7 9336   3.817   4.146  16.699  0.1722  0.2000  0.5958
  630TMC3    C8 9337   3.836   4.282  16.248  0.8541  0.5051  0.0768
  630TMC3    O1 9338   3.771   4.060  16.775 -0.0137  0.2842  0.1311
  630TMC3    O2 9339   3.928   4.352  16.291 -0.6074 -0.0770  0.0142
  631MPD2     C 9340   1.566   3.838  15.741 -0.0671  0.7916  0.2932
  631MPD2    C1 9341   1.681   3.892  15.673  0.3615 -0.2850 -0.1986
  631MPD2    C2 9342   1.795   3.816  15.646 -0.3491  0.2799 -0.1370
  631MPD2    C3 9343   1.797   3.679  15.678  0.7972 -0.4326  0.8396
  631MPD2    C4 9344   1.676   3.630  15.727 -0.5334  0.1981 -0.6379
  631MPD2    C5 9345   1.566   3.704  15.763  0.1834  0.0746  0.9115
  631MPD2     H 9346   1.882   3.863  15.603  0.8595 -0.4127  1.5427
  631MPD2    H1 9347   1.675   3.524  15.752 -0.3821  0.2295 -0.4965
  631MPD2    H2 9348   1.484   3.901  15.773 -1.3270 -1.0952  0.7889
  631MPD2    H3 9349   1.476   3.663  15.808  0.2386  0.3176  1.2413
  631MPD2     N 9350   1.909   3.604  15.660 -0.5235 -0.3446 -0.4289
  631MPD2    H5 9351   1.992   3.650  15.622  0.2043 -0.1524  1.4118
  631MPD2    N1 9352   1.682   4.027  15.647 -0.3210  0.8674 -0.5923
  631MPD2    H7 9353   1.593   4.072  15.666  0.9595  2.7894  0.9714
  632TMC3    C1 9354   1.702   4.224  15.513  0.0759  0.2659 -0.7828
  632TMC3    C2 9355   1.613   4.286  15.593  0.6205  0.2079  0.0764
  632TMC3    C3 9356   1.529   4.374  15.529  0.8838 -0.3401  0.4681
  632TMC3    C4 9357   1.727   4.263  15.381  0.2691  0.0347  0.4524
  632TMC3    C5 9358   1.631   4.334  15.320 -0.2253  0.0533 -0.7975
  632TMC3    C6 9359   1.526   4.384  15.388 -0.3402  0.2081 -0.2220
  632TMC3     C 9360   1.756   4.098  15.554  0.1968  0.2044 -0.0002
  632TMC3     O 9361   1.852   4.058  15.485 -0.0752 -0.2384 -0.2925
  632TMC3     H 9362   1.609   4.260  15.698 -1.4514  0.5556  0.0955
  632TMC3    H1 9363   1.816   4.228  15.330 -1.3277 -2.1903 -0.7703
  632TMC3    H2 9364   1.443   4.433  15.339 -0.3915 -1.8309 -2.1663
  632TMC3    C7 9365   1.614   4.328  15.179 -0.5661 -0.3638 -0.9200
  632TMC3    C8 9366   1.434   4.449  15.605 -0.4877  0.1096 -0.1811
  632TMC3    O1 9367   1.525   4.393  15.127 -0.7445  0.3127  0.6455
  632TMC3    O2 9368   1.415   4.412  15.720  0.3575 -0.3803 -0.2133
  633MPD2     C 9369   0.905   1.844   0.135 -0.3593  0.1257 -0.0916
  633MPD2    C1 9370   0.919   1.762   0.025  0.8148 -0.8312  0.3375
  633MPD2    C2 9371   0.882   1.627   0.039  0.1044 -0.4423 -0.1903
  633MPD2    C3 9372   0.840   1.573   0.161  0.1816  0.2302  0.2924
  633MPD2    C4 9373   0.821   1.661   0.269 -1.2648 -0.1101 -1.0694
  633MPD2    C5 9374   0.859   1.795   0.259  0.0888  0.0433 -0.4186
  633MPD2     H 9375   0.900   1.559  17.656  0.6989  0.0890 -0.4921
  633MPD2    H1 9376   0.786   1.628   0.366  1.5314 -0.4082 -0.1601
  633MPD2    H2 9377   0.937   1.948   0.130 -1.2264  0.3008 -2.0873
  633MPD2    H3 9378   0.832   1.864   0.338 -0.6263 -0.1241 -0.5119
  633MPD2     N 9379   0.820   1.429   0.162 -0.2807  0.4337 -0.0912
  633MPD2    H5 9380   0.845   1.376   0.080  0.2448  1.8405 -0.8393
  633MPD2    N1 9381   0.988   1.796  17.604  0.2869  0.1039 -0.3212
  633MPD2    H7 9382   0.963   1.735  17.527 -2.7479  2.0546 -0.9023
  634TMC3    C1 9383   1.130   1.898  17.448  0.0770 -0.1406 -0.0739
  634TMC3    C2 9384   1.160   1.778  17.391  0.0166  0.1531  0.1910
  634TMC3    C3 9385   1.201   1.789  17.260 -0.5871 -0.1208 -0.0534
  634TMC3    C4 9386   1.136   2.019  17.383 -0.7817  0.4598 -0.1455
  634TMC3    C5 9387   1.177   2.023  17.248  0.6111 -0.4646  0.3122
  634TMC3    C6 9388   1.218   1.908  17.195 -1.1066  0.6860 -0.7333
  634TMC3     C 9389   1.066   1.907  17.584 -0.8195 -0.7485 -0.3472
  634TMC3     O 9390   1.076   2.013  17.646  0.2841  0.1881 -0.2486
  634TMC3     H 9391   1.173   1.688  17.450 -2.2005 -0.7579 -0.7298
  634TMC3    H1 9392   1.101   2.107  17.436  3.3400  0.8550  1.9567
  634TMC3    H2 9393   1.248   1.911  17.091  0.4069  0.7343 -0.2890
  634TMC3    C7 9394   1.161   2.139  17.163  0.3139 -0.1539 -0.4529
  634TMC3    C8 9395   1.249   1.667  17.200  1.1146 -0.1714 -0.1141
  634TMC3    O1 9396   1.216   2.135  17.054  0.4705 -0.2507 -0.2807
  634TMC3    O2 9397   1.274   1.579  17.281  0.2344  0.4485  0.2482
  635TMC3    C1 9398   0.805   2.332   0.572 -0.0993  0.4966  0.5101
  635TMC3    C2 9399   0.874   2.210   0.558  0.0735  0.5851 -0.6131
  635TMC3    C3 9400   0.819   2.102   0.617  0.0750  0.7710  0.3647
  635TMC3    C4 9401   0.683   2.348   0.637 -0.2581 -0.1041  0.5850
  635TMC3    C5 9402   0.629   2.229   0.672  0.5810 -0.7623  0.0095
  635TMC3    C6 9403   0.700   2.106   0.673 -0.2355  0.4214 -0.0981
  635TMC3     C 9404   0.857   2.457   0.515 -0.1732  0.1729 -0.2379
  635TMC3     O 9405   0.814   2.560   0.567 -0.5054 -0.0734 -0.0798
  635TMC3     H 9406   0.965   2.199   0.502  0.7835  0.4097  0.5772
  635TMC3    H1 9407   0.645   2.445   0.668  0.8374  1.3610 -2.5610
  635TMC3    H2 9408   0.659   2.021   0.726  1.0836 -0.8971 -1.1877
  635TMC3    C7 9409   0.518   2.236   0.757 -0.4461 -0.5768  0.2855
  635TMC3    C8 9410   0.883   1.975   0.597 -0.3953  0.2671 -0.3536
  635TMC3    O1 9411   0.507   2.138   0.833  0.6536  0.3010  0.2003
  635TMC3    O2 9412   0.819   1.871   0.596  0.2034  0.1192  0.2419
  636MPD2     C 9413   2.259   2.510  15.538  0.8127 -0.3148  0.1155
  636MPD2    C1 9414   2.242   2.512  15.674 -0.1610  0.0162  1.0294
  636MPD2    C2 9415   2.312   2.425  15.757  0.2862 -0.5373 -0.1246
  636MPD2    C3 9416   2.407   2.339  15.698 -0.3284 -0.1515 -0.3246
  636MPD2    C4 9417   2.419   2.339  15.566 -0.3325 -0.0499 -0.1210
  636MPD2    C5 9418   2.350   2.426  15.486  0.4707  0.4426 -0.7157
  636MPD2     H 9419   2.302   2.435  15.865  0.1837 -1.0596 -0.0878
  636MPD2    H1 9420   2.490   2.271  15.518  2.2108  2.7292 -0.2789
  636MPD2    H2 9421   2.225   2.587  15.470  1.1154  0.5056  0.8863
  636MPD2    H3 9422   2.385   2.421  15.384  1.3760 -2.4304 -0.2710
  636MPD2     N 9423   2.493   2.268  15.780  0.7548  0.0128 -0.0326
  636MPD2    H5 9424   2.501   2.281  15.880 -0.7288 -2.7186  0.4558
  636MPD2    N1 9425   2.157   2.601  15.738  0.3217  0.5007 -0.0439
  636MPD2    H7 9426   2.149   2.579  15.836  0.1551 -0.1616 -0.2051
  637TMC3    C1 9427   2.663   2.115  15.838 -0.2127 -0.5346  0.2278
  637TMC3    C2 9428   2.699   2.217  15.928  0.0746 -0.4075  0.1955
  637TMC3    C3 9429   2.829   2.209  15.975  0.1870  0.6877 -0.3184
  637TMC3    C4 9430   2.747   2.007  15.812  0.6065  1.2484 -0.3377
  637TMC3    C5 9431   2.880   2.011  15.859  0.5766  0.1749 -0.2416
  637TMC3    C6 9432   2.920   2.109  15.944 -0.2320  0.2196  0.3164
  637TMC3     C 9433   2.559   2.158  15.742  0.5292 -0.0532 -0.1895
  637TMC3     O 9434   2.544   2.087  15.643  0.4660 -0.5083 -0.7325
  637TMC3     H 9435   2.647   2.312  15.939  2.6722  1.0724 -0.3218
  637TMC3    H1 9436   2.716   1.958  15.721  0.7617 -0.8182  0.7189
  637TMC3    H2 9437   3.020   2.102  15.984 -1.3551 -1.0138  2.8769
  637TMC3    C7 9438   2.980   1.975  15.754 -0.6146  0.1105  0.1442
  637TMC3    C8 9439   2.900   2.333  15.948 -0.7539  0.1363  0.5992
  637TMC3    O1 9440   2.965   1.874  15.682 -0.1937 -0.1111  0.3395
  637TMC3    O2 9441   2.997   2.310  15.883  0.5738  0.1324 -0.1765
  638MPD2     C 9442   2.706   0.891  14.899  0.0065 -0.1097  0.2154
  638MPD2    C1 9443   2.688   0.764  14.850 -0.2572 -0.1069  0.1063
  638MPD2    C2 9444   2.621   0.673  14.933  1.0754  0.1933 -0.3561
  638MPD2    C3 9445   2.582   0.703  15.061 -0.1081  0.5822 -0.4831
  638MPD2    C4 9446   2.599   0.832  15.103  0.5064  0.2237  0.1399
  638MPD2    C5 9447   2.667   0.921  15.026  0.1288  0.2216 -0.0581
  638MPD2     H 9448   2.605   0.575  14.890 -0.1112  0.6326 -0.9239
  638MPD2    H1 9449   2.570   0.857  15.204 -0.4741 -0.5189  0.0339
  638MPD2    H2 9450   2.747   0.968  14.834 -1.3163  0.4191  0.0153
  638MPD2    H3 9451   2.683   1.019  15.069 -1.1489  1.1063 -1.6104
  638MPD2     N 9452   2.520   0.603  15.135  0.0037 -0.4481  0.1891
  638MPD2    H5 9453   2.538   0.509  15.101 -0.1964  0.3403 -2.1433
  638MPD2    N1 9454   2.717   0.748  14.714  0.1600  0.2540 -0.0410
  638MPD2    H7 9455   2.752   0.830  14.666  4.2024 -1.3429  0.1296
  639TMC3    C1 9456   2.411   0.484  15.284  0.0777 -0.1730  0.4280
  639TMC3    C2 9457   2.282   0.433  15.287 -0.0862 -0.7319  0.5895
  639TMC3    C3 9458   2.268   0.299  15.264  0.3029  0.0365 -0.5694
  639TMC3    C4 9459   2.523   0.404  15.295  0.0945 -0.5190 -0.2902
  639TMC3    C5 9460   2.503   0.269  15.271  0.3603 -0.0939  0.5471
  639TMC3    C6 9461   2.375   0.217  15.257 -0.3305 -0.6025 -0.5206
  639TMC3     C 9462   2.436   0.615  15.240 -0.3447 -0.4486 -0.2214
  639TMC3     O 9463   2.352   0.699  15.253  0.3167 -0.2478  0.3902
  639TMC3     H 9464   2.198   0.500  15.269  1.4457  1.1521  0.4309
  639TMC3    H1 9465   2.622   0.447  15.296  0.3504 -1.0831 -1.3010
  639TMC3    H2 9466   2.359   0.110  15.242 -0.9046 -0.6190  0.2146
  639TMC3    C7 9467   2.622   0.195  15.250  0.1635 -0.3652  0.8154
  639TMC3    C8 9468   2.150   0.265  15.190 -0.0179 -0.6476  0.3504
  639TMC3    O1 9469   2.640   0.090  15.308 -0.0917  0.6629 -0.4153
  639TMC3    O2 9470   2.184   0.216  15.085  0.0748 -0.2550  0.0359
  640MPD2     C 9471   2.653   3.764   9.882 -1.2596  0.2065  0.3081
  640MPD2    C1 9472   2.689   3.875   9.809  0.1878 -0.8000  0.3879
  640MPD2    C2 9473   2.605   3.981   9.792 -1.1404 -0.0332 -0.6286
  640MPD2    C3 9474   2.492   3.981   9.878  0.3581  0.8606  0.6080
  640MPD2    C4 9475   2.461   3.882   9.967 -0.6551  0.7779  0.2784
  640MPD2    C5 9476   2.546   3.774   9.971  0.6577 -0.3080  0.8302
  640MPD2     H 9477   2.622   4.066   9.727  0.9986  0.5052  0.6283
  640MPD2    H1 9478   2.384   3.887  10.042 -2.8002 -1.0501 -1.7974
  640MPD2    H2 9479   2.719   3.678   9.882 -0.2630  0.9720  1.3946
  640MPD2    H3 9480   2.528   3.706  10.053 -0.9052  0.2633  0.9656
  640MPD2     N 9481   2.404   4.091   9.886 -0.8152 -0.1496  0.1070
  640MPD2    H5 9482   2.347   4.096   9.970 -0.0893  2.7265  0.4173
  640MPD2    N1 9483   2.814   3.858   9.739 -0.0887 -0.2232 -0.1146
  640MPD2    H7 9484   2.864   3.772   9.760  1.0146  0.4203 -0.1107
  641TMC3    C1 9485   2.997   3.923   9.603  0.4735  0.3211  0.2740
  641TMC3    C2 9486   3.020   3.795   9.563 -0.4524  0.1083  0.1750
  641TMC3    C3 9487   3.151   3.763   9.545 -1.1078 -0.4592  0.8281
  641TMC3    C4 9488   3.087   4.018   9.612  0.4595 -0.1565  0.8901
  641TMC3    C5 9489   3.215   3.988   9.575  0.1314 -0.5080 -0.2237
  641TMC3    C6 9490   3.253   3.856   9.540 -0.3855  0.9456  0.0889
  641TMC3     C 9491   2.873   3.955   9.664 -0.6331  0.0380 -0.3624
  641TMC3     O 9492   2.840   4.074   9.641 -0.1725  0.1684 -0.3879
  641TMC3     H 9493   2.936   3.728   9.552 -0.4697  0.1069  0.3165
  641TMC3    H1 9494   3.064   4.118   9.648  0.2963  0.3087 -0.4860
  641TMC3    H2 9495   3.356   3.837   9.516 -0.2640 -0.1998  1.4881
  641TMC3    C7 9496   3.322   4.082   9.611 -0.0367  0.2843 -0.6126
  641TMC3    C8 9497   3.180   3.625   9.532  0.7918  0.6698 -0.6399
  641TMC3    O1 9498   3.435   4.042   9.615 -0.3693  0.6099  0.7361
  641TMC3    O2 9499   3.078   3.556   9.515 -0.2207 -0.5868 -0.3643
  642TMC3    C1 9500   3.897   0.993  12.503  0.3694 -0.5352 -0.6636
  642TMC3    C2 9501   4.012   1.036  12.439  0.9367  0.4553  0.4327
  642TMC3    C3 9502   4.053   0.959  12.332  0.0363  0.3219 -0.3329
  642TMC3    C4 9503   3.819   0.885  12.462  0.3313 -0.5422  0.1346
  642TMC3    C5 9504   3.859   0.827  12.346 -0.1862  0.4327  0.4499
  642TMC3    C6 9505   3.980   0.851  12.281 -0.0639 -0.0400  0.0243
  642TMC3     C 9506   3.842   1.098  12.591 -0.1933 -0.0425  0.7366
  642TMC3     O 9507   3.912   1.198  12.596  0.2632 -0.0675 -0.0399
  642TMC3     H 9508   4.085   1.100  12.487 -0.0241  1.6963  0.2216
  642TMC3    H1 9509   3.726   0.852  12.508  0.4034  0.3930  0.9641
  642TMC3    H2 9510   4.021   0.811  12.189  0.2038  0.1827  0.0476
  642TMC3    C7 9511   3.766   0.726  12.306  0.4236 -0.4029 -0.0849
  642TMC3    C8 9512   4.151   1.011  12.247  0.1213  0.0523 -0.5445
  642TMC3    O1 9513   3.749   0.715  12.185 -0.3026 -0.7357  0.5812
  642TMC3    O2 9514   4.210   0.934  12.174  0.3232 -0.4534 -0.1308
  643TMC3    C1 9515   2.959   0.262   0.291 -0.2203  0.8958 -0.6350
  643TMC3    C2 9516   2.854   0.349   0.268  0.3186  0.0959  0.6589
  643TMC3    C3 9517   2.793   0.342   0.150  0.0543  0.2696 -0.5532
  643TMC3    C4 9518   3.001   0.178   0.194  0.5092 -0.3221 -0.0085
  643TMC3    C5 9519   2.933   0.177   0.076 -0.1828 -0.2908 -0.2774
  643TMC3    C6 9520   2.827   0.262   0.042 -1.0642  0.8564 -0.2061
  643TMC3     C 9521   3.053   0.299   0.400  0.8898  1.1391  0.2532
  643TMC3     O 9522   3.024   0.398   0.465 -0.5069 -0.4274  0.2180
  643TMC3     H 9523   2.828   0.411   0.353  0.5729 -2.0575  2.3020
  643TMC3    H1 9524   3.089   0.116   0.196  0.4271 -0.3615  1.7467
  643TMC3    H2 9525   2.779   0.273  17.645  3.4238 -1.5450 -2.7028
  643TMC3    C7 9526   3.007   0.123  17.666  0.3356  0.3770  0.4802
  643TMC3    C8 9527   2.711   0.455   0.117  0.3934 -0.0910 -0.6218
  643TMC3    O1 9528   3.133   0.121  17.671 -0.1450  0.2977 -0.1775
  643TMC3    O2 9529   2.632   0.497   0.201  0.2613 -0.5719 -0.3042
  644MPD2     C 9530   2.339   0.472   9.836  0.2345  0.0872 -0.3120
  644MPD2    C1 9531   2.348   0.329   9.843 -0.5534 -0.5180  0.3340
  644MPD2    C2 9532   2.231   0.269   9.800 -0.1951 -0.0913 -1.2047
  644MPD2    C3 9533   2.121   0.342   9.754 -0.0819  0.4225 -0.0676
  644MPD2    C4 9534   2.113   0.477   9.775 -0.2125  0.2733 -0.2193
  644MPD2    C5 9535   2.220   0.543   9.819  0.8891 -0.0002  0.5200
  644MPD2     H 9536   2.223   0.161   9.795 -0.7251 -0.1244  0.0768
  644MPD2    H1 9537   2.021   0.524   9.744 -0.0981  0.5788 -0.0928
  644MPD2    H2 9538   2.419   0.537   9.869  0.2362 -0.0666 -0.0094
  644MPD2    H3 9539   2.212   0.651   9.812 -0.0059 -0.1077 -0.1755
  644MPD2     N 9540   2.014   0.260   9.704  1.0502 -0.0104  0.2258
  644MPD2    H5 9541   2.032   0.160   9.698 -0.8480 -0.1996 -2.3490
  644MPD2    N1 9542   2.466   0.257   9.881 -0.7918 -0.4674  0.3150
  644MPD2    H7 9543   2.548   0.317   9.872 -0.2999 -0.8677  2.1892
  645TMC3    C1 9544   1.810   0.178   9.615  0.1975 -0.2944 -0.8626
  645TMC3    C2 9545   1.730   0.187   9.509  0.3390 -0.0982 -0.6882
  645TMC3    C3 9546   1.650   0.079   9.467  0.5920 -0.0197 -0.6766
  645TMC3    C4 9547   1.828   0.058   9.680 -0.2269 -0.1249 -0.0745
  645TMC3    C5 9548   1.745   4.681   9.644 -0.4962  0.7503  0.5482
  645TMC3    C6 9549   1.656   4.686   9.536 -0.7183 -0.7928 -0.4617
  645TMC3     C 9550   1.891   0.297   9.653 -0.4728 -0.2895  0.0196
  645TMC3     O 9551   1.841   0.405   9.618  0.0533  0.2577  0.3295
  645TMC3     H 9552   1.717   0.287   9.468 -0.2608 -0.4948 -1.4779
  645TMC3    H1 9553   1.878   0.057   9.776  1.0308  0.2285 -0.7349
  645TMC3    H2 9554   1.575   4.618   9.512  0.4796 -2.5341  0.4605
  645TMC3    C7 9555   1.749   4.573   9.736 -0.0711  0.1816 -0.5304
  645TMC3    C8 9556   1.538   0.104   9.376  0.2614 -0.4561 -0.1948
  645TMC3    O1 9557   1.830   4.573   9.827 -0.2518 -0.1825  0.0566
  645TMC3    O2 9558   1.449   0.018   9.359 -0.8524  0.6803 -0.5121
  646MPD2     C 9559   1.946   4.153  14.641  0.5414  0.4660 -0.4941
  646MPD2    C1 9560   2.007   4.252  14.716 -0.0168  0.5530  0.3634
  646MPD2    C2 9561   1.957   4.387  14.706  0.0568  0.7783  0.3089
  646MPD2    C3 9562   1.860   4.420  14.615  0.1759 -0.2406  0.0075
  646MPD2    C4 9563   1.813   4.313  14.539 -0.1933  0.1159  0.1058
  646MPD2    C5 9564   1.849   4.184  14.555 -0.4142 -0.5436 -0.8363
  646MPD2     H 9565   1.990   4.467  14.771  1.4284 -0.5913  1.2998
  646MPD2    H1 9566   1.735   4.327  14.465  0.0357  1.7236  0.1640
  646MPD2    H2 9567   1.971   4.048  14.650  1.0000  0.8682  2.8454
  646MPD2    H3 9568   1.798   4.099  14.511 -0.2743  0.1445 -2.3034
  646MPD2     N 9569   1.816   4.551  14.604  0.6244  0.3007 -0.1706
  646MPD2    H5 9570   1.836   4.613  14.681  0.6409  0.5722 -0.3940
  646MPD2    N1 9571   2.107   4.209  14.802  0.1238 -0.4333 -0.0033
  646MPD2    H7 9572   2.110   4.108  14.805  0.4038 -0.3833  1.5549
  647TMC3    C1 9573   2.300   4.227  14.945  0.0056  0.1026  0.0448
  647TMC3    C2 9574   2.259   4.137  15.037  0.0025  0.0123  0.6515
  647TMC3    C3 9575   2.351   4.096  15.129  0.5877  0.3829  0.5623
  647TMC3    C4 9576   2.420   4.289  14.955 -0.4479  0.6828  0.1427
  647TMC3    C5 9577   2.506   4.257  15.057 -0.0558 -0.6432  0.1403
  647TMC3    C6 9578   2.467   4.162  15.150 -0.2408  0.2244 -0.5875
  647TMC3     C 9579   2.202   4.294  14.858 -0.1040 -0.0315 -0.5956
  647TMC3     O 9580   2.207   4.414  14.836  0.2513 -0.2718  0.1447
  647TMC3     H 9581   2.159   4.097  15.036  0.8086 -2.0054  0.1868
  647TMC3    H1 9582   2.447   4.367  14.884 -0.0856  0.4558  0.0336
  647TMC3    H2 9583   2.540   4.132  15.224  0.3514 -0.8353 -1.6073
  647TMC3    C7 9584   2.644   4.288  15.044 -0.4208  0.2318  0.0148
  647TMC3    C8 9585   2.348   3.961  15.172  0.4769 -0.1476  0.7002
  647TMC3    O1 9586   2.720   4.293  15.140  0.0523  0.5635  0.2581
  647TMC3    O2 9587   2.456   3.908  15.188 -0.2787 -0.2870 -0.0923
  648TMC3    C1 9588   1.693   1.782  16.550 -0.2511 -0.5093 -0.1221
  648TMC3    C2 9589   1.755   1.669  16.505  0.0032  0.0585 -0.4034
  648TMC3    C3 9590   1.782   1.658  16.375  0.4755 -0.4166  0.4759
  648TMC3    C4 9591   1.627   1.864  16.461  0.0872  0.3674 -0.3449
  648TMC3    C5 9592   1.639   1.843  16.327  0.2804 -0.3604  0.4520
  648TMC3    C6 9593   1.722   1.747  16.284  0.2273  0.1050 -0.4955
  648TMC3     C 9594   1.661   1.800  16.689  0.2424  0.1983  0.4779
  648TMC3     O 9595   1.628   1.911  16.721 -0.3100 -0.0321  0.2517
  648TMC3     H 9596   1.817   1.609  16.570 -3.0855 -0.1226  2.4045
  648TMC3    H1 9597   1.577   1.952  16.500  1.3631  1.7135 -1.7634
  648TMC3    H2 9598   1.716   1.727  16.177  1.5072 -0.3796 -0.4799
  648TMC3    C7 9599   1.606   1.947  16.224  0.2673  0.6308  0.6114
  648TMC3    C8 9600   1.797   1.524  16.340 -0.2787  0.0017 -0.1786
  648TMC3    O1 9601   1.656   1.930  16.113  0.7568  0.5123 -0.2940
  648TMC3    O2 9602   1.759   1.444  16.425 -0.1303  0.0325 -0.1981
  649TMC3    C1 9603   0.794   3.580  12.728 -0.3772 -0.2233 -0.4863
  649TMC3    C2 9604   0.879   3.544  12.620  0.2298 -0.3362 -0.2669
  649TMC3    C3 9605   0.987   3.464  12.641 -0.2296  0.3433 -0.1745
  649TMC3    C4 9606   0.805   3.520  12.849 -0.3696 -0.2463 -0.2848
  649TMC3    C5 9607   0.912   3.438  12.866 -0.1990  0.6177  0.3058
  649TMC3    C6 9608   1.005   3.412  12.766 -0.8619  0.0344 -0.8638
  649TMC3     C 9609   0.684   3.668  12.697 -0.6747 -0.5267  0.8113
  649TMC3     O 9610   0.612   3.696  12.788  0.1187 -0.4885  0.1666
  649TMC3     H 9611   0.848   3.564  12.518  0.1066  0.1444 -0.1367
  649TMC3    H1 9612   0.743   3.543  12.935 -1.3633 -0.1160 -1.0300
  649TMC3    H2 9613   1.094   3.354  12.788 -0.2991  1.6486  1.1759
  649TMC3    C7 9614   0.908   3.363  12.991  0.1697 -0.0820 -0.5202
  649TMC3    C8 9615   1.089   3.442  12.546 -0.2688 -0.1097  0.2389
  649TMC3    O1 9616   0.802   3.348  13.052 -0.3365 -0.2095  0.1164
  649TMC3    O2 9617   1.170   3.357  12.577  0.0927 -0.1281 -0.3810
  650TMC3    C1 9618   3.104   0.067  12.523 -0.0789  0.3262 -0.2154
  650TMC3    C2 9619   3.011   0.117  12.610  0.5616  0.1284 -0.2988
  650TMC3    C3 9620   2.894   0.156  12.556 -0.3916 -0.0385 -0.5895
  650TMC3    C4 9621   3.093   0.065  12.389  0.1108 -0.0740  0.6842
  650TMC3    C5 9622   2.974   0.115  12.341 -0.3209  0.1298  0.0440
  650TMC3    C6 9623   2.872   0.156  12.421  0.2211 -0.1383  0.2378
  650TMC3     C 9624   3.241   0.058  12.581 -0.0767  1.0059 -0.0095
  650TMC3     O 9625   3.262   0.157  12.650  0.7582  0.5356  0.0048
  650TMC3     H 9626   3.037   0.131  12.714 -2.4160  1.3645  0.2672
  650TMC3    H1 9627   3.165   0.028  12.318  0.1095 -1.9800  1.6664
  650TMC3    H2 9628   2.777   0.191  12.382 -0.6066 -0.0017  2.3289
  650TMC3    C7 9629   2.965   0.175  12.210 -0.7469  0.4910 -0.0762
  650TMC3    C8 9630   2.874   0.291  12.601  0.2521  0.1189 -0.4937
  650TMC3    O1 9631   2.916   0.108  12.118  0.5093  0.1014  0.3063
  650TMC3    O2 9632   2.981   0.355  12.609  0.6672 -0.5400  0.0384
  651MPD2     C 9633   1.697   2.267  10.226  0.3182  0.2632  0.2473
  651MPD2    C1 9634   1.649   2.374  10.298  0.1845 -0.0551 -0.1952
  651MPD2    C2 9635   1.757   2.461  10.333 -0.3111  0.1071  0.0126
  651MPD2    C3 9636   1.888   2.448  10.296  0.0820  0.1065  0.7613
  651MPD2    C4 9637   1.927   2.340  10.225  0.1234 -0.6603 -0.4917
  651MPD2    C5 9638   1.829   2.251  10.191 -0.9820  0.1835  0.1583
  651MPD2     H 9639   1.717   2.541  10.394  1.7123 -1.0070  2.8022
  651MPD2    H1 9640   2.032   2.320  10.203  0.1569 -2.3337  1.2239
  651MPD2    H2 9641   1.623   2.200  10.183  0.7197  1.2770 -2.0491
  651MPD2    H3 9642   1.857   2.168  10.126  0.7775  1.1756 -0.3337
  651MPD2     N 9643   1.975   2.557  10.335  0.0749 -0.2044  0.3005
  651MPD2    H5 9644   1.926   2.624  10.393 -1.0376 -0.2251 -0.6252
  651MPD2    N1 9645   1.519   2.398  10.343  0.0679  0.0128 -0.3637
  651MPD2    H7 9646   1.509   2.456  10.426  1.6610  1.9143 -1.5194
  652TMC3    C1 9647   2.302   2.738  10.575  0.0912  0.4318  0.3133
  652TMC3    C2 9648   2.278   2.647  10.473  0.0291 -0.2644  0.3566
  652TMC3    C3 9649   2.169   2.675  10.398  0.7679  0.8904  0.5023
  652TMC3    C4 9650   2.219   2.842  10.605 -0.0723 -0.0915  0.4164
  652TMC3    C5 9651   2.113   2.865  10.526  0.5019  0.2807 -0.3870
  652TMC3    C6 9652   2.087   2.781  10.417  0.1739 -0.6774 -0.3336
  652TMC3     C 9653   2.437   2.751  10.635  0.0341 -0.2267 -0.6594
  652TMC3     O 9654   2.436   2.770  10.754 -0.3251  0.4306 -0.1278
  652TMC3     H 9655   2.330   2.553  10.460 -0.3588 -0.4019 -0.2240
  652TMC3    H1 9656   2.248   2.911  10.684  2.5426  0.9139 -1.3855
  652TMC3    H2 9657   2.000   2.800  10.355 -0.1970 -0.7538  0.1639
  652TMC3    C7 9658   2.030   2.978  10.556  0.1392  0.7755 -0.0326
  652TMC3    C8 9659   2.113   2.560  10.329  0.4813 -0.6213  0.5622
  652TMC3    O1 9660   2.025   3.013  10.671 -0.2802  0.7452 -0.5244
  652TMC3    O2 9661   2.189   2.476  10.287 -0.1230  0.5068 -0.0180
  653MPD2     C 9662   0.557   1.844   0.096 -0.3400  0.0047  0.2532
  653MPD2    C1 9663   0.525   1.937   0.010 -0.6430  0.2467  0.2227
  653MPD2    C2 9664   0.495   1.902  17.578  0.6569 -0.4151 -0.7967
  653MPD2    C3 9665   0.498   1.764  17.539  0.5788  0.2574 -0.5463
  653MPD2    C4 9666   0.517   1.669  17.634  0.1048 -0.2052 -0.0566
  653MPD2    C5 9667   0.553   1.709   0.058  0.1554  0.3566  0.2464
  653MPD2     H 9668   0.477   1.980  17.505  0.9131  0.1899 -0.2149
  653MPD2    H1 9669   0.511   1.563  17.609 -3.0437 -0.2915  1.0090
  653MPD2    H2 9670   0.597   1.858   0.196 -0.2621  3.4440 -0.2375
  653MPD2    H3 9671   0.570   1.641   0.141 -1.8252 -0.7313 -0.2397
  653MPD2     N 9672   0.486   1.732  17.403  0.2981  0.2426  0.1818
  653MPD2    H5 9673   0.456   1.813  17.350  0.8350  0.0158 -0.4718
  653MPD2    N1 9674   0.526   2.077   0.047  0.8291  0.6816 -0.0254
  653MPD2    H7 9675   0.529   2.143  17.669 -0.2924  0.2612 -0.4205
  654TMC3    C1 9676   0.488   1.598  17.209  0.0846  1.1248 -0.6772
  654TMC3    C2 9677   0.443   1.701  17.128  0.2405 -0.1812  0.0240
  654TMC3    C3 9678   0.446   1.686  16.988 -0.3360  0.4086  0.1092
  654TMC3    C4 9679   0.522   1.480  17.153  0.2256 -0.4522 -0.2113
  654TMC3    C5 9680   0.518   1.469  17.021  0.9693 -0.0400  0.2225
  654TMC3    C6 9681   0.491   1.567  16.932 -1.0979  0.4034 -0.2230
  654TMC3     C 9682   0.482   1.605  17.352  0.2079  0.7519 -0.4191
  654TMC3     O 9683   0.496   1.495  17.402  0.5063  0.4248  0.1402
  654TMC3     H 9684   0.420   1.800  17.167  1.5046 -0.0483  0.4353
  654TMC3    H1 9685   0.528   1.387  17.208 -0.2350  0.9884  2.2238
  654TMC3    H2 9686   0.462   1.543  16.830 -0.1551 -0.3059 -0.3288
  654TMC3    C7 9687   0.534   1.337  16.961 -0.8145 -0.2863 -0.8673
  654TMC3    C8 9688   0.365   1.779  16.908  0.4883  0.3617 -0.0071
  654TMC3    O1 9689   0.483   1.315  16.852  0.2985 -0.2484 -0.1457
  654TMC3    O2 9690   0.314   1.869  16.973 -0.1489 -0.3442  0.1684
  655MPD2     C 9691   2.318   1.928  16.014  0.1899 -0.3782  0.5623
  655MPD2    C1 9692   2.197   1.958  15.959 -0.1291 -0.0354 -0.3948
  655MPD2    C2 9693   2.159   1.908  15.843 -0.8788  0.2368  0.5031
  655MPD2    C3 9694   2.240   1.821  15.779 -0.0962 -0.0826  0.1189
  655MPD2    C4 9695   2.362   1.784  15.834 -0.3088 -1.2860  0.9029
  655MPD2    C5 9696   2.402   1.838  15.954 -0.2669 -0.0210 -0.5329
  655MPD2     H 9697   2.072   1.957  15.800  1.2791  0.8774 -3.1415
  655MPD2    H1 9698   2.424   1.707  15.788 -1.3880 -0.4416 -1.9902
  655MPD2    H2 9699   2.348   1.961  16.113 -0.2261  1.9016 -0.0925
  655MPD2    H3 9700   2.489   1.808  16.013 -0.4768  0.2971 -0.0598
  655MPD2     N 9701   2.203   1.765  15.659 -0.4120 -0.6170  0.4850
  655MPD2    H5 9702   2.267   1.695  15.624 -0.1121  1.3765 -2.9730
  655MPD2    N1 9703   2.098   2.037  16.025  0.1873 -0.0611  0.2338
  655MPD2    H7 9704   2.010   2.061  15.980  0.2961 -2.7982 -1.4497
  656TMC3    C1 9705   2.014   2.198  16.164  0.2399  0.6173  0.4362
  656TMC3    C2 9706   1.940   2.193  16.280 -0.6893 -0.5257 -0.3685
  656TMC3    C3 9707   1.843   2.286  16.301  0.2562 -0.9891  0.1274
  656TMC3    C4 9708   1.991   2.299  16.075 -0.8637 -0.4974 -0.1584
  656TMC3    C5 9709   1.894   2.395  16.099 -0.5614 -0.6415 -0.7758
  656TMC3    C6 9710   1.817   2.388  16.217 -0.7742 -0.8449 -0.5446
  656TMC3     C 9711   2.111   2.093  16.147  0.3250  0.7343 -0.5438
  656TMC3     O 9712   2.170   2.053  16.246 -0.3696 -0.4790 -0.8045
  656TMC3     H 9713   1.949   2.097  16.330 -2.6778 -0.3528  0.3237
  656TMC3    H1 9714   2.056   2.308  15.989  1.1287 -2.0108  1.1621
  656TMC3    H2 9715   1.739   2.460  16.239  1.2652  0.3225  2.8688
  656TMC3    C7 9716   1.841   2.462  15.982 -0.2010 -0.1097  0.7729
  656TMC3    C8 9717   1.748   2.268  16.414 -0.2913  0.3160  0.1886
  656TMC3    O1 9718   1.901   2.455  15.875 -0.4627  0.2961  0.0460
  656TMC3    O2 9719   1.751   2.148  16.454 -0.0657  0.7990  0.5119
  657TMC3    C1 9720   1.197   1.281  15.201  0.0475 -0.1865  0.5108
  657TMC3    C2 9721   1.214   1.279  15.340  0.3196  0.5085 -0.6967
  657TMC3    C3 9722   1.141   1.354  15.421  0.5102  0.3786 -0.0621
  657TMC3    C4 9723   1.092   1.348  15.150 -0.4459  0.5474  0.2924
  657TMC3    C5 9724   1.002   1.409  15.234  0.1559  0.1377  0.2628
  657TMC3    C6 9725   1.033   1.419  15.367 -0.5689 -0.2977  0.0152
  657TMC3     C 9726   1.271   1.196  15.114  0.0122 -0.3300  0.1928
  657TMC3     O 9727   1.212   1.173  15.009 -0.5358  0.0325 -0.2850
  657TMC3     H 9728   1.292   1.221  15.389  0.3110  0.7620 -0.3813
  657TMC3    H1 9729   1.077   1.357  15.043 -2.0151 -2.9982  0.2067
  657TMC3    H2 9730   0.963   1.470  15.431 -0.1170  0.3864 -0.0335
  657TMC3    C7 9731   0.944   1.530  15.182 -0.1497  0.2363  0.8596
  657TMC3    C8 9732   1.160   1.347  15.572 -0.3129  0.0835 -0.5465
  657TMC3    O1 9733   1.003   1.585  15.093  0.1437  0.0336 -0.4014
  657TMC3    O2 9734   1.062   1.384  15.634 -0.0385  0.5563 -0.2634
  658MPD2     C 9735   2.343   1.807  14.885 -0.5661  0.4625  0.7696
  658MPD2    C1 9736   2.219   1.853  14.919 -0.2163  0.9015  0.3071
  658MPD2    C2 9737   2.157   1.955  14.846  0.1329  0.5672 -0.2291
  658MPD2    C3 9738   2.218   2.009  14.741 -0.1461  0.5076 -0.2889
  658MPD2    C4 9739   2.347   1.974  14.713  0.2445  0.0350 -0.2768
  658MPD2    C5 9740   2.413   1.874  14.788 -0.3653 -1.2547  0.4062
  658MPD2     H 9741   2.053   1.978  14.867 -0.6187 -2.0387 -1.1351
  658MPD2    H1 9742   2.401   2.022  14.632  0.8445  0.4047  0.3432
  658MPD2    H2 9743   2.388   1.719  14.929 -0.4068  0.2284  0.1236
  658MPD2    H3 9744   2.517   1.851  14.764  0.0808  1.5798 -0.4948
  658MPD2     N 9745   2.142   2.097  14.668  0.1233 -0.3100 -0.0787
  658MPD2    H5 9746   2.048   2.113  14.701 -0.2131 -2.6551  0.0920
  658MPD2    N1 9747   2.148   1.797  15.031 -0.5296 -0.2449  0.5358
  658MPD2    H7 9748   2.047   1.799  15.025 -0.4950 -1.5125 -0.5232
  659TMC3    C1 9749   2.108   1.685  15.242 -0.4150  0.0428  0.1202
  659TMC3    C2 9750   2.153   1.707  15.370  0.0363  0.2205  0.3507
  659TMC3    C3 9751   2.056   1.703  15.473  0.3728  0.2018 -0.1144
  659TMC3    C4 9752   1.977   1.666  15.209 -0.1876  0.7442  0.0639
  659TMC3    C5 9753   1.885   1.661  15.313  0.8527 -1.1107  0.5152
  659TMC3    C6 9754   1.921   1.685  15.445 -0.0867 -0.2259 -0.2189
  659TMC3     C 9755   2.201   1.711  15.134 -0.8313 -0.7532 -0.2418
  659TMC3     O 9756   2.320   1.684  15.159  0.6118  0.6081 -0.3983
  659TMC3     H 9757   2.257   1.731  15.390  0.2432  0.0905 -0.5334
  659TMC3    H1 9758   1.946   1.667  15.105 -1.8507 -0.6643  0.5500
  659TMC3    H2 9759   1.849   1.673  15.525  0.2503 -0.2006  0.0852
  659TMC3    C7 9760   1.740   1.685  15.281 -0.1799  0.5619 -0.3712
  659TMC3    C8 9761   2.075   1.779  15.598 -0.1298 -0.4952  0.1921
  659TMC3    O1 9762   1.678   1.757  15.357  0.5476 -0.1082 -0.4257
  659TMC3    O2 9763   1.978   1.858  15.625  0.0681  0.3062  0.2611
  660MPD2     C 9764   0.100   1.448  12.554 -0.0332  0.5968 -0.9589
  660MPD2    C1 9765   4.701   1.517  12.561  0.2844 -0.5419  0.9739
  660MPD2    C2 9766   4.614   1.472  12.655 -0.0534 -0.2409  0.7193
  660MPD2    C3 9767   4.639   1.357  12.731 -0.5552 -0.7409  0.3576
  660MPD2    C4 9768   0.036   1.291  12.713  0.0168 -0.2434  0.6712
  660MPD2    C5 9769   0.133   1.336  12.627 -0.2622 -0.1689 -0.2221
  660MPD2     H 9770   4.521   1.524  12.677  0.9776  2.5550 -1.6041
  660MPD2    H1 9771   0.063   1.203  12.771 -1.8645 -2.6480 -2.0641
  660MPD2    H2 9772   0.175   1.479  12.482 -0.3998  3.7227 -0.0293
  660MPD2    H3 9773   0.226   1.283  12.611 -0.1875  0.3412 -1.4847
  660MPD2     N 9774   4.548   1.295  12.828  0.0001 -0.7446  0.1603
  660MPD2    H5 9775   4.571   1.203  12.864 -0.8574 -0.0100  2.5963
  660MPD2    N1 9776   4.687   1.628  12.478 -0.8403 -0.2804 -0.0184
  660MPD2    H7 9777   0.043   1.650  12.419 -0.1813 -3.2033 -0.2138
  661TMC3    C1 9778   4.553   1.778  12.346 -0.0858 -0.5771  0.0132
  661TMC3    C2 9779   4.607   1.736  12.229 -0.4974  0.7933  0.0429
  661TMC3    C3 9780   4.546   1.777  12.110  0.1239  0.3488  0.0694
  661TMC3    C4 9781   4.434   1.848  12.344  0.0991  0.0852  0.1254
  661TMC3    C5 9782   4.377   1.888  12.222  0.1230  0.0779 -0.2870
  661TMC3    C6 9783   4.429   1.842  12.097  0.3552 -0.8471 -0.2510
  661TMC3     C 9784   4.572   1.706  12.475  0.0109 -0.4645 -0.7037
  661TMC3     O 9785   4.490   1.729  12.559 -0.1864 -1.0070 -0.3027
  661TMC3     H 9786   4.701   1.683  12.237 -0.3511  0.9550 -0.6238
  661TMC3    H1 9787   4.398   1.879  12.442  0.8672  3.4836 -0.6618
  661TMC3    H2 9788   4.387   1.884  12.006 -1.2402 -0.5947  0.5864
  661TMC3    C7 9789   4.229   1.905  12.223  0.0906  0.5212 -0.8656
  661TMC3    C8 9790   4.588   1.706  11.986  0.3086 -0.4340  1.1211
  661TMC3    O1 9791   4.175   1.921  12.332  0.4012  0.2595  1.1805
  661TMC3    O2 9792   4.666   1.613  11.999  0.0171  0.6351  0.2247
  662MPD2     C 9793   0.570   0.721  17.311 -0.7935  0.9271  0.4324
  662MPD2    C1 9794   0.498   0.629  17.389 -0.6073  0.1228 -0.5135
  662MPD2    C2 9795   0.427   0.681  17.497 -0.1183 -0.2000  0.0814
  662MPD2    C3 9796   0.404   0.813  17.517 -0.0955  0.2181 -0.3114
  662MPD2    C4 9797   0.465   0.901  17.434  0.4579  0.5467  0.1732
  662MPD2    C5 9798   0.549   0.858  17.333  0.7915  0.3454 -0.4675
  662MPD2     H 9799   0.387   0.605  17.565  1.5746 -0.1689  1.1250
  662MPD2    H1 9800   0.448   1.005  17.460  0.1341  0.6577 -0.4714
  662MPD2    H2 9801   0.620   0.685  17.221 -0.9351 -2.2175  1.6071
  662MPD2    H3 9802   0.603   0.931  17.273 -1.0702  0.8819 -1.4730
  662MPD2     N 9803   0.314   0.858  17.618  0.0038 -0.2577  0.6472
  662MPD2    H5 9804   0.290   0.957  17.612 -0.4130 -0.2447  2.5198
  662MPD2    N1 9805   0.496   0.493  17.368 -0.3169 -0.2260  0.4446
  662MPD2    H7 9806   0.451   0.437  17.439 -0.5594 -0.9480 -0.2830
  663TMC3    C1 9807   0.469   0.290  17.257 -0.4995  0.5406 -0.0678
  663TMC3    C2 9808   0.338   0.277  17.231 -0.2383 -0.5320 -0.4039
  663TMC3    C3 9809   0.270   0.171  17.279  0.3011  0.7174  1.5103
  663TMC3    C4 9810   0.538   0.207  17.341 -0.2906 -0.2862 -1.0333
  663TMC3    C5 9811   0.467   0.100  17.396 -0.1871 -0.3136 -0.6914
  663TMC3    C6 9812   0.329   0.092  17.373 -0.1754  0.6544 -0.3536
  663TMC3     C 9813   0.519   0.424  17.252  0.0330  0.9448 -0.2652
  663TMC3     O 9814   0.525   0.467  17.140  0.0645  0.3559 -0.5770
  663TMC3     H 9815   0.290   0.365  17.191  1.7544 -0.5141 -2.7166
  663TMC3    H1 9816   0.645   0.216  17.357 -0.0803 -2.9065 -1.0454
  663TMC3    H2 9817   0.272   0.000  17.383 -0.7753  1.1963  1.1114
  663TMC3    C7 9818   0.533   4.697  17.380  0.6413 -0.2569 -0.1590
  663TMC3    C8 9819   0.127   0.196  17.300 -0.4089 -0.6073 -0.6757
  663TMC3    O1 9820   0.645   4.709  17.338 -0.3461  0.1329 -0.0733
  663TMC3    O2 9821   0.082   0.272  17.220  0.1857 -0.0119  0.2259
  664MPD2     C 9822   3.331   3.614  17.273 -0.2333  0.9412  0.1680
  664MPD2    C1 9823   3.433   3.690  17.341 -0.4143 -0.3781 -0.0656
  664MPD2    C2 9824   3.444   3.664  17.478  0.2008  0.2877  0.1237
  664MPD2    C3 9825   3.354   3.576  17.540 -0.0751  0.3717  0.2627
  664MPD2    C4 9826   3.254   3.509  17.472 -0.4931  0.8832  0.1882
  664MPD2    C5 9827   3.247   3.524  17.337 -0.3927 -0.8520 -0.6585
  664MPD2     H 9828   3.515   3.718  17.539  0.9837  1.3908 -1.7330
  664MPD2    H1 9829   3.192   3.441  17.529 -0.2082  0.7602  0.3547
  664MPD2    H2 9830   3.324   3.623  17.165 -1.2766 -3.5394 -0.1221
  664MPD2    H3 9831   3.173   3.471  17.277  0.6028 -1.4357 -1.3799
  664MPD2     N 9832   3.365   3.569  17.682  0.8122  0.1570 -0.2933
  664MPD2    H5 9833   3.442   3.625   0.016  0.1876 -0.3829  2.0578
  664MPD2    N1 9834   3.524   3.781  17.279  0.2648  0.3182  0.0833
  664MPD2    H7 9835   3.592   3.831  17.336 -0.9018  1.9289  0.0645
  665TMC3    C1 9836   3.358   3.503   0.208 -0.4867 -0.1135 -0.5179
  665TMC3    C2 9837   3.371   3.396   0.295 -0.7606  0.0874  0.0958
  665TMC3    C3 9838   3.417   3.434   0.419  0.5103  0.4745  0.4013
  665TMC3    C4 9839   3.389   3.632   0.237  0.2274 -0.1264  0.1073
  665TMC3    C5 9840   3.438   3.662   0.362 -0.3942  0.7488 -0.4150
  665TMC3    C6 9841   3.445   3.567   0.454  0.3471 -0.4380 -0.1061
  665TMC3     C 9842   3.309   3.482   0.071 -0.3707  0.2293  0.4419
  665TMC3     O 9843   3.235   3.387   0.050  0.8657  0.4172 -0.6421
  665TMC3     H 9844   3.342   3.299   0.259  0.0401 -0.6274  1.3733
  665TMC3    H1 9845   3.355   3.714   0.175 -0.1342 -0.3694 -0.0133
  665TMC3    H2 9846   3.474   3.589   0.556  2.0865  1.6495 -1.0644
  665TMC3    C7 9847   3.412   3.800   0.402 -0.4443 -0.5144 -0.0010
  665TMC3    C8 9848   3.383   3.341   0.522  0.3634 -0.4104 -0.1548
  665TMC3    O1 9849   3.361   3.878   0.325 -0.2909  0.5562  0.4418
  665TMC3    O2 9850   3.449   3.349   0.623 -0.2500  0.2106  0.1880
  666TMC3    C1 9851   0.952   4.264  10.262 -0.0777 -0.0569 -0.0973
  666TMC3    C2 9852   0.908   4.185  10.164  0.0957 -0.6313  0.5359
  666TMC3    C3 9853   0.934   4.205  10.035 -0.5296  0.1921  0.1975
  666TMC3    C4 9854   1.024   4.372  10.228  0.4118 -0.7783  0.7122
  666TMC3    C5 9855   1.041   4.397  10.099 -0.9077  0.7023 -0.0707
  666TMC3    C6 9856   0.989   4.323   9.998 -0.2841 -0.1251 -0.0362
  666TMC3     C 9857   1.006   4.199  10.380 -0.7196  0.1005 -0.7732
  666TMC3     O 9858   1.052   4.266  10.465 -0.2523  0.5512  0.3159
  666TMC3     H 9859   0.839   4.104  10.187 -1.6049  0.5091 -0.5962
  666TMC3    H1 9860   1.060   4.440  10.305 -1.0372 -0.7604  1.3853
  666TMC3    H2 9861   1.005   4.354   9.895 -1.7342 -2.3119 -0.9350
  666TMC3    C7 9862   1.154   4.494  10.068  0.5062  0.4889 -0.9275
  666TMC3    C8 9863   0.981   4.081   9.967  0.2378  0.3188  0.1483
  666TMC3    O1 9864   1.233   4.509  10.160  0.0249 -0.5905 -0.4307
  666TMC3    O2 9865   1.021   3.991  10.042 -0.8501  0.4382  0.0763
  667MPD2     C 9866   3.722   3.454  14.361 -0.2627  0.1220  0.2768
  667MPD2    C1 9867   3.631   3.507  14.452  0.1488 -0.0735 -0.5870
  667MPD2    C2 9868   3.517   3.556  14.403 -0.6415  0.4258 -0.6539
  667MPD2    C3 9869   3.465   3.515  14.275  0.2104 -0.5194 -0.1890
  667MPD2    C4 9870   3.551   3.441  14.195  0.4812  0.0557  0.3615
  667MPD2    C5 9871   3.679   3.415  14.236 -0.8560 -0.2673  0.2309
  667MPD2     H 9872   3.462   3.621  14.470 -0.5745 -1.3942  1.1454
  667MPD2    H1 9873   3.525   3.391  14.103 -0.3565 -0.5796  0.9437
  667MPD2    H2 9874   3.822   3.430  14.395 -0.3961 -0.3079  0.3582
  667MPD2    H3 9875   3.742   3.360  14.166 -2.9743 -2.5987  0.1738
  667MPD2     N 9876   3.340   3.565  14.224  0.3476  0.3637  0.2835
  667MPD2    H5 9877   3.299   3.523  14.141 -1.6066 -0.9089  1.9079
  667MPD2    N1 9878   3.662   3.540  14.588  0.2514  0.0063 -0.6339
  667MPD2    H7 9879   3.587   3.563  14.653 -0.2572 -0.7261 -0.9659
  668TMC3    C1 9880   3.793   3.552  14.788  0.0703  0.2056  0.1625
  668TMC3    C2 9881   3.916   3.600  14.835  0.8146 -0.0636 -0.3960
  668TMC3    C3 9882   3.930   3.585  14.971 -0.1200 -0.1836  0.0794
  668TMC3    C4 9883   3.704   3.485  14.865  0.4651 -0.2538 -0.4877
  668TMC3    C5 9884   3.722   3.484  14.997  0.6867 -0.4497  0.0594
  668TMC3    C6 9885   3.833   3.535  15.048  0.0551 -0.0459  0.2411
  668TMC3     C 9886   3.790   3.529  14.648  0.2840  0.4941  0.3924
  668TMC3     O 9887   3.899   3.508  14.595 -1.2414  0.2641 -0.2341
  668TMC3     H 9888   4.001   3.615  14.770  1.4124 -1.1293  0.1331
  668TMC3    H1 9889   3.607   3.455  14.826  0.3158 -1.2479  0.6334
  668TMC3    H2 9890   3.839   3.529  15.156 -1.0690  0.9662  0.3640
  668TMC3    C7 9891   3.618   3.420  15.075  0.4637  0.1811  0.8717
  668TMC3    C8 9892   4.048   3.631  15.040  0.7712  0.6767  0.7960
  668TMC3    O1 9893   3.510   3.398  15.016 -0.6050 -0.4324  0.1320
  668TMC3    O2 9894   4.082   3.574  15.146 -0.2906  0.1422 -0.0218
  669TMC3    C1 9895   2.149   3.827  14.330  0.2875 -0.0302  0.8276
  669TMC3    C2 9896   2.050   3.822  14.240 -0.8479 -0.1481 -0.1439
  669TMC3    C3 9897   2.075   3.891  14.122  0.4529 -0.1840  1.0947
  669TMC3    C4 9898   2.275   3.872  14.305 -0.3070 -0.8663  0.0537
  669TMC3    C5 9899   2.293   3.937  14.189  0.8562 -0.7102  0.1841
  669TMC3    C6 9900   2.192   3.948  14.091  0.6093 -0.3267 -0.4632
  669TMC3     C 9901   2.125   3.770  14.456 -0.5999  0.2548 -0.1145
  669TMC3     O 9902   2.009   3.734  14.478  0.4493  0.3908  0.3846
  669TMC3     H 9903   1.955   3.772  14.254 -2.3558  3.5015  2.7313
  669TMC3    H1 9904   2.349   3.892  14.381  0.2550  0.1006 -0.7429
  669TMC3    H2 9905   2.199   3.998  13.995  0.9660  0.0457 -0.2417
  669TMC3    C7 9906   2.409   4.021  14.180  0.6476 -0.0277 -0.0565
  669TMC3    C8 9907   1.960   3.909  14.035  0.4371 -0.6257  0.0613
  669TMC3    O1 9908   2.474   4.046  14.279  0.4675 -0.4680  0.0253
  669TMC3    O2 9909   1.875   3.823  14.043  0.7233 -0.0665 -0.3420
  670MPD2     C 9910   0.171   1.652  13.679 -0.2129  0.0769  0.3723
  670MPD2    C1 9911   0.266   1.624  13.770  0.1117  0.1397 -0.4315
  670MPD2    C2 9912   0.222   1.576  13.887 -0.1246 -0.4591  0.0430
  670MPD2    C3 9913   0.096   1.552  13.927 -0.1816  0.6084 -0.8590
  670MPD2    C4 9914   0.001   1.589  13.835 -0.1366 -0.1314 -0.4205
  670MPD2    C5 9915   0.039   1.646  13.716 -0.0842 -0.0608 -0.3540
  670MPD2     H 9916   0.292   1.553  13.966  2.2486 -1.9151 -2.4859
  670MPD2    H1 9917   4.618   1.588  13.851 -0.1958  4.1458 -0.6654
  670MPD2    H2 9918   0.186   1.694  13.580 -1.3761 -0.4691 -0.0432
  670MPD2    H3 9919   4.688   1.675  13.644 -0.3517 -0.5815 -0.2856
  670MPD2     N 9920   0.071   1.503  14.060 -0.2501  0.0511  0.5407
  670MPD2    H5 9921   0.151   1.517  14.120 -0.1645  1.5298  0.0660
  670MPD2    N1 9922   0.405   1.637  13.757 -0.8083  0.2414  0.5532
  670MPD2    H7 9923   0.462   1.652  13.840 -2.1450 -1.6555  1.8123
  671TMC3    C1 9924   4.685   1.403  14.254  0.0328 -0.0911 -0.2493
  671TMC3    C2 9925   0.083   1.380  14.310  0.3653 -0.0299 -0.5511
  671TMC3    C3 9926   0.088   1.276  14.394 -0.3076  0.6902  0.4951
  671TMC3    C4 9927   4.576   1.323  14.279  0.2679  0.5146  0.4139
  671TMC3    C5 9928   4.603   1.203  14.346  0.4612 -0.1333  0.4116
  671TMC3    C6 9929   4.714   1.177  14.405 -0.9128  0.1754 -0.3890
  671TMC3     C 9930   4.675   1.470  14.119  0.0871  0.4029 -0.1238
  671TMC3     O 9931   4.569   1.468  14.060  0.3936 -0.1747  0.1491
  671TMC3     H 9932   0.161   1.454  14.312 -1.4037  1.8580 -1.0063
  671TMC3    H1 9933   4.485   1.339  14.222  0.9063 -1.0187 -1.0280
  671TMC3    H2 9934   0.007   1.083  14.457 -1.7501 -0.0011 -0.4169
  671TMC3    C7 9935   4.569   1.099  14.246 -0.5717 -0.0802 -0.0272
  671TMC3    C8 9936   0.197   1.256  14.475  0.3611  0.3786  0.2420
  671TMC3    O1 9937   4.668   1.045  14.202  0.6174 -0.1081 -0.0668
  671TMC3    O2 9938   0.184   1.229  14.591  0.3360  0.2842  0.4014
  672MPD2     C 9939   0.145   2.202   1.561  0.6011 -0.0979  0.3545
  672MPD2    C1 9940   0.220   2.094   1.513  0.0475  0.4313 -0.4785
  672MPD2    C2 9941   0.361   2.095   1.513  0.0173  0.9514 -0.0263
  672MPD2    C3 9942   0.426   2.214   1.546  0.5790 -0.3995  0.2910
  672MPD2    C4 9943   0.354   2.321   1.591  0.3312 -0.2974  0.5945
  672MPD2    C5 9944   0.215   2.313   1.596 -0.5022  0.0188 -0.1099
  672MPD2     H 9945   0.421   2.014   1.471  2.1135  2.0954  0.7865
  672MPD2    H1 9946   0.393   2.415   1.630 -0.3507 -1.0833  3.1864
  672MPD2    H2 9947   0.037   2.196   1.572  0.6528 -1.4486  0.1329
  672MPD2    H3 9948   0.162   2.401   1.629  1.4449  1.3045 -0.4354
  672MPD2     N 9949   0.568   2.233   1.517 -0.7285  0.6951 -0.4670
  672MPD2    H5 9950   0.601   2.325   1.544  1.2442 -0.1773  0.0733
  672MPD2    N1 9951   0.161   1.980   1.457 -0.6714 -0.8916 -0.0098
  672MPD2    H7 9952   0.225   1.910   1.421  0.5539 -0.1578  0.7273
  673TMC3    C1 9953   4.712   1.840   1.373  0.1064  0.0121 -0.3615
  673TMC3    C2 9954   0.034   1.722   1.422 -0.2122  0.2346 -0.0050
  673TMC3    C3 9955   0.023   1.608   1.343 -0.4920  0.2189 -0.0656
  673TMC3    C4 9956   4.678   1.853   1.239 -0.4250  0.2879 -0.2791
  673TMC3    C5 9957   4.685   1.737   1.160  0.3473 -0.2394 -1.1871
  673TMC3    C6 9958   4.710   1.613   1.216 -0.1965  0.0135 -0.2411
  673TMC3     C 9959   0.026   1.968   1.433  0.2655 -0.1629 -0.6775
  673TMC3     O 9960   4.665   2.050   1.431 -0.2965  0.0557 -0.2926
  673TMC3     H 9961   0.052   1.710   1.528  1.1183  2.6648  0.0415
  673TMC3    H1 9962   4.651   1.949   1.197  1.3263 -0.0536 -2.1711
  673TMC3    H2 9963   4.716   1.521   1.158 -0.1299 -0.5206  0.6086
  673TMC3    C7 9964   0.027   1.754   1.032  0.9652  0.3245  0.2536
  673TMC3    C8 9965   0.060   1.477   1.388  0.1090 -1.1445  0.0567
  673TMC3    O1 9966   0.094   1.661   0.990 -0.4461 -0.1522  0.2993
  673TMC3    O2 9967   4.711   1.386   1.352  0.2691  0.1737  0.2103
  674MPD2     C 9968   0.510   1.152  17.682 -1.4111 -0.4645 -0.2541
  674MPD2    C1 9969   0.479   1.107   0.113 -0.1390  0.2392  0.1086
  674MPD2    C2 9970   0.424   1.196   0.207  0.1586  0.6425 -0.1371
  674MPD2    C3 9971   0.382   1.321   0.154 -0.0568 -0.3973  0.1467
  674MPD2    C4 9972   0.386   1.352   0.020 -0.8144 -0.2482 -0.1234
  674MPD2    C5 9973   0.457   1.270  17.642 -0.7040 -0.0246  0.0955
  674MPD2     H 9974   0.426   1.178   0.314 -2.4633  1.2310  0.0175
  674MPD2    H1 9975   0.346   1.446  17.681  1.2028  0.2722 -0.9229
  674MPD2    H2 9976   0.561   1.090  17.608 -1.1365 -1.2044  0.5562
  674MPD2    H3 9977   0.461   1.288  17.536  0.0793  0.7939  0.2685
  674MPD2     N 9978   0.337   1.410   0.257 -0.0788  0.3265  0.1344
  674MPD2    H5 9979   0.347   1.380   0.354 -2.0119 -2.3286 -0.4791
  674MPD2    N1 9980   0.516   0.974   0.155  0.5614 -0.7820  0.1894
  674MPD2    H7 9981   0.580   0.931   0.089  2.0622  2.2333 -0.3431
  675TMC3    C1 9982   0.546   0.797   0.314  0.1729  0.2579  0.2804
  675TMC3    C2 9983   0.548   0.695   0.218 -0.0531  0.4410  0.4002
  675TMC3    C3 9984   0.553   0.571   0.269 -0.2273  0.6403  0.3688
  675TMC3    C4 9985   0.556   0.775   0.446 -0.1830  0.0639  0.2902
  675TMC3    C5 9986   0.579   0.645   0.490  0.0524  0.2470  0.5861
  675TMC3    C6 9987   0.573   0.541   0.402 -0.1943 -0.0712 -0.5492
  675TMC3     C 9988   0.473   0.920   0.278  0.4258  0.0547 -0.0735
  675TMC3     O 9989   0.381   0.947   0.352 -0.3360  0.2768 -0.4596
  675TMC3     H 9990   0.515   0.714   0.116 -0.3555 -0.9160  0.2466
  675TMC3    H1 9991   0.550   0.863   0.509  0.5039  0.7033 -0.5369
  675TMC3    H2 9992   0.591   0.442   0.443 -1.6527  0.3093  0.9806
  675TMC3    C7 9993   0.545   0.613   0.627 -0.2545  1.0178 -0.1716
  675TMC3    C8 9994   0.549   0.453   0.177 -0.0438  0.6703  0.4664
  675TMC3    O1 9995   0.572   0.500   0.666 -0.1625  0.5430  0.0248
  675TMC3    O2 9996   0.573   0.477   0.059 -0.9822 -0.6583 -0.0528
  676MPD2     C 9997   2.926   0.374  10.770 -0.1616 -0.4173  0.0475
  676MPD2    C1 9998   2.884   0.302  10.887  0.2603 -0.0833 -0.2945
  676MPD2    C2 9999   2.896   0.165  10.893 -0.0704 -0.0022 -0.7963
  676MPD2    C310000   2.934   0.091  10.777 -0.3139 -0.2095  0.6195
  676MPD2    C410001   2.984   0.166  10.675  0.0902 -0.0044 -0.0665
  676MPD2    C510002   2.981   0.300  10.667 -0.0508  0.9697 -0.1535
  676MPD2     H10003   2.852   0.123  10.983 -0.6438  0.5025 -0.8403
  676MPD2    H110004   3.013   0.124  10.579  0.0323  0.5658 -0.3328
  676MPD2    H210005   2.928   0.482  10.759  2.5390 -0.3021  1.6892
  676MPD2    H310006   3.021   0.357  10.583  0.2714  1.4271  0.3122
  676MPD2     N10007   2.916   4.676  10.753 -1.2360 -1.2522  0.2860
  676MPD2    H510008   2.917   4.646  10.656  0.9085  0.7475 -0.3113
  676MPD2    N110009   2.830   0.373  10.997  0.1340  0.4213 -0.5457
  676MPD2    H710010   2.797   0.321  11.078 -0.2065 -0.8059 -1.4909
  677TMC3    C110011   2.700   0.544  11.108 -0.7789  0.1427  0.3231
  677TMC3    C210012   2.662   0.455  11.203 -0.3281 -0.0918  1.0268
  677TMC3    C310013   2.583   0.507  11.304  0.1270 -0.0948  0.0899
  677TMC3    C410014   2.652   0.670  11.109 -0.0180  0.3475  0.2847
  677TMC3    C510015   2.571   0.717  11.211  0.2370 -0.7868  0.7404
  677TMC3    C610016   2.527   0.638  11.312 -0.4039  0.3779 -0.0538
  677TMC3     C10017   2.791   0.504  10.999 -0.6917 -0.1438 -0.4036
  677TMC3     O10018   2.812   0.589  10.914 -0.5938 -0.3572  0.2970
  677TMC3     H10019   2.707   0.359  11.220  2.0572  1.1928  1.9536
  677TMC3    H110020   2.689   0.748  11.044  1.6215 -1.1699 -0.6348
  677TMC3    H210021   2.462   0.665  11.394 -0.1261  3.0277 -0.7249
  677TMC3    C710022   2.611   0.852  11.270 -0.7227  0.5394  0.0302
  677TMC3    C810023   2.568   0.432  11.424  0.6188  0.3185 -0.0423
  677TMC3    O110024   2.535   0.885  11.362  0.2950  0.2261  0.0471
  677TMC3    O210025   2.469   0.447  11.488  0.7153 -0.2058 -0.3364
  678MPD2     C10026   4.219   4.072   1.461 -0.0099 -0.4703  0.2822
  678MPD2    C110027   4.236   4.061   1.323 -0.4680 -0.2061 -0.3429
  678MPD2    C210028   4.128   4.086   1.239  0.2555 -0.1855  1.5052
  678MPD2    C310029   4.013   4.148   1.282  0.1560 -0.1174  0.2499
  678MPD2    C410030   4.002   4.168   1.418 -0.3203 -0.9405  0.2408
  678MPD2    C510031   4.096   4.120   1.504  0.2287  0.4511 -0.3877
  678MPD2     H10032   4.135   4.069   1.133 -1.0980 -0.7962  1.5056
  678MPD2    H110033   3.919   4.227   1.456  0.5499 -0.0189  0.7283
  678MPD2    H210034   4.292   4.032   1.531 -0.7942 -0.9408  0.8388
  678MPD2    H310035   4.097   4.144   1.609  0.4615 -0.0548 -0.2702
  678MPD2     N10036   3.919   4.184   1.187  0.5756  0.0389 -0.6097
  678MPD2    H510037   3.935   4.165   1.089 -2.0116 -0.1663 -0.9938
  678MPD2    N110038   4.353   4.026   1.255  0.4278 -0.0069  0.3517
  678MPD2    H710039   4.353   4.013   1.154 -1.7157  2.8710 -0.0185
  679TMC3    C110040   0.032   3.815   1.159 -0.2428 -0.0278  0.0538
  679TMC3    C210041   4.683   3.873   1.262  0.0331 -0.0464  0.5979
  679TMC3    C310042   4.592   3.977   1.229  0.7562 -0.4925 -0.1475
  679TMC3    C410043   0.020   3.875   1.034  0.3434 -0.1758 -0.2968
  679TMC3    C510044   4.660   3.977   1.007  0.3665 -0.5694 -0.5547
  679TMC3    C610045   4.580   4.020   1.101  0.7974 -0.5897 -0.1112
  679TMC3     C10046   0.150   3.742   1.184 -0.1146 -0.2704 -0.2983
  679TMC3     O10047   0.243   3.750   1.102  0.3590 -0.0246  0.2144
  679TMC3     H10048   4.689   3.839   1.365 -1.4413 -0.1481  0.6489
  679TMC3    H110049   0.070   3.824   0.953 -0.9267  1.3026 -1.9975
  679TMC3    H210050   4.510   4.099   1.076  0.2525 -2.0977 -3.2976
  679TMC3    C710051   4.649   4.042   0.883  0.5899  0.3705 -0.1934
  679TMC3    C810052   4.478   4.002   1.319  0.0402 -0.3673 -0.4413
  679TMC3    O110053   4.560   4.120   0.862  0.3387 -0.1517 -0.0641
  679TMC3    O210054   4.504   3.985   1.438 -0.3424 -0.5091 -0.3166
  680MPD2     C10055   0.353   2.785  13.628 -0.1226 -0.2067  0.1691
  680MPD2    C110056   0.434   2.881  13.569 -0.4812  0.5198 -0.5558
  680MPD2    C210057   0.418   3.009  13.607  0.4019 -0.2688 -0.1055
  680MPD2    C310058   0.325   3.050  13.703 -0.4707  0.9228  0.2179
  680MPD2    C410059   0.230   2.955  13.747 -0.0345 -0.6130 -0.0152
  680MPD2    C510060   0.250   2.829  13.710  0.1771 -0.1748  0.3935
  680MPD2     H10061   0.477   3.085  13.557 -3.3005  2.7186  0.0533
  680MPD2    H110062   0.142   2.978  13.807 -0.3285 -2.9516  0.4307
  680MPD2    H210063   0.370   2.679  13.609 -0.5600 -0.3713  0.6614
  680MPD2    H310064   0.189   2.748  13.749  2.6392 -1.7207  0.9953
  680MPD2     N10065   0.325   3.183  13.754  0.1759  0.3421 -0.0849
  680MPD2    H510066   0.250   3.215  13.815 -0.5246  0.5350 -1.0532
  680MPD2    N110067   0.551   2.838  13.498 -0.0900 -0.1783 -0.1372
  680MPD2    H710068   0.624   2.907  13.492 -1.8171  1.3977 -3.1119
  681TMC3    C110069   0.715   2.680  13.451 -0.1257  0.5236  0.5401
  681TMC3    C210070   0.761   2.600  13.553  0.4297  0.6239  0.1935
  681TMC3    C310071   0.842   2.646  13.649  0.4894  0.3551  0.2073
  681TMC3    C410072   0.776   2.807  13.441  0.4678 -0.3023  0.3844
  681TMC3    C510073   0.869   2.850  13.529 -0.1158 -0.5432  0.1312
  681TMC3    C610074   0.902   2.774  13.638 -0.3898 -0.3455  0.5158
  681TMC3     C10075   0.576   2.706  13.460  0.1326 -0.2912 -0.5105
  681TMC3     O10076   0.496   2.622  13.431  0.1316 -0.3258  0.0598
  681TMC3     H10077   0.701   2.512  13.573 -0.7326  1.3644 -0.0298
  681TMC3    H110078   0.746   2.869  13.358 -2.1384 -0.5018  1.1877
  681TMC3    H210079   0.966   2.806  13.719 -0.1501 -0.1841  0.2610
  681TMC3    C710080   0.976   2.934  13.493  0.0650 -0.4046 -0.4027
  681TMC3    C810081   0.771   2.630  13.773 -0.2313 -0.5332  0.2856
  681TMC3    O110082   1.067   2.934  13.575  0.5360  0.7864 -0.4131
  681TMC3    O210083   0.752   2.515  13.807  0.4140  0.6590  0.0052
  682MPD2     C10084   2.023   0.385  10.595 -0.0330  0.5986 -0.4506
  682MPD2    C110085   2.004   0.249  10.601 -0.6931 -0.0728 -0.1486
  682MPD2    C210086   1.985   0.188  10.720 -0.1143  0.4915  0.5855
  682MPD2    C310087   1.974   0.254  10.845 -0.0417  0.9335  0.1178
  682MPD2    C410088   1.995   0.390  10.838 -1.1800  0.6953 -0.3107
  682MPD2    C510089   2.017   0.451  10.719  0.6868  0.2581  0.2838
  682MPD2     H10090   1.969   0.081  10.717  1.0498  0.3163  0.8338
  682MPD2    H110091   2.012   0.446  10.929  0.7922  1.5462 -1.2121
  682MPD2    H210092   2.053   0.434  10.503  1.4027 -0.3989 -0.5019
  682MPD2    H310093   2.029   0.559  10.723 -0.4347  0.4208 -0.5173
  682MPD2     N10094   1.941   0.187  10.965  0.1622  0.1313 -0.4435
  682MPD2    H510095   1.908   0.248  11.038  0.6073 -1.8671  1.4299
  682MPD2    N110096   1.989   0.162  10.488 -1.1353  0.1157  0.3052
  682MPD2    H710097   1.971   0.062  10.499 -1.0171 -0.0354 -0.8850
  683TMC3    C110098   1.911   0.002  11.339  0.3799  0.1082 -0.0420
  683TMC3    C210099   1.842   4.608  11.343 -0.3744  0.5894  0.0535
  683TMC3    C310100   1.783   4.564  11.227  0.6581  0.1222 -0.3493
  683TMC3    C410101   1.940   0.070  11.226  0.0124  0.5604  0.1316
  683TMC3    C510102   1.896   0.010  11.108 -0.5771 -0.4698  0.3976
  683TMC3    C610103   1.811   4.620  11.106  0.2602  0.1447 -0.1258
  683TMC3     C10104   1.928   0.069  11.463  0.2311  0.2356  0.2677
  683TMC3     O10105   1.939   4.722  11.565 -0.0573 -0.1145  0.1964
  683TMC3     H10106   1.803   4.575  11.439  1.3299  1.5398  1.0736
  683TMC3    H110107   2.013   0.148  11.211  0.7777  0.4034  2.9930
  683TMC3    H210108   1.796   4.552  11.024 -0.7521  0.9373 -0.5947
  683TMC3    C710109   1.945   0.050  10.985  0.5384  0.0291  0.5118
  683TMC3    C810110   1.674   4.465  11.231  0.1529  0.2157 -0.3105
  683TMC3    O110111   1.973   4.682  10.909  0.0809  0.1694 -0.4500
  683TMC3    O210112   1.603   4.462  11.131 -0.0450  0.4890 -0.1031
  684MPD2     C10113   0.279   4.015  16.713 -0.6580  0.7847  0.1224
  684MPD2    C110114   0.312   4.008  16.578  0.4355 -0.7277 -0.2808
  684MPD2    C210115   0.307   4.128  16.511  0.6077  0.3803 -0.8858
  684MPD2    C310116   0.293   4.252  16.575  0.1379 -0.0457  0.6594
  684MPD2    C410117   0.266   4.251  16.710  0.1535  0.4051  0.1416
  684MPD2    C510118   0.249   4.131  16.770  0.1357 -0.4110  0.0608
  684MPD2     H10119   0.301   4.114  16.404  0.5960  1.9189 -1.0846
  684MPD2    H110120   0.245   4.340  16.769  1.1074 -0.5392  1.8996
  684MPD2    H210121   0.266   3.923  16.768  3.2307  0.8422  1.1768
  684MPD2    H310122   0.234   4.135  16.877  0.4430 -0.2647  0.0979
  684MPD2     N10123   0.311   4.375  16.502  0.3864 -0.5331 -0.2150
  684MPD2    H510124   0.332   4.458  16.556  1.2185 -2.1111  1.9032
  684MPD2    N110125   0.324   3.899  16.501  0.5936  0.0495  0.5151
  684MPD2    H710126   0.350   3.915  16.405 -2.3341  0.3368 -0.2337
  685TMC3    C110127   0.372   3.679  16.435  0.2198  0.9521  0.6882
  685TMC3    C210128   0.339   3.715  16.310  0.0791 -0.3522  0.1355
  685TMC3    C310129   0.409   3.650  16.211  0.0672 -0.5938  0.6041
  685TMC3    C410130   0.463   3.575  16.467 -0.0400  0.2910 -0.1783
  685TMC3    C510131   0.543   3.528  16.361 -0.3077 -0.3937 -0.6145
  685TMC3    C610132   0.513   3.563  16.235 -0.4037 -0.0911  0.3884
  685TMC3     C10133   0.347   3.773  16.547  0.0286  0.5838 -0.1150
  685TMC3     O10134   0.361   3.734  16.664  0.3615  0.0947 -0.4530
  685TMC3     H10135   0.261   3.791  16.307 -0.3443 -0.7391  1.6245
  685TMC3    H110136   0.488   3.555  16.570  0.5106 -0.9150 -0.5475
  685TMC3    H210137   0.571   3.528  16.150  0.4458 -2.9600  2.1369
  685TMC3    C710138   0.678   3.489  16.390 -0.7336  0.0028  0.5027
  685TMC3    C810139   0.383   3.681  16.072  0.1656  0.2488 -0.7583
  685TMC3    O110140   0.708   3.508  16.508 -0.4907  0.0709  0.6694
  685TMC3    O210141   0.438   3.614  15.987 -0.6266 -0.0758  0.4284
  686MPD2     C10142   2.067   3.981  15.757  0.4955  0.1270 -0.2307
  686MPD2    C110143   2.080   3.857  15.820  0.3199  0.5641 -0.3252
  686MPD2    C210144   2.170   3.770  15.764  0.0337  0.1688  0.5294
  686MPD2    C310145   2.242   3.800  15.653  0.0522 -0.3901  0.9364
  686MPD2    C410146   2.228   3.925  15.596 -0.6024 -0.0190  0.0477
  686MPD2    C510147   2.144   4.016  15.652  0.1063  0.0930 -0.4243
  686MPD2     H10148   2.193   3.679  15.818 -0.0777  0.5176  1.1767
  686MPD2    H110149   2.283   3.948  15.505 -0.8313 -2.1681 -0.6319
  686MPD2    H210150   2.005   4.059  15.799  0.5978 -0.8079  1.6493
  686MPD2    H310151   2.135   4.114  15.607  0.8974  0.6354  0.5985
  686MPD2     N10152   2.341   3.716  15.602  0.8485  0.0470 -0.6421
  686MPD2    H510153   2.396   3.753  15.525  1.4437  2.0561  0.7502
  686MPD2    N110154   2.001   3.835  15.937 -0.0197 -0.5061 -0.3540
  686MPD2    H710155   1.936   3.910  15.957  1.0246  0.7399 -1.5380
  687TMC3    C110156   2.275   3.503  15.691 -0.4116 -0.0100  0.0744
  687TMC3    C210157   2.150   3.502  15.636 -0.2588 -0.1580  1.5815
  687TMC3    C310158   2.053   3.414  15.684 -0.7276  0.2305 -0.0289
  687TMC3    C410159   2.306   3.408  15.786 -0.0558 -0.2410 -0.4651
  687TMC3    C510160   2.215   3.313  15.819  0.0253 -0.3075 -0.3209
  687TMC3    C610161   2.090   3.303  15.763 -0.3838 -1.1823 -0.6113
  687TMC3     C10162   2.375   3.592  15.646 -0.3363 -0.3137 -0.4404
  687TMC3     O10163   2.485   3.543  15.641 -0.1252 -0.1044  0.1186
  687TMC3     H10164   2.137   3.578  15.560  0.4184 -1.8588 -0.2352
  687TMC3    H110165   2.409   3.394  15.816  0.4628  0.5153 -1.8932
  687TMC3    H210166   2.017   3.236  15.807 -2.7523  1.6398 -0.2611
  687TMC3    C710167   2.207   3.264  15.956  0.1138 -0.0606 -0.4205
  687TMC3    C810168   1.928   3.481  15.718  0.5155 -0.2635 -0.4332
  687TMC3    O110169   2.110   3.201  16.002  0.0083 -0.1903  0.5621
  687TMC3    O210170   1.857   3.410  15.790 -0.1546  0.0916 -0.7356
  688MPD2     C10171   0.968   2.648  17.540  0.4586  0.3363 -0.1922
  688MPD2    C110172   0.986   2.523  17.600  0.9969  0.0448 -0.3630
  688MPD2    C210173   1.101   2.442  17.582  0.2679 -0.0640 -0.4224
  688MPD2    C310174   1.198   2.497  17.496  0.1018 -0.1963 -0.2225
  688MPD2    C410175   1.185   2.626  17.444 -0.0877  0.4102  0.2235
  688MPD2    C510176   1.072   2.702  17.464  0.0937 -0.2842  0.1113
  688MPD2     H10177   1.096   2.340  17.618 -0.1747 -0.2184 -0.9133
  688MPD2    H110178   1.266   2.669  17.387  0.9566 -2.1184 -0.1904
  688MPD2    H210179   0.876   2.706  17.531 -0.5560 -1.3491 -0.7121
  688MPD2    H310180   1.052   2.795  17.413 -0.0143 -0.7710 -0.7227
  688MPD2     N10181   1.312   2.430  17.452 -0.7309 -0.4930 -0.5406
  688MPD2    H510182   1.359   2.482  17.378  0.5006 -1.9814 -0.8100
  688MPD2    N110183   0.885   2.466  17.678  0.1228 -0.1120  0.1348
  688MPD2    H710184   0.906   2.380   0.030  1.0538 -0.2065 -0.4088
  689TMC3    C110185   0.694   2.451   0.110 -0.7235  0.0346  0.1907
  689TMC3    C210186   0.640   2.528   0.210  0.1253  0.1913 -0.3601
  689TMC3    C310187   0.560   2.465   0.302  0.2397  0.4483  0.3976
  689TMC3    C410188   0.659   2.320   0.092  0.3419 -0.2619 -0.3784
  689TMC3    C510189   0.570   2.266   0.187 -0.6118  0.4476  1.2765
  689TMC3    C610190   0.533   2.329   0.304 -0.4594 -0.1210 -0.1394
  689TMC3     C10191   0.770   2.525   0.011  0.3983  0.0533  0.0829
  689TMC3     O10192   0.740   2.640  17.698 -0.4557  0.3055 -0.1802
  689TMC3     H10193   0.672   2.631   0.224 -1.7194  0.9257 -1.4644
  689TMC3    H110194   0.708   2.260   0.015 -1.1896 -0.1164 -1.4571
  689TMC3    H210195   0.471   2.283   0.379 -0.8082 -0.5527 -0.6898
  689TMC3    C710196   0.546   2.126   0.175 -0.3491  0.1008  0.1631
  689TMC3    C810197   0.477   2.547   0.392  0.8367  0.3335  0.2915
  689TMC3    O110198   0.541   2.075   0.284  0.2085 -0.9186 -0.4072
  689TMC3    O210199   0.438   2.499   0.495  0.2004  0.2393  0.2682
  690MPD2     C10200   3.408   4.563  15.610 -0.4421  0.1580 -0.2054
  690MPD2    C110201   3.373   4.513  15.486  0.6148  0.8612  0.0775
  690MPD2    C210202   3.457   4.551  15.379 -0.2830 -0.0748  0.8836
  690MPD2    C310203   3.577   4.633  15.410  0.0843 -0.5366 -0.0656
  690MPD2    C410204   3.610   4.658  15.539 -0.5619 -0.4822 -0.0290
  690MPD2    C510205   3.516   4.642  15.638  0.5942 -0.7509 -0.0672
  690MPD2     H10206   3.442   4.511  15.279  0.9593  0.4614  0.4777
  690MPD2    H110207   3.701   4.713  15.559 -0.9935 -0.3606  1.6292
  690MPD2    H210208   3.342   4.542  15.694 -0.2248 -1.4817 -0.4532
  690MPD2    H310209   3.530   4.687  15.735 -0.1142  2.2915 -1.3728
  690MPD2     N10210   3.654   4.669  15.294 -0.1416 -0.3097  0.6579
  690MPD2    H510211   3.615   4.636  15.207  0.8762 -1.1565  0.5182
  690MPD2    N110212   3.279   4.411  15.462 -0.0169 -0.5131 -0.1738
  690MPD2    H710213   3.273   4.368  15.371 -1.3288 -1.7380  0.5125
  691TMC3    C110214   3.107   4.251  15.504  0.2654  0.0147 -0.7821
  691TMC3    C210215   2.975   4.253  15.540 -0.0930 -0.5956 -0.6510
  691TMC3    C310216   2.897   4.160  15.481  0.5820 -0.5406  0.2918
  691TMC3    C410217   3.168   4.155  15.434  0.8285 -0.4563 -0.1201
  691TMC3    C510218   3.090   4.062  15.382 -0.3742  0.8026 -0.1725
  691TMC3    C610219   2.954   4.069  15.392 -0.0618 -0.0170 -0.5494
  691TMC3     C10220   3.188   4.363  15.555  0.0099  0.1602  0.0211
  691TMC3     O10221   3.170   4.418  15.659 -0.1420  0.5298 -0.5600
  691TMC3     H10222   2.942   4.327  15.612 -1.7873 -1.8804 -0.1212
  691TMC3    H110223   3.274   4.161  15.411  0.8013  0.0475 -0.1123
  691TMC3    H210224   2.893   3.993  15.345 -0.9212 -0.0507  0.6316
  691TMC3    C710225   3.152   3.935  15.396 -0.1721  0.3846 -0.1691
  691TMC3    C810226   2.791   4.101  15.567 -0.4080 -0.3580 -0.8424
  691TMC3    O110227   3.272   3.937  15.409 -0.0753 -0.0891 -0.1012
  691TMC3    O210228   2.776   3.983  15.569  0.0687  0.0938  0.3231
  692TMC3    C110229   0.171   0.863  15.665  0.2532 -1.0922  0.1117
  692TMC3    C210230   0.280   0.879  15.747  0.8060 -0.3167  0.6075
  692TMC3    C310231   0.349   0.778  15.799 -0.3775 -0.5175  0.0296
  692TMC3    C410232   0.129   0.739  15.627 -0.1629  0.3283  0.5209
  692TMC3    C510233   0.194   0.631  15.687 -0.4696  0.1332 -0.2242
  692TMC3    C610234   0.299   0.653  15.777 -0.5202 -0.1923  0.2201
  692TMC3     C10235   0.072   0.962  15.680 -0.1310  0.1069  0.2926
  692TMC3     O10236   4.681   0.931  15.645 -0.6990 -0.0644  0.1792
  692TMC3     H10237   0.345   0.965  15.732  1.7936 -1.4185 -1.4742
  692TMC3    H110238   0.053   0.721  15.552 -0.1680  0.6884  0.4392
  692TMC3    H210239   0.347   0.570  15.828 -1.0314 -1.7332 -1.8377
  692TMC3    C710240   0.156   0.491  15.646  0.0512 -0.2354  0.0670
  692TMC3    C810241   0.388   0.807  15.941 -0.3828 -0.0268  0.4313
  692TMC3    O110242   0.079   0.476  15.550 -0.0513  0.3603  0.5770
  692TMC3    O210243   0.438   0.724  16.013  0.7091  0.4764 -0.3104
  693MPD2     C10244   3.922   3.747  10.149 -0.8178  0.0608  0.3270
  693MPD2    C110245   3.899   3.626  10.210  0.1858 -0.1318 -0.4639
  693MPD2    C210246   4.005   3.535  10.231 -0.5553 -0.9540 -0.4613
  693MPD2    C310247   4.135   3.571  10.204 -0.1705 -0.5363 -0.4507
  693MPD2    C410248   4.156   3.704  10.161  0.3194 -0.3380 -0.0570
  693MPD2    C510249   4.053   3.788  10.133 -0.1691 -1.3841 -0.3061
  693MPD2     H10250   3.981   3.435  10.265  0.4466 -1.0062  0.0826
  693MPD2    H110251   4.260   3.729  10.142  0.8422 -2.7080 -0.3017
  693MPD2    H210252   3.839   3.814  10.131 -0.5880 -0.2200 -1.8310
  693MPD2    H310253   4.080   3.884  10.092 -2.2326 -1.1082 -1.0289
  693MPD2     N10254   4.253   3.496  10.233  0.2257 -0.0447 -0.0469
  693MPD2    H510255   4.338   3.551  10.228  0.9728 -1.1540  0.6498
  693MPD2    N110256   3.763   3.605  10.256 -0.6849 -0.2198 -0.1406
  693MPD2    H710257   3.712   3.690  10.277 -0.4289  0.2879 -1.6248
  694TMC3    C110258   3.579   3.505  10.356  0.2046  0.5761 -0.1805
  694TMC3    C210259   3.488   3.408  10.345 -0.1144 -0.2983  0.3471
  694TMC3    C310260   3.371   3.425  10.410  0.5003  0.1425  0.1627
  694TMC3    C410261   3.568   3.614  10.437 -0.4953 -0.0962 -0.0320
  694TMC3    C510262   3.453   3.624  10.499 -0.1495 -0.6835  0.6246
  694TMC3    C610263   3.354   3.531  10.492  0.2868 -0.2325 -0.0729
  694TMC3     C10264   3.711   3.483  10.296  0.3925 -0.0684  0.1786
  694TMC3     O10265   3.765   3.373  10.300  0.2477  0.0863  0.4284
  694TMC3     H10266   3.518   3.323  10.285  2.1433  0.8876 -0.1780
  694TMC3    H110267   3.654   3.676  10.458  0.8938 -0.9999 -3.1646
  694TMC3    H210268   3.258   3.547  10.541  0.8561  1.5121  0.4827
  694TMC3    C710269   3.463   3.703  10.620 -0.4718  0.8217 -0.0251
  694TMC3    C810270   3.251   3.347  10.380  0.2242  0.1112  0.2385
  694TMC3    O110271   3.528   3.804  10.627  0.0963  0.4524  0.7078
  694TMC3    O210272   3.169   3.344  10.471  0.1938  0.1466  0.1164
  695MPD2     C10273   0.735   0.922  13.490 -0.0162 -0.1924 -0.4742
  695MPD2    C110274   0.672   0.907  13.610  0.5109 -0.4909  0.1824
  695MPD2    C210275   0.533   0.920  13.610 -0.8835  0.9520  0.1952
  695MPD2    C310276   0.452   0.942  13.497  0.1824  0.1280 -0.4323
  695MPD2    C410277   0.520   0.947  13.377  0.1421  0.3154  0.3507
  695MPD2    C510278   0.659   0.942  13.381 -0.1668  0.1077 -0.0572
  695MPD2     H10279   0.480   0.906  13.703 -4.0379  0.2045 -1.7140
  695MPD2    H110280   0.466   0.950  13.283 -0.6242 -3.2698  0.7076
  695MPD2    H210281   0.842   0.929  13.479 -0.0971 -2.4778 -2.7259
  695MPD2    H310282   0.709   0.949  13.285 -0.9017  1.4907 -0.3431
  695MPD2     N10283   0.312   0.966  13.510  0.4232 -0.6724  0.6076
  695MPD2    H510284   0.289   0.968  13.609  1.1383 -0.4121  0.7690
  695MPD2    N110285   0.743   0.893  13.731 -0.0581 -0.2252 -0.0659
  695MPD2    H710286   0.694   0.901  13.819 -0.8540 -3.0514 -0.2543
  696TMC3    C110287   0.095   1.038  13.452  0.4701  0.2220 -0.5472
  696TMC3    C210288   0.041   0.998  13.578 -0.5049  0.3233  0.3281
  696TMC3    C310289   4.633   1.005  13.604  0.0358 -0.6598  0.4486
  696TMC3    C410290   0.010   1.085  13.364 -0.5563  1.0078 -0.0663
  696TMC3    C510291   4.608   1.120  13.407  0.0004  0.0612 -0.6765
  696TMC3    C610292   4.555   1.085  13.526 -0.1893  0.8142  0.4670
  696TMC3     C10293   0.227   0.997  13.405  0.4167 -0.1896 -0.7364
  696TMC3     O10294   0.260   1.027  13.293  0.2931 -0.0703  0.0348
  696TMC3     H10295   0.108   0.945  13.645 -2.1623 -1.2649  0.7155
  696TMC3    H110296   0.043   1.101  13.262  0.5495  0.5612  0.2183
  696TMC3    H210297   4.451   1.104  13.550 -0.2919  0.5114  0.2590
  696TMC3    C710298   4.570   1.251  13.353 -0.3552  0.1019 -0.3918
  696TMC3    C810299   4.592   0.974  13.738  0.9813  0.4840  0.1244
  696TMC3    O110300   4.603   1.269  13.236 -0.3224  0.0337  0.2563
  696TMC3    O210301   4.676   0.958  13.822  0.3542 -0.1022 -0.3458
  697MPD2     C10302   4.701   2.364  15.715 -0.0091  0.0239  0.0517
  697MPD2    C110303   4.687   2.353  15.582  0.1228  0.4275 -0.4233
  697MPD2    C210304   0.011   2.450  15.498 -0.5845  0.5277  0.4906
  697MPD2    C310305   0.074   2.558  15.542 -0.3771  0.5671 -0.1373
  697MPD2    C410306   0.082   2.569  15.681  0.8459  0.1778 -0.4519
  697MPD2    C510307   0.036   2.471  15.768 -0.1207  0.5971  0.0653
  697MPD2     H10308   4.710   2.445  15.393  0.5332 -1.1561  0.3140
  697MPD2    H110309   0.118   2.658  15.730  1.0012 -0.8972  1.4107
  697MPD2    H210310   4.674   2.285  15.784 -2.2290  0.7340  0.0002
  697MPD2    H310311   0.025   2.496  15.873 -1.2030  0.5170 -0.0304
  697MPD2     N10312   0.132   2.643  15.450 -0.2953 -0.2034  0.2761
  697MPD2    H510313   0.109   2.627  15.352  0.7340 -0.6707  0.1097
  697MPD2    N110314   4.617   2.250  15.515  0.4154 -0.9786  0.3508
  697MPD2    H710315   4.586   2.267  15.420 -1.4324  2.1400  1.5240
  698TMC3    C110316   0.270   2.806  15.367 -0.3121  0.4548  0.4957
  698TMC3    C210317   0.407   2.836  15.371 -0.0414  0.4190 -0.3397
  698TMC3    C310318   0.472   2.860  15.252 -0.2592 -0.0123 -0.1688
  698TMC3    C410319   0.203   2.802  15.246  0.1278  0.9058 -0.0912
  698TMC3    C510320   0.274   2.827  15.129 -0.1621  0.1383 -0.4529
  698TMC3    C610321   0.408   2.861  15.129  0.0713 -0.2353 -0.2568
  698TMC3     C10322   0.219   2.743  15.481  0.4466  0.2003 -0.0692
  698TMC3     O10323   0.261   2.780  15.592 -0.0810 -0.4070 -0.6361
  698TMC3     H10324   0.451   2.819  15.469  0.2125 -2.3265 -0.9558
  698TMC3    H110325   0.095   2.791  15.257  0.3058 -0.5266  0.2623
  698TMC3    H210326   0.466   2.840  15.040  2.7772  2.5075  0.8605
  698TMC3    C710327   0.210   2.806  15.003  0.7100 -0.5503 -0.4471
  698TMC3    C810328   0.605   2.913  15.254 -0.3935  0.6230  0.9593
  698TMC3    O110329   0.104   2.742  15.009  0.5579  0.4731  0.4377
  698TMC3    O210330   0.682   2.873  15.342 -0.1620  0.0721 -0.7371
  699TMC3    C110331   4.352   1.241  12.934  0.0142 -0.4842  0.1336
  699TMC3    C210332   4.410   1.115  12.961 -1.0320 -0.4741 -0.1286
  699TMC3    C310333   4.329   1.009  12.983 -0.7516  0.1010 -0.0917
  699TMC3    C410334   4.221   1.250  12.899 -1.0207  0.4031 -0.1112
  699TMC3    C510335   4.150   1.132  12.910  0.1550 -0.3723 -0.2156
  699TMC3    C610336   4.202   1.015  12.954 -0.6682  0.3747  0.3083
  699TMC3     C10337   4.423   1.343  12.866 -0.1899  0.8293 -0.3490
  699TMC3     O10338   4.370   1.450  12.840  0.0875 -0.0250  0.4163
  699TMC3     H10339   4.510   1.121  13.000 -0.8047 -0.7646 -0.6660
  699TMC3    H110340   4.178   1.349  12.887  1.1601  1.1603 -1.6049
  699TMC3    H210341   4.138   0.933  12.983  0.0950 -0.0294  0.8580
  699TMC3    C710342   4.000   1.153  12.926 -0.2109 -0.6977 -0.2524
  699TMC3    C810343   4.364   0.941  13.107  1.3548 -0.4073 -0.3652
  699TMC3    O110344   3.968   1.260  12.980  0.0141  0.4454 -0.0946
  699TMC3    O210345   4.276   0.924  13.186 -0.0630  0.0949  0.4186
  700TMC3    C110346   3.908   3.024  17.345 -0.3594  0.2910 -0.0015
  700TMC3    C210347   3.978   2.911  17.368 -0.3376  0.3023 -0.3671
  700TMC3    C310348   4.062   2.901  17.478 -0.3665  0.1181 -0.0610
  700TMC3    C410349   3.921   3.125  17.439 -0.0747  0.0150 -0.2710
  700TMC3    C510350   4.002   3.110  17.552  0.1894 -0.0408  0.2040
  700TMC3    C610351   4.073   2.994  17.572  0.2664  0.3065 -0.4398
  700TMC3     C10352   3.842   3.048  17.216 -0.2245 -0.0074 -0.5415
  700TMC3     O10353   3.841   2.960  17.133  0.1800  0.3833 -0.1653
  700TMC3     H10354   3.957   2.830  17.298 -0.9202 -0.2931  0.4935
  700TMC3    H110355   3.870   3.220  17.426 -2.2937 -1.1005  0.3726
  700TMC3    H210356   4.152   2.981  17.646 -1.2890  0.4328  1.2437
  700TMC3    C710357   4.021   3.232  17.628  0.5470 -0.1404  0.0217
  700TMC3    C810358   4.152   2.789  17.490 -0.6067  0.1406  0.5684
  700TMC3    O110359   3.982   3.341  17.587  0.6400 -0.3778  0.2960
  700TMC3    O210360   4.178   2.743  17.601  0.4403 -0.6377  0.1563
  701TMC3    C110361   3.639   1.820  15.394  0.4725  0.3116  0.1662
  701TMC3    C210362   3.635   1.748  15.277  0.5792 -0.2771  0.5841
  701TMC3    C310363   3.753   1.745  15.201  0.3586  0.6892  0.4427
  701TMC3    C410364   3.750   1.880  15.442 -0.0519  0.0163  0.4721
  701TMC3    C510365   3.862   1.877  15.358  0.5521 -0.6585 -0.5910
  701TMC3    C610366   3.869   1.817  15.235  0.5855  0.1995  0.1577
  701TMC3     C10367   3.530   1.799  15.491  0.1166  0.3176  1.7211
  701TMC3     O10368   3.463   1.698  15.470 -0.5293  0.2519  0.4042
  701TMC3     H10369   3.545   1.695  15.245  0.1703  0.8877 -0.1821
  701TMC3    H110370   3.756   1.935  15.536  1.3412 -1.9664  1.5389
  701TMC3    H210371   3.963   1.804  15.184  0.0329 -0.7549 -0.6338
  701TMC3    C710372   3.977   1.960  15.391  0.2291 -0.4175 -1.0391
  701TMC3    C810373   3.741   1.712  15.065  0.0956 -0.0575 -0.5200
  701TMC3    O110374   4.046   2.005  15.299  0.0205  0.7015 -0.2346
  701TMC3    O210375   3.840   1.678  15.003  0.8105 -0.4231 -0.4980
  702MPD2     C10376   3.168   4.250  10.264 -0.8650 -0.8338  0.1905
  702MPD2    C110377   3.105   4.367  10.297 -0.0395  0.3232  0.0501
  702MPD2    C210378   3.142   4.481  10.231 -0.2666  0.0757 -0.2579
  702MPD2    C310379   3.261   4.481  10.165  0.1926  0.2443  0.0542
  702MPD2    C410380   3.335   4.367  10.145  0.3171 -0.8220 -0.3577
  702MPD2    C510381   3.283   4.251  10.193 -0.3420  0.2802 -0.4659
  702MPD2     H10382   3.096   4.569  10.276 -3.0333  0.0059 -2.9570
  702MPD2    H110383   3.429   4.374  10.090 -0.2523 -1.3301 -1.3812
  702MPD2    H210384   3.139   4.160  10.317 -0.2764  0.5134  2.7901
  702MPD2    H310385   3.339   4.158  10.188 -0.2783  0.2124  1.3459
  702MPD2     N10386   3.314   4.599  10.106  0.1158 -0.2881  0.1668
  702MPD2    H510387   3.407   4.600  10.065  0.6373  2.5410  1.4480
  702MPD2    N110388   3.004   4.378  10.400  0.5006 -0.2921 -0.4483
  702MPD2    H710389   2.960   4.468  10.417 -1.3934 -1.3525  0.3706
  703TMC3    C110390   3.334   0.120  10.084 -0.4588 -0.1625  0.2759
  703TMC3    C210391   3.259   0.238  10.107  0.1210  0.3550  0.0048
  703TMC3    C310392   3.324   0.344  10.162  0.4438 -0.0590 -0.4015
  703TMC3    C410393   3.470   0.119  10.102 -0.3871 -0.2972  0.0835
  703TMC3    C510394   3.537   0.237  10.145 -0.2515 -0.7419 -0.1555
  703TMC3    C610395   3.460   0.347  10.178 -0.2183  0.0852 -0.0343
  703TMC3     C10396   3.256   4.720  10.106  0.4965 -0.2081  0.4462
  703TMC3     O10397   3.137   0.018  10.131  0.2168 -0.2123  0.2448
  703TMC3     H10398   3.152   0.242  10.086  0.2577 -0.9776 -0.9539
  703TMC3    H110399   3.519   0.023  10.118 -1.3954 -0.8450 -0.0754
  703TMC3    H210400   3.513   0.439  10.198  1.0587 -0.3942 -1.2387
  703TMC3    C710401   3.684   0.247  10.160 -0.1641  0.1274 -1.2045
  703TMC3    C810402   3.259   0.465  10.208 -0.7314  0.7592 -0.1659
  703TMC3    O110403   3.737   0.343  10.219  0.5889  0.2234 -0.5069
  703TMC3    O210404   3.324   0.567  10.182 -0.1171  0.1115 -0.3565
  704TMC3    C110405   0.463   2.643  12.421  0.5052  0.1296 -0.0114
  704TMC3    C210406   0.568   2.646  12.343 -1.4357  0.2484  0.4943
  704TMC3    C310407   0.687   2.701  12.378 -0.2183  0.2332  0.3362
  704TMC3    C410408   0.466   2.702  12.540 -0.5212 -0.3051 -0.4127
  704TMC3    C510409   0.587   2.741  12.595 -0.1020  0.4181  0.0975
  704TMC3    C610410   0.695   2.744  12.508 -0.0009  0.0103 -0.0099
  704TMC3     C10411   0.400   2.510  12.432  0.1477 -0.1552 -0.6428
  704TMC3     O10412   0.307   2.501  12.507  0.2380 -0.3194 -0.1944
  704TMC3     H10413   0.565   2.601  12.244  1.2804  0.1561  0.4640
  704TMC3    H110414   0.387   2.683  12.612 -2.9378  3.2998 -2.0701
  704TMC3    H210415   0.795   2.762  12.547  0.1909  0.6696 -0.8269
  704TMC3    C710416   0.614   2.669  12.716 -0.5812 -0.1277  0.1691
  704TMC3    C810417   0.799   2.685  12.288 -0.8211 -0.9092 -1.2876
  704TMC3    O110418   0.559   2.701  12.822 -0.3341 -0.0061  0.2876
  704TMC3    O210419   0.779   2.623  12.184  0.1786 -0.3419  0.2753
  705MPD2     C10420   0.633   0.537  16.604 -0.0871  0.2912  0.4325
  705MPD2    C110421   0.559   0.552  16.490 -0.2435  0.8275 -0.0205
  705MPD2    C210422   0.432   0.606  16.507  0.2807  0.2207 -0.6514
  705MPD2    C310423   0.372   0.638  16.631  0.6364  0.5648  0.0211
  705MPD2    C410424   0.443   0.602  16.744 -0.1053 -0.0019  0.0052
  705MPD2    C510425   0.572   0.562  16.730 -0.7530 -0.1368  0.0637
  705MPD2     H10426   0.374   0.626  16.417 -1.8321  2.3129  1.1887
  705MPD2    H110427   0.413   0.619  16.847 -0.0646 -1.2138  0.2140
  705MPD2    H210428   0.737   0.504  16.600 -0.4525 -0.5677 -1.6241
  705MPD2    H310429   0.631   0.537  16.817 -1.5665  1.6221  1.1233
  705MPD2     N10430   0.237   0.677  16.650 -0.6102 -0.0374 -0.2940
  705MPD2    H510431   0.214   0.713  16.741  0.8870 -0.6418  0.3349
  705MPD2    N110432   0.602   0.525  16.358 -0.3305 -0.6877 -0.4598
  705MPD2    H710433   0.537   0.550  16.284  0.8913 -3.4993 -2.4822
  706TMC3    C110434   0.867   0.491  15.997  0.1977 -0.1342 -0.2410
  706TMC3    C210435   0.833   0.624  15.954 -0.2646  0.1744  0.0408
  706TMC3    C310436   0.757   0.705  16.032 -0.0700 -0.3209  0.3137
  706TMC3    C410437   0.831   0.444  16.114  0.6155 -0.6668 -0.2670
  706TMC3    C510438   0.758   0.535  16.190  0.7828  0.0700  0.3001
  706TMC3    C610439   0.709   0.656  16.150 -0.1616  0.4153  0.4503
  706TMC3     C10440   0.957   0.408  15.917  0.1785  0.8051 -0.2165
  706TMC3     O10441   1.030   0.328  15.978 -0.1491  0.7617  0.3882
  706TMC3     H10442   0.880   0.667  15.867  1.3388 -1.3033  0.1643
  706TMC3    H110443   0.878   0.356  16.158 -0.1446 -0.7427  0.3848
  706TMC3    H210444   0.644   0.710  16.219 -0.3178 -1.9904  2.1944
  706TMC3    C710445   0.731   0.501  16.322 -0.4797 -0.1966  0.5034
  706TMC3    C810446   0.765   0.848  16.016 -0.1339 -0.3551  0.6431
  706TMC3    O110447   0.822   0.446  16.385  0.0505  0.5785  0.5223
  706TMC3    O210448   0.832   0.889  15.924 -0.3429 -0.0761  0.1363
  707TMC3    C110449   2.781   4.360   1.346 -0.0433  0.2482  0.0789
  707TMC3    C210450   2.818   4.270   1.444 -0.3540  0.8425 -0.6595
  707TMC3    C310451   2.728   4.260   1.550 -0.0268  0.3574 -0.3394
  707TMC3    C410452   2.666   4.428   1.350 -0.2215 -0.3925 -0.5830
  707TMC3    C510453   2.585   4.413   1.455  0.4835  0.3492  0.0954
  707TMC3    C610454   2.607   4.322   1.555  0.1284 -0.3004  0.6612
  707TMC3     C10455   2.836   4.323   1.222 -0.8047  0.2598 -0.6560
  707TMC3     O10456   2.941   4.258   1.226  0.6146 -0.1096 -0.0462
  707TMC3     H10457   2.912   4.216   1.458 -2.2778 -2.8115 -1.7151
  707TMC3    H110458   2.642   4.507   1.280 -0.2514  0.3302  0.2333
  707TMC3    H210459   2.533   4.304   1.632 -0.1194 -0.5423  0.3690
  707TMC3    C710460   2.450   4.472   1.451  0.6962 -0.4529 -0.4082
  707TMC3    C810461   2.753   4.152   1.642 -0.1439  0.0737  0.4276
  707TMC3    O110462   2.367   4.441   1.532 -0.0080  0.2493  1.0526
  707TMC3    O210463   2.719   4.177   1.758  0.0452  0.2451  0.0100
  708MPD2     C10464   3.974   4.257  13.400  0.3010  0.3883 -0.7928
  708MPD2    C110465   3.917   4.276  13.524 -0.8484  0.6451  0.9116
  708MPD2    C210466   3.907   4.171  13.617  0.1076 -0.6113 -0.3369
  708MPD2    C310467   3.940   4.045  13.571 -0.8405  0.3773  0.8419
  708MPD2    C410468   3.994   4.024  13.449 -0.6721  0.3757 -0.2479
  708MPD2    C510469   4.006   4.127  13.360  0.2088  0.0806 -0.8043
  708MPD2     H10470   3.865   4.188  13.716 -0.0927 -1.4976 -0.2693
  708MPD2    H110471   4.024   3.923  13.425 -2.6201 -0.3166  0.2104
  708MPD2    H210472   3.978   4.331  13.321 -0.0410  1.1179 -0.1277
  708MPD2    H310473   4.046   4.108  13.262  0.3935 -1.0052 -0.5209
  708MPD2     N10474   3.940   3.929  13.656  0.5332 -0.0036  0.3394
  708MPD2    H510475   3.978   3.842  13.621 -1.1371 -1.2349  1.6178
  708MPD2    N110476   3.864   4.398  13.567  0.2224 -0.8394 -0.2107
  708MPD2    H710477   3.795   4.384  13.640 -0.4197 -0.1534 -0.6860
  709TMC3    C110478   3.778   4.599  13.556 -0.3755 -0.5551 -0.0317
  709TMC3    C210479   3.678   4.605  13.460  0.1877  0.5737 -0.1377
  709TMC3    C310480   3.546   4.568  13.510 -0.0981 -0.6283 -0.0049
  709TMC3    C410481   3.749   4.570  13.684  0.6754 -0.5981 -0.0471
  709TMC3    C510482   3.623   4.558  13.728  0.6231 -0.1816 -0.1994
  709TMC3    C610483   3.514   4.559  13.640  0.8827 -0.0855  0.4262
  709TMC3     C10484   3.884   4.519  13.509 -0.0306  0.3868  0.8113
  709TMC3     O10485   3.950   4.548  13.406  0.3091 -0.5128 -0.2102
  709TMC3     H10486   3.704   4.607  13.355 -0.4045  1.9617 -0.2672
  709TMC3    H110487   3.829   4.552  13.754  1.4473  0.0622 -0.7562
  709TMC3    H210488   3.410   4.546  13.665  0.2346  1.5973 -1.3462
  709TMC3    C710489   3.607   4.448  13.817 -0.0436 -1.0916  0.3197
  709TMC3    C810490   3.491   4.445  13.450  0.5742  0.3207 -0.1721
  709TMC3    O110491   3.702   4.374  13.811  0.0896 -0.1719  0.0652
  709TMC3    O210492   3.403   4.390  13.517  0.2045  0.6115 -0.1304
  710TMC3    C110493   4.316   4.653   0.405  0.6829  0.0731  0.8154
  710TMC3    C210494   4.343   4.693   0.272  0.3265  0.2811 -0.2793
  710TMC3    C310495   4.432   4.613   0.211  0.0458  0.3049 -0.1476
  710TMC3    C410496   4.364   4.545   0.472  0.1207  0.2948  0.0437
  710TMC3    C510497   4.447   4.470   0.402 -0.0995 -0.1489  0.1860
  710TMC3    C610498   4.479   4.491   0.269  0.1346 -0.3042  0.2636
  710TMC3     C10499   4.203   0.004   0.475 -0.0327 -0.0712  0.5859
  710TMC3     O10500   4.128   0.061   0.397 -0.7161 -0.3515 -0.0019
  710TMC3     H10501   4.292   0.052   0.225 -0.9123 -1.1392 -1.4438
  710TMC3    H110502   4.349   4.520   0.576  3.0784 -2.3719 -0.1735
  710TMC3    H210503   4.548   4.433   0.208 -1.8140 -3.1347  0.7550
  710TMC3    C710504   4.508   4.354   0.472 -0.7299  0.2716 -0.0923
  710TMC3    C810505   4.514   4.676   0.112 -0.5177 -0.3835  0.3058
  710TMC3    O110506   4.454   4.305   0.571 -0.2622  0.6573 -0.1529
  710TMC3    O210507   4.635   4.647   0.126 -0.8894 -0.0648 -0.4348
  711TMC3    C110508   4.369   1.233  15.093 -0.6974  0.4845  1.0306
  711TMC3    C210509   4.416   1.355  15.112 -0.6976  0.5486  0.2637
  711TMC3    C310510   4.525   1.368  15.197 -1.1780  0.6089  0.1676
  711TMC3    C410511   4.422   1.121  15.149 -0.6093 -0.2680  0.1433
  711TMC3    C510512   4.523   1.133  15.236 -0.1939 -0.4065 -0.0190
  711TMC3    C610513   4.573   1.257  15.265  0.5690  0.1751  0.1648
  711TMC3     C10514   4.264   1.197  14.996 -0.4421  0.2365 -0.6222
  711TMC3     O10515   4.217   1.085  15.002  0.0252 -0.5476  0.1523
  711TMC3     H10516   4.371   1.438  15.058 -0.5705  0.1032 -0.5273
  711TMC3    H110517   4.399   1.026  15.104 -0.5104 -0.9899  1.6161
  711TMC3    H210518   4.655   1.271  15.335  0.9391  2.5371 -0.7276
  711TMC3    C710519   4.597   1.020  15.285 -0.1004 -0.1977 -0.3522
  711TMC3    C810520   4.569   1.505  15.237  0.0939  0.2466  0.0001
  711TMC3    O110521   4.711   1.045  15.328  0.3875 -0.1692 -0.1993
  711TMC3    O210522   4.502   1.603  15.207 -0.9132 -0.4332 -0.1836
  712MPD2     C10523   1.251   2.401  14.364  0.2092  0.3907  0.1274
  712MPD2    C110524   1.157   2.412  14.261  0.1701  0.5119  0.0053
  712MPD2    C210525   1.172   2.520  14.175  0.0312  0.2447 -0.4817
  712MPD2    C310526   1.280   2.611  14.189 -0.6018  0.0710 -0.7282
  712MPD2    C410527   1.370   2.592  14.288 -0.0521  0.3677 -0.1806
  712MPD2    C510528   1.361   2.484  14.370  0.1863 -0.1088 -0.0464
  712MPD2     H10529   1.098   2.534  14.097 -2.6815 -0.4598  1.9623
  712MPD2    H110530   1.453   2.660  14.304  0.8127 -0.5603 -0.8025
  712MPD2    H210531   1.242   2.321  14.436  3.4022  0.6155  0.7791
  712MPD2    H310532   1.435   2.466  14.447 -0.1697  2.1393  0.8317
  712MPD2     N10533   1.293   2.725  14.107 -0.0638  0.2469  0.0172
  712MPD2    H510534   1.380   2.776  14.107  1.0414 -1.6172 -0.2641
  712MPD2    N110535   1.049   2.318  14.230 -0.3846 -0.3284  0.6289
  712MPD2    H710536   0.989   2.347  14.154  2.2844 -1.1987 -1.8117
  713TMC3    C110537   1.240   2.916  13.974  0.1570  0.7491  0.1265
  713TMC3    C210538   1.372   2.937  13.944  0.2299 -0.9441 -0.2896
  713TMC3    C310539   1.404   3.045  13.860  1.1090  0.1287  0.0419
  713TMC3    C410540   1.143   2.999  13.934 -0.4936 -0.5125  0.2070
  713TMC3    C510541   1.184   3.101  13.848  0.3281 -0.0037 -0.5706
  713TMC3    C610542   1.310   3.130  13.810 -0.4697  0.1245  0.1575
  713TMC3     C10543   1.191   2.787  14.038 -0.2085 -0.6850  0.1720
  713TMC3     O10544   1.068   2.767  14.033  0.5598 -0.2670  0.0123
  713TMC3     H10545   1.440   2.859  13.976  0.1054  0.1980  2.7297
  713TMC3    H110546   1.040   2.995  13.966 -0.8153  2.0110 -0.4955
  713TMC3    H210547   1.335   3.209  13.740  2.6201 -1.3291 -0.3700
  713TMC3    C710548   1.079   3.205  13.827 -0.5261  0.1139 -0.4234
  713TMC3    C810549   1.542   3.064  13.811 -0.1623 -0.3198  0.2737
  713TMC3    O110550   0.962   3.176  13.818  0.5945  0.5138 -0.1973
  713TMC3    O210551   1.553   3.141  13.720  0.8932 -0.3277 -0.1122
  714MPD2     C10552   3.426   0.723   1.779  0.0288 -0.1417 -0.1700
  714MPD2    C110553   3.382   0.630   1.690 -0.2364 -0.4132 -0.0145
  714MPD2    C210554   3.263   0.663   1.629 -0.1687  0.5595  0.8029
  714MPD2    C310555   3.183   0.770   1.659  0.0522 -0.2759 -0.2588
  714MPD2    C410556   3.239   0.861   1.750  0.3751 -0.0883  0.1933
  714MPD2    C510557   3.360   0.837   1.808 -0.1374  0.1455 -0.7385
  714MPD2     H10558   3.224   0.604   1.547  2.4171 -0.9239  0.6294
  714MPD2    H110559   3.189   0.955   1.773  0.1126  0.5555 -3.0466
  714MPD2    H210560   3.523   0.709   1.825 -0.2219  2.4732  1.1339
  714MPD2    H310561   3.410   0.907   1.874 -1.6283 -0.3815  0.9497
  714MPD2     N10562   3.058   0.779   1.598 -0.5246  0.1802  0.4247
  714MPD2    H510563   3.019   0.698   1.551 -2.1837  1.6624 -0.7506
  714MPD2    N110564   3.458   0.516   1.660  0.7153  0.2188  0.1229
  714MPD2    H710565   3.542   0.507   1.715  0.8155  0.7089  0.0499
  715TMC3    C110566   3.528   0.315   1.572  0.3395 -0.2442  0.4526
  715TMC3    C210567   3.583   0.271   1.462 -0.7735 -0.3596 -0.0481
  715TMC3    C310568   3.643   0.148   1.472  0.3689  0.6409  0.5514
  715TMC3    C410569   3.533   0.257   1.699  0.5438 -0.3936  0.6608
  715TMC3    C510570   3.588   0.132   1.699 -0.2143  0.2103 -0.4642
  715TMC3    C610571   3.649   0.079   1.590  0.6495  0.2534  0.3123
  715TMC3     C10572   3.439   0.433   1.551  0.1834 -0.0957 -0.0444
  715TMC3     O10573   3.364   0.441   1.456 -0.4008  0.6049  0.3409
  715TMC3     H10574   3.564   0.323   1.368  0.1959  0.3954  0.1680
  715TMC3    H110575   3.474   0.295   1.781 -0.8727  0.6217 -0.8284
  715TMC3    H210576   3.713   4.718   1.611  0.4522 -0.4602 -1.9710
  715TMC3    C710577   3.612   0.071   1.829  0.5313 -0.1038 -0.7473
  715TMC3    C810578   3.686   0.079   1.351 -0.2834 -0.6490 -1.0587
  715TMC3    O110579   3.645   4.676   1.835  0.2298  0.0087  0.0442
  715TMC3    O210580   3.666   0.130   1.241 -0.1094  0.0706 -0.2679
  716MPD2     C10581   3.485   3.445   9.617 -0.1159  0.0966  0.5037
  716MPD2    C110582   3.361   3.458   9.576  1.3323  0.6932 -0.6061
  716MPD2    C210583   3.285   3.340   9.556 -0.1759 -0.5073  0.1386
  716MPD2    C310584   3.339   3.221   9.593  0.1518  1.0425  0.3137
  716MPD2    C410585   3.467   3.213   9.643 -0.7090  0.1105 -0.1125
  716MPD2    C510586   3.531   3.330   9.667  0.0359 -0.0609 -0.3781
  716MPD2     H10587   3.183   3.350   9.523 -0.3919  0.3538  1.0725
  716MPD2    H110588   3.505   3.121   9.686  0.1062  0.7455  0.5271
  716MPD2    H210589   3.547   3.533   9.627  1.9208 -1.1530 -1.1903
  716MPD2    H310590   3.619   3.333   9.731  0.6522 -2.4168 -1.1303
  716MPD2     N10591   3.255   3.110   9.573 -0.4725 -0.3210  0.0278
  716MPD2    H510592   3.183   3.130   9.504  0.5251  1.0395 -0.6202
  716MPD2    N110593   3.314   3.591   9.549 -0.2647  0.0096  0.0808
  716MPD2    H710594   3.372   3.673   9.562  1.7489 -1.0494 -2.0963
  717TMC3    C110595   3.162   2.897   9.595 -0.5732 -0.1470  0.0441
  717TMC3    C210596   3.046   2.942   9.535  0.1490  0.6759 -0.0663
  717TMC3    C310597   2.962   2.850   9.493 -0.0600 -0.1980 -0.4792
  717TMC3    C410598   3.185   2.759   9.610 -0.0472  0.1460 -0.5323
  717TMC3    C510599   3.089   2.668   9.561  0.3828  0.6454 -0.0349
  717TMC3    C610600   2.974   2.708   9.498 -0.4363 -0.1795  0.9131
  717TMC3     C10601   3.265   2.986   9.634 -0.7367  0.4055  0.4605
  717TMC3     O10602   3.335   2.957   9.732 -0.3051  0.1566  0.1285
  717TMC3     H10603   3.020   3.047   9.541 -0.1530  0.4905  2.0526
  717TMC3    H110604   3.262   2.730   9.681 -0.9117 -1.5466 -0.2972
  717TMC3    H210605   2.898   2.634   9.475 -0.5633 -0.2665  1.6213
  717TMC3    C710606   3.130   2.527   9.535  0.0065  0.2888  0.1720
  717TMC3    C810607   2.837   2.902   9.448  0.5886  0.6972  0.2033
  717TMC3    O110608   3.183   2.459   9.624  0.8968 -0.2087  0.1217
  717TMC3    O210609   2.787   3.010   9.488  0.2632 -0.3827 -0.4437
  718MPD2     C10610   2.626   3.487  13.195 -0.0662  0.1413  0.1980
  718MPD2    C110611   2.607   3.441  13.068 -0.2682 -0.5207  0.0876
  718MPD2    C210612   2.584   3.302  13.050  0.6096 -0.5767 -0.7262
  718MPD2    C310613   2.556   3.210  13.150  0.1461  0.2350 -0.2249
  718MPD2    C410614   2.558   3.258  13.282  0.2243  0.2129  0.0247
  718MPD2    C510615   2.600   3.390  13.298 -0.2171 -0.0589 -0.2428
  718MPD2     H10616   2.549   3.261  12.956  2.3380  0.6420 -1.8964
  718MPD2    H110617   2.544   3.197  13.371 -0.6397  0.0981 -0.1991
  718MPD2    H210618   2.662   3.587  13.216  4.1996 -1.0890 -1.2641
  718MPD2    H310619   2.609   3.432  13.397  2.7402 -2.1995  0.3747
  718MPD2     N10620   2.511   3.083  13.110  0.8249 -1.0300 -0.0051
  718MPD2    H510621   2.489   3.087  13.011 -0.5759  2.9388  0.4639
  718MPD2    N110622   2.603   3.541  12.960 -0.6448  0.4417  0.1183
  718MPD2    H710623   2.626   3.638  12.979  3.0419 -0.3711 -0.2044
  719TMC3    C110624   2.544   3.608  12.744  0.3919 -0.0066  0.1033
  719TMC3    C210625   2.450   3.561  12.655 -0.2195  0.3985  0.6340
  719TMC3    C310626   2.466   3.583  12.522  0.2097 -0.0164  0.2999
  719TMC3    C410627   2.636   3.698  12.701  0.2456 -0.3231  0.3040
  719TMC3    C510628   2.648   3.725  12.564  0.3412 -0.2975  0.9069
  719TMC3    C610629   2.570   3.657  12.477 -0.3812  0.0952 -0.0399
  719TMC3     C10630   2.581   3.503  12.830 -0.4204  0.1498  0.8198
  719TMC3     O10631   2.582   3.395  12.776 -0.0068  0.0152  0.4576
  719TMC3     H10632   2.354   3.522  12.689  0.2751  0.4634  2.1107
  719TMC3    H110633   2.695   3.753  12.773 -2.1539  1.4953  0.8791
  719TMC3    H210634   2.574   3.672  12.370 -1.3212 -0.4249 -0.1539
  719TMC3    C710635   2.742   3.817  12.508 -1.0388  0.4107 -0.0915
  719TMC3    C810636   2.451   3.471  12.440 -0.2058 -0.3697  0.3706
  719TMC3    O110637   2.733   3.846  12.389 -0.6029  0.5325 -0.3473
  719TMC3    O210638   2.430   3.480  12.322  0.4452 -0.6602  0.1138
  720MPD2     C10639   0.743   0.095  14.353  0.2381  0.1497  0.2596
  720MPD2    C110640   0.809   0.075  14.233 -0.1966 -1.1610 -0.4292
  720MPD2    C210641   0.924   4.720  14.239 -1.4000 -1.0804  0.0857
  720MPD2    C310642   0.974   4.678  14.360  0.3566  0.1188  0.5633
  720MPD2    C410643   0.917   4.710  14.476 -0.0148 -0.2107 -0.2896
  720MPD2    C510644   0.803   0.067  14.470 -0.5130 -0.2597 -0.9329
  720MPD2     H10645   0.968   4.688  14.145  2.0175  0.7981  1.0670
  720MPD2    H110646   0.947   4.682  14.576  3.2398 -0.0121 -1.1943
  720MPD2    H210647   0.663   0.166  14.369  0.2067  0.5071 -1.5280
  720MPD2    H310648   0.753   0.086  14.564 -0.5216 -0.5096 -0.8863
  720MPD2     N10649   1.093   4.593  14.366 -0.0167  0.5270 -0.8657
  720MPD2    H510650   1.143   4.587  14.279 -1.0663 -0.9104 -1.3612
  720MPD2    N110651   0.777   0.147  14.118 -0.1920 -0.2206  0.4919
  720MPD2    H710652   0.832   0.141  14.033 -0.2309 -0.5814  0.4955
  721TMC3    C110653   1.275   4.474  14.443  0.1165 -0.1292  0.0664
  721TMC3    C210654   1.308   4.357  14.506 -0.6476 -0.3859 -0.2920
  721TMC3    C310655   1.408   4.280  14.446 -0.3948  0.6045  0.3226
  721TMC3    C410656   1.336   4.513  14.327  0.6709  0.3202 -1.1875
  721TMC3    C510657   1.436   4.433  14.274  0.1203 -0.2967 -0.8975
  721TMC3    C610658   1.472   4.315  14.333 -0.1832  0.7927  0.0163
  721TMC3     C10659   1.143   4.531  14.476  0.7779 -0.1474 -0.0668
  721TMC3     O10660   1.087   4.505  14.579 -0.3863 -0.1851  0.2305
  721TMC3     H10661   1.255   4.336  14.599  0.9456  1.2451  0.9932
  721TMC3    H110662   1.317   4.613  14.288  0.1631  0.3313 -0.9092
  721TMC3    H210663   1.546   4.252  14.285  1.3724 -0.1887  3.7437
  721TMC3    C710664   1.532   4.482  14.174 -0.3744  0.0163 -0.0259
  721TMC3    C810665   1.482   4.187  14.533  0.3733 -0.1174  0.0664
  721TMC3    O110666   1.627   4.402  14.150  0.4436 -0.0022  0.3874
  721TMC3    O210667   1.534   4.092  14.473 -0.4623  0.7296  0.1953
  722MPD2     C10668   0.229   3.174  13.393  0.0461 -0.4684 -0.4156
  722MPD2    C110669   0.195   3.310  13.400 -0.2907  0.3850 -0.0728
  722MPD2    C210670   0.060   3.337  13.411 -0.0889 -1.1573 -0.0410
  722MPD2    C310671   4.695   3.231  13.434  0.6868 -0.1994 -0.0797
  722MPD2    C410672   0.009   3.098  13.428  0.6515 -0.2477  0.2452
  722MPD2    C510673   0.138   3.074  13.402  0.7426  0.5815 -0.2186
  722MPD2     H10674   0.034   3.442  13.417 -0.2419 -1.2088  0.2002
  722MPD2    H110675   4.667   3.012  13.433 -0.2802  0.3868 -1.2269
  722MPD2    H210676   0.332   3.144  13.379 -0.3269 -1.8307 -0.2745
  722MPD2    H310677   0.171   2.971  13.412 -0.2126  0.2732 -0.2102
  722MPD2     N10678   4.560   3.268  13.459  0.1512 -0.3613 -1.1231
  722MPD2    H510679   4.546   3.368  13.445  0.2221 -0.0611  1.0071
  722MPD2    N110680   0.275   3.423  13.379  0.4723  0.5529 -0.0334
  722MPD2    H710681   0.231   3.513  13.389  1.7164  1.0601  0.8463
  723TMC3    C110682   4.329   3.243  13.532  0.6903 -0.3603  0.0949
  723TMC3    C210683   4.245   3.147  13.587 -0.0448 -0.5124 -0.1365
  723TMC3    C310684   4.123   3.127  13.532  0.0893  0.7229 -0.1619
  723TMC3    C410685   4.294   3.323  13.429 -0.4168 -0.6017 -0.3416
  723TMC3    C510686   4.176   3.293  13.373 -0.5717  0.2601 -0.1934
  723TMC3    C610687   4.089   3.205  13.423 -0.6100  0.4805  0.1451
  723TMC3     C10688   4.466   3.188  13.523 -0.7572  0.3352 -0.5427
  723TMC3     O10689   4.476   3.063  13.538  0.2268  0.0268  0.4750
  723TMC3     H10690   4.287   3.076  13.657 -1.8385 -0.0210  1.4335
  723TMC3    H110691   4.367   3.386  13.380 -1.3941 -0.6875 -1.9074
  723TMC3    H210692   3.988   3.201  13.383 -0.2586  0.7963 -0.7677
  723TMC3    C710693   4.114   3.371  13.261  0.0439  0.9159  0.3548
  723TMC3    C810694   4.074   2.992  13.537 -0.6275 -0.2592 -0.6461
  723TMC3    O110695   4.034   3.317  13.189  0.2487 -0.0771  0.4536
  723TMC3    O210696   4.115   2.919  13.626 -0.5443  0.5813  0.1455
  724TMC3    C110697   4.489   1.953   9.386 -0.4427  0.1305  0.3863
  724TMC3    C210698   4.492   1.894   9.509 -0.0707  0.2715  0.1330
  724TMC3    C310699   4.575   1.954   9.596 -0.0927 -0.2380  0.0039
  724TMC3    C410700   4.550   2.075   9.359  0.1237  0.1861 -0.2560
  724TMC3    C510701   4.622   2.139   9.461  0.0850  0.1707  0.2026
  724TMC3    C610702   4.632   2.075   9.579  0.1457 -0.3286 -0.7525
  724TMC3     C10703   4.446   1.867   9.269  0.1664 -0.4547 -0.3562
  724TMC3     O10704   4.474   1.906   9.153  0.1048  0.0672  0.0719
  724TMC3     H10705   4.467   1.790   9.531  2.1067  0.0491  1.5183
  724TMC3    H110706   4.555   2.099   9.254 -2.6692 -2.9875 -1.0812
  724TMC3    H210707   4.672   2.129   9.664 -0.5558 -0.7398 -0.1555
  724TMC3    C710708   4.702   2.255   9.438 -0.3248  1.0067 -0.8154
  724TMC3    C810709   4.604   1.877   9.716 -0.0736  0.4621  0.2385
  724TMC3    O110710   0.071   2.261   9.516  0.1486  0.5125 -0.5116
  724TMC3    O210711   4.547   1.772   9.746  0.2541 -0.5862 -0.1109
  725TMC3    C110712   1.760   0.086  13.306 -0.2093  0.7617 -0.9019
  725TMC3    C210713   1.635   0.067  13.262  0.0123  0.5210  0.2701
  725TMC3    C310714   1.594   4.667  13.240  0.1770 -1.3456  0.3232
  725TMC3    C410715   1.853   4.709  13.301  0.4476  0.3173 -0.0423
  725TMC3    C510716   1.818   4.582  13.274 -0.1638  0.1603  0.4042
  725TMC3    C610717   1.686   4.561  13.246  0.4590  0.4554 -0.0478
  725TMC3     C10718   1.813   0.213  13.337 -0.0707  0.4513 -0.4128
  725TMC3     O10719   1.767   0.316  13.290  0.4544 -0.4261  0.1876
  725TMC3     H10720   1.568   0.151  13.274  1.9535  2.0180  0.5774
  725TMC3    H110721   1.958   0.013  13.296  0.9004 -1.2262  0.6284
  725TMC3    H210722   1.659   4.463  13.208 -0.3802  0.5402  0.3221
  725TMC3    C710723   1.910   4.503  13.188  0.6820  0.3673 -0.3822
  725TMC3    C810724   1.481   4.656  13.145 -0.4216  0.2727  0.5508
  725TMC3    O110725   1.875   4.491  13.072  0.5488 -0.1271  0.5005
  725TMC3    O210726   1.440   4.539  13.128  0.0266 -0.0288  0.2403
  726MPD2     C10727   4.082   2.048  10.092 -0.8758 -0.1418 -0.4512
  726MPD2    C110728   3.967   2.093  10.028  0.0570  0.1561 -0.0123
  726MPD2    C210729   3.860   2.009  10.026  0.1210 -0.3149  0.4482
  726MPD2    C310730   3.866   1.881  10.088  0.0253  0.4163  0.7283
  726MPD2    C410731   3.985   1.841  10.145 -1.1625  0.2146 -0.3051
  726MPD2    C510732   4.091   1.928  10.150 -0.1473 -0.1385  0.4113
  726MPD2     H10733   3.768   2.046   9.983  0.4312  1.1805  1.0640
  726MPD2    H110734   3.991   1.747  10.200  2.1803 -1.0379 -2.7865
  726MPD2    H210735   4.175   2.102  10.082  0.0012 -1.7638 -1.0795
  726MPD2    H310736   4.184   1.889  10.188  0.3122  1.7032  1.1548
  726MPD2     N10737   3.756   1.805  10.118  0.1859 -1.4935  0.4314
  726MPD2    H510738   3.770   1.718  10.169 -1.5325 -1.1655  1.4568
  726MPD2    N110739   3.960   2.215   9.950 -0.3939 -0.2908 -0.0841
  726MPD2    H710740   3.874   2.238   9.901 -0.0841 -1.0333 -0.9703
  727TMC3    C110741   4.026   2.423   9.858  0.5989 -0.1377 -0.2064
  727TMC3    C210742   4.107   2.530   9.874  0.7659  0.3904 -0.5449
  727TMC3    C310743   4.094   2.638   9.794 -0.1709 -0.3550  0.5993
  727TMC3    C410744   3.935   2.418   9.754  0.0473 -0.2002 -0.5251
  727TMC3    C510745   3.912   2.531   9.678  0.0377  0.2469  0.3756
  727TMC3    C610746   3.996   2.643   9.698  0.0782  0.5687 -0.0817
  727TMC3     C10747   4.061   2.308   9.942  0.1839  0.1357  0.2980
  727TMC3     O10748   4.170   2.312   9.993 -0.1085  0.3196 -0.1559
  727TMC3     H10749   4.187   2.526   9.947 -1.7251 -0.4076  2.0999
  727TMC3    H110750   3.898   2.318   9.734  1.0974 -0.8416  0.7353
  727TMC3    H210751   3.977   2.729   9.635 -0.8525  0.7683  0.4721
  727TMC3    C710752   3.853   2.512   9.546  0.4757 -0.0847  0.0338
  727TMC3    C810753   4.199   2.739   9.817  0.5160  0.2098  0.2941
  727TMC3    O110754   3.815   2.400   9.520 -0.0834  0.4547 -0.1590
  727TMC3    O210755   4.310   2.700   9.842 -0.2601 -0.2847  0.6833
  728TMC3    C110756   3.839   0.041  15.179 -0.5052 -0.1067 -0.2074
  728TMC3    C210757   3.935   0.140  15.202 -0.6116 -0.5754  0.5707
  728TMC3    C310758   3.999   0.186  15.097  0.1618  0.7579  0.4537
  728TMC3    C410759   3.804   4.715  15.059 -0.0679 -0.1787  1.0461
  728TMC3    C510760   3.861   0.059  14.954 -0.1011  0.2933 -0.4514
  728TMC3    C610761   3.962   0.155  14.970 -0.5181 -0.2161  0.3594
  728TMC3     C10762   3.779   4.724  15.306 -0.6214 -0.4335  0.1980
  728TMC3     O10763   3.859   0.015  15.399 -0.2285 -0.0123 -0.0684
  728TMC3     H10764   3.953   0.195  15.293 -0.5332 -0.1996  0.3287
  728TMC3    H110765   3.743   4.625  15.053 -1.4354  0.7534  0.8517
  728TMC3    H210766   3.988   0.225  14.892  1.9880  0.2331  1.5863
  728TMC3    C710767   3.765   0.054  14.840 -0.0107 -0.2574 -0.0109
  728TMC3    C810768   4.065   0.316  15.113  0.9548 -0.2194  0.3481
  728TMC3    O110769   3.648   0.016  14.862 -0.3616  0.1470  0.2755
  728TMC3    O210770   4.027   0.380  15.210 -0.0962 -0.1980  0.7817
  729MPD2     C10771   1.413   0.693  17.680  0.2372  0.3136 -0.3595
  729MPD2    C110772   1.337   0.776  17.588 -0.6507  0.7568  0.3979
  729MPD2    C210773   1.218   0.834  17.639 -0.1637 -0.8114  0.7070
  729MPD2    C310774   1.184   0.815   0.073  0.0564  0.6661 -1.1155
  729MPD2    C410775   1.253   0.740   0.158 -0.9646  0.3633  0.7494
  729MPD2    C510776   1.361   0.673   0.109 -0.1508  0.3638 -0.0078
  729MPD2     H10777   1.153   0.896  17.577 -0.8706 -2.6106 -0.3421
  729MPD2    H110778   1.229   0.734   0.263  0.4564  3.4757  1.2537
  729MPD2    H210779   1.509   0.656  17.647  0.6240  1.0843 -0.1105
  729MPD2    H310780   1.414   0.607   0.177  0.1760  1.0062  0.3608
  729MPD2     N10781   1.066   0.874   0.129  0.2777  0.0602 -0.5034
  729MPD2    H510782   1.034   0.834   0.216 -2.9153  3.1405 -0.2953
  729MPD2    N110783   1.390   0.798  17.454 -0.2921 -0.1446  0.6190
  729MPD2    H710784   1.480   0.761  17.426 -1.3581 -2.5406  0.3934
  730TMC3    C110785   0.880   1.015   0.158  0.8440 -0.2545 -0.5042
  730TMC3    C210786   0.839   0.946   0.267  0.2541  0.2778 -0.3578
  730TMC3    C310787   0.797   1.012   0.376  0.9651 -0.9150  0.1553
  730TMC3    C410788   0.843   1.148   0.145  0.2276  0.5838  0.2350
  730TMC3    C510789   0.778   1.210   0.249  0.3847  0.2246 -0.7134
  730TMC3    C610790   0.762   1.144   0.372  0.9206  0.7461  0.5256
  730TMC3     C10791   0.993   0.978   0.080  0.0237  0.2103  0.5187
  730TMC3     O10792   1.010   1.042  17.676 -0.8307  0.4990  0.3414
  730TMC3     H10793   0.881   0.848   0.288 -1.0140 -0.3783 -0.8751
  730TMC3    H110794   0.898   1.198   0.067 -1.9103  1.1280 -0.9151
  730TMC3    H210795   0.734   1.199   0.461 -0.0796 -0.3392  0.8800
  730TMC3    C710796   0.768   1.359   0.265 -0.1624  0.4562 -0.0893
  730TMC3    C810797   0.849   0.960   0.506  0.1251 -0.2527  0.0746
  730TMC3    O110798   0.742   1.399   0.381  0.1243  0.0728 -0.5717
  730TMC3    O210799   0.844   0.841   0.523 -0.3435  0.1641 -0.3531
  731MPD2     C10800   1.699   3.338  11.964 -0.6371 -0.6859  0.4857
  731MPD2    C110801   1.696   3.458  12.036  0.4888  0.0041 -0.1496
  731MPD2    C210802   1.744   3.458  12.163 -0.0986 -0.1740 -0.6461
  731MPD2    C310803   1.788   3.338  12.222 -0.0452  0.8218  0.0748
  731MPD2    C410804   1.797   3.227  12.144  0.0787  0.5564  0.1417
  731MPD2    C510805   1.755   3.226  12.015 -0.2139  0.2715  0.1436
  731MPD2     H10806   1.748   3.545  12.227  1.3656 -2.2636  2.1088
  731MPD2    H110807   1.837   3.139  12.194  1.4032  0.7123 -0.6426
  731MPD2    H210808   1.672   3.336  11.860  1.5893 -1.0544 -0.0797
  731MPD2    H310809   1.764   3.134  11.959  2.1919 -1.4963  3.4145
  731MPD2     N10810   1.799   3.336  12.362  0.0372  0.6249  0.8774
  731MPD2    H510811   1.768   3.423  12.403  0.7446  1.7229 -0.8821
  731MPD2    N110812   1.658   3.578  11.975  0.3815 -0.5488 -0.5725
  731MPD2    H710813   1.593   3.572  11.898 -0.6670 -1.7003  0.4029
  732TMC3    C110814   1.591   3.810  11.980  1.1959  0.0631 -0.2441
  732TMC3    C210815   1.481   3.783  11.900  0.7894 -0.1847  0.2654
  732TMC3    C310816   1.428   3.890  11.829  0.9073 -0.0897 -0.5394
  732TMC3    C410817   1.638   3.938  12.003  0.8011  0.6627 -0.2325
  732TMC3    C510818   1.588   4.042  11.930 -0.2997 -0.6718  0.4851
  732TMC3    C610819   1.475   4.020  11.851  0.3773 -0.1072 -0.4817
  732TMC3     C10820   1.670   3.704  12.039  0.0388 -0.5000  0.4846
  732TMC3     O10821   1.753   3.741  12.122 -0.0972  0.1040  0.2563
  732TMC3     H10822   1.443   3.681  11.892 -0.5460  0.4368 -1.1902
  732TMC3    H110823   1.720   3.957  12.073  1.6088  1.0353 -1.2777
  732TMC3    H210824   1.437   4.102  11.790 -2.7637  0.8042  2.6653
  732TMC3    C710825   1.620   4.179  11.977 -0.0018 -0.3365 -0.1818
  732TMC3    C810826   1.287   3.863  11.802  0.7300  0.1129  0.1585
  732TMC3    O110827   1.561   4.273  11.922 -0.0904 -0.0016 -0.3326
  732TMC3    O210828   1.245   3.759  11.747  0.3239  0.0196 -0.1397
  733TMC3    C110829   2.245   2.716  13.074 -0.5391  0.0857  0.0793
  733TMC3    C210830   2.321   2.795  13.159 -0.5398  0.3436 -0.4705
  733TMC3    C310831   2.413   2.876  13.103  0.1682  0.2269 -0.0498
  733TMC3    C410832   2.263   2.712  12.937  0.7507 -0.7590  0.1830
  733TMC3    C510833   2.357   2.792  12.883 -0.4163  0.2576  0.3399
  733TMC3    C610834   2.435   2.864  12.968 -0.6232 -1.0827 -0.2043
  733TMC3     C10835   2.122   2.676  13.130  0.1668 -0.1762  0.7550
  733TMC3     O10836   2.025   2.671  13.053  0.6790 -0.4773  0.3075
  733TMC3     H10837   2.299   2.811  13.264  0.6874  0.6246 -0.2552
  733TMC3    H110838   2.204   2.638  12.884  1.3520  1.9508 -4.2186
  733TMC3    H210839   2.514   2.923  12.921 -3.3340  0.6968 -2.5059
  733TMC3    C710840   2.362   2.817  12.740  0.7266 -0.2063  0.7680
  733TMC3    C810841   2.476   2.978  13.182 -0.6188  0.5678 -0.3751
  733TMC3    O110842   2.315   2.737  12.661 -0.3742 -0.0389 -0.2106
  733TMC3    O210843   2.475   2.973  13.304 -0.1846 -0.0385  0.0208
  734MPD2     C10844   4.089   0.445  12.467  0.0333 -0.7084 -0.1270
  734MPD2    C110845   4.027   0.405  12.352  0.4668 -0.3048  0.4004
  734MPD2    C210846   4.074   0.452  12.232 -0.3309  0.7839  0.1861
  734MPD2    C310847   4.176   0.545  12.224  0.3032  0.3509  0.0900
  734MPD2    C410848   4.243   0.581  12.342 -0.4195 -0.0465  0.2062
  734MPD2    C510849   4.197   0.524  12.463  0.5577 -0.3460  0.5987
  734MPD2     H10850   4.026   0.433  12.136 -1.4704  1.4942  0.6197
  734MPD2    H110851   4.323   0.653  12.350 -1.2533  0.7552  1.2418
  734MPD2    H210852   4.037   0.426  12.561  1.0686  2.3460  1.0465
  734MPD2    H310853   4.240   0.553  12.558 -0.9649 -0.4681  1.3314
  734MPD2     N10854   4.211   0.593  12.097 -0.4230 -0.2341 -0.1169
  734MPD2    H510855   4.140   0.564  12.031 -0.1862 -0.3305 -0.3269
  734MPD2    N110856   3.911   0.327  12.357 -0.0176  0.1207  1.2429
  734MPD2    H710857   3.888   0.295  12.450  1.1177  0.8837  1.7951
  735TMC3    C110858   3.726   0.201  12.270  0.1743  0.1116 -0.8149
  735TMC3    C210859   3.651   0.181  12.148  0.1965  0.6048 -0.5120
  735TMC3    C310860   3.639   0.053  12.102 -0.4105  0.1832  0.1112
  735TMC3    C410861   3.763   0.097  12.340 -0.1854 -0.7075 -0.2378
  735TMC3    C510862   3.737   4.691  12.292 -0.2842  0.3515 -0.2175
  735TMC3    C610863   3.686   4.667  12.167  0.2452 -0.2144  0.4942
  735TMC3     C10864   3.833   0.298  12.245  0.0539  0.1580  0.0802
  735TMC3     O10865   3.848   0.327  12.127  0.0696  0.3777  0.6707
  735TMC3     H10866   3.623   0.268  12.090 -0.1680 -0.8261 -2.4470
  735TMC3    H110867   3.816   0.107  12.434  0.6204 -0.3021 -0.7367
  735TMC3    H210868   3.701   4.572  12.118  2.7186  1.8393 -2.6968
  735TMC3    C710869   3.832   4.590  12.336  0.3902  0.0783 -0.1040
  735TMC3    C810870   3.679   0.032  11.968 -0.1492  0.2182 -0.2385
  735TMC3    O110871   3.930   4.640  12.389 -0.3255  0.5378 -0.0918
  735TMC3    O210872   3.637   4.659  11.908  0.0217  0.2990  0.8050
  736MPD2     C10873   3.818   4.232  12.379 -0.7739  0.6023  0.1009
  736MPD2    C110874   3.880   4.348  12.364 -1.0293 -0.3720  0.1114
  736MPD2    C210875   4.009   4.351  12.341  0.6259 -0.3004 -0.2356
  736MPD2    C310876   4.082   4.236  12.361 -0.2140 -0.5736  0.3468
  736MPD2    C410877   4.021   4.120  12.381  0.5652  0.3080  0.4114
  736MPD2    C510878   3.886   4.111  12.392 -0.9202 -0.1418  0.0430
  736MPD2     H10879   4.053   4.443  12.305 -1.4227  0.7400 -0.0317
  736MPD2    H110880   4.071   4.024  12.384 -1.7423 -0.9451 -0.7522
  736MPD2    H210881   3.711   4.247  12.385 -1.1635 -2.1127 -0.2901
  736MPD2    H310882   3.825   4.021  12.399 -1.1766 -0.1308 -2.1007
  736MPD2     N10883   4.226   4.228  12.335  0.5943  0.8232 -0.2815
  736MPD2    H510884   4.261   4.132  12.336 -1.2809  0.1562  1.0061
  736MPD2    N110885   3.789   4.459  12.339  0.3279  0.0513 -0.2394
  736MPD2    H710886   3.693   4.436  12.316 -0.6543  2.2673  1.7192
  737TMC3    C110887   4.442   4.305  12.301 -0.3887  0.3267  0.2060
  737TMC3    C210888   4.524   4.412  12.297 -0.4859 -0.5147 -0.8587
  737TMC3    C310889   4.634   4.414  12.210 -0.0812 -0.9052  0.3210
  737TMC3    C410890   4.457   4.204  12.212 -0.3612  0.2483  0.1636
  737TMC3    C510891   4.563   4.209  12.129 -0.2290 -0.4999 -0.0533
  737TMC3    C610892   4.651   4.318  12.114 -0.1247  0.6990 -0.3453
  737TMC3     C10893   4.307   4.336  12.334  0.4319 -0.6796 -0.4796
  737TMC3     O10894   4.288   4.455  12.361 -0.2639 -0.1431 -0.3711
  737TMC3     H10895   4.518   4.494  12.368 -1.0854 -0.6708 -0.7315
  737TMC3    H110896   4.386   4.123  12.202 -1.4323  0.9519  2.0516
  737TMC3    H210897   0.018   4.302  12.058  0.3047  1.3906  0.1663
  737TMC3    C710898   4.562   4.126  12.011  0.3226  0.5695  0.3303
  737TMC3    C810899   4.686   4.544  12.167  0.1402  0.2089 -0.2990
  737TMC3    O110900   4.529   4.013  12.036  0.0436  0.0784  0.3969
  737TMC3    O210901   4.702   4.634  12.251 -0.1479 -0.1896 -0.2615
  738MPD2     C10902   0.846   3.065  15.208  0.2488 -0.4298  0.5064
  738MPD2    C110903   0.731   3.089  15.134 -0.1257  0.1381 -0.4517
  738MPD2    C210904   0.724   3.203  15.051 -0.4166  0.1321  0.6214
  738MPD2    C310905   0.833   3.283  15.045 -0.5090 -0.7740  0.0360
  738MPD2    C410906   0.950   3.247  15.110  0.1547  0.5120 -0.2400
  738MPD2    C510907   0.960   3.137  15.191 -0.6121 -0.0965  0.1869
  738MPD2     H10908   0.639   3.230  14.990  0.8048  0.9270 -0.7471
  738MPD2    H110909   1.036   3.313  15.106  0.7189 -0.3364 -1.9191
  738MPD2    H210910   0.870   2.981  15.272  1.1377 -2.4814 -2.4901
  738MPD2    H310911   1.042   3.120  15.260 -1.0257 -1.5056  0.3355
  738MPD2     N10912   0.841   3.407  14.979 -1.0124 -0.4548 -0.3238
  738MPD2    H510913   0.931   3.453  14.987 -2.5058  2.5596 -0.5866
  738MPD2    N110914   0.613   3.007  15.154  0.5479 -0.0157  0.2866
  738MPD2    H710915   0.530   3.029  15.099  0.5567  0.8464  0.6188
  739TMC3    C110916   0.778   3.581  14.827  0.1366 -0.3835  0.3563
  739TMC3    C210917   0.701   3.623  14.717 -0.0857 -0.2897  0.3213
  739TMC3    C310918   0.741   3.736  14.646 -0.0282 -0.0440  0.4950
  739TMC3    C410919   0.879   3.656  14.885 -0.3496 -1.0180 -0.4434
  739TMC3    C510920   0.910   3.769  14.811 -0.1653 -0.4153  0.7853
  739TMC3    C610921   0.857   3.807  14.688 -0.4037  0.1863  0.1380
  739TMC3     C10922   0.755   3.448  14.874 -0.5213  0.6183  0.2066
  739TMC3     O10923   0.667   3.383  14.816  0.4279  0.5701 -0.3538
  739TMC3     H10924   0.624   3.564  14.667  0.1321 -0.5830  0.3271
  739TMC3    H110925   0.935   3.633  14.975 -0.4565 -1.4252 -0.4781
  739TMC3    H210926   0.910   3.874  14.622 -0.6312  0.8686  0.6455
  739TMC3    C710927   1.003   3.864  14.889  0.5154  0.2149 -0.4279
  739TMC3    C810928   0.696   3.746  14.509 -0.2606 -0.9281  0.9094
  739TMC3    O110929   1.047   3.824  14.993 -0.9251 -0.2138  0.3930
  739TMC3    O210930   0.618   3.661  14.466  0.2309 -0.5619 -0.2955
  740TMC3    C110931   1.035   0.370  14.330 -0.1130  0.4979  0.8131
  740TMC3    C210932   1.079   0.321  14.450  0.1120 -0.4018 -0.4190
  740TMC3    C310933   1.176   0.233  14.443 -0.3384 -0.5078 -0.0404
  740TMC3    C410934   1.096   0.327  14.210 -0.0731 -0.4999  0.4595
  740TMC3    C510935   1.201   0.236  14.211  1.4008 -0.5618 -0.4248
  740TMC3    C610936   1.243   0.188  14.332  0.0456 -0.4583  0.0076
  740TMC3     C10937   0.904   0.426  14.319  0.5699 -0.7860 -0.2826
  740TMC3     O10938   0.890   0.495  14.221  0.2129  0.5156 -0.3852
  740TMC3     H10939   1.027   0.346  14.542 -2.1229  1.7180 -2.2645
  740TMC3    H110940   1.045   0.365  14.123 -0.9457 -0.2967  1.0509
  740TMC3    H210941   1.323   0.116  14.338  1.6372  1.2523 -0.7870
  740TMC3    C710942   1.194   0.138  14.103 -0.0641  0.6106  0.4499
  740TMC3    C810943   1.227   0.181  14.573 -0.6387 -0.2501  0.7963
  740TMC3    O110944   1.241   0.029  14.133 -0.0695  0.0359  0.0163
  740TMC3    O210945   1.278   0.068  14.574  0.7082  0.9577 -0.0247
  741TMC3    C110946   0.455   4.233  14.233 -0.5355  0.1837 -0.3369
  741TMC3    C210947   0.450   4.100  14.222 -0.5220  0.0237 -0.4878
  741TMC3    C310948   0.422   4.036  14.337  0.3215  0.5018 -0.5386
  741TMC3    C410949   0.466   4.301  14.352  0.1324  0.6054  0.3899
  741TMC3    C510950   0.443   4.229  14.464 -1.0230  0.3198 -0.6111
  741TMC3    C610951   0.420   4.091  14.463  0.5769 -0.1302  0.2186
  741TMC3     C10952   0.483   4.313  14.110  0.2393 -0.2376 -0.1804
  741TMC3     O10953   0.514   4.237  14.016 -0.2582 -0.3900 -0.2040
  741TMC3     H10954   0.446   4.043  14.130  0.1030  0.7129 -0.9501
  741TMC3    H110955   0.471   4.410  14.347 -0.2030  0.6804  1.8928
  741TMC3    H210956   0.395   4.037  14.553  0.3043 -3.0823 -1.6331
  741TMC3    C710957   0.449   4.290  14.596 -0.1834 -0.2578 -0.1844
  741TMC3    C810958   0.334   3.924  14.323  0.3419  0.3728  0.5372
  741TMC3    O110959   0.427   4.220  14.694 -0.0385  0.2119 -0.0969
  741TMC3    O210960   0.267   3.932  14.219  0.5718  0.2816  0.4959
  742TMC3    C110961   0.472   2.476  15.533  0.4609  0.3100  0.1909
  742TMC3    C210962   0.433   2.423  15.418  0.1490 -0.2411  0.1966
  742TMC3    C310963   0.513   2.447  15.299 -0.7431 -0.5581  0.1595
  742TMC3    C410964   0.602   2.520  15.547  0.5622 -0.1898  0.3201
  742TMC3    C510965   0.686   2.527  15.437  0.2292  0.3288  0.9143
  742TMC3    C610966   0.638   2.494  15.314 -0.0214 -0.0708  0.5830
  742TMC3     C10967   0.408   2.434  15.659 -0.0699 -0.7621  0.0479
  742TMC3     O10968   0.465   2.471  15.759  0.0510  0.1892 -0.0151
  742TMC3     H10969   0.325   2.414  15.420  0.1704 -0.4631  0.4557
  742TMC3    H110970   0.641   2.562  15.639 -0.4752  0.6410  0.3814
  742TMC3    H210971   0.708   2.497  15.231  0.5924  1.2992  1.1442
  742TMC3    C710972   0.814   2.463  15.452 -0.2058  0.1712 -0.5383
  742TMC3    C810973   0.454   2.447  15.163  0.0149 -0.2700 -0.8602
  742TMC3    O110974   0.845   2.374  15.371 -0.2693  0.7108  0.4293
  742TMC3    O210975   0.514   2.495  15.065  0.1163  0.0208 -0.3391
  743MPD2     C10976   3.471   3.294   1.745 -0.2486 -0.4701  0.3672
  743MPD2    C110977   3.477   3.291   1.607 -0.3517 -0.3247  0.2574
  743MPD2    C210978   3.598   3.266   1.546  0.9032  0.1220 -1.3068
  743MPD2    C310979   3.715   3.260   1.622  0.3331 -1.2749 -0.0735
  743MPD2    C410980   3.708   3.260   1.762 -0.1525 -0.7905 -1.0607
  743MPD2    C510981   3.584   3.276   1.816 -0.0154 -1.3880  0.5143
  743MPD2     H10982   3.608   3.260   1.438 -1.5664 -2.7333 -1.3728
  743MPD2    H110983   3.790   3.246   1.830  2.2065  2.1738 -3.3150
  743MPD2    H210984   3.384   3.317   1.805  1.1092 -1.2758  2.6460
  743MPD2    H310985   3.585   3.276   1.925 -1.6105 -1.9596  0.5306
  743MPD2     N10986   3.835   3.248   1.547 -0.2962  0.1556  0.2837
  743MPD2    H510987   3.830   3.242   1.446  0.2388  1.7902  0.1608
  743MPD2    N110988   3.357   3.331   1.539  0.7808  0.1494 -0.3760
  743MPD2    H710989   3.279   3.359   1.597  0.5578  1.4671 -1.2924
  744TMC3    C110990   3.196   3.333   1.354  0.2204  0.4132  0.1014
  744TMC3    C210991   3.112   3.415   1.427  0.0590 -0.0876 -0.0190
  744TMC3    C310992   2.992   3.446   1.365  0.7380 -0.4350 -0.3237
  744TMC3    C410993   3.162   3.281   1.233 -0.3522  0.1371  0.0932
  744TMC3    C510994   3.040   3.315   1.178  0.1631  1.0140 -0.2386
  744TMC3    C610995   2.954   3.396   1.242  0.1665  0.5583  0.2800
  744TMC3     C10996   3.338   3.306   1.400 -0.4067  0.0917  0.3367
  744TMC3     O10997   3.412   3.255   1.316  0.4249 -0.3934 -0.0229
  744TMC3     H10998   3.157   3.473   1.506 -0.5346 -2.4102  2.0334
  744TMC3    H110999   3.237   3.223   1.181  0.3523 -0.2810  1.5700
  744TMC3    H211000   2.867   3.433   1.188  0.9936 -0.4251 -1.7413
  744TMC3    C711001   3.007   3.277   1.042  0.2236  0.5863 -0.1791
  744TMC3    C811002   2.917   3.555   1.415  0.3735 -0.1620  0.4663
  744TMC3    O111003   2.889   3.296   1.011 -0.3396  0.0757  0.1590
  744TMC3    O211004   2.840   3.620   1.346  0.0713  0.2665 -0.5833
  745TMC3    C111005   0.919   2.133  14.228 -0.9674 -0.0940 -0.9636
  745TMC3    C211006   0.804   2.115  14.300 -0.0525 -0.7639 -0.1711
  745TMC3    C311007   0.681   2.100  14.233  0.1654  0.2133 -0.2503
  745TMC3    C411008   0.916   2.143  14.094  0.2459 -0.3233 -0.4073
  745TMC3    C511009   0.793   2.112  14.031 -0.1599  0.3594 -0.3682
  745TMC3    C611010   0.676   2.084  14.097 -0.0609  0.3326  0.3731
  745TMC3     C11011   1.022   2.203  14.298 -0.0011  0.2966 -0.4894
  745TMC3     O11012   1.060   2.157  14.405 -0.0560 -0.8107 -0.2758
  745TMC3     H11013   0.813   2.100  14.407  0.5685  0.3144 -0.0712
  745TMC3    H111014   1.004   2.162  14.035  0.4822  0.2256  0.1132
  745TMC3    H211015   0.584   2.074  14.039  0.8031  1.2855 -1.1612
  745TMC3    C711016   0.766   2.132  13.891 -0.0471  0.4092  0.8264
  745TMC3    C811017   0.602   2.211  14.265 -0.1686  0.4863  0.1703
  745TMC3    O111018   0.675   2.075  13.835 -0.9363 -0.3520 -0.0096
  745TMC3    O211019   0.509   2.236  14.189  0.6950  0.7327 -0.0172
  746TMC3    C111020   2.843   4.462  10.771 -0.1309  0.8529 -0.4311
  746TMC3    C211021   2.890   4.440  10.642  0.5671  0.7711  1.0801
  746TMC3    C311022   2.859   4.323  10.581  0.1294  0.4362  0.1731
  746TMC3    C411023   2.756   4.362  10.823 -0.1244 -0.0204  0.5073
  746TMC3    C511024   2.745   4.244  10.761  0.3898  0.2512 -0.2864
  746TMC3    C611025   2.793   4.219  10.642  0.0439  0.1812 -0.3197
  746TMC3     C11026   2.865   4.588  10.845 -0.3128 -0.0707  0.7200
  746TMC3     O11027   2.830   4.607  10.958  0.3220 -0.3941  0.1101
  746TMC3     H11028   2.972   4.502  10.608 -0.3509  0.5489 -1.5492
  746TMC3    H111029   2.722   4.376  10.925 -1.6629 -0.2272  0.0244
  746TMC3    H211030   2.777   4.126  10.588 -0.8327  0.0283  0.2071
  746TMC3    C711031   2.645   4.148  10.810 -0.6781 -0.2521 -0.1236
  746TMC3    C811032   2.956   4.277  10.481  0.2689 -0.2084 -0.5217
  746TMC3    O111033   2.597   4.067  10.729  0.0224  0.0022 -0.4183
  746TMC3    O211034   2.974   4.156  10.478  0.2544 -0.4079  0.1024
  747TMC3    C111035   0.288   4.523  11.135 -0.3490 -0.0169  0.6814
  747TMC3    C211036   0.237   4.408  11.188 -0.6382 -0.5021  0.5544
  747TMC3    C311037   0.206   4.400  11.323 -0.1807  0.0230  0.2651
  747TMC3    C411038   0.292   4.641  11.199 -0.1518 -0.1030  0.1313
  747TMC3    C511039   0.245   4.633  11.331 -0.0740 -0.2338 -0.3023
  747TMC3    C611040   0.209   4.515  11.394  0.4969  0.4653  0.2538
  747TMC3     C11041   0.337   4.520  11.003 -0.1382 -0.0600 -0.5722
  747TMC3     O11042   0.351   4.411  10.952 -0.0856  0.0806  0.4566
  747TMC3     H11043   0.246   4.313  11.137 -0.4529 -0.2241  0.0701
  747TMC3    H111044   0.342   0.007  11.168  0.3791 -0.2175  0.6468
  747TMC3    H211045   0.201   4.508  11.502  2.1674  1.5267  0.4473
  747TMC3    C711046   0.243   0.037  11.406  1.2427 -0.1954  0.2067
  747TMC3    C811047   0.148   4.279  11.370 -0.2078 -0.1494 -0.0926
  747TMC3    O111048   0.260   0.026  11.527  0.2731  0.2531 -0.5072
  747TMC3    O211049   0.147   4.182  11.293 -0.0385 -0.7709 -0.2187
  748MPD2     C11050   2.482   0.535   2.064  0.4116 -0.1990  0.1243
  748MPD2    C111051   2.419   0.474   1.960  0.4913  0.3625 -0.3529
  748MPD2    C211052   2.480   0.372   1.894  0.9767  0.1977 -0.0273
  748MPD2    C311053   2.612   0.332   1.931 -0.7347 -0.2963  0.4158
  748MPD2    C411054   2.675   0.399   2.033 -0.3211  0.3134 -1.0472
  748MPD2    C511055   2.609   0.502   2.094  0.1893 -0.0224 -0.0871
  748MPD2     H11056   2.424   0.316   1.819  0.3998  0.7426 -0.0034
  748MPD2    H111057   2.772   0.362   2.066 -0.3476  1.4829  0.3169
  748MPD2    H211058   2.435   0.611   2.125  0.3119 -1.2196  1.3327
  748MPD2    H311059   2.658   0.555   2.175  4.5479  1.0626 -3.4165
  748MPD2     N11060   2.667   0.215   1.875  0.0616 -0.4585 -0.8383
  748MPD2    H511061   2.608   0.172   1.804  0.7054  1.7940 -2.7459
  748MPD2    N111062   2.289   0.522   1.935  0.6980  0.4850 -0.8047
  748MPD2    H711063   2.262   0.600   1.994  0.0852  0.3611 -0.9183
  749TMC3    C111064   2.806   0.029   1.824 -0.1110 -0.1985 -0.6775
  749TMC3    C211065   2.874   4.649   1.875  0.1659 -0.4505  0.2034
  749TMC3    C311066   2.931   4.560   1.788 -0.2372  0.0204 -0.3305
  749TMC3    C411067   2.787   0.054   1.691 -0.0906  0.3509  0.2160
  749TMC3    C511068   2.836   4.685   1.604  0.0441 -0.0246 -0.0484
  749TMC3    C611069   2.908   4.574   1.655  0.6410 -0.2722 -0.2406
  749TMC3     C11070   2.791   0.156   1.901 -0.0674  0.3271 -0.3350
  749TMC3     O11071   2.863   0.175   1.999 -0.1463  0.2080  0.0217
  749TMC3     H11072   2.895   4.644   1.981 -0.6147  1.2914  0.4458
  749TMC3    H111073   2.724   0.138   1.664  0.3316  1.4352  2.5760
  749TMC3    H211074   2.936   4.497   1.585  0.8355  0.9173 -1.4775
  749TMC3    C711075   2.836   4.722   1.458 -0.1498 -0.2153 -0.0390
  749TMC3    C811076   2.978   4.427   1.832 -0.1870 -0.5858  0.4298
  749TMC3    O111077   2.754   0.082   1.426  0.0327 -0.1874  1.1329
  749TMC3    O211078   2.937   4.390   1.941 -0.3884 -0.5619  0.2806
  750MPD2     C11079   3.326   1.796  11.173  0.0091  0.0787 -0.1420
  750MPD2    C111080   3.223   1.745  11.242 -1.2238 -0.4111 -0.3391
  750MPD2    C211081   3.144   1.637  11.194  0.5937 -0.0526  0.3346
  750MPD2    C311082   3.190   1.584  11.072  0.1705  0.1907 -0.0217
  750MPD2    C411083   3.305   1.627  11.014 -0.2693 -0.3273 -0.0770
  750MPD2    C511084   3.373   1.729  11.067 -0.1137  0.5901 -0.1744
  750MPD2     H11085   3.054   1.601  11.244 -0.8345  2.6520 -0.3443
  750MPD2    H111086   3.332   1.593  10.914  0.2667  2.2361 -0.7818
  750MPD2    H211087   3.395   1.867  11.218 -1.4079  1.4538 -0.1287
  750MPD2    H311088   3.472   1.752  11.028 -0.3650  0.8440 -0.6509
  750MPD2     N11089   3.132   1.480  11.002 -0.2317  0.4567 -0.4343
  750MPD2    H511090   3.174   1.444  10.917  0.5984 -0.2131  0.2637
  750MPD2    N111091   3.192   1.815  11.359  0.1946 -0.5344 -0.1290
  750MPD2    H711092   3.238   1.905  11.372 -0.7530  0.0303 -0.7120
  751TMC3    C111093   2.977   1.296  10.967 -0.5239  0.4964 -0.9979
  751TMC3    C211094   2.857   1.232  10.997 -0.2170 -0.4966 -0.0355
  751TMC3    C311095   2.827   1.119  10.924 -1.0332 -0.3031  0.6545
  751TMC3    C411096   3.064   1.244  10.882  0.2160  0.1307 -0.1285
  751TMC3    C511097   3.039   1.124  10.822 -0.0480  0.6188  0.1494
  751TMC3    C611098   2.921   1.061  10.837  0.2560  0.3497  0.4048
  751TMC3     C11099   3.012   1.420  11.036 -0.1669 -0.6419 -0.0119
  751TMC3     O11100   2.935   1.463  11.123  0.0442 -0.4196  0.4882
  751TMC3     H11101   2.796   1.285  11.070 -0.8496  2.8758 -3.0015
  751TMC3    H111102   3.163   1.288  10.875  1.0881 -1.5505  1.8146
  751TMC3    H211103   2.890   0.983  10.768  0.0636  0.3015  0.5461
  751TMC3    C711104   3.138   1.038  10.774  0.6439 -0.7844  0.1058
  751TMC3    C811105   2.707   1.045  10.937  0.9020  0.4932 -0.2529
  751TMC3    O111106   3.245   1.090  10.746  0.5682 -0.2812 -0.3041
  751TMC3    O211107   2.706   0.938  10.874 -0.7005  0.2473 -0.6414
  752TMC3    C111108   1.990   0.038  17.483  0.0790  0.2489 -1.3703
  752TMC3    C211109   1.882   0.034  17.570 -0.3688  0.1437  0.3786
  752TMC3    C311110   1.902   0.006   0.003  0.3189  0.6871 -0.2326
  752TMC3    C411111   2.110   4.709  17.515  0.1360 -0.5925 -0.3531
  752TMC3    C511112   2.126   4.666  17.648  0.0593 -0.0738  0.7191
  752TMC3    C611113   2.023   4.677   0.040  0.3913 -0.2467 -0.0058
  752TMC3     C11114   1.964   0.068  17.340  0.0730 -0.5535 -0.1023
  752TMC3     O11115   2.035   0.013  17.254 -0.3925 -0.1699  0.1974
  752TMC3     H11116   1.785   0.063  17.532 -0.0625 -0.3808 -0.7960
  752TMC3    H111117   2.191   4.712  17.444  0.5420  1.5072  0.2069
  752TMC3    H211118   2.036   4.650   0.144 -0.0214  0.7373  0.3055
  752TMC3    C711119   2.227   4.567  17.663  0.0830 -0.5590 -0.4138
  752TMC3    C811120   1.790   4.686   0.079 -0.2186  0.8536  0.7014
  752TMC3    O111121   2.308   4.547  17.575 -0.2830 -0.7895 -0.4039
  752TMC3    O211122   1.826   4.593   0.149 -0.6765 -0.1566 -0.3677
  753TMC3    C111123   3.834   2.044  13.509  0.7042  0.7088  0.2246
  753TMC3    C211124   3.910   2.098  13.606 -0.4051 -0.7037 -0.3433
  753TMC3    C311125   4.000   2.012  13.665 -0.0086  0.6535  0.1759
  753TMC3    C411126   3.864   1.924  13.452 -0.0570 -0.2180 -1.0600
  753TMC3    C511127   3.969   1.855  13.503  0.2133  0.4758 -0.2419
  753TMC3    C611128   4.024   1.885  13.620 -0.7827 -0.4176 -0.0331
  753TMC3     C11129   3.721   2.122  13.449  0.6468  0.8593 -1.0196
  753TMC3     O11130   3.701   2.236  13.483 -0.2501 -0.2583  0.4511
  753TMC3     H11131   3.908   2.202  13.634 -2.0188 -0.9650  0.5671
  753TMC3    H111132   3.830   1.905  13.351  0.2320  0.3773 -1.2710
  753TMC3    H211133   4.103   1.821  13.656 -3.1765 -3.3428  0.0136
  753TMC3    C711134   4.021   1.755  13.416  0.4910 -0.1992  0.5795
  753TMC3    C811135   4.129   2.064  13.699 -0.3811  0.2059 -0.9551
  753TMC3    O111136   4.027   1.776  13.295 -0.5127 -0.2714  0.2738
  753TMC3    O211137   4.219   2.027  13.626  0.3724 -0.2084  0.0779
  754MPD2     C11138   2.765   1.178  13.097 -0.4169  0.4474  0.0783
  754MPD2    C111139   2.739   1.041  13.085  0.3757 -0.2777  0.3158
  754MPD2    C211140   2.608   1.012  13.064 -0.7881  0.0037 -0.9355
  754MPD2    C311141   2.508   1.107  13.081 -0.2275  0.2684 -1.4553
  754MPD2    C411142   2.540   1.242  13.105 -0.0795  0.7438 -0.3219
  754MPD2    C511143   2.667   1.279  13.117  0.2701 -0.2411 -0.0435
  754MPD2     H11144   2.587   0.907  13.047 -0.6804 -0.3720  1.1841
  754MPD2    H111145   2.464   1.318  13.119 -1.3890 -0.1121 -2.6430
  754MPD2    H211146   2.870   1.203  13.090 -0.3790  0.6891  1.7149
  754MPD2    H311147   2.692   1.381  13.142 -0.6183  0.0572 -0.3898
  754MPD2     N11148   2.375   1.085  13.066  0.1819  0.3360  0.0325
  754MPD2    H511149   2.313   1.154  13.106  1.5698  2.3980 -1.3570
  754MPD2    N111150   2.851   0.947  13.092 -0.0329  0.5936  0.1116
  754MPD2    H711151   2.943   0.991  13.097  0.2592 -0.1815  1.4321
  755MPD2     C11152   1.662   1.520  13.300  0.5244 -0.7751 -0.1684
  755MPD2    C111153   1.726   1.454  13.394 -0.2064  0.0396  0.6369
  755MPD2    C211154   1.814   1.346  13.361 -0.3198  0.7081 -0.0027
  755MPD2    C311155   1.829   1.305  13.236  0.1952  0.3991 -0.5160
  755MPD2    C411156   1.768   1.379  13.141 -0.1476  0.2730  0.6313
  755MPD2    C511157   1.686   1.484  13.171 -0.5645 -0.8067 -0.3844
  755MPD2     H11158   1.867   1.300  13.443 -1.3048 -1.4231 -0.5631
  755MPD2    H111159   1.801   1.355  13.041  1.4321  2.9362  0.5259
  755MPD2    H211160   1.602   1.605  13.327  0.3314 -1.0334  0.2101
  755MPD2    H311161   1.654   1.548  13.089  2.5916  0.8887 -0.2981
  755MPD2     N11162   1.918   1.197  13.198  0.1289 -0.6273 -0.5781
  755MPD2    H511163   1.928   1.170  13.101 -0.1555 -2.5089 -0.0953
  755MPD2    N111164   1.707   1.468  13.536  0.2829  0.2277  0.0159
  755MPD2    H711165   1.771   1.415  13.595 -0.9912  0.1709  1.3472
  756MPD2     C11166   2.762   1.879   9.363 -0.1627 -0.0267  0.0516
  756MPD2    C111167   2.674   1.952   9.441  0.2460  0.2019  0.1426
  756MPD2    C211168   2.543   1.958   9.401  0.5345  0.4568 -0.0203
  756MPD2    C311169   2.499   1.892   9.283  0.2499 -0.0809 -0.8946
  756MPD2    C411170   2.593   1.838   9.203  0.0532  0.4263  0.3965
  756MPD2    C511171   2.722   1.833   9.242 -0.0211 -0.0802  0.4268
  756MPD2     H11172   2.479   2.016   9.467 -1.1781 -1.1520 -0.2787
  756MPD2    H111173   2.578   1.804   9.101  0.2207 -0.0220  0.5228
  756MPD2    H211174   2.869   1.876   9.378 -0.2359 -1.2094  0.3098
  756MPD2    H311175   2.805   1.806   9.179 -0.3812  2.5999 -1.1985
  756MPD2     N11176   2.361   1.897   9.246 -0.2065 -0.5701 -0.2275
  756MPD2    H511177   2.305   1.957   9.305 -0.8330  0.6653 -2.1153
  756MPD2    N111178   2.700   1.978   9.575  0.4746 -0.2123 -0.0791
  756MPD2    H711179   2.633   2.037   9.623  2.0795  1.1006  0.5263
  757MPD2     C11180   1.651   1.270   9.191 -0.1095  0.9589  0.3071
  757MPD2    C111181   1.763   1.278   9.261 -0.1124  0.0960  0.0244
  757MPD2    C211182   1.839   1.392   9.245 -1.0559 -0.4360 -0.1114
  757MPD2    C311183   1.799   1.499   9.167  0.5776  0.1705  0.6359
  757MPD2    C411184   1.673   1.486   9.111 -0.4998  0.1591  0.0808
  757MPD2    C511185   1.595   1.377   9.120  0.0910 -0.1441 -0.6237
  757MPD2     H11186   1.939   1.394   9.285 -0.8687  3.1967 -0.8018
  757MPD2    H111187   1.627   1.559   9.044  0.8563 -0.1164 -1.1576
  757MPD2    H211188   1.588   1.182   9.196  1.8379 -0.4222  0.5826
  757MPD2    H311189   1.503   1.369   9.063  1.4591 -2.1285 -2.5545
  757MPD2     N11190   1.875   1.617   9.168  0.5880  0.5914  0.3466
  757MPD2    H511191   1.957   1.613   9.227  1.2162 -2.3642 -0.7374
  757MPD2    N111192   1.799   1.167   9.340 -0.2677  0.3534 -0.2507
  757MPD2    H711193   1.726   1.098   9.355  1.1384 -1.2532 -0.8348
  758MPD2     C11194   2.992   0.605  15.391  0.1194  0.1079  0.2589
  758MPD2    C111195   3.069   0.544  15.494  0.0961 -0.3415 -0.5444
  758MPD2    C211196   3.035   0.574  15.624 -0.1992  0.5375  0.0773
  758MPD2    C311197   2.931   0.654  15.657 -0.6019 -0.0663 -0.4905
  758MPD2    C411198   2.856   0.711  15.558 -0.0085 -1.5236  0.3016
  758MPD2    C511199   2.892   0.689  15.425  0.3545 -0.9367 -0.4578
  758MPD2     H11200   3.090   0.527  15.705 -1.0475 -1.6526 -0.6418
  758MPD2    H111201   2.769   0.766  15.593  0.2001 -0.3463 -1.0295
  758MPD2    H211202   3.019   0.596  15.287  1.0619  1.0699  0.4201
  758MPD2    H311203   2.847   0.744  15.343  0.3147 -0.4997 -0.1464
  758MPD2     N11204   2.896   0.675  15.790  0.0194  0.0513  0.7590
  758MPD2    H511205   2.820   0.739  15.809  0.0131  0.2511  0.0691
  758MPD2    N111206   3.186   0.473  15.461 -0.7161  0.5062 -0.3354
  758MPD2    H711207   3.224   0.491  15.369 -1.0545  1.0054 -0.3767
  759MPD2     C11208   0.916   4.276   9.308  0.0364  0.2158  0.4862
  759MPD2    C111209   0.938   4.144   9.265 -0.2683 -0.8538  0.0994
  759MPD2    C211210   1.066   4.108   9.229 -0.2725  0.1556  0.7892
  759MPD2    C311211   1.169   4.198   9.228 -0.0162  0.7812  0.2038
  759MPD2    C411212   1.143   4.328   9.267 -0.0600 -0.2873 -0.9030
  759MPD2    C511213   1.021   4.369   9.302  0.0866 -0.2590  0.2617
  759MPD2     H11214   1.087   4.005   9.200  1.0615  0.4391  0.7649
  759MPD2    H111215   1.225   4.399   9.267 -2.2414  2.2378 -0.7185
  759MPD2    H211216   0.822   4.310   9.349 -0.6117 -2.4723  1.2135
  759MPD2    H311217   1.009   4.473   9.328 -0.5733  0.6012 -3.5114
  759MPD2     N11218   1.301   4.157   9.187 -0.3255  0.0685  0.1703
  759MPD2    H511219   1.306   4.059   9.158  1.3457  0.6828 -1.6413
  759MPD2    N111220   0.843   4.048   9.301  0.0837 -0.5489 -0.1025
  759MPD2    H711221   0.874   3.951   9.296  0.5581 -0.4051  0.0233
  760MPD2     C11222   0.992   1.167  12.038  0.2648 -0.3962 -0.3706
  760MPD2    C111223   1.129   1.166  12.058 -0.2885 -0.7666 -0.5705
  760MPD2    C211224   1.186   1.081  12.154  0.8208 -0.1457 -0.7763
  760MPD2    C311225   1.106   0.989  12.223 -0.0151 -0.7957 -0.4701
  760MPD2    C411226   0.970   0.991  12.203  0.4545  0.2641 -0.3255
  760MPD2    C511227   0.915   1.081  12.117 -0.2274 -0.0085  0.1329
  760MPD2     H11228   1.286   1.088  12.195  0.4868  1.8849 -0.3255
  760MPD2    H111229   0.910   0.916  12.252  0.8154  0.1613 -0.0466
  760MPD2    H211230   0.937   1.237  11.976 -0.7840  0.5623  1.6222
  760MPD2    H311231   0.808   1.085  12.097  0.2403  1.7849 -2.0705
  760MPD2     N11232   1.169   0.897  12.309 -0.4659 -0.6915 -0.0706
  760MPD2    H511233   1.270   0.889  12.297 -0.2989 -0.6764  1.3401
  760MPD2    N111234   1.213   1.257  11.994 -0.4409 -0.1695 -0.0874
  760MPD2    H711235   1.309   1.245  12.023 -0.7616  0.5801  1.3295
  761MPD2     C11236   2.252   0.872  11.051  0.2675  0.2389  0.3044
  761MPD2    C111237   2.326   0.849  10.939  0.4957 -0.5646  0.0344
  761MPD2    C211238   2.437   0.935  10.915 -0.4996 -0.5275 -0.2650
  761MPD2    C311239   2.474   1.030  11.012  0.4109  0.4218 -0.9259
  761MPD2    C411240   2.388   1.055  11.110  0.9609  0.0635  1.1766
  761MPD2    C511241   2.284   0.977  11.133 -0.1846  0.1590  0.0808
  761MPD2     H11242   2.498   0.919  10.827  0.0678  1.1052 -0.1648
  761MPD2    H111243   2.408   1.136  11.180  0.4083  0.5223  0.8085
  761MPD2    H211244   2.161   0.819  11.078  1.2339 -0.5695  2.0270
  761MPD2    H311245   2.212   0.994  11.213 -1.4047 -0.0713 -0.9718
  761MPD2     N11246   2.605   1.099  11.012 -0.5109  0.5965  0.9603
  761MPD2    H511247   2.624   1.167  11.085  1.0784  0.7383  0.4225
  761MPD2    N111248   2.318   0.730  10.876  0.0374  0.5295  0.1740
  761MPD2    H711249   2.257   0.663  10.921  0.0893 -0.3973 -1.1464
  762MPD2     C11250   2.898   0.709  10.470 -0.5024  0.0532  0.1628
  762MPD2    C111251   2.849   0.583  10.452  0.2667  0.0875 -0.2004
  762MPD2    C211252   2.935   0.500  10.383  0.9161 -0.6822  0.2092
  762MPD2    C311253   3.061   0.535  10.343 -0.0968 -0.9020  0.4603
  762MPD2    C411254   3.110   0.661  10.370  0.5093  0.0322 -0.5572
  762MPD2    C511255   3.023   0.750  10.428  0.5003 -0.0083 -0.1789
  762MPD2     H11256   2.894   0.401  10.362 -1.9886  0.3879  0.7504
  762MPD2    H111257   3.211   0.689  10.342  1.4950  0.8734  3.7736
  762MPD2    H211258   2.839   0.777  10.530 -1.3540 -1.2097  0.7600
  762MPD2    H311259   3.063   0.849  10.448 -1.1010  0.9165 -1.6148
  762MPD2     N11260   3.139   0.445  10.271  0.0204  0.1097 -0.3227
  762MPD2    H511261   3.099   0.352  10.267 -1.8193  0.9081 -0.7393
  762MPD2    N111262   2.720   0.549  10.508 -0.0230  0.2282 -0.0773
  762MPD2    H711263   2.683   0.622  10.567  0.0499 -0.9923  1.4663
  763MPD2     C11264   4.697   0.786  16.176  0.3179  0.0778  0.2401
  763MPD2    C111265   4.588   0.837  16.117 -0.1764  0.4011  0.1304
  763MPD2    C211266   4.553   0.965  16.159  0.0249 -0.2334 -0.4563
  763MPD2    C311267   4.626   1.026  16.259 -0.7605  0.2755 -0.3124
  763MPD2    C411268   0.014   0.966  16.315 -0.5736 -0.1338 -0.1439
  763MPD2    C511269   0.055   0.849  16.263 -0.3819 -1.2411  0.7334
  763MPD2     H11270   4.469   1.019  16.117  0.0551  0.0128 -0.2018
  763MPD2    H111271   0.069   1.011  16.397  1.6124 -2.5162 -0.2801
  763MPD2    H211272   0.011   0.687  16.151  0.4407  1.3397 -4.5898
  763MPD2    H311273   0.131   0.799  16.323  1.1929 -0.9952 -1.0834
  763MPD2     N11274   4.604   1.164  16.302 -0.4023  0.2678 -0.0054
  763MPD2    H511275   4.669   1.202  16.369  0.1958 -0.6700 -0.0494
  763MPD2    N111276   4.515   0.766  16.021  0.4403  0.0313 -0.1267
  763MPD2    H711277   4.436   0.821  15.991  0.6610 -0.4117 -1.4942
  764MPD2     C11278   2.300   1.254  17.539 -0.8822 -0.1023  0.2346
  764MPD2    C111279   2.184   1.305  17.585 -0.6173  0.1458 -0.0115
  764MPD2    C211280   2.156   1.301   0.022 -0.3106  0.4950  0.1799
  764MPD2    C311281   2.255   1.255   0.109 -0.0703 -0.3129 -0.2390
  764MPD2    C411282   2.376   1.210   0.062  0.7484  0.1323 -0.4661
  764MPD2    C511283   2.400   1.220  17.620 -0.2960  0.3161  0.3104
  764MPD2     H11284   2.065   1.340   0.066 -0.6118  1.0541 -0.9403
  764MPD2    H111285   2.460   1.174   0.120  1.2139 -2.0798 -2.5189
  764MPD2    H211286   2.315   1.234  17.434 -2.9671  0.6176 -0.1987
  764MPD2    H311287   2.493   1.183  17.578  0.9457  0.3035  3.0351
  764MPD2     N11288   2.229   1.252   0.247  0.6905  0.9036  0.4070
  764MPD2    H511289   2.149   1.303   0.283 -1.3135 -2.2513  0.4409
  764MPD2    N111290   2.079   1.357  17.503 -0.1254 -0.5514  0.0524
  764MPD2    H711291   2.007   1.412  17.550 -1.2988 -0.9734 -1.2656
  765MPD2     C11292   2.405   4.114  15.903  0.1011 -0.3038  0.3804
  765MPD2    C111293   2.429   4.245  15.856 -0.4340 -0.9931  0.2126
  765MPD2    C211294   2.531   4.271  15.769 -0.1772  0.1287 -0.3931
  765MPD2    C311295   2.614   4.167  15.730  0.6130 -0.0327 -0.3898
  765MPD2    C411296   2.577   4.038  15.763  0.4791 -0.1645 -0.1567
  765MPD2    C511297   2.468   4.012  15.842 -0.0287  0.0176  0.1229
  765MPD2     H11298   2.549   4.370  15.730 -1.4671  0.3348 -0.4520
  765MPD2    H111299   2.634   3.952  15.731  0.2939 -0.7742  1.1598
  765MPD2    H211300   2.321   4.088  15.967  0.1662  0.5226  0.8084
  765MPD2    H311301   2.452   3.909  15.871 -0.4076 -0.8570 -3.2610
  765MPD2     N11302   2.722   4.197  15.639  0.2412 -0.3774 -0.3427
  765MPD2    H511303   2.742   4.294  15.619  2.0598 -0.7153 -0.2143
  765MPD2    N111304   2.342   4.343  15.896 -0.4135 -0.0023 -0.0318
  765MPD2    H711305   2.264   4.322  15.958 -2.3200  4.1588 -1.0159
  766MPD2     C11306   1.645   0.018  15.512 -0.4830  0.8748  0.2346
  766MPD2    C111307   1.762   4.672  15.535  0.4943  0.0371 -0.0843
  766MPD2    C211308   1.834   4.625  15.425  0.1978  0.2220 -0.0978
  766MPD2    C311309   1.798   4.657  15.292 -0.0620  0.0564 -0.1376
  766MPD2    C411310   1.686   0.008  15.274 -0.2377  0.2390  0.5013
  766MPD2    C511311   1.610   0.043  15.381 -0.3301  0.3625  0.0841
  766MPD2     H11312   1.926   4.573  15.446 -0.6608 -0.7490  1.2133
  766MPD2    H111313   1.653   0.042  15.176  1.3600 -0.7175 -0.3577
  766MPD2    H211314   1.585   0.062  15.592  0.7718  0.4956  1.3842
  766MPD2    H311315   1.523   0.106  15.365 -1.4716 -1.2458 -0.1450
  766MPD2     N11316   1.877   4.638  15.175  0.4187  0.8738  0.0197
  766MPD2    H511317   1.856   4.688  15.090  2.6283  0.3914 -0.7919
  766MPD2    N111318   1.809   4.648  15.661  0.0043 -0.1882  0.9220
  766MPD2    H711319   1.776   4.721  15.724  3.1043 -0.0042  2.3448
  767MPD2     C11320   1.803   0.346  15.254  0.7731 -0.6077  0.7861
  767MPD2    C111321   1.906   0.292  15.182  0.5614 -0.4952  0.5983
  767MPD2    C211322   1.894   0.250  15.054  0.2744  0.3938 -0.0520
  767MPD2    C311323   1.765   0.255  14.993  0.0378  0.4782  0.4461
  767MPD2    C411324   1.665   0.317  15.063  0.1258 -0.3044  0.4214
  767MPD2    C511325   1.682   0.365  15.190  0.4861  0.1270 -0.7044
  767MPD2     H11326   1.979   0.210  14.999  0.0771 -1.5230  1.0404
  767MPD2    H111327   1.572   0.337  15.011 -0.3341  1.1411  1.8105
  767MPD2    H211328   1.803   0.370  15.360  0.7193 -0.0266  0.6545
  767MPD2    H311329   1.596   0.406  15.242  0.6835  0.6293 -0.7754
  767MPD2     N11330   1.743   0.218  14.855  0.0724 -0.0814 -0.3432
  767MPD2    H511331   1.816   0.167  14.807 -1.0111 -0.8964 -1.1207
  767MPD2    N111332   2.029   0.298  15.246 -0.4238  0.3497  0.0799
  767MPD2    H711333   2.031   0.322  15.345 -1.3524  0.4293  0.0766
  768MPD2     C11334   2.259   3.507  10.560 -0.8946  0.4009  0.2717
  768MPD2    C111335   2.225   3.543  10.686 -0.0526  1.0780  0.5699
  768MPD2    C211336   2.317   3.562  10.785 -0.0432 -0.2606 -0.0780
  768MPD2    C311337   2.451   3.544  10.761  0.0890 -0.3985  0.3153
  768MPD2    C411338   2.491   3.502  10.637  0.4266 -0.4170  0.5364
  768MPD2    C511339   2.395   3.485  10.542 -0.0731 -0.1002  0.3433
  768MPD2     H11340   2.290   3.607  10.880  0.9253  2.0349 -0.8872
  768MPD2    H111341   2.597   3.486  10.621  0.2192 -0.1427 -1.0905
  768MPD2    H211342   2.188   3.485  10.481  1.0930 -0.0271 -1.4117
  768MPD2    H311343   2.418   3.456  10.440 -1.9722 -1.0674  0.1900
  768MPD2     N11344   2.559   3.591  10.846  0.1683 -0.0513  0.0365
  768MPD2    H511345   2.651   3.571  10.808  0.9822  1.8599  0.9698
  768MPD2    N111346   2.100   3.587  10.722  0.4385  0.6202 -0.2076
  768MPD2    H711347   2.088   3.606  10.821  0.6451 -2.2698  0.3806
  769MPD2     C11348   3.476   1.661  14.630 -0.2839 -0.4497 -0.1130
  769MPD2    C111349   3.384   1.700  14.729  0.5166  0.6687  0.6067
  769MPD2    C211350   3.431   1.730  14.858  0.3291  0.6383 -0.4543
  769MPD2    C311351   3.564   1.713  14.887  0.4492 -0.1846 -0.4136
  769MPD2    C411352   3.647   1.668  14.791 -0.4705  0.5283 -0.3993
  769MPD2    C511353   3.603   1.636  14.668  0.6556  0.0559 -0.1181
  769MPD2     H11354   3.372   1.773  14.939  1.6944  0.6256  0.5542
  769MPD2    H111355   3.754   1.661  14.809 -0.6390  2.3508  1.4213
  769MPD2    H211356   3.443   1.641  14.529 -0.7338 -0.3476  0.0149
  769MPD2    H311357   3.670   1.587  14.598  0.4133 -1.5124  0.7516
  769MPD2     N11358   3.615   1.744  15.018  0.4983 -0.7153 -0.3644
  769MPD2    H511359   3.555   1.792  15.083  0.9399  1.3185 -1.4516
  769MPD2    N111360   3.244   1.705  14.693 -0.5793  0.5300 -0.6517
  769MPD2    H711361   3.226   1.665  14.602 -0.0410 -1.0666 -0.0615
  770MPD2     C11362   3.075   0.808  14.970  0.8665 -0.7159 -0.4904
  770MPD2    C111363   3.087   0.832  14.837 -1.1505 -0.1828  0.2670
  770MPD2    C211364   3.057   0.950  14.781 -0.0757 -0.2148 -0.9347
  770MPD2    C311365   3.007   1.057  14.860  0.5175  0.2134  0.3411
  770MPD2    C411366   2.989   1.033  14.992 -0.8372 -0.2343  0.6279
  770MPD2    C511367   3.018   0.910  15.050  0.3129  0.4310 -1.2140
  770MPD2     H11368   3.071   0.957  14.674  2.2382  0.9046 -0.5644
  770MPD2    H111369   2.961   1.107  15.067  0.1459  1.2402 -0.4751
  770MPD2    H211370   3.109   0.715  15.013  0.1210 -0.8409 -0.1737
  770MPD2    H311371   3.003   0.898  15.156 -0.1900 -0.3825 -1.3844
  770MPD2     N11372   2.993   1.183  14.798  0.8953 -0.0936 -0.0391
  770MPD2    H511373   3.015   1.195  14.699  1.6327 -1.3676 -0.0319
  770MPD2    N111374   3.126   0.718  14.763 -0.6165 -0.4006  0.1920
  770MPD2    H711375   3.148   0.638  14.822  1.3510  2.1543  2.9346
  771MPD2     C11376   4.394   4.661  13.796 -0.1670 -0.7304  0.0500
  771MPD2    C111377   4.318   0.004  13.710 -0.2975  0.4913 -0.2447
  771MPD2    C211378   4.288   4.662  13.590 -0.4535  0.1169  0.7852
  771MPD2    C311379   4.332   4.536  13.554 -0.0323 -0.1793 -0.9009
  771MPD2    C411380   4.405   4.471  13.655  0.0929 -0.4770 -0.3346
  771MPD2    C511381   4.442   4.533  13.771 -0.0930 -0.0224  0.0374
  771MPD2     H11382   4.220   4.715  13.524 -0.3772 -1.5245 -0.6339
  771MPD2    H111383   4.442   4.370  13.640 -0.7178 -0.8579  0.2599
  771MPD2    H211384   4.431   4.698  13.891  0.6455 -1.7196  0.1192
  771MPD2    H311385   4.514   4.494  13.842 -0.4558 -2.0275 -0.7092
  771MPD2     N11386   4.299   4.471  13.427  0.2300  0.3703 -0.0392
  771MPD2    H511387   4.239   4.533  13.374 -1.3209 -2.2018 -1.2691
  771MPD2    N111388   4.272   0.138  13.730  0.0867  0.6534  0.6705
  771MPD2    H711389   4.226   0.179  13.649  3.5587  1.6078 -0.8309
  772MPD2     C11390   3.812   0.689  13.572  0.4541  0.6774  0.0935
  772MPD2    C111391   3.832   0.570  13.639  0.5004 -0.2643  0.0137
  772MPD2    C211392   3.727   0.478  13.636  0.3985  0.1455 -0.8142
  772MPD2    C311393   3.604   0.502  13.581 -0.4958  0.3733  0.4093
  772MPD2    C411394   3.584   0.629  13.529  0.0752  0.5742 -0.0998
  772MPD2    C511395   3.689   0.723  13.524  0.9525 -0.5040 -0.0322
  772MPD2     H11396   3.739   0.384  13.689  0.0912 -0.0538 -1.0995
  772MPD2    H111397   3.490   0.649  13.479  0.6376  2.6392 -0.3252
  772MPD2    H211398   3.884   0.770  13.572  0.0454  1.0440  1.1953
  772MPD2    H311399   3.673   0.823  13.486 -1.2202  0.6482  3.8007
  772MPD2     N11400   3.498   0.422  13.582  0.2164  0.2100 -0.1971
  772MPD2    H511401   3.406   0.452  13.552 -0.9270 -1.8415  1.2737
  772MPD2    N111402   3.952   0.525  13.704  0.0633 -0.4065 -0.3403
  772MPD2    H711403   3.944   0.436  13.752 -1.9346 -0.8816 -1.5773
  773MPD2     C11404   3.541   1.010  17.634  0.7326 -0.1091 -0.2589
  773MPD2    C111405   3.444   0.918  17.598  0.5153  0.3822  0.1266
  773MPD2    C211406   3.429   0.804  17.668  0.4611 -0.1612 -0.5113
  773MPD2    C311407   3.507   0.783   0.082 -0.3842 -0.1405 -0.2209
  773MPD2    C411408   3.593   0.877   0.126 -1.0273 -0.5428 -0.0195
  773MPD2    C511409   3.607   0.996   0.055 -1.0506  0.6360  0.3177
  773MPD2     H11410   3.360   0.729  17.631 -0.0251  0.4584 -0.8748
  773MPD2    H111411   3.666   0.861   0.205  0.0363 -2.1276 -1.3203
  773MPD2    H211412   3.566   1.100  17.579  1.6306 -0.3905 -0.3209
  773MPD2    H311413   3.684   1.066   0.087  0.5501 -0.6400 -0.7185
  773MPD2     N11414   3.488   0.655   0.138 -1.0641 -0.1346  0.3346
  773MPD2    H511415   3.430   0.593   0.083  0.1910 -1.0108  0.0145
  773MPD2    N111416   3.358   0.935  17.486 -0.1998  0.2561 -0.0883
  773MPD2    H711417   3.285   0.866  17.477  0.4015 -0.3859 -0.0686
  774MPD2     C11418   2.643   4.597  13.279  0.2339 -1.1359 -0.4501
  774MPD2    C111419   2.528   4.659  13.324  0.4402  0.5667  0.9796
  774MPD2    C211420   2.507   0.069  13.289  0.0396  0.1569 -0.3738
  774MPD2    C311421   2.607   0.144  13.223  0.6553 -0.1204  0.6867
  774MPD2    C411422   2.724   0.083  13.187  0.9915  0.3091 -0.0342
  774MPD2    C511423   2.744   4.671  13.223 -0.0014  0.2551  0.6852
  774MPD2     H11424   2.428   0.124  13.338 -0.4447 -1.0021  0.1550
  774MPD2    H111425   2.808   0.139  13.147 -0.1309  0.8025 -1.7090
  774MPD2    H211426   2.670   4.499  13.316  1.6387 -0.9668 -1.0389
  774MPD2    H311427   2.844   4.631  13.213 -0.2654 -0.5265  1.1481
  774MPD2     N11428   2.586   0.284  13.198 -0.8018  0.1482 -0.1639
  774MPD2    H511429   2.500   0.328  13.229  0.1854  0.2771  2.3463
  774MPD2    N111430   2.442   4.592  13.408  0.1530  1.0970 -0.2793
  774MPD2    H711431   2.474   4.506  13.450 -2.9799  0.6344  1.1794
  775MPD2     C11432   3.880   1.465  15.378 -0.6807 -0.2279  0.2456
  775MPD2    C111433   3.908   1.534  15.494  0.5307  0.0889 -0.2428
  775MPD2    C211434   4.031   1.606  15.495  1.5617  0.3854  1.1301
  775MPD2    C311435   4.114   1.601  15.388  0.3469  0.2049 -0.6188
  775MPD2    C411436   4.090   1.525  15.282 -0.1689  0.1068  0.2390
  775MPD2    C511437   3.971   1.454  15.279  0.4307 -0.6799 -0.0258
  775MPD2     H11438   4.046   1.673  15.579  0.0387  2.2720 -0.0959
  775MPD2    H111439   4.164   1.526  15.203  0.9820 -1.0680  1.3055
  775MPD2    H211440   3.787   1.409  15.372 -0.5061 -0.6921  1.8367
  775MPD2    H311441   3.940   1.409  15.185 -2.2737  1.6771 -0.2838
  775MPD2     N11442   4.237   1.677  15.377 -0.2030  0.3665 -0.6729
  775MPD2    H511443   4.289   1.671  15.290  2.7604  3.3675  0.8723
  775MPD2    N111444   3.807   1.538  15.593  0.0206 -0.4980  0.3310
  775MPD2    H711445   3.729   1.474  15.591 -1.9909  1.9551 -0.0843
  776MPD2     C11446   3.116   2.487  11.856 -1.0863  0.2296  0.2371
  776MPD2    C111447   3.080   2.447  11.728  0.2174  1.1343  0.0584
  776MPD2    C211448   3.071   2.539  11.624  0.5381 -0.4783 -0.6063
  776MPD2    C311449   3.104   2.671  11.658 -0.0126 -0.2106 -0.0472
  776MPD2    C411450   3.129   2.704  11.788  0.3481  0.4456 -0.3682
  776MPD2    C511451   3.137   2.614  11.886 -0.5126 -0.0592 -0.6454
  776MPD2     H11452   3.049   2.510  11.521 -0.4755  1.7206 -1.0103
  776MPD2    H111453   3.140   2.807  11.820 -2.7701  1.0045 -1.0904
  776MPD2    H211454   3.116   2.424  11.945  2.1436  0.7372  0.5872
  776MPD2    H311455   3.163   2.639  11.988 -1.5428  1.2073 -0.7037
  776MPD2     N11456   3.119   2.769  11.559  0.3395 -0.0258 -0.6378
  776MPD2    H511457   3.150   2.859  11.594 -1.3514  0.3272 -0.0263
  776MPD2    N111458   3.050   2.304  11.709 -0.0349  0.0363 -0.3332
  776MPD2    H711459   3.050   2.250  11.795 -0.4042  1.3716  0.5123
  777MPD2     C11460   3.299   4.130   0.782  0.0592  0.7076  0.2548
  777MPD2    C111461   3.402   4.045   0.826  0.0856  0.2283 -0.8465
  777MPD2    C211462   3.451   3.945   0.740  0.2887  0.9794 -0.2202
  777MPD2    C311463   3.405   3.946   0.607 -0.2451 -0.4464 -0.8040
  777MPD2    C411464   3.313   4.043   0.565 -0.0670  0.7813 -0.5515
  777MPD2    C511465   3.260   4.135   0.650  0.2393 -0.1704  0.0356
  777MPD2     H11466   3.528   3.881   0.782  0.2838  0.8595 -0.3936
  777MPD2    H111467   3.272   4.038   0.465 -2.0908  0.6417  0.2745
  777MPD2    H211468   3.264   4.195   0.861  2.1684 -0.0306  1.7771
  777MPD2    H311469   3.192   4.213   0.618  0.7969  0.8250  1.2998
  777MPD2     N11470   3.436   3.823   0.535 -0.3022 -0.1793  0.5639
  777MPD2    H511471   3.494   3.759   0.589 -0.4547 -1.7390 -1.1143
  777MPD2    N111472   3.435   4.053   0.961 -0.0391  0.0030  0.0879
  777MPD2    H711473   3.363   4.101   1.016 -0.6390 -0.0392 -0.6564
  778MPD2     C11474   4.300   3.778  15.117 -0.0571  0.1016  0.4380
  778MPD2    C111475   4.220   3.804  15.007 -0.2146 -0.7332  0.6021
  778MPD2    C211476   4.253   3.911  14.933 -0.3130 -0.6635  0.4749
  778MPD2    C311477   4.350   4.002  14.965 -0.6493  0.9705 -0.0235
  778MPD2    C411478   4.430   3.977  15.076 -0.3131 -0.3657 -0.3925
  778MPD2    C511479   4.402   3.863  15.158 -0.4005 -0.6673 -0.2680
  778MPD2     H11480   4.189   3.936  14.849  0.5213 -0.6408 -0.1687
  778MPD2    H111481   4.514   4.043  15.095 -0.6211  0.2329 -1.1108
  778MPD2    H211482   4.283   3.686  15.173 -0.3584  1.2447  2.2180
  778MPD2    H311483   4.467   3.848  15.243  0.1716  1.2915 -0.3640
  778MPD2     N11484   4.384   4.115  14.887  0.0970  1.3315  0.5878
  778MPD2    H511485   4.347   4.099  14.794  1.6240  1.5853 -0.0693
  778MPD2    N111486   4.108   3.731  14.966  0.4545 -0.4083  0.3264
  778MPD2    H711487   4.050   3.762  14.889  2.2323 -0.9754 -1.2535
  779MPD2     C11488   4.016   3.075  14.399 -0.1684 -0.0760 -0.1236
  779MPD2    C111489   4.152   3.049  14.370 -0.0426 -0.2864  0.4219
  779MPD2    C211490   4.225   3.139  14.296 -0.2716 -0.0809 -0.0156
  779MPD2    C311491   4.164   3.255  14.248  0.5634  0.6895 -0.2825
  779MPD2    C411492   4.039   3.289  14.300  0.0092  0.0063 -0.1434
  779MPD2    C511493   3.965   3.195  14.367 -0.1041 -0.3079  0.1986
  779MPD2     H11494   4.329   3.117  14.277 -0.5680  0.4282 -2.2787
  779MPD2    H111495   3.996   3.386  14.279 -2.2488 -0.4083  2.5461
  779MPD2    H211496   3.957   3.004  14.457  0.6107 -2.0165 -1.6904
  779MPD2    H311497   3.863   3.224  14.390 -0.1130 -0.0807 -0.1309
  779MPD2     N11498   4.237   3.339  14.164 -0.5958 -0.6434 -0.2836
  779MPD2    H511499   4.335   3.322  14.142 -0.2218 -0.0110  0.8538
  779MPD2    N111500   4.220   2.924  14.402 -0.3240  0.0712  0.0416
  779MPD2    H711501   4.313   2.917  14.361  0.0691  0.1349  0.9168
  780MPD2     C11502   4.220   2.977   1.658 -0.1284 -0.6000  0.0180
  780MPD2    C111503   4.122   2.930   1.570  0.4020  0.5410 -0.2988
  780MPD2    C211504   4.153   2.940   1.432  0.1296 -0.8614 -0.5389
  780MPD2    C311505   4.273   2.989   1.382  1.1495  0.2542  0.2216
  780MPD2    C411506   4.366   3.025   1.474  0.1653  0.1761  0.1607
  780MPD2    C511507   4.336   3.022   1.603  0.3986  1.3118 -0.1174
  780MPD2     H11508   4.081   2.919   1.354  0.1378 -1.7013 -0.3174
  780MPD2    H111509   4.467   3.056   1.449 -0.6307  2.3779 -0.3548
  780MPD2    H211510   4.215   2.982   1.766  1.1135  0.2360  0.0426
  780MPD2    H311511   4.416   3.036   1.674  0.6239  2.2689 -0.5519
  780MPD2     N11512   4.285   3.001   1.243 -0.6512  0.0502 -0.0786
  780MPD2    H511513   4.215   2.953   1.188 -1.4732  0.3946  0.6599
  780MPD2    N111514   3.992   2.907   1.622  0.2102 -0.1230 -0.1431
  780MPD2    H711515   3.982   2.911   1.723 -1.3398  0.2498 -0.3235
  781MPD2     C11516   4.631   0.433  12.394 -1.0638 -0.2036 -0.4925
  781MPD2    C111517   0.036   0.452  12.427  0.3372  0.0026 -0.5791
  781MPD2    C211518   0.124   0.500  12.337  0.9254  0.9502  0.8096
  781MPD2    C311519   0.080   0.535  12.208 -0.0788  0.2926 -0.1371
  781MPD2    C411520   4.674   0.524  12.182 -0.3596  0.4352  0.4057
  781MPD2    C511521   4.583   0.473  12.275  0.5917  0.8868 -0.1120
  781MPD2     H11522   0.229   0.508  12.364  0.9346 -0.6608  1.2348
  781MPD2    H111523   4.629   0.552  12.087  0.1656 -0.7805 -0.2011
  781MPD2    H211524   4.554   0.428  12.470  0.1508  3.5233  0.9809
  781MPD2    H311525   4.478   0.466  12.249  0.4785  1.1282  0.2800
  781MPD2     N11526   0.166   0.577  12.104 -0.2352  0.0301 -0.5968
  781MPD2    H511527   0.122   0.586  12.013 -1.2891 -0.1865 -0.1093
  781MPD2    N111528   0.080   0.406  12.553 -0.0450 -0.3883 -0.5274
  781MPD2    H711529   0.180   0.413  12.568 -0.3855  2.0204  0.7873
  782MPD2     C11530   3.290   1.079   9.947 -0.4194 -0.7034  0.1280
  782MPD2    C111531   3.394   1.108  10.030  0.2066  0.3263 -0.5980
  782MPD2    C211532   3.414   1.234  10.075  0.6246 -0.0874 -0.0796
  782MPD2    C311533   3.311   1.326  10.054 -0.3783 -0.5697  0.2491
  782MPD2    C411534   3.192   1.293   9.990  0.2789  0.1791 -0.0494
  782MPD2    C511535   3.185   1.165   9.939 -0.0441  0.0605 -0.8541
  782MPD2     H11536   3.504   1.265  10.127  0.4869 -4.2104  2.6226
  782MPD2    H111537   3.114   1.365   9.969 -0.1992  0.1137  1.5161
  782MPD2    H211538   3.282   0.977   9.913  1.3156 -1.5188  2.2013
  782MPD2    H311539   3.095   1.132   9.888 -1.3274  2.4241 -0.0907
  782MPD2     N11540   3.335   1.459  10.102  0.1232  0.3139 -0.9885
  782MPD2    H511541   3.409   1.458  10.172  1.1458  2.3322 -2.0436
  782MPD2    N111542   3.484   1.002  10.066 -0.6779 -0.4923 -0.4872
  782MPD2    H711543   3.459   0.909  10.036  0.8051 -0.8750 -0.5459
  783MPD2     C11544   3.170   0.680  10.823 -0.2678  0.0260 -0.0397
  783MPD2    C111545   3.194   0.800  10.755  0.2829 -0.0464 -0.2388
  783MPD2    C211546   3.295   0.819  10.661  0.2255 -0.4060  0.0302
  783MPD2    C311547   3.364   0.707  10.618  0.5386 -0.6399  0.2087
  783MPD2    C411548   3.350   0.585  10.674  0.0151  0.2953  0.0565
  783MPD2    C511549   3.258   0.577  10.780  0.5078 -0.2531  0.0559
  783MPD2     H11550   3.316   0.912  10.608 -2.6972 -0.1735 -0.7248
  783MPD2    H111551   3.401   0.492  10.651 -0.7539  0.3773 -1.9471
  783MPD2    H211552   3.099   0.664  10.904  0.3070 -0.9201  0.2793
  783MPD2    H311553   3.239   0.480  10.826  0.4587 -0.3124 -0.0878
  783MPD2     N11554   3.452   0.734  10.512 -0.1140 -0.1112 -0.0373
  783MPD2    H511555   3.473   0.830  10.490  1.5496 -0.5344 -0.3124
  783MPD2    N111556   3.109   0.907  10.794  0.2424 -0.1054  0.6124
  783MPD2    H711557   3.040   0.877  10.862 -0.7513 -0.5593 -0.6077
  784MPD2     C11558   0.372   1.137   1.618  0.2587  0.2520 -0.0473
  784MPD2    C111559   0.439   1.258   1.613  0.5874 -0.1146  0.3353
  784MPD2    C211560   0.367   1.372   1.582 -0.0029  0.7727 -0.0330
  784MPD2    C311561   0.244   1.369   1.522 -0.0361 -0.2036  0.0312
  784MPD2    C411562   0.184   1.248   1.518  0.7901 -0.0139 -0.3723
  784MPD2    C511563   0.241   1.136   1.573 -0.2161 -0.4692  0.4115
  784MPD2     H11564   0.415   1.465   1.610 -2.0208  1.1731  2.0306
  784MPD2    H111565   0.086   1.239   1.474  0.2940 -0.5084  0.8546
  784MPD2    H211566   0.412   1.040   1.648 -0.0080 -0.0459 -0.6644
  784MPD2    H311567   0.181   1.048   1.593  1.2965 -1.4119  0.7631
  784MPD2     N11568   0.180   1.486   1.465  0.2032 -0.4403 -0.0981
  784MPD2    H511569   0.230   1.574   1.471 -0.4056 -0.1208  0.3495
  784MPD2    N111570   0.576   1.262   1.621  0.1696  0.0866 -0.6144
  784MPD2    H711571   0.619   1.352   1.601  1.3560 -0.3065  0.1715
  785MPD2     C11572   1.348   4.312  10.962 -0.0653 -0.5472 -0.0871
  785MPD2    C111573   1.280   4.412  11.031  0.9317  0.1402 -0.1679
  785MPD2    C211574   1.144   4.399  11.046 -0.5509  0.0736 -0.2163
  785MPD2    C311575   1.081   4.291  10.998  0.0009  0.3256 -0.1942
  785MPD2    C411576   1.143   4.193  10.923  0.9641 -0.1997 -0.4508
  785MPD2    C511577   1.279   4.206  10.905  0.1597  0.1333 -0.4547
  785MPD2     H11578   1.098   4.464  11.120  1.3797  0.1846  0.8799
  785MPD2    H111579   1.086   4.119  10.869 -1.0015  1.3943 -0.5462
  785MPD2    H211580   1.453   4.324  10.941  0.2061  0.2690  1.7581
  785MPD2    H311581   1.334   4.133  10.845  0.9717 -1.1101  1.8115
  785MPD2     N11582   0.938   4.286  11.005 -0.5273  0.5061 -0.2208
  785MPD2    H511583   0.905   4.380  11.029  2.2310  2.0711 -2.5700
  785MPD2    N111584   1.350   4.528  11.066 -0.3984  0.5468 -0.1917
  785MPD2    H711585   1.452   4.529  11.066 -0.3908 -0.6656 -0.7213
  786MPD2     C11586   0.048   2.329  14.886  0.3965 -0.3442 -0.0065
  786MPD2    C111587   0.162   2.393  14.847  0.0950 -0.1222  0.6781
  786MPD2    C211588   0.254   2.424  14.934 -0.0781 -0.6797  0.5652
  786MPD2    C311589   0.234   2.391  15.071  0.0528 -0.1676  0.4120
  786MPD2    C411590   0.119   2.331  15.103  0.4099  0.2670 -0.3171
  786MPD2    C511591   0.018   2.304  15.015 -0.1867 -0.1962 -0.1613
  786MPD2     H11592   0.344   2.468  14.894  0.0609  1.1387  2.8945
  786MPD2    H111593   0.104   2.300  15.206  0.0185 -0.5463 -0.6182
  786MPD2    H211594   4.698   2.300  14.812  1.0563  1.3661 -1.3499
  786MPD2    H311595   4.649   2.260  15.046  0.0048  0.5369  1.4396
  786MPD2     N11596   0.324   2.407  15.177  0.0582 -0.1760 -0.0462
  786MPD2    H511597   0.304   2.349  15.258 -2.0413  0.8170  0.1436
  786MPD2    N111598   0.202   2.406  14.712  0.1408 -0.0988 -0.5935
  786MPD2    H711599   0.298   2.429  14.688  0.4766 -1.4552 -0.5315
  787MPD2     C11600   0.098   1.757  14.460 -0.0131 -0.0941 -0.0762
  787MPD2    C111601   0.220   1.807  14.484  0.8992  0.0055  0.2687
  787MPD2    C211602   0.310   1.756  14.577  0.2544  0.4203 -0.0445
  787MPD2    C311603   0.277   1.642  14.644  0.0770 -0.1993 -0.6300
  787MPD2    C411604   0.155   1.583  14.618 -0.3540  0.6355  0.0773
  787MPD2    C511605   0.067   1.640  14.533  0.3885 -0.9404  0.0624
  787MPD2     H11606   0.412   1.791  14.588  0.1443  1.2775 -1.7461
  787MPD2    H111607   0.122   1.495  14.672 -1.6538  0.4628 -1.0122
  787MPD2    H211608   0.026   1.810  14.398  0.1586  0.2881  0.0552
  787MPD2    H311609   4.706   1.580  14.507  0.2148 -1.1685  1.1791
  787MPD2     N11610   0.374   1.590  14.733  0.2416 -0.0396  0.0780
  787MPD2    H511611   0.459   1.644  14.741  0.8183 -1.1645  1.6148
  787MPD2    N111612   0.229   1.931  14.421  0.5014 -0.4813 -0.1683
  787MPD2    H711613   0.143   1.972  14.386 -0.5017 -1.8678  0.7063
  788MPD2     C11614   3.091   4.567   0.585  0.6080  0.1993  0.3049
  788MPD2    C111615   3.004   4.602   0.487  0.5245 -0.1796 -0.1216
  788MPD2    C211616   3.017   4.546   0.360  0.4434  0.9644 -0.1651
  788MPD2    C311617   3.118   4.451   0.340  0.5170  0.5052 -0.4671
  788MPD2    C411618   3.206   4.417   0.442 -0.4877  0.7078  0.5209
  788MPD2    C511619   3.189   4.473   0.565 -0.2237 -0.1819  0.4343
  788MPD2     H11620   2.943   4.561   0.282  0.3754  3.2000  0.3253
  788MPD2    H111621   3.283   4.343   0.427  0.1816  2.1131 -3.2015
  788MPD2    H211622   3.084   4.608   0.685 -3.0352 -0.7700  0.4434
  788MPD2    H311623   3.255   4.460   0.651  0.8274  0.9583 -0.2093
  788MPD2     N11624   3.131   4.392   0.217  0.3309 -0.1201 -0.5980
  788MPD2    H511625   3.189   4.310   0.213 -1.3813 -1.3424 -0.4059
  788MPD2    N111626   2.901   4.690   0.531 -0.4280 -0.4974  0.0804
  788MPD2    H711627   2.895   0.001   0.627  0.8366  0.3891 -0.1753
  789MPD2     C11628   2.332   4.301  16.369 -0.0907  0.1979  0.6181
  789MPD2    C111629   2.265   4.274  16.489 -0.2794  0.1717 -0.7094
  789MPD2    C211630   2.172   4.370  16.534 -0.7726 -0.5156  0.1546
  789MPD2    C311631   2.149   4.486  16.456 -0.4711 -0.4484  0.6259
  789MPD2    C411632   2.218   4.500  16.333 -0.2020  0.2341  0.0194
  789MPD2    C511633   2.312   4.414  16.294  0.0827  0.2645  0.3342
  789MPD2     H11634   2.111   4.353  16.622  1.2066 -0.6469  1.5016
  789MPD2    H111635   2.192   4.586  16.272 -2.5682  0.5656  1.4690
  789MPD2    H211636   2.409   4.236  16.328 -1.7585  0.4167 -2.8828
  789MPD2    H311637   2.376   4.424  16.206 -0.8035  1.9231 -0.1266
  789MPD2     N11638   2.051   4.583  16.490 -0.3556  0.1912 -0.2982
  789MPD2    H511639   2.032   4.658  16.425 -1.5290  0.6003  0.5341
  789MPD2    N111640   2.280   4.153  16.563 -0.1700 -0.6287  0.7121
  789MPD2    H711641   2.214   4.143  16.640 -2.3270  3.5023 -0.6101
  790MPD2     C11642   2.516   2.272  13.690  0.1344 -0.4292 -0.2303
  790MPD2    C111643   2.636   2.233  13.640 -0.0878  0.5411  0.4431
  790MPD2    C211644   2.663   2.213  13.504 -0.1157  0.0588 -0.1962
  790MPD2    C311645   2.559   2.202  13.425 -0.1437  0.1530 -0.4034
  790MPD2    C411646   2.437   2.244  13.475  0.1850  0.1949 -0.1568
  790MPD2    C511647   2.415   2.284  13.600 -0.2918 -0.1033  0.0237
  790MPD2     H11648   2.763   2.197  13.466 -0.4781 -2.0956 -0.2076
  790MPD2    H111649   2.351   2.234  13.409  1.1050 -0.8511 -1.1841
  790MPD2    H211650   2.520   2.288  13.797  1.8644  0.0344 -0.3600
  790MPD2    H311651   2.315   2.310  13.634 -0.3616 -1.5414  0.9143
  790MPD2     N11652   2.576   2.172  13.285  0.1955  0.4213 -0.5452
  790MPD2    H511653   2.493   2.140  13.236 -0.3540  2.2403 -0.7937
  790MPD2    N111654   2.741   2.213  13.735 -0.4918 -0.1347 -0.0834
  790MPD2    H711655   2.723   2.238  13.832 -1.6701  2.0584 -0.8789
  791MPD2     C11656   2.218   2.086  12.712 -0.1985  0.3873 -0.2896
  791MPD2    C111657   2.277   1.977  12.782  0.1288  0.4543  0.1570
  791MPD2    C211658   2.211   1.850  12.772 -0.1617 -0.3859  0.1053
  791MPD2    C311659   2.087   1.842  12.710  0.2158 -0.0273 -0.4429
  791MPD2    C411660   2.033   1.951  12.648 -0.2614 -0.5707 -0.0422
  791MPD2    C511661   2.095   2.070  12.658 -0.0000 -0.7783  0.0524
  791MPD2     H11662   2.260   1.771  12.827  1.8820 -0.0348 -1.1911
  791MPD2    H111663   1.937   1.947  12.598 -0.0105  0.7199 -0.6340
  791MPD2    H211664   2.270   2.176  12.682  2.4258 -0.6919  1.0111
  791MPD2    H311665   2.067   2.143  12.583  0.6517 -1.7695 -1.1532
  791MPD2     N11666   2.022   1.715  12.710  0.0802 -0.5017  0.2927
  791MPD2    H511667   2.067   1.639  12.759  2.0792  0.5736  0.1066
  791MPD2    N111668   2.405   1.987  12.847  0.7932 -0.4260  0.1576
  791MPD2    H711669   2.451   2.077  12.849  2.2516 -1.1742 -0.2653
  792MPD2     C11670   3.190   2.067  10.951  0.0440  0.2627 -0.7077
  792MPD2    C111671   3.076   2.117  11.000  1.0120 -0.2518  0.3674
  792MPD2    C211672   2.961   2.042  11.004 -0.0122 -0.5244  0.3582
  792MPD2    C311673   2.961   1.914  10.939  0.6616 -0.2842 -0.2134
  792MPD2    C411674   3.078   1.865  10.893  0.0614  0.1141  0.2743
  792MPD2    C511675   3.192   1.946  10.889 -0.3803  0.1149  0.6860
  792MPD2     H11676   2.874   2.088  11.051  0.8886  1.2347  0.3181
  792MPD2    H111677   3.083   1.767  10.846  2.1216  0.8317 -1.0101
  792MPD2    H211678   3.282   2.124  10.957  0.8398 -1.1806  0.8591
  792MPD2    H311679   3.279   1.914  10.834  0.1920  1.4514  0.8007
  792MPD2     N11680   2.850   1.825  10.932 -0.3795  0.6199  0.1719
  792MPD2    H511681   2.862   1.743  10.873 -1.4555  1.4441 -1.2257
  792MPD2    N111682   3.089   2.252  11.049 -0.3411 -0.3811  0.0525
  792MPD2    H711683   3.186   2.282  11.052 -0.2057 -0.7901 -0.2119
  793MPD2     C11684   2.325   1.952  10.251  1.0026 -0.0873 -0.1211
  793MPD2    C111685   2.452   1.900  10.269 -0.0224  0.5638 -0.0179
  793MPD2    C211686   2.491   1.844  10.387 -0.1184  0.4999  0.5788
  793MPD2    C311687   2.399   1.825  10.493  0.3556 -0.6126 -0.2162
  793MPD2    C411688   2.273   1.885  10.473  0.7986  0.3055 -0.1014
  793MPD2    C511689   2.238   1.942  10.355  0.4018 -0.4096 -0.0676
  793MPD2     H11690   2.596   1.828  10.406 -0.1928  1.0161  1.4633
  793MPD2    H111691   2.188   1.878  10.541  0.6929 -1.5950 -0.4257
  793MPD2    H211692   2.294   1.993  10.155  2.1772 -0.5029 -0.6835
  793MPD2    H311693   2.134   1.968  10.343  0.5025  0.9425  1.9449
  793MPD2     N11694   2.443   1.765  10.612 -0.4161 -0.0858  0.4264
  793MPD2    H511695   2.530   1.713  10.608 -0.6143 -0.3364 -0.7005
  793MPD2    N111696   2.554   1.909  10.181 -0.2124 -0.6428  0.1257
  793MPD2    H711697   2.643   1.875  10.217  1.4351  1.4003 -2.0658
  794MPD2     C11698   3.069   1.423  16.800 -0.1046  0.5397  0.2292
  794MPD2    C111699   3.007   1.298  16.815 -0.3760  0.4321  0.5619
  794MPD2    C211700   2.906   1.254  16.726  0.6059  0.3022 -0.3011
  794MPD2    C311701   2.872   1.335  16.620 -0.0532  0.4731  0.1096
  794MPD2    C411702   2.949   1.453  16.603 -0.7347  0.1884 -0.4714
  794MPD2    C511703   3.042   1.501  16.694  0.4197 -1.1962  0.4985
  794MPD2     H11704   2.866   1.154  16.735  0.4186  0.3911 -0.1617
  794MPD2    H111705   2.920   1.510  16.515  1.2915  2.5297  0.3632
  794MPD2    H211706   3.153   1.450  16.863 -1.0521 -0.1697  1.7936
  794MPD2    H311707   3.091   1.596  16.672  0.2497 -1.5016 -1.1858
  794MPD2     N11708   2.771   1.296  16.522  0.0591  0.3253  0.2876
  794MPD2    H511709   2.763   1.353  16.438  2.7062 -0.7527 -0.6911
  794MPD2    N111710   3.043   1.217  16.928 -0.4437 -0.2506  0.2551
  794MPD2    H711711   2.984   1.136  16.943 -1.6681 -0.0631 -3.5505
  795MPD2     C11712   0.943   3.693  13.803 -0.1090 -0.1819 -0.2836
  795MPD2    C111713   0.878   3.582  13.743 -0.3493  0.2391  0.2719
  795MPD2    C211714   0.942   3.455  13.753  0.1374 -0.0386  0.7633
  795MPD2    C311715   1.065   3.448  13.817  0.0925  0.0588 -0.6547
  795MPD2    C411716   1.122   3.559  13.878  0.5866  0.3357 -1.0185
  795MPD2    C511717   1.064   3.682  13.865  0.5959  0.0202  0.3565
  795MPD2     H11718   0.897   3.373  13.700 -2.0373  1.5280  0.1863
  795MPD2    H111719   1.214   3.554  13.935 -0.6991  2.3950  1.2472
  795MPD2    H211720   0.899   3.791  13.817  2.1337  0.4971  1.9448
  795MPD2    H311721   1.107   3.770  13.912  0.0538  0.5380 -0.1303
  795MPD2     N11722   1.135   3.333  13.841 -0.2779  0.1038 -0.0945
  795MPD2    H511723   1.234   3.334  13.864 -0.5109  1.3263  0.8721
  795MPD2    N111724   0.761   3.590  13.659  0.0051  0.3916  0.5182
  795MPD2    H711725   0.729   3.505  13.614  1.7879  0.9039 -1.6474
  796MPD2     C11726   0.213   4.720  15.728 -0.4642 -0.2490 -0.2813
  796MPD2    C111727   0.267   0.058  15.843  0.4555  0.4039  0.2819
  796MPD2    C211728   0.259   0.200  15.838  0.2250 -0.7507  0.8267
  796MPD2    C311729   0.199   0.262  15.727  0.5425 -0.5398  0.1491
  796MPD2    C411730   0.146   0.192  15.620 -0.6392  0.1877  0.1080
  796MPD2    C511731   0.160   0.057  15.627 -0.1941 -0.1111 -0.9424
  796MPD2     H11732   0.275   0.258  15.928 -0.0142  1.3991 -0.5068
  796MPD2    H111733   0.112   0.247  15.532  0.7629 -0.4055 -0.8103
  796MPD2    H211734   0.220   4.612  15.718  1.3306 -0.2167  0.4462
  796MPD2    H311735   0.113   4.719  15.551 -1.0856 -0.0193 -0.4694
  796MPD2     N11736   0.200   0.400  15.735  0.3717 -0.7995 -0.0009
  796MPD2    H511737   0.249   0.447  15.811 -0.8501 -1.4938  1.1926
  796MPD2    N111738   0.320   4.705  15.951  0.4071 -0.1858 -0.4283
  796MPD2    H711739   0.292   4.608  15.951 -2.1142  0.5411 -1.7109
  797MPD2     C11740   1.054   4.117  17.471  0.2491  0.5090 -0.2755
  797MPD2    C111741   1.173   4.110  17.399 -0.0091  0.3071 -0.1722
  797MPD2    C211742   1.187   4.200  17.298  0.1209 -0.6330 -0.2073
  797MPD2    C311743   1.092   4.292  17.266 -0.6843 -0.8929 -0.4089
  797MPD2    C411744   0.975   4.294  17.331  0.2055 -0.9050 -0.6007
  797MPD2    C511745   0.955   4.207  17.436  0.5014 -0.8267  0.2900
  797MPD2     H11746   1.282   4.203  17.245  0.7326  1.2586  1.0017
  797MPD2    H111747   0.892   4.363  17.317  1.4787  1.1490  2.0700
  797MPD2    H211748   1.034   4.052  17.556  0.8606 -0.2182 -0.6917
  797MPD2    H311749   0.866   4.214  17.497 -0.4825  0.2640 -1.2512
  797MPD2     N11750   1.143   4.393  17.181  0.3671  0.0862 -0.0738
  797MPD2    H511751   1.244   4.394  17.170  0.1285 -0.2477 -2.5158
  797MPD2    N111752   1.278   4.017  17.425 -0.0297  0.4834  0.2497
  797MPD2    H711753   1.353   3.999  17.359  0.6237 -1.3448  1.4714
  798MPD2     C11754   1.844   4.364  17.113 -0.4251  0.3366  0.2369
  798MPD2    C111755   1.712   4.362  17.152  0.4962  0.0731 -0.5363
  798MPD2    C211756   1.660   4.261  17.233 -0.0184 -0.3491  0.1474
  798MPD2    C311757   1.747   4.158  17.264  0.1763 -0.7709 -0.8099
  798MPD2    C411758   1.878   4.155  17.226  0.7115 -0.6403 -0.1642
  798MPD2    C511759   1.931   4.259  17.148  0.5582  0.2452 -0.2117
  798MPD2     H11760   1.555   4.252  17.256  0.0354 -0.6112  0.2825
  798MPD2    H111761   1.942   4.076  17.263  1.6270  0.4272  0.5594
  798MPD2    H211762   1.889   4.440  17.051  1.9660 -1.0228  0.2979
  798MPD2    H311763   2.035   4.272  17.121  0.1836 -0.0877 -1.7859
  798MPD2     N11764   1.690   4.070  17.353 -0.1644  0.6313 -0.3954
  798MPD2    H511765   1.590   4.087  17.359 -0.5114 -1.4907 -0.0200
  798MPD2    N111766   1.628   4.463  17.105  0.2105  0.3683  0.1799
  798MPD2    H711767   1.673   4.539  17.054 -2.0581  1.1762 -0.6044
  799MPD2     C11768   4.501   1.480  14.756  0.8393 -0.5033 -0.1974
  799MPD2    C111769   4.453   1.403  14.654  0.1936  0.2630 -0.1325
  799MPD2    C211770   4.410   1.466  14.541 -0.5455 -0.2632  0.0355
  799MPD2    C311771   4.412   1.601  14.528 -0.4548 -0.4029 -0.0001
  799MPD2    C411772   4.454   1.671  14.642 -0.2141  0.9082  0.1412
  799MPD2    C511773   4.493   1.613  14.762  0.0025  0.1058  0.4552
  799MPD2     H11774   4.363   1.403  14.466 -0.5599 -0.1291 -0.0684
  799MPD2    H111775   4.450   1.779  14.645  1.1847  1.0158 -1.7380
  799MPD2    H211776   4.556   1.438  14.839 -0.7101  0.8311  1.4742
  799MPD2    H311777   4.526   1.679  14.841 -0.9815 -2.0276  2.6415
  799MPD2     N11778   4.392   1.678  14.410  0.2676  0.2488 -0.3839
  799MPD2    H511779   4.391   1.779  14.421 -1.3712  0.2853 -0.8216
  799MPD2    N111780   4.456   1.259  14.646  0.1196  0.2261  0.6202
  799MPD2    H711781   4.403   1.224  14.567 -1.2674  1.7266  0.8949
  800MPD2     C11782   0.634   2.699  14.400  1.1475 -0.6504 -1.2404
  800MPD2    C111783   0.750   2.635  14.430 -0.1480 -0.2293  0.2613
  800MPD2    C211784   0.755   2.495  14.429  0.0743 -0.5207 -0.1498
  800MPD2    C311785   0.653   2.422  14.377  0.8935  0.3029  0.1968
  800MPD2    C411786   0.541   2.491  14.348 -0.8803  0.1119  0.4504
  800MPD2    C511787   0.524   2.628  14.372 -0.5551 -0.1569 -0.3586
  800MPD2     H11788   0.844   2.441  14.461 -0.2968 -0.6110  0.7257
  800MPD2    H111789   0.460   2.435  14.303 -0.8036  0.4381 -0.0922
  800MPD2    H211790   0.634   2.808  14.402  0.4837 -0.6834  1.0524
  800MPD2    H311791   0.435   2.681  14.341 -0.1265  1.4181  1.1069
  800MPD2     N11792   0.668   2.284  14.365 -0.0813 -0.2481 -0.1812
  800MPD2    H511793   0.733   2.231  14.421  0.3998 -0.7859 -1.2403
  800MPD2    N111794   0.863   2.711  14.471 -1.0159 -0.0521  0.1809
  800MPD2    H711795   0.848   2.812  14.471 -2.6765 -0.2934  0.1197
  801MPD2     C11796   1.146   3.309  14.253 -0.0544  0.7375 -0.6420
  801MPD2    C111797   1.069   3.223  14.324 -0.1333 -0.6830  0.3853
  801MPD2    C211798   0.941   3.262  14.346 -0.1636 -0.1153 -0.3290
  801MPD2    C311799   0.884   3.379  14.279 -0.1390 -0.0625  0.0421
  801MPD2    C411800   0.959   3.455  14.193 -0.6370 -0.1858 -0.1354
  801MPD2    C511801   1.093   3.414  14.186 -1.1014 -0.5264 -0.7322
  801MPD2     H11802   0.874   3.196  14.399  1.1371 -0.7567  0.5315
  801MPD2    H111803   0.926   3.543  14.140 -0.9235 -0.6469 -0.7224
  801MPD2    H211804   1.253   3.295  14.239 -0.6082 -2.8569 -1.3983
  801MPD2    H311805   1.165   3.473  14.129 -0.0267 -0.0320  1.1473
  801MPD2     N11806   0.745   3.401  14.288 -0.4176  0.3052 -0.2094
  801MPD2    H511807   0.697   3.458  14.220 -0.5528  0.3403 -0.0848
  801MPD2    N111808   1.113   3.097  14.368  0.4673 -0.4592 -0.2201
  801MPD2    H711809   1.041   3.042  14.414  0.2504  0.5803  0.6873
  802MPD2     C11810   4.189   3.348  17.308  0.2979 -0.3740 -0.9801
  802MPD2    C111811   4.292   3.341  17.400  0.1551  0.6462 -0.0788
  802MPD2    C211812   4.365   3.228  17.414  0.0309 -0.2478 -0.6083
  802MPD2    C311813   4.360   3.124  17.322 -0.6452 -0.0140  0.7286
  802MPD2    C411814   4.260   3.132  17.229  0.4099  0.0288  0.4519
  802MPD2    C511815   4.184   3.241  17.216 -0.3877 -0.2273  0.5519
  802MPD2     H11816   4.445   3.213  17.486 -0.8346 -2.2074 -0.0543
  802MPD2    H111817   4.257   3.054  17.154 -0.2257 -0.7395  1.2729
  802MPD2    H211818   4.137   3.440  17.285 -1.2920 -0.9608  0.2408
  802MPD2    H311819   4.119   3.261  17.131 -1.4533  0.2883  1.4743
  802MPD2     N11820   4.444   3.012  17.330  0.0289  0.1279 -0.5363
  802MPD2    H511821   4.510   3.019  17.408 -1.3230 -3.1076  0.8849
  802MPD2    N111822   4.325   3.445  17.492 -0.5303  0.5698  0.2006
  802MPD2    H711823   4.407   3.426  17.550 -0.9034 -0.8748  0.2515
  803MPD2     C11824   1.240   1.844  11.904  0.3199 -0.1417 -0.1765
  803MPD2    C111825   1.191   1.953  11.975  0.3434 -0.4197 -1.0335
  803MPD2    C211826   1.108   1.941  12.087  0.5376  0.8729  0.0438
  803MPD2    C311827   1.100   1.819  12.141  0.7162 -0.5874  0.0668
  803MPD2    C411828   1.142   1.704  12.075  0.3354 -0.2214  0.2949
  803MPD2    C511829   1.213   1.720  11.958  0.3767  0.1840 -0.3240
  803MPD2     H11830   1.076   2.036  12.128  2.2363  0.6832  1.7914
  803MPD2    H111831   1.125   1.605  12.116  0.1689 -0.5005 -0.4584
  803MPD2    H211832   1.287   1.841  11.806 -0.6665 -1.8143 -0.6060
  803MPD2    H311833   1.261   1.635  11.911  2.0997  1.1837 -0.3481
  803MPD2     N11834   1.042   1.795  12.265 -0.5020 -0.1247 -0.4239
  803MPD2    H511835   1.011   1.699  12.281  1.5054 -0.9349 -1.4029
  803MPD2    N111836   1.211   2.090  11.924  0.1062  0.3882  0.1141
  803MPD2    H711837   1.164   2.162  11.978 -2.5728 -1.9622  0.9159
  804MPD2     C11838   0.817   2.958  17.167  0.1118  0.3894 -0.1143
  804MPD2    C111839   0.768   2.962  17.300  0.0336 -0.0937 -0.1563
  804MPD2    C211840   0.822   3.055  17.395  0.1566  0.3236 -0.0419
  804MPD2    C311841   0.929   3.137  17.361 -0.1019  0.0953 -0.4022
  804MPD2    C411842   0.963   3.139  17.224 -0.2535 -0.3282 -0.0363
  804MPD2    C511843   0.904   3.051  17.138 -0.1756 -0.5425 -0.6241
  804MPD2     H11844   0.785   3.052  17.497 -2.8667  1.3723 -1.1012
  804MPD2    H111845   1.026   3.213  17.176  1.0824 -1.5284 -0.1318
  804MPD2    H211846   0.779   2.902  17.082  1.7349  0.4196 -0.8691
  804MPD2    H311847   0.917   3.070  17.032  1.4136  0.1038 -0.3176
  804MPD2     N11848   0.988   3.214  17.461 -0.5540 -0.0292  0.6319
  804MPD2    H511849   0.959   3.193  17.556 -1.4144  1.3009  0.6495
  804MPD2    N111850   0.666   2.883  17.350 -1.1442 -0.0064  0.5781
  804MPD2    H711851   0.648   2.901  17.449  0.8468 -0.5586  1.0498
  805MPD2     C11852   0.016   1.739  15.325  0.7708  0.0161  0.1277
  805MPD2    C111853   0.048   1.609  15.339  0.6359 -0.5399 -0.1882
  805MPD2    C211854   0.176   1.582  15.397  0.3198 -0.0795 -0.1318
  805MPD2    C311855   0.259   1.683  15.446 -0.1053 -0.1845 -0.7640
  805MPD2    C411856   0.215   1.815  15.433  0.2224  0.3576  0.3291
  805MPD2    C511857   0.091   1.837  15.369  0.3193 -0.2757  0.2473
  805MPD2     H11858   0.211   1.480  15.406 -0.7584 -0.3503  1.0353
  805MPD2    H111859   0.271   1.899  15.472 -0.9583  0.2007  2.3607
  805MPD2    H211860   4.654   1.776  15.270 -1.1120 -0.3489  2.8599
  805MPD2    H311861   0.057   1.940  15.364 -0.0009 -0.3786  0.2870
  805MPD2     N11862   0.382   1.653  15.513  0.0630  0.0532  0.1806
  805MPD2    H511863   0.400   1.554  15.525  2.5867  0.5150  0.1906
  805MPD2    N111864   4.691   1.497  15.301  0.4519  0.5358 -0.8052
  805MPD2    H711865   0.014   1.409  15.289  2.7170  1.4977  1.1919
  806MPD2     C11866   0.536   4.679   0.089 -0.1635  1.0088 -0.0953
  806MPD2    C111867   0.471   4.702   0.205 -0.6942  0.2761  0.5464
  806MPD2    C211868   0.461   0.106   0.256  0.4054 -0.1137  0.5909
  806MPD2    C311869   0.518   0.211   0.183 -0.5453 -0.6767 -0.5626
  806MPD2    C411870   0.591   0.179   0.069  0.5295 -0.1432  0.2939
  806MPD2    C511871   0.601   0.054   0.019  0.3487 -0.0147  0.2951
  806MPD2     H11872   0.410   0.128   0.349  0.5447 -2.6664  1.2913
  806MPD2    H111873   0.644   0.254   0.012  1.2586 -0.7164  0.2249
  806MPD2    H211874   0.540   4.581   0.043  2.1956  1.6691 -1.2754
  806MPD2    H311875   0.656   0.032  17.628 -0.8933 -1.7964 -0.0307
  806MPD2     N11876   0.520   0.340   0.242  0.2833  0.2879  0.1473
  806MPD2    H511877   0.474   0.345   0.332  0.1032 -0.3070  0.0899
  806MPD2    N111878   0.429   4.590   0.277  0.1656 -0.5813 -0.2835
  806MPD2    H711879   0.466   4.503   0.241  1.4468 -1.3593  3.0054
  807MPD2     C11880   0.083   4.332   1.027  0.1450  1.1117 -0.0301
  807MPD2    C111881   0.197   4.260   0.991  0.1210  0.3576 -0.7330
  807MPD2    C211882   0.246   4.174   1.091  0.2833 -0.1314  0.1485
  807MPD2    C311883   0.186   4.153   1.214  0.5167 -0.6081 -0.2733
  807MPD2    C411884   0.079   4.234   1.246 -0.5805 -0.0242 -0.7077
  807MPD2    C511885   0.028   4.321   1.151  0.1101  0.1593  0.3586
  807MPD2     H11886   0.324   4.106   1.058  0.1708 -0.2015  0.0249
  807MPD2    H111887   0.017   4.220   1.334 -0.7832  0.4028 -0.7806
  807MPD2    H211888   0.029   4.402   0.965  1.7678  2.2177 -0.1913
  807MPD2    H311889   4.659   4.371   1.170 -0.0425 -0.8084  2.1609
  807MPD2     N11890   0.234   4.063   1.312  0.5197 -0.6827  0.4389
  807MPD2    H511891   0.317   4.012   1.285  0.3526 -1.4486  1.3488
  807MPD2    N111892   0.266   4.276   0.871 -0.2431 -0.3840  0.5077
  807MPD2    H711893   0.357   4.231   0.866  0.5028  1.5107 -2.4538
  808MPD2     C11894   0.329   2.929  10.216  0.2129  0.2927  0.7226
  808MPD2    C111895   0.318   2.816  10.136 -0.7579 -0.5854  0.3782
  808MPD2    C211896   0.297   2.842  10.004  0.3852  0.2256 -0.2959
  808MPD2    C311897   0.296   2.970   9.960  0.2943  0.0116  0.0857
  808MPD2    C411898   0.328   3.074  10.042 -0.4839  0.0380  0.3408
  808MPD2    C511899   0.345   3.053  10.175 -0.3097 -0.1900 -0.8360
  808MPD2     H11900   0.288   2.756   9.939  1.5794 -0.3072  0.2393
  808MPD2    H111901   0.335   3.172   9.997 -0.6221 -0.7990 -1.4905
  808MPD2    H211902   0.324   2.924  10.324  0.4523  2.0516  0.8082
  808MPD2    H311903   0.355   3.132  10.249  1.1733  0.3892 -1.6539
  808MPD2     N11904   0.300   3.007   9.825  0.5065 -0.1633  0.2030
  808MPD2    H511905   0.335   3.100   9.806 -0.1033  0.1757  0.7256
  808MPD2    N111906   0.314   2.686  10.188 -0.3104  0.1619 -0.3641
  808MPD2    H711907   0.308   2.613  10.118 -1.7686 -0.1371  0.0785
  809MPD2     C11908   1.071   2.726   9.242 -0.6378  0.0662 -0.5746
  809MPD2    C111909   1.033   2.721   9.373 -0.3899 -0.1779  0.4701
  809MPD2    C211910   0.937   2.799   9.432 -0.2741  0.3838 -0.1718
  809MPD2    C311911   0.862   2.881   9.347  0.4104 -0.1735  0.1769
  809MPD2    C411912   0.884   2.881   9.211  0.3053  0.7295 -0.4930
  809MPD2    C511913   0.996   2.813   9.163 -0.0939 -0.5405  0.0693
  809MPD2     H11914   0.919   2.790   9.538 -0.9859  3.3802 -0.0381
  809MPD2    H111915   0.829   2.934   9.135  0.7719 -0.3282 -1.5828
  809MPD2    H211916   1.139   2.661   9.188  0.1870  1.2181 -0.9317
  809MPD2    H311917   1.007   2.824   9.056 -0.9297 -0.0424  0.0372
  809MPD2     N11918   0.753   2.955   9.392  0.7824 -0.9541 -0.0382
  809MPD2    H511919   0.699   3.013   9.329 -1.8057  0.0874  3.1868
  809MPD2    N111920   1.107   2.639   9.464 -0.4134 -0.4057  0.3441
  809MPD2    H711921   1.082   2.648   9.562 -0.2213 -1.9826  0.5348
  810MPD2     C11922   0.107   2.460  10.634 -1.3325 -0.3922 -0.1083
  810MPD2    C111923   0.042   2.481  10.516 -0.0450  0.1361 -0.3121
  810MPD2    C211924   0.025   2.612  10.464 -0.7160  0.2352  0.2121
  810MPD2    C311925   0.065   2.722  10.542 -0.3574 -0.2704 -0.1264
  810MPD2    C411926   0.132   2.695  10.660 -0.5206  0.2770 -0.3976
  810MPD2    C511927   0.150   2.568  10.703  0.4803  1.3334  0.5970
  810MPD2     H11928   4.686   2.620  10.376  1.0078  1.0408 -0.9480
  810MPD2    H111929   0.173   2.770  10.727 -1.0132  0.1962 -0.0065
  810MPD2    H211930   0.125   2.358  10.665 -2.3218 -0.2880  0.7683
  810MPD2    H311931   0.209   2.553  10.793  2.2449  2.1641 -0.4293
  810MPD2     N11932   0.059   2.851  10.489 -0.2570 -1.2063 -0.3238
  810MPD2    H511933   0.073   2.928  10.554  0.3293 -1.4903 -0.1066
  810MPD2    N111934   0.011   2.366  10.437 -0.2426 -0.0916  0.1984
  810MPD2    H711935   0.042   2.277  10.475 -2.0190 -0.2047  1.3845
  811MPD2     C11936   4.226   2.070   9.721 -0.0744 -0.1570 -0.1850
  811MPD2    C111937   4.322   2.153   9.780 -0.7003  0.3044 -0.0484
  811MPD2    C211938   4.359   2.268   9.708  0.0553  0.2159 -0.5888
  811MPD2    C311939   4.297   2.307   9.587 -0.5063  0.2084 -0.0562
  811MPD2    C411940   4.196   2.230   9.543  0.8019  0.0099  0.1974
  811MPD2    C511941   4.162   2.115   9.606  0.2020  0.0015  0.0546
  811MPD2     H11942   4.427   2.334   9.759  0.5425  0.3729 -1.4494
  811MPD2    H111943   4.129   2.246   9.459  0.2157  0.7963  0.8165
  811MPD2    H211944   4.193   1.978   9.767  0.6843 -0.2332  0.2173
  811MPD2    H311945   4.089   2.046   9.566 -2.7028  1.6900  2.4549
  811MPD2     N11946   4.337   2.431   9.537 -0.0666  0.1288 -0.3259
  811MPD2    H511947   4.416   2.471   9.587  0.5650 -0.0105 -1.2171
  811MPD2    N111948   4.386   2.114   9.896  0.6345  0.4284 -0.9762
  811MPD2    H711949   4.335   2.049   9.955 -0.2353  0.6729 -1.4621
  812MPD2     C11950   3.398   2.499  12.252  0.2545 -0.3195 -0.4556
  812MPD2    C111951   3.484   2.602  12.273 -0.0713  0.3303 -0.1850
  812MPD2    C211952   3.587   2.579  12.360 -0.5809  0.2056  0.1483
  812MPD2    C311953   3.612   2.455  12.410 -0.2756  0.0315 -0.3326
  812MPD2    C411954   3.522   2.352  12.388  0.6736  0.4182  0.0514
  812MPD2    C511955   3.418   2.374  12.306  0.2921  1.2882  0.1912
  812MPD2     H11956   3.642   2.662  12.400  0.2382  1.1991 -3.0119
  812MPD2    H111957   3.522   2.258  12.442  1.4961  0.7248  0.5816
  812MPD2    H211958   3.320   2.513  12.178 -1.7830  2.0612  2.1337
  812MPD2    H311959   3.348   2.291  12.294  2.4676 -0.5011 -0.1590
  812MPD2     N11960   3.722   2.448  12.499 -0.1405 -0.5878 -0.0102
  812MPD2    H511961   3.777   2.532  12.516  0.4910 -0.6390 -1.9172
  812MPD2    N111962   3.456   2.725  12.222 -0.6609 -0.5495  0.3117
  812MPD2    H711963   3.365   2.735  12.177 -1.4150  4.3369  2.8236
  813MPD2     C11964   3.530   3.604  13.217 -0.6272  0.0440 -0.0552
  813MPD2    C111965   3.496   3.713  13.131 -0.8377 -0.4511 -0.5882
  813MPD2    C211966   3.411   3.812  13.194 -0.0200  0.2998 -0.6473
  813MPD2    C311967   3.370   3.789  13.324  0.0659  0.0388  0.0142
  813MPD2    C411968   3.381   3.663  13.390 -0.6244 -0.1171 -0.5782
  813MPD2    C511969   3.464   3.567  13.330  0.5785  0.3675 -0.2479
  813MPD2     H11970   3.377   3.896  13.135  0.6060  1.2330  0.3463
  813MPD2    H111971   3.331   3.633  13.481  1.1188 -0.6482  0.1993
  813MPD2    H211972   3.618   3.551  13.184  0.7663  1.9356  0.6258
  813MPD2    H311973   3.482   3.473  13.381 -2.2901  0.6948  1.3427
  813MPD2     N11974   3.279   3.883  13.382 -0.8542  0.0954  0.1908
  813MPD2    H511975   3.259   3.963  13.323 -0.0496  0.1921  0.0471
  813MPD2    N111976   3.567   3.739  13.009 -0.0769  0.4462 -0.1094
  813MPD2    H711977   3.652   3.687  12.994  0.8818  2.1226 -0.5071
  814MPD2     C11978   3.428   0.352  12.363 -0.0632  0.4748  0.2691
  814MPD2    C111979   3.443   0.441  12.256 -0.1161 -0.2799 -0.0319
  814MPD2    C211980   3.530   0.551  12.271 -0.0476  0.0918  0.7986
  814MPD2    C311981   3.606   0.555  12.391 -0.3695  0.1771  0.4326
  814MPD2    C411982   3.575   0.471  12.496 -0.1406 -0.5391  0.2009
  814MPD2    C511983   3.488   0.369  12.482  0.1701 -0.1611 -0.4760
  814MPD2     H11984   3.543   0.624  12.193 -1.1988 -0.5571 -0.0054
  814MPD2    H111985   3.634   0.471  12.587 -1.8513  4.4525  1.2701
  814MPD2    H211986   3.382   0.254  12.352  2.2726 -0.7479  1.3508
  814MPD2    H311987   3.480   0.290  12.555  0.4332  1.3311  1.1739
  814MPD2     N11988   3.709   0.649  12.413 -0.6419  0.6664 -0.3472
  814MPD2    H511989   3.753   0.653  12.504 -1.4414  0.6858  0.0300
  814MPD2    N111990   3.388   0.415  12.128 -0.2668 -0.0174  0.9365
  814MPD2    H711991   3.404   0.485  12.056 -0.0529 -0.3267  0.6835
  815MPD2     C11992   3.897   4.252  11.617 -0.0499 -0.4329  0.2647
  815MPD2    C111993   3.856   4.125  11.662 -0.3422 -1.0008  0.1730
  815MPD2    C211994   3.725   4.101  11.714 -0.2952  0.6760  0.1234
  815MPD2    C311995   3.642   4.215  11.734  0.1783 -0.0599  0.7006
  815MPD2    C411996   3.692   4.331  11.695 -0.3436 -0.0637  0.0750
  815MPD2    C511997   3.809   4.357  11.635 -0.4070  0.4848 -0.7012
  815MPD2     H11998   3.683   4.005  11.740 -0.6382  0.1221 -2.4509
  815MPD2    H111999   3.638   4.423  11.718 -3.1307 -1.9035  0.9802
  815MPD2    H212000   3.996   4.264  11.575 -0.3790  1.8291  0.1330
  815MPD2    H312001   3.846   4.457  11.616 -0.3616  0.4731 -0.6738
  815MPD2     N12002   3.517   4.196  11.790  0.0910  0.1462 -0.0455
  815MPD2    H512003   3.486   4.105  11.821 -0.3437 -0.1843 -1.4618
  815MPD2    N112004   3.944   4.022  11.633  0.3960 -0.2564  0.3463
  815MPD2    H712005   4.015   4.042  11.563  0.4890 -0.6914  0.3164
  816MPD2     C12006   4.320   2.537  17.447 -0.1367  0.1603 -0.3002
  816MPD2    C112007   4.271   2.619  17.349  0.4903 -0.9166 -0.3865
  816MPD2    C212008   4.294   2.580  17.220  0.1364  0.6014 -1.4797
  816MPD2    C312009   4.371   2.470  17.185 -0.1236 -0.1784  0.0162
  816MPD2    C412010   4.424   2.397  17.293  0.4919 -0.3956 -0.1307
  816MPD2    C512011   4.388   2.423  17.425  1.3661  0.4081  0.3230
  816MPD2     H12012   4.267   2.646  17.138 -0.8347  0.5662 -1.1876
  816MPD2    H112013   4.487   2.310  17.273 -1.2036 -1.5313 -0.5389
  816MPD2    H212014   4.276   2.541  17.546  0.8381  1.0371  0.0991
  816MPD2    H312015   4.415   2.365  17.513  1.7086 -0.3062 -0.2617
  816MPD2     N12016   4.398   2.442  17.048 -0.4312 -0.1120 -0.2205
  816MPD2    H512017   4.348   2.504  16.985  1.4349  0.5365 -1.0702
  816MPD2    N112018   4.189   2.736  17.371 -0.3393  0.0196 -0.1205
  816MPD2    H712019   4.162   2.791  17.290  0.5632  0.1296 -0.3471
  817MPD2     C12020   2.965   4.019  10.018 -0.1393  0.1196  1.0443
  817MPD2    C112021   3.057   4.106   9.978 -0.1125  0.1446  0.8385
  817MPD2    C212022   3.019   4.243   9.971 -0.2420 -0.0700  0.0090
  817MPD2    C312023   2.892   4.283  10.000 -0.4794  0.1866 -0.4648
  817MPD2    C412024   2.802   4.189  10.046 -0.4008  0.3806 -0.2415
  817MPD2    C512025   2.837   4.059  10.052 -0.4359  0.3483 -0.1943
  817MPD2     H12026   3.090   4.313   9.929 -0.0024  0.6410  1.5665
  817MPD2    H112027   2.702   4.219  10.076 -1.2172 -0.4980 -2.0331
  817MPD2    H212028   3.003   3.919  10.032 -1.3652 -0.4817  0.1434
  817MPD2    H312029   2.778   3.975  10.087 -1.0162  0.1820 -1.5524
  817MPD2     N12030   2.866   4.421   9.996 -0.3847 -0.4611 -0.4677
  817MPD2    H512031   2.950   4.477   9.983 -0.0525 -0.9154 -0.2983
  817MPD2    N112032   3.187   4.066   9.943  0.1409  0.2898  0.0743
  817MPD2    H712033   3.250   4.144   9.929  0.1582 -0.1105 -2.1288
  818MPD2     C12034   1.478   0.071   9.809 -0.8335 -0.3026 -0.3934
  818MPD2    C112035   1.491   0.024   9.939 -0.1032 -0.5328 -0.0349
  818MPD2    C212036   1.389   4.663   9.978  0.3408  0.3415  0.2266
  818MPD2    C312037   1.276   4.624   9.897 -0.0568  0.1885  0.4499
  818MPD2    C412038   1.276   4.670   9.769  0.3609  0.5620  0.1823
  818MPD2    C512039   1.371   0.043   9.733 -0.1728 -0.5247 -0.0882
  818MPD2     H12040   1.404   4.628  10.079 -2.6048  2.0771  1.2475
  818MPD2    H112041   1.194   4.637   9.708  1.7199 -0.0815 -1.2925
  818MPD2    H212042   1.552   0.135   9.762  0.4394  0.2990  2.3875
  818MPD2    H312043   1.350   0.082   9.634 -0.0210 -0.9270 -0.2803
  818MPD2     N12044   1.164   4.547   9.941  0.0683  0.3377  0.1483
  818MPD2    H512045   1.091   4.540   9.871 -0.0170  2.6793  0.0232
  818MPD2    N112046   1.595   0.035  10.026  0.5602  0.1503 -0.1602
  818MPD2    H712047   1.580   4.705  10.111  4.5170 -1.0414 -0.2325
  819MPD2     C12048   0.866   0.950  15.446 -0.1237 -0.3204  0.2919
  819MPD2    C112049   0.847   0.843  15.520  0.2612 -0.2510  0.1186
  819MPD2    C212050   0.956   0.797  15.590 -0.1679  0.8870 -0.4296
  819MPD2    C312051   1.074   0.859  15.574 -0.1523  0.1154  0.4779
  819MPD2    C412052   1.087   0.967  15.492 -0.9019 -0.1783  0.9840
  819MPD2    C512053   0.982   1.019  15.434  0.2405  0.3246 -0.5098
  819MPD2     H12054   0.941   0.712  15.655  1.9130 -0.2636 -1.4669
  819MPD2    H112055   1.179   1.022  15.475 -1.4760 -0.2592 -2.4010
  819MPD2    H212056   0.777   0.989  15.396  0.2384  0.9215  0.6069
  819MPD2    H312057   0.989   1.104  15.367 -2.2291  0.7647 -0.1944
  819MPD2     N12058   1.191   0.817  15.639 -0.1044 -0.2765  0.5978
  819MPD2    H512059   1.284   0.852  15.618  0.2083 -0.4583  1.6561
  819MPD2    N112060   0.720   0.783  15.527 -0.1836 -0.0805  0.2308
  819MPD2    H712061   0.654   0.824  15.460  0.2895 -1.8402 -1.3009
  820MPD2     C12062   4.522   0.677  15.194  0.2664 -0.0151  0.3507
  820MPD2    C112063   4.604   0.778  15.238 -0.2643  0.0252 -0.1310
  820MPD2    C212064   0.012   0.760  15.266  0.6103 -0.4781 -0.3567
  820MPD2    C312065   0.067   0.630  15.241  0.0058  0.1566 -0.3814
  820MPD2    C412066   4.711   0.528  15.200  0.5037 -0.1939  0.1217
  820MPD2    C512067   4.573   0.550  15.185  0.7952  0.6536 -0.1034
  820MPD2     H12068   0.070   0.834  15.319  0.7908 -0.4688 -0.5655
  820MPD2    H112069   0.029   0.431  15.175  0.8586 -0.4884  1.8606
  820MPD2    H212070   4.419   0.701  15.171  0.2629  0.4617  0.8834
  820MPD2    H312071   4.516   0.466  15.147  1.0759 -0.5469  2.1097
  820MPD2     N12072   0.204   0.594  15.254  0.6793 -0.0753  0.1222
  820MPD2    H512073   0.224   0.496  15.266 -0.4110 -0.2487  0.5167
  820MPD2    N112074   4.537   0.905  15.248  0.2849  0.5133  0.0431
  820MPD2    H712075   4.438   0.915  15.229  0.5695  1.6273 -0.8231
  821MPD2     C12076   0.775   2.193  13.596  0.1554  0.1956 -0.2291
  821MPD2    C112077   0.878   2.228  13.684  0.7130  0.0451 -0.0352
  821MPD2    C212078   0.977   2.302  13.626  0.5214 -0.0380  0.0063
  821MPD2    C312079   0.974   2.330  13.488 -0.5825 -0.0885  0.1867
  821MPD2    C412080   0.872   2.281  13.408 -0.3730 -0.5066  0.0386
  821MPD2    C512081   0.772   2.217  13.461 -0.4654 -0.8116 -0.1726
  821MPD2     H12082   1.056   2.340  13.690  2.6052 -1.1645 -1.9222
  821MPD2    H112083   0.871   2.306  13.302 -4.0785 -0.4612  0.1062
  821MPD2    H212084   0.690   2.131  13.623  0.6930 -0.8952 -1.0567
  821MPD2    H312085   0.694   2.177  13.396 -1.6958  2.2783 -0.6033
  821MPD2     N12086   1.077   2.396  13.418 -0.2790 -0.4088 -0.2124
  821MPD2    H512087   1.058   2.434  13.326 -0.5073  3.8298  1.5746
  821MPD2    N112088   0.868   2.215  13.826 -0.4165  0.2749  0.4096
  821MPD2    H712089   0.944   2.251  13.883 -0.6267  0.4241  0.5960
  822MPD2     C12090   1.511   2.198  16.078  0.2883  0.0470  0.5527
  822MPD2    C112091   1.474   2.163  16.206  0.6763 -0.2087  0.0238
  822MPD2    C212092   1.398   2.249  16.285  0.5795 -0.1234  0.4440
  822MPD2    C312093   1.370   2.371  16.236 -0.8563  0.5855  0.1556
  822MPD2    C412094   1.392   2.405  16.103 -0.2438 -0.6124 -0.5940
  822MPD2    C512095   1.458   2.313  16.026 -0.0227 -0.2601 -0.0377
  822MPD2     H12096   1.375   2.220  16.386 -2.2109  3.3676  0.7987
  822MPD2    H112097   1.359   2.502  16.066  1.4130  0.9789  2.0965
  822MPD2    H212098   1.550   2.128  16.006 -1.7666 -0.9844  0.4194
  822MPD2    H312099   1.468   2.330  15.920 -0.0200 -0.1514 -0.0197
  822MPD2     N12100   1.313   2.455  16.325  0.1611  0.2818  0.2090
  822MPD2    H512101   1.291   2.417  16.416 -0.8337 -0.1025 -0.1843
  822MPD2    N112102   1.508   2.038  16.264  0.1128  0.4762  0.1975
  822MPD2    H712103   1.476   2.022  16.359  0.1349  2.9205  0.6256
  823MPD2     C12104   0.945   2.607  17.070  0.1966 -0.1656  0.6204
  823MPD2    C112105   1.023   2.534  16.990 -0.2903 -0.9231 -0.2040
  823MPD2    C212106   1.074   2.412  17.034 -0.2500 -0.2814 -0.1113
  823MPD2    C312107   1.039   2.363  17.161  0.1005  0.1624 -0.1306
  823MPD2    C412108   0.960   2.447  17.242  0.7822 -0.0103  0.2027
  823MPD2    C512109   0.912   2.565  17.199 -0.8565 -0.0908 -0.4010
  823MPD2     H12110   1.135   2.346  16.974 -1.5480 -0.3134 -1.3639
  823MPD2    H112111   0.930   2.418  17.343 -0.4988 -1.0595 -0.4667
  823MPD2    H212112   0.912   2.703  17.031  1.3830  0.4408  1.1035
  823MPD2    H312113   0.853   2.629  17.264 -1.7165 -1.4433  0.1499
  823MPD2     N12114   1.074   2.236  17.217  0.0776 -0.6366 -0.1078
  823MPD2    H512115   1.044   2.209  17.310  0.0757  0.3792  0.1857
  823MPD2    N112116   1.073   2.598  16.874  0.6019 -0.9342  0.0840
  823MPD2    H712117   1.064   2.698  16.865  1.0458 -0.8812  0.2573
  824MPD2     C12118   1.768   1.286  16.188 -0.0716 -0.0522 -0.3374
  824MPD2    C112119   1.872   1.374  16.166  0.4163 -0.6956  0.0258
  824MPD2    C212120   1.971   1.342  16.075 -0.0160 -0.0319 -0.1613
  824MPD2    C312121   1.976   1.212  16.028 -0.2103 -0.8641  0.4860
  824MPD2    C412122   1.885   1.122  16.071 -0.2129 -0.5451 -0.3520
  824MPD2    C512123   1.783   1.160  16.158  0.7608 -0.5317  0.1939
  824MPD2     H12124   2.047   1.411  16.039 -0.1635  0.7706  1.0614
  824MPD2    H112125   1.881   1.016  16.049  1.2020 -0.7793  0.5144
  824MPD2    H212126   1.682   1.314  16.248 -0.0689 -1.8192  0.4983
  824MPD2    H312127   1.712   1.083  16.186 -1.7589  1.0010 -2.0464
  824MPD2     N12128   2.085   1.178  15.937 -0.1200 -0.2068 -0.4139
  824MPD2    H512129   2.156   1.250  15.930  0.7560 -1.2485 -2.1406
  824MPD2    N112130   1.865   1.501  16.225  0.9538  0.1399  1.3143
  824MPD2    H712131   1.933   1.574  16.205  1.6288 -0.7780  0.2664
  825MPD2     C12132   2.782   1.062  15.445 -0.1386  0.1141  0.4140
  825MPD2    C112133   2.693   1.158  15.489 -0.2265  0.3600 -0.0516
  825MPD2    C212134   2.702   1.294  15.440  0.2936 -0.1880  1.3014
  825MPD2    C312135   2.806   1.328  15.363 -0.1171  0.2587 -0.9041
  825MPD2    C412136   2.887   1.228  15.310 -0.4841  0.2145  0.0862
  825MPD2    C512137   2.870   1.098  15.353  0.5949 -0.3171  0.1637
  825MPD2     H12138   2.642   1.372  15.485  0.6937  0.0616  1.3980
  825MPD2    H112139   2.964   1.253  15.237  0.8556 -0.9572  1.1063
  825MPD2    H212140   2.775   0.957  15.471 -0.0452  0.0288  0.1012
  825MPD2    H312141   2.943   1.025  15.322  1.0259  0.3671 -0.4322
  825MPD2     N12142   2.829   1.459  15.313  0.5448 -0.0728  0.6148
  825MPD2    H512143   2.896   1.478  15.239  0.7160 -1.3964  0.4336
  825MPD2    N112144   2.606   1.112  15.588 -0.1541  0.3930 -0.5276
  825MPD2    H712145   2.608   1.014  15.612 -0.8834  0.8329  1.3120
  826MPD2     C12146   2.073   1.755  13.882 -0.3057 -0.0370 -0.2823
  826MPD2    C112147   1.998   1.761  13.771 -0.3180 -0.6525  0.1534
  826MPD2    C212148   1.866   1.808  13.788  0.6041 -0.2830 -0.2881
  826MPD2    C312149   1.824   1.854  13.913 -0.2475 -0.7591 -0.0574
  826MPD2    C412150   1.903   1.842  14.024 -0.0485 -0.2409  0.0929
  826MPD2    C512151   2.025   1.801  14.005 -0.2494 -0.6313  0.2345
  826MPD2     H12152   1.800   1.816  13.702 -1.3057 -0.4145  1.1699
  826MPD2    H112153   1.868   1.851  14.126  1.3848 -2.0260  0.7474
  826MPD2    H212154   2.178   1.729  13.881 -0.0752  0.8944 -0.6718
  826MPD2    H312155   2.090   1.812  14.091  0.4127  1.0908 -0.4834
  826MPD2     N12156   1.696   1.896  13.944 -0.7806 -0.1920  0.0368
  826MPD2    H512157   1.674   1.936  14.035 -0.6627  0.1505 -0.0861
  826MPD2    N112158   2.033   1.697  13.654  0.3951  0.0804  0.8484
  826MPD2    H712159   2.119   1.644  13.654  0.5663  0.3501  1.3651
  827MPD2     C12160   2.072   2.931  10.097  0.7499 -0.4323  0.4823
  827MPD2    C112161   2.202   2.873  10.109  0.9851 -0.3756 -0.0717
  827MPD2    C212162   2.233   2.746  10.060 -0.4781 -0.0140  0.0317
  827MPD2    C312163   2.131   2.674  10.001 -0.3687 -0.2213  0.0829
  827MPD2    C412164   2.007   2.728   9.989 -0.4128  0.4506 -0.8975
  827MPD2    C512165   1.979   2.851  10.036 -0.2781 -0.5920 -0.0381
  827MPD2     H12166   2.330   2.699  10.065 -0.0431  0.8099 -0.5562
  827MPD2    H112167   1.916   2.682   9.952  0.8417 -1.4197 -1.6400
  827MPD2    H212168   2.044   3.029  10.134 -2.7629 -0.9365 -0.8168
  827MPD2    H312169   1.874   2.877  10.038  0.4710  2.4232 -0.7887
  827MPD2     N12170   2.162   2.546   9.951  0.0817  0.1221  0.0382
  827MPD2    H512171   2.256   2.511   9.965  1.2185  2.4242 -1.9186
  827MPD2    N112172   2.303   2.943  10.178  0.1139  0.1311 -0.5139
  827MPD2    H712173   2.387   2.890  10.199 -0.4050 -1.3357 -2.1852
  828MPD2     C12174   1.039   2.995  11.757  0.9167 -0.0632 -0.5706
  828MPD2    C112175   0.988   2.874  11.789 -0.4224  0.0641  0.1519
  828MPD2    C212176   1.027   2.757  11.724 -0.2955  0.7782  0.6336
  828MPD2    C312177   1.119   2.759  11.622  0.1581  0.6050 -0.0315
  828MPD2    C412178   1.175   2.878  11.595  0.2389 -0.5998  0.2800
  828MPD2    C512179   1.136   2.998  11.660 -0.2322 -0.2740  0.0110
  828MPD2     H12180   0.974   2.665  11.747 -0.4301  0.2997 -1.5959
  828MPD2    H112181   1.249   2.884  11.516 -0.9770  0.5345 -0.7539
  828MPD2    H212182   1.019   3.094  11.795 -2.9136 -0.5256 -1.3317
  828MPD2    H312183   1.164   3.094  11.619  1.0330 -0.9666 -0.7422
  828MPD2     N12184   1.149   2.648  11.542 -0.2793 -0.3893 -0.7314
  828MPD2    H512185   1.214   2.660  11.465  0.9770  0.3304  0.4504
  828MPD2    N112186   0.895   2.862  11.890  0.3545 -0.8540 -0.0501
  828MPD2    H712187   0.865   2.765  11.897 -3.2095  0.1930 -0.4988
  829MPD2     C12188   0.317   2.823  11.415 -0.3482 -0.1367 -0.5424
  829MPD2    C112189   0.269   2.890  11.528 -0.5114 -0.1203 -0.1505
  829MPD2    C212190   0.303   2.851  11.653 -0.1522  0.0492  0.5822
  829MPD2    C312191   0.412   2.761  11.670 -0.9699  0.0241  0.4544
  829MPD2    C412192   0.448   2.680  11.560  0.4268 -0.3549  0.3037
  829MPD2    C512193   0.404   2.714  11.433 -1.0227  0.6257  0.2746
  829MPD2     H12194   0.265   2.907  11.737 -1.6392 -0.8392  0.4942
  829MPD2    H112195   0.528   2.609  11.575  1.1241  0.6247  1.2181
  829MPD2    H212196   0.277   2.843  11.316  0.4450 -0.7531 -0.9883
  829MPD2    H312197   0.439   2.669  11.341  0.4367  1.6083  0.3421
  829MPD2     N12198   0.468   2.730  11.796 -0.0571 -0.0706  0.2947
  829MPD2    H512199   0.552   2.673  11.803  0.5377  0.9941  1.7789
  829MPD2    N112200   0.187   3.005  11.508 -0.2164 -0.0530 -0.2733
  829MPD2    H712201   0.141   3.008  11.418 -0.0640  0.4283 -0.3366
  830MPD2     C12202   1.997   0.540  15.632  0.0004 -0.0791  0.6374
  830MPD2    C112203   1.895   0.630  15.613 -0.2039  0.4960 -0.7850
  830MPD2    C212204   1.922   0.751  15.551  0.4865 -0.5144 -0.0818
  830MPD2    C312205   2.049   0.779  15.506 -0.3870 -0.3973 -0.5032
  830MPD2    C412206   2.151   0.680  15.516 -0.7310 -0.2994  0.8124
  830MPD2    C512207   2.125   0.559  15.587  0.2640  0.0808  0.5681
  830MPD2     H12208   1.850   0.831  15.535  2.3826  0.7083 -2.6497
  830MPD2    H112209   2.254   0.692  15.482  0.0946 -3.0991  2.3422
  830MPD2    H212210   1.979   0.454  15.696  1.1643 -0.3573  0.5893
  830MPD2    H312211   2.202   0.484  15.604  1.5431  1.0987 -0.7271
  830MPD2     N12212   2.068   0.900  15.426 -0.2221  0.1012 -0.8222
  830MPD2    H512213   1.987   0.953  15.397 -0.3392  0.3483 -0.0488
  830MPD2    N112214   1.768   0.596  15.667  0.5164 -0.1143 -0.2332
  830MPD2    H712215   1.760   0.510  15.720 -3.4502  0.6728  0.4611
  831MPD2     C12216   1.591   2.490  16.662 -0.2023  0.1146  0.0654
  831MPD2    C112217   1.596   2.373  16.575  0.3920  0.9575 -0.1360
  831MPD2    C212218   1.503   2.266  16.600  0.3121 -0.0288 -0.1095
  831MPD2    C312219   1.412   2.272  16.701 -0.4659 -0.5098 -0.9564
  831MPD2    C412220   1.416   2.383  16.787 -0.0321  0.1424  0.1572
  831MPD2    C512221   1.499   2.489  16.766 -0.3201 -0.3715 -0.3930
  831MPD2     H12222   1.510   2.173  16.545  1.9482  1.1911 -1.9544
  831MPD2    H112223   1.348   2.379  16.871  0.2906 -2.0527  0.3002
  831MPD2    H212224   1.650   2.580  16.653  2.5338 -1.6988  0.1453
  831MPD2    H312225   1.499   2.569  16.840 -2.4643 -0.8661  0.1431
  831MPD2     N12226   1.316   2.170  16.724 -0.4412  0.0993 -0.0092
  831MPD2    H512227   1.252   2.179  16.803  0.0350 -0.4201  0.4322
  831MPD2    N112228   1.688   2.380  16.470  0.1362 -0.3273 -0.5196
  831MPD2    H712229   1.737   2.465  16.441 -1.2654  0.0649 -1.6728
  832MPD2     C12230   4.596   3.495  17.272  0.0185  0.6027  0.4566
  832MPD2    C112231   4.599   3.631  17.279  0.2181 -1.2270 -0.8935
  832MPD2    C212232   4.508   3.709  17.218  0.6049 -0.2871 -0.7167
  832MPD2    C312233   4.424   3.646  17.123  0.0226 -0.3253  0.8990
  832MPD2    C412234   4.425   3.509  17.110  0.0906  0.1193  0.2928
  832MPD2    C512235   4.510   3.431  17.185  0.9638  0.6180 -0.3674
  832MPD2     H12236   4.508   3.818  17.219  0.1492 -0.3321  3.9660
  832MPD2    H112237   4.364   3.456  17.037 -0.4859  0.9993  0.1405
  832MPD2    H212238   4.660   3.426  17.326  2.3116  2.4063 -0.0025
  832MPD2    H312239   4.504   3.323  17.194 -0.0165  0.7332  0.3696
  832MPD2     N12240   4.333   3.714  17.040  0.3021 -0.0188 -0.7499
  832MPD2    H512241   4.272   3.663  16.975  0.7874  0.9740 -1.9808
  832MPD2    N112242   4.691   3.687  17.367  0.2779 -0.4504 -0.3421
  832MPD2    H712243   0.030   3.626  17.417  1.3997  0.2793 -0.8570
  833MPD2     C12244   1.891   0.254  12.529  0.0039  0.5988  0.2890
  833MPD2    C112245   1.986   0.353  12.546  0.2125  0.4039 -1.1944
  833MPD2    C212246   2.085   0.348  12.451  0.5309  0.1094  0.2535
  833MPD2    C312247   2.092   0.247  12.351 -0.1589  0.6187 -0.2957
  833MPD2    C412248   1.992   0.155  12.342 -0.3690  0.4330  0.1599
  833MPD2    C512249   1.889   0.162  12.429  0.8443  0.0132 -0.6313
  833MPD2     H12250   2.164   0.422  12.456  0.3671  0.2944  0.1051
  833MPD2    H112251   1.996   0.075  12.269 -0.3610 -1.5879  2.4168
  833MPD2    H212252   1.820   0.238  12.609 -0.2854  1.7353  0.2644
  833MPD2    H312253   1.819   0.081  12.418 -1.2550  1.7610 -0.0625
  833MPD2     N12254   2.195   0.223  12.262 -0.2210  0.3133  0.4284
  833MPD2    H512255   2.180   0.153  12.191 -0.7798  0.0564  0.7993
  833MPD2    N112256   1.986   0.445  12.656  0.3997  0.2732 -0.2239
  833MPD2    H712257   1.912   0.438  12.725  0.3853  0.0752 -0.2588
  834MPD2     C12258   1.941   0.432  11.514  0.2663 -0.9590  0.2983
  834MPD2    C112259   1.977   0.302  11.522 -0.2684 -0.0734  0.4543
  834MPD2    C212260   2.069   0.266  11.625 -0.0466 -0.0221  0.0078
  834MPD2    C312261   2.132   0.365  11.696  0.6348 -0.5640  0.1906
  834MPD2    C412262   2.097   0.498  11.673  0.3723 -0.4348  0.2480
  834MPD2    C512263   1.998   0.526  11.586  0.5773  0.1684 -0.5221
  834MPD2     H12264   2.106   0.165  11.640  0.4125  0.9054  4.8814
  834MPD2    H112265   2.138   0.592  11.710 -0.2750  0.5151 -1.4566
  834MPD2    H212266   1.864   0.461  11.443 -0.3238  0.1476  1.3758
  834MPD2    H312267   1.967   0.629  11.577 -1.2721 -0.2818  0.8061
  834MPD2     N12268   2.232   0.330  11.790 -0.5692  0.0841  0.3547
  834MPD2    H512269   2.257   0.235  11.816 -1.4926  0.0102  0.9661
  834MPD2    N112270   1.929   0.206  11.433  0.9810 -0.0132  0.0486
  834MPD2    H712271   1.880   0.233  11.349  0.0649  0.0803  0.6185
  835MPD2     C12272   1.488   3.108  11.331  0.8865  0.3039 -0.0932
  835MPD2    C112273   1.386   3.194  11.371 -0.5699  0.7239  0.0678
  835MPD2    C212274   1.365   3.219  11.504  0.2438  0.6592 -0.3979
  835MPD2    C312275   1.446   3.159  11.598 -1.1215 -0.8549 -0.6440
  835MPD2    C412276   1.550   3.087  11.563 -0.5448 -0.3837 -0.0023
  835MPD2    C512277   1.559   3.047  11.435 -0.2495 -0.3960 -0.0730
  835MPD2     H12278   1.284   3.281  11.542 -0.1664 -1.0473  1.4992
  835MPD2    H112279   1.620   3.046  11.636 -1.7411 -1.3766  0.5902
  835MPD2    H212280   1.511   3.080  11.229 -0.0402 -1.0259  0.0607
  835MPD2    H312281   1.638   2.977  11.411 -0.9890 -0.6548 -1.7887
  835MPD2     N12282   1.414   3.152  11.728 -0.0356 -0.1306 -1.2998
  835MPD2    H512283   1.451   3.068  11.770 -2.4490  0.2977  1.6888
  835MPD2    N112284   1.298   3.260  11.282 -0.6241 -0.4697 -0.0279
  835MPD2    H712285   1.248   3.344  11.308 -1.2039 -0.5812 -0.7822
  836MPD2     C12286   0.813   3.467  12.128 -0.4268  0.2150 -0.2709
  836MPD2    C112287   0.867   3.364  12.194  0.0435  0.3609  0.0711
  836MPD2    C212288   0.803   3.323  12.310  0.3655  0.2731  1.0744
  836MPD2    C312289   0.686   3.383  12.362 -0.0750  0.4602 -0.0026
  836MPD2    C412290   0.650   3.499  12.297  0.3911  0.2876  0.3685
  836MPD2    C512291   0.713   3.538  12.186 -0.4669 -0.7477  0.4465
  836MPD2     H12292   0.847   3.239  12.362  0.9272  0.9806  1.7399
  836MPD2    H112293   0.575   3.567  12.337 -1.8942 -2.7451  1.1958
  836MPD2    H212294   0.860   3.506  12.039 -1.2992  2.0527  0.0683
  836MPD2    H312295   0.676   3.631  12.144 -1.1252 -0.0156  2.6300
  836MPD2     N12296   0.623   3.357  12.477 -0.7670 -0.8377 -0.5156
  836MPD2    H512297   0.533   3.402  12.490 -0.0632  0.4259  0.0949
  836MPD2    N112298   0.983   3.306  12.142 -0.2526  0.4687  0.4145
  836MPD2    H712299   1.018   3.350  12.057 -1.6918  0.9049  0.0456
  837MPD2     C12300   4.697   3.094   9.725  0.6749 -0.3942 -0.4156
  837MPD2    C112301   4.626   3.120   9.612 -0.8334 -0.2782 -0.0547
  837MPD2    C212302   4.607   3.251   9.574  0.1450  0.4502 -0.4319
  837MPD2    C312303   4.656   3.359   9.645  0.3537  0.3654 -0.0190
  837MPD2    C412304   0.006   3.329   9.754  0.3187  0.8720 -0.2841
  837MPD2    C512305   0.035   3.201   9.789 -0.0145  0.2090  0.3617
  837MPD2     H12306   4.547   3.270   9.485 -0.1675  1.3323 -0.0391
  837MPD2    H112307   0.039   3.405   9.824 -1.4714  0.7409  0.7040
  837MPD2    H212308   4.709   2.996   9.770  1.2201 -0.4142 -0.6021
  837MPD2    H312309   0.087   3.175   9.881 -1.4807 -0.5626  0.9812
  837MPD2     N12310   4.627   3.485   9.594 -0.0845 -0.1943  0.2390
  837MPD2    H512311   4.576   3.477   9.507  0.9194 -0.1647 -0.3514
  837MPD2    N112312   4.553   3.023   9.544 -0.7036 -0.0293  0.4632
  837MPD2    H712313   4.493   3.043   9.465 -0.6516 -1.4183  0.0684
  838MPD2     C12314   3.581   1.502  11.745  0.3311 -0.4358  0.1400
  838MPD2    C112315   3.536   1.376  11.727  0.4376  0.4129  0.1327
  838MPD2    C212316   3.486   1.305  11.830 -0.1126  0.5352 -0.9245
  838MPD2    C312317   3.479   1.358  11.956 -0.1822  0.3750 -0.0716
  838MPD2    C412318   3.526   1.489  11.977  0.2534  0.1292  0.0304
  838MPD2    C512319   3.565   1.559  11.866  0.1706  0.0300  0.4395
  838MPD2     H12320   3.437   1.210  11.809  0.0927  0.5077 -1.2778
  838MPD2    H112321   3.516   1.540  12.072 -0.1678  1.4165 -0.7090
  838MPD2    H212322   3.621   1.573  11.673  1.0937 -2.1920 -1.1612
  838MPD2    H312323   3.589   1.663  11.887 -0.2562  0.6988 -2.3354
  838MPD2     N12324   3.418   1.295  12.065  0.0610 -0.1719 -0.5402
  838MPD2    H512325   3.421   1.348  12.151 -1.0984 -0.8767 -0.0725
  838MPD2    N112326   3.517   1.329  11.592  0.5533 -0.3442  0.2509
  838MPD2    H712327   3.489   1.232  11.581  0.1888 -0.2071 -0.0484
  839MPD2     C12328   2.702   1.136  11.340 -0.6919 -0.5541  0.1958
  839MPD2    C112329   2.784   1.037  11.292 -0.5460 -0.3265  0.0553
  839MPD2    C212330   2.917   1.065  11.273  0.5070 -0.2950 -1.0927
  839MPD2    C312331   2.972   1.174  11.330  0.0423  0.1583  0.3586
  839MPD2    C412332   2.897   1.265  11.405 -0.2272  0.0420 -0.5367
  839MPD2    C512333   2.762   1.240  11.403 -0.2353  0.1414 -0.5257
  839MPD2     H12334   2.973   0.989  11.220  0.9366  0.7757 -2.1886
  839MPD2    H112335   2.934   1.353  11.456 -1.5370 -0.3204  1.0352
  839MPD2    H212336   2.596   1.120  11.356 -0.7372 -1.1635 -0.7523
  839MPD2    H312337   2.699   1.320  11.441  0.6418  0.7177 -0.2871
  839MPD2     N12338   3.104   1.221  11.305  0.5217  0.2354 -0.1252
  839MPD2    H512339   3.119   1.303  11.363 -0.2146 -0.0883  0.5181
  839MPD2    N112340   2.737   0.909  11.241 -0.2641 -0.1916  0.8881
  839MPD2    H712341   2.801   0.861  11.180 -0.7118  2.0199 -1.3413
  840MPD2     C12342   2.959   3.040  10.090  0.4317 -0.4734 -0.2754
  840MPD2    C112343   2.932   3.103  10.208  0.4860  0.9095 -0.3478
  840MPD2    C212344   3.023   3.191  10.254  0.1135  0.0913  0.0751
  840MPD2    C312345   3.150   3.209  10.197 -0.5518 -0.7841 -0.2160
  840MPD2    C412346   3.179   3.140  10.079  0.0682 -0.3878  0.0238
  840MPD2    C512347   3.083   3.058  10.030 -0.1819 -0.4606 -0.5840
  840MPD2     H12348   2.997   3.253  10.339 -0.2040 -1.6680  1.2517
  840MPD2    H112349   3.272   3.156  10.025  1.0765 -0.1174  1.8464
  840MPD2    H212350   2.880   2.976  10.052  0.7205  0.8139 -3.0354
  840MPD2    H312351   3.099   2.984   9.953  1.1145  0.4910 -1.2232
  840MPD2     N12352   3.255   3.284  10.257 -0.1946 -0.2812 -0.0477
  840MPD2    H512353   3.339   3.306  10.204  1.0828  0.4375  2.3062
  840MPD2    N112354   2.802   3.088  10.256  0.4578 -0.2169 -0.0119
  840MPD2    H712355   2.741   3.021  10.211 -0.8274 -0.2082  1.7045
  841MPD2     C12356   2.805   3.125  14.767 -0.0336 -0.9378  0.5390
  841MPD2    C112357   2.842   3.077  14.644  0.3706  0.4954  0.0568
  841MPD2    C212358   2.849   3.159  14.533 -0.0536 -0.1484 -0.6229
  841MPD2    C312359   2.833   3.296  14.549  0.5898  0.0325 -0.4983
  841MPD2    C412360   2.793   3.338  14.671  0.2589 -0.0739  1.0881
  841MPD2    C512361   2.782   3.256  14.784 -0.1253 -1.0026  0.3504
  841MPD2     H12362   2.879   3.111  14.441  3.9217  0.7646  0.1522
  841MPD2    H112363   2.771   3.444  14.681 -1.1691 -0.2320 -0.2764
  841MPD2    H212364   2.784   3.057  14.849  0.4117 -2.0198 -0.2464
  841MPD2    H312365   2.760   3.285  14.886 -3.6059  0.5280 -0.8345
  841MPD2     N12366   2.840   3.380  14.441  0.0149  0.8880 -0.5170
  841MPD2    H512367   2.889   3.346  14.359 -0.3292 -1.4074  0.2460
  841MPD2    N112368   2.865   2.939  14.625 -0.0949  0.0216 -0.3899
  841MPD2    H712369   2.876   2.914  14.527 -1.0140  1.9125 -0.9894
  842MPD2     C12370   4.100   4.337  16.843 -0.2439 -0.3217  0.5820
  842MPD2    C112371   3.994   4.257  16.843  0.3625 -1.0751 -0.4785
  842MPD2    C212372   3.959   4.192  16.962  0.1399 -0.1748  0.1020
  842MPD2    C312373   4.019   4.226  17.084  0.6363  0.4048 -0.3750
  842MPD2    C412374   4.125   4.320  17.080  0.0823  0.4901 -0.6500
  842MPD2    C512375   4.161   4.371  16.958 -0.3183 -0.4871 -0.1716
  842MPD2     H12376   3.906   4.097  16.964 -0.2063  0.0652  1.8986
  842MPD2    H112377   4.195   4.336  17.161 -0.0151  1.9844 -0.8570
  842MPD2    H212378   4.142   4.368  16.748  2.8635 -1.7625  1.4693
  842MPD2    H312379   4.239   4.446  16.954 -1.0683  0.3015  0.1829
  842MPD2     N12380   4.004   4.155  17.206  0.0146 -0.6564 -0.0630
  842MPD2    H512381   4.081   4.175  17.270 -0.5255  1.8656 -0.1992
  842MPD2    N112382   3.931   4.228  16.717 -0.2707 -0.4561  0.2559
  842MPD2    H712383   3.959   4.297  16.648 -2.8232  0.4256  0.1174
  843MPD2     C12384   1.415   4.408  17.550 -0.1196  0.1893 -0.1883
  843MPD2    C112385   1.452   4.312  17.645  0.1809 -0.0160  0.5623
  843MPD2    C212386   1.589   4.285  17.656  0.8200  0.4442 -0.9341
  843MPD2    C312387   1.684   4.345  17.578 -0.4131  0.6248 -0.1707
  843MPD2    C412388   1.642   4.438  17.486 -0.8675 -0.2872  0.0214
  843MPD2    C512389   1.506   4.469  17.468  0.4039 -0.4903 -0.3890
  843MPD2     H12390   1.614   4.197   0.014  0.8790  1.0656 -0.0073
  843MPD2    H112391   1.713   4.485  17.419 -1.9212 -0.3240 -1.1203
  843MPD2    H212392   1.310   4.433  17.545  0.0641  1.2055  1.0692
  843MPD2    H312393   1.471   4.545  17.399 -2.5424 -1.5236 -0.0335
  843MPD2     N12394   1.824   4.311  17.573  0.0856 -0.3092 -0.1704
  843MPD2    H512395   1.879   4.336  17.491 -0.9431  2.2497 -0.1111
  843MPD2    N112396   1.345   4.259   0.026 -0.3225 -0.0294  0.5902
  843MPD2    H712397   1.256   4.302   0.005  0.7435  1.5538 -0.6925
  844MPD2     C12398   4.329   3.569  16.397 -0.3861  0.0988  0.1886
  844MPD2    C112399   4.438   3.493  16.423 -0.8165 -0.3869 -0.3506
  844MPD2    C212400   4.524   3.536  16.524  0.1040  0.3365  0.0007
  844MPD2    C312401   4.506   3.655  16.591  0.4181 -0.1526  0.1293
  844MPD2    C412402   4.404   3.735  16.556  0.2319  0.4448  0.5628
  844MPD2    C512403   4.317   3.690  16.462 -0.6015 -0.3676 -0.3078
  844MPD2     H12404   4.602   3.463  16.538 -1.7352 -1.6935 -0.2159
  844MPD2    H112405   4.387   3.834  16.595 -1.4706  0.0646  0.7770
  844MPD2    H212406   4.257   3.551  16.318  1.3334  1.0087 -1.6013
  844MPD2    H312407   4.233   3.754  16.439  0.9895  1.4172 -1.1242
  844MPD2     N12408   4.600   3.686  16.694 -0.3221 -0.0172  0.0086
  844MPD2    H512409   4.673   3.616  16.702  1.0602  1.8471  3.5544
  844MPD2    N112410   4.465   3.374  16.349 -0.1561 -0.4181 -0.1925
  844MPD2    H712411   4.555   3.331  16.366  0.0266 -0.3539 -1.0221
  845MPD2     C12412   0.121   4.523  17.120 -0.1360 -0.0293 -0.0895
  845MPD2    C112413   4.715   4.476  17.117 -0.3621 -0.4534 -0.2054
  845MPD2    C212414   4.698   4.340  17.117 -0.4608  0.5742 -0.2750
  845MPD2    C312415   0.086   4.253  17.114  0.0898  0.7288  0.0185
  845MPD2    C412416   0.213   4.302  17.115 -0.5621 -0.5953  0.0947
  845MPD2    C512417   0.230   4.439  17.131  0.4045 -0.2072 -0.5187
  845MPD2     H12418   4.600   4.304  17.090 -0.0643 -0.7602  0.0643
  845MPD2    H112419   0.300   4.237  17.117  1.8429  2.5850 -0.3416
  845MPD2    H212420   0.145   4.628  17.136  2.7405 -0.4882 -1.2420
  845MPD2    H312421   0.331   4.471  17.151  0.2635 -0.6422  0.9090
  845MPD2     N12422   0.056   4.118  17.102 -0.7863  0.4417  0.0312
  845MPD2    H512423   4.683   4.095  17.085 -0.7016 -0.2325  0.4669
  845MPD2    N112424   4.603   4.561  17.118 -0.8039 -0.4201  0.8969
  845MPD2    H712425   4.515   4.514  17.136  0.5271 -2.8621  0.9783
  846MPD2     C12426   1.114   4.696  13.624 -0.6384  0.1798 -0.4046
  846MPD2    C112427   1.132   0.105  13.623  0.6525  0.4951  0.1958
  846MPD2    C212428   1.128   0.176  13.745  0.5049  0.2278  0.8782
  846MPD2    C312429   1.141   0.112  13.864  0.1286 -0.0216 -0.9976
  846MPD2    C412430   1.138   4.695  13.861  0.2571 -0.2276 -0.0996
  846MPD2    C512431   1.120   4.630  13.744  0.5919 -0.9679 -0.1580
  846MPD2     H12432   1.131   0.284  13.754  1.0067  0.2912 -0.0981
  846MPD2    H112433   1.149   4.632  13.948 -2.6120 -0.2537  0.2431
  846MPD2    H212434   1.100   4.637  13.534  0.4034  2.7558 -2.2306
  846MPD2    H312435   1.096   4.525  13.752 -0.7044 -0.7079 -0.6531
  846MPD2     N12436   1.146   0.193  13.983  0.3425  0.3571  0.5074
  846MPD2    H512437   1.123   0.290  13.966 -0.6178 -0.1512 -1.1430
  846MPD2    N112438   1.148   0.170  13.499 -0.5638 -0.0297 -0.7480
  846MPD2    H712439   1.191   0.261  13.500 -0.8048  0.0699  1.2710
  847MPD2     C12440   1.575   0.937  14.332  0.0390  0.4786 -1.0265
  847MPD2    C112441   1.656   1.011  14.413  0.5122 -0.1382  1.2362
  847MPD2    C212442   1.748   0.954  14.495 -0.6471  0.4113 -0.5902
  847MPD2    C312443   1.747   0.817  14.503 -0.2691  0.2356  0.0593
  847MPD2    C412444   1.663   0.737  14.425  0.1954 -0.0230 -0.0088
  847MPD2    C512445   1.588   0.798  14.325 -0.6095  0.1033 -0.0269
  847MPD2     H12446   1.813   1.016  14.557 -1.4138 -1.3557  1.9918
  847MPD2    H112447   1.667   0.629  14.434  0.0572 -0.3049 -3.2747
  847MPD2    H212448   1.516   0.991  14.259 -0.8323 -2.0572 -2.2264
  847MPD2    H312449   1.521   0.739  14.264  0.2430 -3.3997  2.3790
  847MPD2     N12450   1.838   0.756  14.598  0.0995 -0.5734 -0.1899
  847MPD2    H512451   1.888   0.819  14.660  0.7835 -0.6303 -0.6852
  847MPD2    N112452   1.662   1.149  14.415 -0.0772  0.2605 -0.4271
  847MPD2    H712453   1.732   1.189  14.477  2.4470  0.1636 -3.1992
  848MPD2     C12454   4.094   3.951  16.349  0.6163 -0.0461  0.2481
  848MPD2    C112455   4.164   4.017  16.447 -0.2466 -0.7848 -0.3040
  848MPD2    C212456   4.229   4.137  16.406  1.1409  0.2755 -1.0441
  848MPD2    C312457   4.223   4.187  16.281 -0.3023  0.2701 -1.0562
  848MPD2    C412458   4.150   4.115  16.186 -0.0278  0.5253 -0.2442
  848MPD2    C512459   4.085   3.997  16.221  0.3654  0.7761  0.1257
  848MPD2     H12460   4.287   4.192  16.479 -0.8854 -0.8549  1.4131
  848MPD2    H112461   4.151   4.146  16.083  1.5785 -0.3172 -0.4805
  848MPD2    H212462   4.034   3.862  16.366  2.5931 -1.1769  1.2767
  848MPD2    H312463   4.028   3.940  16.150  0.9504 -0.2028  0.4423
  848MPD2     N12464   4.300   4.293  16.232 -0.2110  0.2621 -0.2418
  848MPD2    H512465   4.299   4.315  16.133  2.3847 -1.5880 -0.6769
  848MPD2    N112466   4.154   3.982  16.586 -0.2895  0.0756  0.1885
  848MPD2    H712467   4.218   4.029  16.648 -0.5159 -2.0663  2.0745
  849MPD2     C12468   3.308   4.296  13.965  0.5207  0.2895 -0.0325
  849MPD2    C112469   3.421   4.302  13.886 -0.0269 -0.2069 -0.7317
  849MPD2    C212470   3.480   4.185  13.865  0.4987 -0.7808 -0.0053
  849MPD2    C312471   3.428   4.064  13.908  0.6871 -0.9012  0.3514
  849MPD2    C412472   3.310   4.058  13.977  0.4073 -0.5892  0.2019
  849MPD2    C512473   3.250   4.177  14.001 -0.2983 -0.4433 -0.3278
  849MPD2     H12474   3.567   4.185  13.800 -1.5961 -1.2615 -2.8310
  849MPD2    H112475   3.274   3.968  14.025 -0.2186  0.3557  1.5123
  849MPD2    H212476   3.261   4.391  13.985  1.5929  0.9333 -0.5150
  849MPD2    H312477   3.157   4.190  14.056 -0.4057  0.7842 -0.7853
  849MPD2     N12478   3.514   3.957  13.882  0.4246 -0.3760  0.4378
  849MPD2    H512479   3.609   3.976  13.851 -0.6491  1.9186 -1.4768
  849MPD2    N112480   3.471   4.430  13.848 -0.2054 -0.1627 -0.2428
  849MPD2    H712481   3.413   4.513  13.858  0.4913  0.3630 -0.5613
  850MPD2     C12482   1.332   1.574  15.012  0.5032 -0.2440  0.1028
  850MPD2    C112483   1.351   1.675  15.105  0.6937 -0.4022  0.6528
  850MPD2    C212484   1.472   1.689  15.164 -0.1468 -0.7350  0.1347
  850MPD2    C312485   1.576   1.606  15.131  0.6327 -0.2719  0.0468
  850MPD2    C412486   1.557   1.514  15.033  0.0103  0.2916  0.6649
  850MPD2    C512487   1.430   1.490  14.978 -0.5088 -0.2549 -0.0469
  850MPD2     H12488   1.479   1.770  15.237 -0.3850 -0.3249 -0.2970
  850MPD2    H112489   1.639   1.452  15.000  0.0232  0.3629  0.5623
  850MPD2    H212490   1.230   1.556  14.979  0.9714  0.8043 -1.9377
  850MPD2    H312491   1.402   1.407  14.915  2.5662 -0.4808 -1.0991
  850MPD2     N12492   1.703   1.608  15.182 -0.1015  0.0432  0.4372
  850MPD2    H512493   1.779   1.555  15.141 -0.5202  1.7628 -2.5353
  850MPD2    N112494   1.226   1.743  15.117 -0.9620  0.2198 -0.1661
  850MPD2    H712495   1.155   1.707  15.053 -0.5707  1.2934 -1.2071
  851MPD2     C12496   1.718   1.656  15.822 -0.9141  0.0495 -0.4066
  851MPD2    C112497   1.653   1.607  15.707  0.0621  0.0730  0.5195
  851MPD2    C212498   1.714   1.503  15.635  0.1130 -0.1105  0.5208
  851MPD2    C312499   1.841   1.460  15.675  0.0544 -0.4910 -0.0930
  851MPD2    C412500   1.892   1.503  15.791  0.1959  0.0907 -0.3726
  851MPD2    C512501   1.832   1.595  15.866 -0.0901 -0.4045 -0.0680
  851MPD2     H12502   1.671   1.458  15.547 -1.0483  1.2460  0.3859
  851MPD2    H112503   1.987   1.465  15.827 -0.2896  1.3572  2.2527
  851MPD2    H212504   1.678   1.744  15.872  0.3108  0.1976  0.3086
  851MPD2    H312505   1.882   1.634  15.954 -1.6209 -0.5502  0.8611
  851MPD2     N12506   1.922   1.385  15.583  0.1566  0.4124  0.3789
  851MPD2    H512507   1.866   1.342  15.510  0.0417 -1.6599  1.6903
  851MPD2    N112508   1.538   1.673  15.660  0.1830  0.1879 -0.1952
  851MPD2    H712509   1.518   1.751  15.721  1.4246 -1.3697  2.1920
  852MPD2     C12510   0.658   4.389  10.292  0.0446 -0.3877 -0.2464
  852MPD2    C112511   0.701   4.476  10.386  0.8889  0.3472 -0.0042
  852MPD2    C212512   0.752   4.603  10.321 -0.1263 -0.6640 -0.2914
  852MPD2    C312513   0.769   4.616  10.187  0.1399 -0.7015 -0.5603
  852MPD2    C412514   0.720   4.517  10.102 -0.0794  0.4496  0.8571
  852MPD2    C512515   0.664   4.405  10.156  0.0896 -0.9302 -0.6959
  852MPD2     H12516   0.783   4.684  10.387  1.0149 -2.2807  1.1753
  852MPD2    H112517   0.720   4.531   9.994  2.0048 -0.4572  0.7364
  852MPD2    H212518   0.615   4.291  10.312  1.3035 -1.1040 -1.0773
  852MPD2    H312519   0.641   4.324  10.088  2.4796 -2.6316  0.5203
  852MPD2     N12520   0.834   0.006  10.142 -0.3488 -0.0154 -0.5403
  852MPD2    H512521   0.864   0.063  10.221  0.2073 -1.9748  0.6728
  852MPD2    N112522   0.697   4.459  10.523  0.2845 -0.7030  0.0252
  852MPD2    H712523   0.746   4.536  10.569 -0.9265 -0.1375  0.3584
  853MPD2     C12524   3.255   4.552  12.157 -0.1620  0.5385 -0.2375
  853MPD2    C112525   3.124   4.518  12.140 -0.2646 -1.0019 -0.2472
  853MPD2    C212526   3.063   4.528  12.017 -0.3540 -0.2548  0.0222
  853MPD2    C312527   3.136   4.570  11.907  0.3787 -0.3652  0.1164
  853MPD2    C412528   3.266   4.602  11.926 -0.3988 -0.0404 -0.3238
  853MPD2    C512529   3.325   4.597  12.050  0.5205 -0.4192 -0.0375
  853MPD2     H12530   2.958   4.501  12.018 -0.4024 -0.1729 -2.3864
  853MPD2    H112531   3.337   4.622  11.846 -0.4600 -0.0323 -0.3761
  853MPD2    H212532   3.316   4.535  12.245 -1.0685 -0.1422  0.2533
  853MPD2    H312533   3.432   4.607  12.060  0.2526  0.5538  1.8715
  853MPD2     N12534   3.086   4.570  11.772 -0.5286 -0.2754  0.3447
  853MPD2    H512535   3.161   4.588  11.706 -0.5100  0.6194  0.5984
  853MPD2    N112536   3.030   4.472  12.237  0.3228  0.0421 -0.4006
  853MPD2    H712537   2.936   4.452  12.206 -1.0645  1.5542  2.7664
  854MPD2     C12538   4.389   0.181  13.244 -0.4502  0.0274  0.2341
  854MPD2    C112539   4.446   0.115  13.133  0.0117  0.9147 -0.2180
  854MPD2    C212540   4.534   0.009  13.144 -0.2090 -0.0067 -0.4930
  854MPD2    C312541   4.569   4.700  13.276  0.5748  0.6036  0.0431
  854MPD2    C412542   4.520   0.053  13.381 -0.3357  0.5371  0.3034
  854MPD2    C512543   4.430   0.149  13.369  0.0550  0.1405  0.0196
  854MPD2     H12544   4.579   4.672  13.067  1.5301 -0.8279  1.1867
  854MPD2    H112545   4.549   0.023  13.481 -0.6151 -0.1496  0.1778
  854MPD2    H212546   4.314   0.258  13.230 -0.2522  0.3671  1.0246
  854MPD2    H312547   4.386   0.189  13.460  0.8097  0.3531  0.2921
  854MPD2     N12548   4.660   4.599  13.310  0.2057  0.2007  0.2782
  854MPD2    H512549   4.668   4.576  13.409 -0.0554  0.3830  0.3403
  854MPD2    N112550   4.392   0.143  13.001 -0.3960 -0.2749  0.2920
  854MPD2    H712551   4.318   0.213  12.995  0.3245  0.3573 -1.4380
  855MPD2     C12552   4.639   3.843  13.749 -0.1057 -0.2135 -1.1598
  855MPD2    C112553   0.048   3.880  13.756 -0.2728  0.3013  0.0680
  855MPD2    C212554   0.081   4.008  13.716  0.3311  0.9011  0.4810
  855MPD2    C312555   4.707   4.087  13.658 -0.3822  0.1805 -0.4648
  855MPD2    C412556   4.581   4.045  13.638 -0.4713  0.0098 -0.4948
  855MPD2    C512557   4.544   3.927  13.696 -0.9005  0.1354  0.2798
  855MPD2     H12558   0.188   4.021  13.710  0.2059  1.1763 -1.3176
  855MPD2    H112559   4.505   4.106  13.591 -1.3918 -0.0685  0.9226
  855MPD2    H212560   4.605   3.744  13.779  1.6006 -0.3366  0.3730
  855MPD2    H312561   4.439   3.899  13.696 -0.9386  0.3185 -0.8793
  855MPD2     N12562   0.016   4.209  13.597  0.5779 -0.0609 -0.1384
  855MPD2    H512563   4.666   4.245  13.538 -0.7801  0.6333  2.0315
  855MPD2    N112564   0.155   3.799  13.798  0.0554  0.0972  0.4099
  855MPD2    H712565   0.249   3.834  13.782 -0.4519  2.4257  2.5607
  856MPD2     C12566   2.194   4.693  14.264  0.7893 -1.0019  0.1067
  856MPD2    C112567   2.243   0.058  14.173  0.0695 -0.0435  0.3329
  856MPD2    C212568   2.155   0.142  14.112  0.3086 -0.1131  0.6717
  856MPD2    C312569   2.020   0.148  14.147  0.0651 -0.3261 -0.0944
  856MPD2    C412570   1.976   0.059  14.237 -1.2327 -0.0390 -0.2126
  856MPD2    C512571   2.059   4.693  14.292 -0.4095 -0.4890  0.0798
  856MPD2     H12572   2.187   0.211  14.034 -0.9581 -2.0465 -1.5397
  856MPD2    H112573   1.868   0.056  14.242 -1.3343  2.8059 -0.7552
  856MPD2    H212574   2.254   4.615  14.310 -0.3478 -0.5749  2.2929
  856MPD2    H312575   2.015   4.622  14.361  1.4829 -1.6069  0.1039
  856MPD2     N12576   1.937   0.248  14.097  0.4387  0.4112  0.4482
  856MPD2    H512577   1.843   0.251  14.137 -0.1763  0.1524 -0.9911
  856MPD2    N112578   2.379   0.063  14.127  0.6474  0.1796 -0.5870
  856MPD2    H712579   2.395   0.140  14.064 -2.4970  2.3512  1.2914
  857MPD2     C12580   3.779   2.595  13.394  0.4976 -0.2072 -0.1523
  857MPD2    C112581   3.761   2.701  13.307  0.4713 -0.6894 -0.2112
  857MPD2    C212582   3.822   2.825  13.327 -0.9905 -0.3389 -0.1687
  857MPD2    C312583   3.900   2.840  13.447 -0.4980 -0.5391  0.0248
  857MPD2    C412584   3.909   2.740  13.539 -0.2911 -0.2311  0.3244
  857MPD2    C512585   3.851   2.616  13.506  0.7356 -0.0236  0.2228
  857MPD2     H12586   3.824   2.910  13.260  1.0291 -0.3785 -0.1502
  857MPD2    H112587   3.969   2.755  13.627  0.0382  3.4255 -0.5166
  857MPD2    H212588   3.735   2.498  13.374  0.7280 -0.3245 -0.0949
  857MPD2    H312589   3.856   2.544  13.587  1.0009  0.8264  0.9586
  857MPD2     N12590   3.974   2.963  13.451 -0.0170 -0.0202  0.2349
  857MPD2    H512591   3.947   3.034  13.384 -1.1646 -0.6561  0.0235
  857MPD2    N112592   3.684   2.676  13.194 -0.6260  0.1179 -1.3483
  857MPD2    H712593   3.632   2.590  13.207 -0.3056 -0.2595 -2.5543
  858MPD2     C12594   4.450   1.811  16.704  0.4955 -0.0643 -0.6133
  858MPD2    C112595   4.548   1.716  16.698  0.1257 -0.3590 -0.0280
  858MPD2    C212596   4.627   1.702  16.822 -0.2188  0.0348 -0.0699
  858MPD2    C312597   4.608   1.783  16.932  1.1222 -0.0503  0.3170
  858MPD2    C412598   4.500   1.872  16.928  0.9409  0.9681  0.4391
  858MPD2    C512599   4.429   1.884  16.816 -0.1044  0.5001 -0.6732
  858MPD2     H12600   4.714   1.639  16.834 -0.6239 -0.8762 -2.0343
  858MPD2    H112601   4.475   1.935  17.013  0.5305  1.7265 -0.2357
  858MPD2    H212602   4.383   1.830  16.621 -1.6783 -1.2778  0.8896
  858MPD2    H312603   4.348   1.954  16.820  1.8016  2.7846 -2.0777
  858MPD2     N12604   4.680   1.772  17.056 -0.4787 -0.0672 -0.5651
  858MPD2    H512605   4.639   1.825  17.132 -0.5734 -0.0123 -0.6546
  858MPD2    N112606   4.561   1.639  16.583 -0.4061  0.0410 -0.6844
  858MPD2    H712607   4.480   1.645  16.521 -1.0637  0.5410  0.2116
  859MPD2     C12608   3.064   3.330  15.124  0.2022 -0.6608  0.3602
  859MPD2    C112609   3.172   3.355  15.031 -0.2970  0.3301  0.2352
  859MPD2    C212610   3.227   3.251  14.955  0.0454  0.1944  0.3900
  859MPD2    C312611   3.168   3.125  14.962  0.2298  0.0961 -0.5734
  859MPD2    C412612   3.059   3.104  15.046  0.7640  0.2624 -0.1097
  859MPD2    C512613   3.010   3.204  15.126  0.3599  0.2156 -0.4656
  859MPD2     H12614   3.321   3.271  14.903 -0.8296  1.2805 -0.7641
  859MPD2    H112615   3.009   3.008  15.052  0.6485  0.2863 -0.6945
  859MPD2    H212616   3.024   3.397  15.199  0.8325  1.0020 -0.7944
  859MPD2    H312617   2.930   3.182  15.196  0.1268 -1.0949 -1.1438
  859MPD2     N12618   3.214   3.014  14.888  0.0436  0.1016 -0.5327
  859MPD2    H512619   3.163   2.927  14.889 -0.1849  0.2623  2.2675
  859MPD2    N112620   3.244   3.478  15.045  0.2482  0.1193 -0.3103
  859MPD2    H712621   3.336   3.493  15.005  0.9204 -1.3191  0.6960
  860MPD2     C12622   0.994   3.890  11.780  0.1221  0.4741  0.2432
  860MPD2    C112623   1.070   3.953  11.875  0.6280 -0.8988  0.9667
  860MPD2    C212624   1.002   4.026  11.971 -0.4343 -0.2640  0.1247
  860MPD2    C312625   0.861   4.019  11.986  0.3674  0.7259  0.0655
  860MPD2    C412626   0.790   3.939  11.895  1.0016  0.0679 -0.1585
  860MPD2    C512627   0.857   3.881  11.796  0.2979 -0.5045 -0.6503
  860MPD2     H12628   1.073   4.079  12.034 -1.3094 -0.0344  0.9168
  860MPD2    H112629   0.684   3.924  11.911  1.4394 -1.8826  0.8869
  860MPD2    H212630   1.035   3.823  11.706 -0.6755  0.4383 -0.1596
  860MPD2    H312631   0.802   3.823  11.723  0.5989  1.8200 -2.7491
  860MPD2     N12632   0.805   4.083  12.102  0.8563 -0.0875 -0.0417
  860MPD2    H512633   0.868   4.117  12.174 -1.0631  0.5100  1.3676
  860MPD2    N112634   1.214   3.950  11.876 -0.6440 -0.4888  0.5641
  860MPD2    H712635   1.256   3.992  11.959  0.1872 -0.5755  0.1894
  861MPD2     C12636   4.225   2.610  10.936  0.2821  0.0024 -0.3163
  861MPD2    C112637   4.131   2.658  11.024  0.2536 -0.4303  1.0602
  861MPD2    C212638   4.005   2.711  10.983 -0.7747 -0.0998 -0.5044
  861MPD2    C312639   3.984   2.719  10.841 -0.2606 -0.3123 -0.0701
  861MPD2    C412640   4.083   2.670  10.755  0.1587 -0.1191 -0.1155
  861MPD2    C512641   4.206   2.616  10.799 -0.1890  0.5134  0.1349
  861MPD2     H12642   3.938   2.756  11.055  0.0432  2.7073 -1.4778
  861MPD2    H112643   4.076   2.681  10.648  1.5592 -3.8780 -0.5735
  861MPD2    H212644   4.320   2.578  10.977  0.4161 -1.3380 -1.6995
  861MPD2    H312645   4.285   2.581  10.734 -1.7112 -1.1080 -0.8505
  861MPD2     N12646   3.876   2.787  10.780 -0.4581 -0.5911 -0.6734
  861MPD2    H512647   3.866   2.791  10.679  0.9674 -0.2741 -0.8028
  861MPD2    N112648   4.164   2.633  11.158 -0.3177 -0.0281  0.6082
  861MPD2    H712649   4.261   2.625  11.187 -0.1285 -0.3688 -0.1142
  862MPD2     C12650   3.462   2.831  10.190 -0.0488  0.1125 -0.1350
  862MPD2    C112651   3.556   2.793  10.279  0.4047  0.8809  0.2965
  862MPD2    C212652   3.622   2.683  10.259 -0.5213 -0.6632  0.2656
  862MPD2    C312653   3.595   2.602  10.152 -0.1915 -1.2996 -0.2415
  862MPD2    C412654   3.484   2.627  10.069  0.8528  0.0395  0.0548
  862MPD2    C512655   3.421   2.746  10.088 -0.7840  0.1250  1.0373
  862MPD2     H12656   3.688   2.652  10.339 -0.8616 -1.6599  0.1650
  862MPD2    H112657   3.458   2.561   9.987 -0.5819 -0.2501  0.7472
  862MPD2    H212658   3.415   2.927  10.173 -2.9953 -1.2807  0.2204
  862MPD2    H312659   3.339   2.766  10.021 -0.2716 -0.1969  0.3178
  862MPD2     N12660   3.662   2.483  10.143 -0.2376 -0.1772 -0.6063
  862MPD2    H512661   3.629   2.409  10.081 -1.0926 -0.6736  0.4295
  862MPD2    N112662   3.590   2.861  10.395 -0.1819  0.5444 -0.0331
  862MPD2    H712663   3.658   2.817  10.456  0.0502  0.7723 -0.1239
  863MPD2     C12664   3.368   0.602  16.314  0.3536 -0.3838 -0.3259
  863MPD2    C112665   3.258   0.624  16.393  0.1360  0.8092  0.0893
  863MPD2    C212666   3.265   0.582  16.524 -0.1481  0.4890  0.0728
  863MPD2    C312667   3.377   0.517  16.575 -0.6148  0.2534 -0.4853
  863MPD2    C412668   3.484   0.489  16.490 -0.1374 -0.2285 -0.2000
  863MPD2    C512669   3.476   0.528  16.357 -0.1131  0.4521  0.3825
  863MPD2     H12670   3.194   0.615  16.598  1.1647 -0.7236  1.8781
  863MPD2    H112671   3.580   0.454  16.528 -0.4588  0.3237  1.0984
  863MPD2    H212672   3.362   0.634  16.211  0.2693  0.0867 -0.1765
  863MPD2    H312673   3.561   0.515  16.291 -0.9876  1.0451 -0.8493
  863MPD2     N12674   3.401   0.486  16.709 -0.0540 -0.2680  0.0100
  863MPD2    H512675   3.495   0.453  16.726 -0.3598 -1.1485 -0.0139
  863MPD2    N112676   3.149   0.689  16.330 -0.6522 -0.8369  0.3102
  863MPD2    H712677   3.171   0.728  16.239  4.3552 -0.8814  1.5081
  864MPD2     C12678   3.718   1.459  17.175  0.3188  0.4043  0.1765
  864MPD2    C112679   3.735   1.438  17.048 -0.2835  0.1239 -0.3209
  864MPD2    C212680   3.792   1.535  16.965 -0.2334 -0.0649 -0.0499
  864MPD2    C312681   3.825   1.657  17.022  0.3478  0.3781 -0.6839
  864MPD2    C412682   3.800   1.683  17.157  0.2211  0.2589  0.0908
  864MPD2    C512683   3.747   1.582  17.230  0.6722 -0.1505 -0.4937
  864MPD2     H12684   3.815   1.524  16.860 -0.3839 -2.0615  0.1247
  864MPD2    H112685   3.812   1.777  17.209  0.8718  1.1337 -1.6371
  864MPD2    H212686   3.674   1.391  17.247  1.5944  0.0984  0.6691
  864MPD2    H312687   3.720   1.594  17.334  3.4924 -2.9943  0.5394
  864MPD2     N12688   3.873   1.762  16.946 -0.0459  0.3946  0.3895
  864MPD2    H512689   3.905   1.847  16.992 -0.5271 -0.7576  2.8431
  864MPD2    N112690   3.699   1.306  17.004 -0.1223 -0.3016 -0.2057
  864MPD2    H712691   3.672   1.240  17.076  3.5922  1.6065  2.9124
  865MPD2     C12692   3.624   2.154  16.075 -0.3369  0.1546 -0.2705
  865MPD2    C112693   3.652   2.035  16.138  0.3032  0.6267 -0.7558
  865MPD2    C212694   3.687   2.036  16.273  0.4844  1.2853  0.0615
  865MPD2    C312695   3.684   2.154  16.342 -0.8556  0.4948 -0.2960
  865MPD2    C412696   3.661   2.272  16.282  0.0770  0.2816  0.1979
  865MPD2    C512697   3.627   2.274  16.154  0.3716  0.1984  1.2268
  865MPD2     H12698   3.727   1.949  16.322 -1.0973  0.6942  0.3047
  865MPD2    H112699   3.668   2.366  16.335 -1.8247  1.0341 -0.8911
  865MPD2    H212700   3.587   2.151  15.973 -0.5875 -0.4714 -0.1546
  865MPD2    H312701   3.601   2.369  16.109 -0.0671 -0.6102 -0.2215
  865MPD2     N12702   3.729   2.161  16.478 -0.3297 -0.3498 -0.1952
  865MPD2    H512703   3.761   2.253  16.508  1.0226 -0.0778 -2.4393
  865MPD2    N112704   3.628   1.921  16.066  0.5248 -0.3937  0.3414
  865MPD2    H712705   3.588   1.919  15.973  2.3649  4.4025 -0.5672
  866MPD2     C12706   4.658   2.790  11.690 -0.4117 -0.5011  0.1940
  866MPD2    C112707   4.662   2.742  11.561 -0.5581  0.0794 -0.2190
  866MPD2    C212708   4.581   2.792  11.458 -0.5373 -0.7278  0.0683
  866MPD2    C312709   4.499   2.901  11.486  0.0905 -0.6491 -0.3850
  866MPD2    C412710   4.490   2.952  11.613 -0.3620  0.3535  0.0827
  866MPD2    C512711   4.569   2.898  11.714  0.1251 -0.9389  0.9246
  866MPD2     H12712   4.590   2.755  11.357 -1.2834 -0.2843 -0.1553
  866MPD2    H112713   4.416   3.030  11.629  0.9813  1.6087  0.1534
  866MPD2    H212714   4.707   2.746  11.776 -2.0187 -2.9288 -0.1613
  866MPD2    H312715   4.562   2.936  11.816 -1.9309 -0.9677  0.8000
  866MPD2     N12716   4.415   2.957  11.391 -0.4226  0.2355  0.0106
  866MPD2    H512717   4.367   3.042  11.421 -0.3985  0.6546 -1.1454
  866MPD2    N112718   0.022   2.627  11.536  0.2831  0.8227 -0.1822
  866MPD2    H712719   0.052   2.582  11.622 -1.1643  0.0731 -0.0776
  867MPD2     C12720   2.125   1.742  16.484  0.3838 -0.0739 -0.1487
  867MPD2    C112721   2.143   1.617  16.538 -0.7506  0.0444 -0.2208
  867MPD2    C212722   2.094   1.588  16.669 -0.5857 -0.6886 -0.2918
  867MPD2    C312723   2.048   1.692  16.748  0.1368 -0.4783  0.2555
  867MPD2    C412724   2.045   1.819  16.694 -0.2349  0.7808 -0.1380
  867MPD2    C512725   2.082   1.844  16.564 -0.7451  0.3702  0.5430
  867MPD2     H12726   2.108   1.486  16.702 -1.0275 -0.7502 -0.2984
  867MPD2    H112727   2.003   1.904  16.747 -1.1326  0.8068 -0.8805
  867MPD2    H212728   2.157   1.773  16.385  3.6279 -0.7972  0.6626
  867MPD2    H312729   2.059   1.940  16.519 -0.5580 -0.0409 -0.4220
  867MPD2     N12730   2.010   1.669  16.881 -0.3488  0.1719 -0.3858
  867MPD2    H512731   1.968   1.749  16.928 -2.1683 -0.6092 -0.6601
  867MPD2    N112732   2.204   1.516  16.457  0.3311  0.5342 -0.1762
  867MPD2    H712733   2.245   1.557  16.373 -0.8757 -0.0661 -1.0549
  868MPD2     C12734   3.743   0.884  12.904  0.2467  0.1205 -0.6670
  868MPD2    C112735   3.801   0.999  12.950 -0.1036 -0.0460  0.5059
  868MPD2    C212736   3.729   1.072  13.047  0.6629 -0.6875 -0.5899
  868MPD2    C312737   3.609   1.032  13.105 -0.0207 -0.1043 -0.1338
  868MPD2    C412738   3.556   0.918  13.055 -0.1607  0.1470 -0.0648
  868MPD2    C512739   3.620   0.851  12.955 -0.7359  0.5763 -0.2849
  868MPD2     H12740   3.772   1.167  13.076 -0.8186 -0.6823  1.6093
  868MPD2    H112741   3.455   0.880  13.068 -0.0407  0.2651  1.2519
  868MPD2    H212742   3.792   0.819  12.832  1.8709  0.5564  0.0539
  868MPD2    H312743   3.563   0.768  12.917  0.6944 -1.3787  1.7686
  868MPD2     N12744   3.542   1.106  13.202 -0.5403  0.2370 -0.4077
  868MPD2    H512745   3.583   1.192  13.238  0.8605 -0.6236  0.0314
  868MPD2    N112746   3.931   1.033  12.904 -0.0589  0.3445 -0.2159
  868MPD2    H712747   3.970   0.962  12.843 -1.0251 -0.0930 -0.3115
  869MPD2     C12748   1.463   3.866   1.796  0.2410 -1.5116 -0.2904
  869MPD2    C112749   1.384   3.754   1.802  0.0861 -0.7537  0.5033
  869MPD2    C212750   1.273   3.750   1.719  0.1137 -0.1953  0.8519
  869MPD2    C312751   1.263   3.840   1.615 -0.1228 -0.2159 -0.2027
  869MPD2    C412752   1.341   3.952   1.612 -0.6067 -0.6385 -0.1279
  869MPD2    C512753   1.440   3.962   1.708  0.3189 -0.5033 -0.4609
  869MPD2     H12754   1.217   3.657   1.718 -1.9814  1.0647 -1.7821
  869MPD2    H112755   1.331   4.038   1.547 -0.2203 -0.0202  0.6320
  869MPD2    H212756   1.528   3.886   1.880 -2.4050  2.3878  0.8294
  869MPD2    H312757   1.501   4.051   1.705  0.3662 -0.5617 -1.4097
  869MPD2     N12758   1.170   3.837   1.511  0.2762 -0.0290 -0.0590
  869MPD2    H512759   1.188   3.908   1.441  1.5631  1.1357  1.4275
  869MPD2    N112760   1.420   3.657   1.899  0.3574 -0.5076 -0.8233
  869MPD2    H712761   1.498   3.686   1.957 -0.0973 -0.1712 -0.3707
  870MPD2     C12762   0.394   2.457   1.944 -0.2364  0.0028  0.0783
  870MPD2    C112763   0.304   2.347   1.927  0.2627 -0.6022 -0.5293
  870MPD2    C212764   0.172   2.382   1.900  0.3894 -0.7014  0.0607
  870MPD2    C312765   0.139   2.517   1.879  0.6010 -0.1967  0.5127
  870MPD2    C412766   0.223   2.618   1.910 -0.7979  0.2933  0.4905
  870MPD2    C512767   0.352   2.588   1.939  0.1983 -0.0446  0.0781
  870MPD2     H12768   0.100   2.304   1.879 -0.1780 -0.0095 -0.5748
  870MPD2    H112769   0.205   2.722   1.887 -1.9408  0.6098  2.7623
  870MPD2    H212770   0.500   2.445   1.960  0.3150  0.6614 -3.0077
  870MPD2    H312771   0.427   2.665   1.952  0.0134 -0.1574  1.9169
  870MPD2     N12772   0.016   2.551   1.813 -0.3559  0.6346  0.5514
  870MPD2    H512773   4.671   2.479   1.796  1.7674 -1.1390 -0.5725
  870MPD2    N112774   0.351   2.219   1.910  0.1020 -0.6085 -1.5196
  870MPD2    H712775   0.452   2.214   1.910  0.2009  1.3324  2.3971
  871MPD2     C12776   1.306   1.579  16.842 -0.3363 -0.0500  0.8693
  871MPD2    C112777   1.295   1.562  16.977  0.5367 -0.3398  0.3896
  871MPD2    C212778   1.337   1.438  17.026 -0.6003  0.6311 -0.5515
  871MPD2    C312779   1.379   1.337  16.945 -0.3231  0.0071  0.2414
  871MPD2    C412780   1.388   1.358  16.807  0.6340  0.8090  0.0671
  871MPD2    C512781   1.349   1.479  16.757 -0.1055 -0.1911  0.8666
  871MPD2     H12782   1.337   1.412  17.132  0.9729 -1.7362 -1.1188
  871MPD2    H112783   1.417   1.280  16.738 -0.3270  0.6452 -0.1517
  871MPD2    H212784   1.285   1.677  16.799 -0.1715 -0.5249 -0.2966
  871MPD2    H312785   1.362   1.516  16.656 -0.3858 -0.9014  0.5672
  871MPD2     N12786   1.416   1.213  17.008  0.6201 -0.9880 -0.3214
  871MPD2    H512787   1.411   1.211  17.109 -0.2246 -0.0816 -0.3369
  871MPD2    N112788   1.251   1.671  17.058 -0.1988  0.0297  0.1783
  871MPD2    H712789   1.215   1.757  17.018  1.3581 -0.2031 -1.7394
  872MPD2     C12790   1.734   0.072  13.821 -0.2852 -0.7760  0.0522
  872MPD2    C112791   1.778   4.679  13.876  0.2310  0.0515 -0.4619
  872MPD2    C212792   1.711   4.621  13.982 -0.7100 -0.8564  0.2966
  872MPD2    C312793   1.574   4.661  14.015  0.9840  0.3560  0.3062
  872MPD2    C412794   1.532   0.044  13.945 -0.4682 -0.3851  0.0640
  872MPD2    C512795   1.605   0.118  13.858 -0.7241 -0.5532  0.2941
  872MPD2     H12796   1.767   4.549  14.040  0.8511  2.4367  2.8680
  872MPD2    H112797   1.431   0.074  13.971 -0.7614  0.4126 -2.0205
  872MPD2    H212798   1.791   0.141  13.760 -0.1587 -1.1637 -0.2613
  872MPD2    H312799   1.569   0.200  13.796 -0.5314  0.6224  1.7239
  872MPD2     N12800   1.498   4.603  14.112  0.3379  0.5816 -0.1781
  872MPD2    H512801   1.404   4.637  14.128 -0.2879 -0.7128 -1.1326
  872MPD2    N112802   1.904   4.629  13.840 -0.1273 -0.5697 -0.3901
  872MPD2    H712803   1.958   4.564  13.897 -0.8731  0.1104  1.1030
  873MPD2     C12804   3.614   4.249   0.404 -0.1688  1.2635 -0.4751
  873MPD2    C112805   3.670   4.175   0.508  0.0646  0.3367  0.3792
  873MPD2    C212806   3.724   4.048   0.481 -0.2186  0.7013  0.7948
  873MPD2    C312807   3.721   3.980   0.364 -0.1405 -0.5565  0.8828
  873MPD2    C412808   3.671   4.056   0.261 -0.1224  0.3166  0.8107
  873MPD2    C512809   3.622   4.185   0.279  0.0877 -0.1090 -0.3291
  873MPD2     H12810   3.757   3.999   0.572  1.0557 -2.6519 -1.4605
  873MPD2    H112811   3.670   4.020   0.159 -0.7978  2.0921  0.1802
  873MPD2    H212812   3.576   4.350   0.415 -0.6045  1.1128 -0.6041
  873MPD2    H312813   3.586   4.240   0.193  0.7851 -0.4167 -0.8161
  873MPD2     N12814   3.752   3.850   0.339  0.4748  0.4605 -0.0208
  873MPD2    H512815   3.752   3.821   0.242  0.8893  0.4341 -0.0150
  873MPD2    N112816   3.662   4.236   0.639  0.2275 -0.0336  0.0094
  873MPD2    H712817   3.589   4.305   0.655 -0.5949 -1.6663  3.2262
  874MPD2     C12818   3.749   4.385  15.911 -0.4102 -0.1097 -0.6658
  874MPD2    C112819   3.831   4.363  16.017  0.3456 -0.1745 -0.2009
  874MPD2    C212820   3.956   4.407  16.014 -0.2761 -0.8133 -0.3311
  874MPD2    C312821   3.995   4.487  15.913 -0.4782 -0.0997  0.1658
  874MPD2    C412822   3.911   4.523  15.813 -0.3009  0.0655 -0.8511
  874MPD2    C512823   3.788   4.463  15.810 -0.3898 -0.1678 -0.3753
  874MPD2     H12824   4.022   4.387  16.097  0.4806 -1.7308 -1.1546
  874MPD2    H112825   3.940   4.603  15.746 -0.4759  0.4468 -0.4764
  874MPD2    H212826   3.653   4.335  15.903 -1.8299  2.1879  2.0810
  874MPD2    H312827   3.717   4.472  15.728  0.6453 -1.8261 -1.4655
  874MPD2     N12828   4.129   4.541  15.923  0.2986 -0.5125  0.0520
  874MPD2    H512829   4.147   4.623  15.866  0.5651  0.0696  0.9787
  874MPD2    N112830   3.777   4.287  16.126 -0.0474  0.1947  0.0429
  874MPD2    H712831   3.682   4.256  16.109 -0.5740  0.4703  2.4750
  875MPD2     C12832   0.149   2.828  14.495  0.3966 -0.0907  0.2813
  875MPD2    C112833   0.058   2.789  14.595 -0.2043  0.9744  0.1028
  875MPD2    C212834   0.094   2.792  14.727  0.3405  0.0382  0.2313
  875MPD2    C312835   0.216   2.851  14.766 -0.5477  0.7758  0.4385
  875MPD2    C412836   0.297   2.906  14.665  0.3024 -0.3658  0.2218
  875MPD2    C512837   0.265   2.891  14.536  0.1795  0.2118 -0.1922
  875MPD2     H12838   0.021   2.755  14.798  0.3359  0.9682  0.7063
  875MPD2    H112839   0.396   2.938  14.694  0.6432  1.8618 -3.4518
  875MPD2    H212840   0.120   2.836  14.391  2.7878 -0.6621 -0.4234
  875MPD2    H312841   0.328   2.937  14.461  0.3602  0.0900 -0.1165
  875MPD2     N12842   0.275   2.859  14.894 -0.1088  0.0636 -0.0648
  875MPD2    H512843   0.361   2.912  14.906  0.2331  0.1454 -2.8798
  875MPD2    N112844   4.658   2.722  14.559  0.4448  0.0768 -0.3603
  875MPD2    H712845   4.592   2.706  14.634 -0.3870  0.9979 -0.8844
  876MPD2     C12846   3.654   3.948  16.018  0.5307 -0.1168 -0.0180
  876MPD2    C112847   3.778   3.887  15.984  0.4382 -0.4679 -0.0166
  876MPD2    C212848   3.821   3.773  16.043 -1.0809 -0.1688  0.3000
  876MPD2    C312849   3.736   3.702  16.128 -0.3778  0.3950  0.6144
  876MPD2    C412850   3.607   3.751  16.146  0.9695 -0.2251  0.1894
  876MPD2    C512851   3.569   3.874  16.099  0.6974 -0.0173  0.0878
  876MPD2     H12852   3.924   3.742  16.034 -0.4449  1.8055  0.7688
  876MPD2    H112853   3.537   3.701  16.211  0.6604  1.4664  1.1610
  876MPD2    H212854   3.625   4.041  15.971  3.3196  1.0390  0.5245
  876MPD2    H312855   3.473   3.914  16.129  1.1747  0.3940  1.0786
  876MPD2     N12856   3.773   3.580  16.186 -0.4512 -0.5975  0.4138
  876MPD2    H512857   3.868   3.548  16.170  0.4349  1.7108  0.9931
  876MPD2    N112858   3.858   3.959  15.894  0.1312 -0.3214  0.9898
  876MPD2    H712859   3.829   4.053  15.868 -1.1979 -0.8693  0.4938
  877MPD2     C12860   3.643   4.286  15.390 -0.5283  0.9296  0.1231
  877MPD2    C112861   3.772   4.331  15.363 -0.3639  0.5320 -0.1393
  877MPD2    C212862   3.802   4.363  15.230 -0.0956  0.2126 -0.0065
  877MPD2    C312863   3.715   4.340  15.127  0.5849 -0.4754  0.1604
  877MPD2    C412864   3.592   4.290  15.159 -0.3659 -0.6208 -0.5773
  877MPD2    C512865   3.556   4.259  15.287 -0.5402  0.3290  0.0461
  877MPD2     H12866   3.901   4.402  15.210 -0.1655  0.7110  0.6192
  877MPD2    H112867   3.518   4.271  15.082 -1.1538 -0.4444  0.1310
  877MPD2    H212868   3.602   4.269  15.489 -2.5580  0.0376 -0.8837
  877MPD2    H312869   3.462   4.212  15.310 -0.7328  0.4551 -0.4619
  877MPD2     N12870   3.754   4.358  14.995 -0.4666  0.3373 -0.0900
  877MPD2    H512871   3.681   4.345  14.925 -0.2693  2.0875 -0.6311
  877MPD2    N112872   3.876   4.332  15.463 -0.1798  0.3052  0.2322
  877MPD2    H712873   3.964   4.376  15.439  0.9447 -2.0283  0.0746
  878MPD2     C12874   3.663   3.984  13.319 -0.2199 -0.1969 -0.0121
  878MPD2    C112875   3.710   4.075  13.226 -1.0870  0.6931 -0.0398
  878MPD2    C212876   3.689   4.207  13.243  0.5842 -0.3823 -0.1085
  878MPD2    C312877   3.619   4.255  13.351 -0.0884  0.0157 -0.2672
  878MPD2    C412878   3.566   4.160  13.441 -0.6057  0.0877  0.2383
  878MPD2    C512879   3.588   4.024  13.427  0.3596 -0.1048 -0.1105
  878MPD2     H12880   3.719   4.285  13.174 -3.7435  0.1996 -1.3234
  878MPD2    H112881   3.492   4.190  13.514 -1.4613  0.9527 -0.9741
  878MPD2    H212882   3.674   3.876  13.324  1.1398 -0.0747 -0.2933
  878MPD2    H312883   3.546   3.956  13.501 -0.5254 -0.2561 -0.7456
  878MPD2     N12884   3.576   4.388  13.359 -0.2698 -0.5976 -0.1978
  878MPD2    H512885   3.618   4.451  13.292 -0.8262 -0.2639 -0.2288
  878MPD2    N112886   3.782   4.022  13.120  0.3436  0.2299  0.1458
  878MPD2    H712887   3.774   3.921  13.111  1.3090  0.1667  0.0189
  879MPD2     C12888   3.830   0.656  16.661  0.5351  0.0883 -0.7082
  879MPD2    C112889   3.886   0.553  16.731 -0.6782 -0.7309  0.0892
  879MPD2    C212890   3.898   0.432  16.669 -0.8004 -0.6127  0.2676
  879MPD2    C312891   3.874   0.414  16.532 -0.0402  0.2030 -0.0946
  879MPD2    C412892   3.831   0.523  16.463 -0.2157  0.2577 -0.9039
  879MPD2    C512893   3.807   0.644  16.521  0.5357  0.6314 -0.9921
  879MPD2     H12894   3.939   0.347  16.722 -2.5889 -0.2466  2.2444
  879MPD2    H112895   3.803   0.516  16.358  1.3557 -1.3405 -1.2123
  879MPD2    H212896   3.805   0.750  16.709 -0.0000 -0.5868  0.3366
  879MPD2    H312897   3.757   0.722  16.466 -0.1669 -0.1341 -1.4379
  879MPD2     N12898   3.871   0.289  16.463 -0.4175  0.0871 -0.2354
  879MPD2    H512899   3.848   0.290  16.364 -1.1705 -0.5399 -0.0633
  879MPD2    N112900   3.912   0.580  16.868 -0.0449 -0.5018  0.3693
  879MPD2    H712901   3.894   0.674  16.901  0.9141  0.3150 -1.3933
  880MPD2     C12902   0.166   2.059   0.651 -0.3817 -0.6092 -0.4597
  880MPD2    C112903   0.046   2.105   0.698 -0.6391  0.1856  0.5706
  880MPD2    C212904   4.706   2.038   0.808 -0.0799 -0.5928  0.0793
  880MPD2    C312905   0.043   1.923   0.857  0.0078  0.4544 -1.0358
  880MPD2    C412906   0.149   1.865   0.783 -0.3193  0.4294 -0.4066
  880MPD2    C512907   0.213   1.934   0.685 -0.2306 -0.4026  0.1803
  880MPD2     H12908   4.615   2.072   0.856 -1.0564 -0.7081 -1.6566
  880MPD2    H112909   0.193   1.771   0.815  1.2689  2.2831  2.8597
  880MPD2    H212910   0.220   2.121   0.581  1.0431  1.9803  2.9285
  880MPD2    H312911   0.291   1.881   0.631  0.0094  1.3213 -1.1551
  880MPD2     N12912   4.719   1.872   0.978  0.2252 -0.2805  0.3615
  880MPD2    H512913   4.644   1.910   1.037 -1.1726  0.1865 -1.7199
  880MPD2    N112914   4.717   2.216   0.640 -0.9307  0.3889 -0.0649
  880MPD2    H712915   0.057   2.269   0.582 -1.1285  0.0505 -0.5986
  881MPD2     C12916   0.136   2.943   0.017  0.2588  0.4096 -0.1544
  881MPD2    C112917   0.173   2.815   0.033  0.2567  0.1271  0.6890
  881MPD2    C212918   0.130   2.747   0.139  0.2529  0.4207  0.4626
  881MPD2    C312919   0.043   2.810   0.233  0.2493  0.0116 -0.8550
  881MPD2    C412920   0.009   2.943   0.218  1.3570  0.2028 -0.2628
  881MPD2    C512921   0.056   3.011   0.110  0.2878 -0.4278  0.3531
  881MPD2     H12922   0.160   2.643   0.148  0.7228  0.7497  2.8270
  881MPD2    H112923   4.677   2.996   0.294  0.2308 -0.5132 -0.6020
  881MPD2    H212924   0.193   3.003  17.646  0.6156  2.9169  2.2739
  881MPD2    H312925   0.034   3.117   0.104  0.1308 -0.4553  0.4347
  881MPD2     N12926   4.701   2.735   0.334  0.0398  0.7500 -0.5565
  881MPD2    H512927   4.629   2.781   0.389 -0.3929 -1.3045  0.5862
  881MPD2    N112928   0.290   2.776  17.654  0.1150 -0.4088  0.6571
  881MPD2    H712929   0.315   2.843  17.582 -0.4492 -0.1650  0.6788
  882MPD2     C12930   3.778   4.677  14.188 -0.6719  0.2102 -0.2563
  882MPD2    C112931   3.713   4.606  14.289 -0.3977  0.0520 -1.2422
  882MPD2    C212932   3.578   4.589  14.282  0.2854  0.0638 -0.6184
  882MPD2    C312933   3.508   4.641  14.179  0.2191 -0.8140  0.1287
  882MPD2    C412934   3.574   4.705  14.074  0.0290 -0.5511 -0.6591
  882MPD2    C512935   3.707   4.722  14.080 -0.5164  0.3059  0.2380
  882MPD2     H12936   3.532   4.519  14.351  0.6616 -0.5699 -1.0160
  882MPD2    H112937   3.515   0.015  13.989  0.9250  1.8716 -0.3133
  882MPD2    H212938   3.883   4.703  14.187 -0.5412 -0.4052 -3.3446
  882MPD2    H312939   3.753   0.057  14.002  0.7755  1.0574  1.5837
  882MPD2     N12940   3.365   4.635  14.174  0.1810  0.8790  0.8417
  882MPD2    H512941   3.328   4.645  14.080 -1.2301 -3.3506  0.9578
  882MPD2    N112942   3.799   4.539  14.384  0.7685  0.4813 -0.8730
  882MPD2    H712943   3.899   4.549  14.373  1.0436  0.1588  1.3718
  883MPD2     C12944   0.669   4.215  16.450  0.0731 -0.0722 -0.0681
  883MPD2    C112945   0.777   4.261  16.383 -0.2031  0.2796 -0.0831
  883MPD2    C212946   0.893   4.278  16.452  0.2712 -0.3987 -0.5707
  883MPD2    C312947   0.915   4.235  16.575  0.4504  0.4096 -0.1333
  883MPD2    C412948   0.809   4.171  16.638  0.3130  0.4123  0.4342
  883MPD2    C512949   0.687   4.158  16.573  0.9105  0.3817 -0.5418
  883MPD2     H12950   0.975   4.329  16.403  1.6964  0.1272  2.3281
  883MPD2    H112951   0.819   4.132  16.739 -0.3365  1.8734  1.0665
  883MPD2    H212952   0.568   4.222  16.410  0.4288  1.2093 -0.7575
  883MPD2    H312953   0.609   4.102  16.622  0.2815  1.3525 -0.4307
  883MPD2     N12954   1.049   4.252  16.626  0.1036 -0.1203  0.6136
  883MPD2    H512955   1.118   4.289  16.561 -0.7520  1.6880  0.7425
  883MPD2    N112956   0.773   4.305  16.247  0.6010 -0.5617  0.4624
  883MPD2    H712957   0.855   4.347  16.206 -1.1190  2.2956 -0.0334
  884MPD2     C12958   3.111   0.216  15.079 -0.8150  1.9658 -0.5281
  884MPD2    C112959   3.026   0.258  14.980 -0.1737  0.3361 -0.1363
  884MPD2    C212960   2.893   0.274  15.011  0.2443 -0.0206  0.7900
  884MPD2    C312961   2.832   0.231  15.126  0.5395 -0.3207 -0.3408
  884MPD2    C412962   2.917   0.175  15.222  0.1061  0.3836  0.0587
  884MPD2    C512963   3.057   0.176  15.196 -0.0249  0.1504  0.4313
  884MPD2     H12964   2.833   0.316  14.931  1.0924  1.7928  1.0994
  884MPD2    H112965   2.887   0.147  15.322 -0.4940  2.9068  0.6004
  884MPD2    H212966   3.219   0.212  15.068 -0.9455  0.0786 -1.1999
  884MPD2    H312967   3.118   0.137  15.277  1.8930  1.0016 -0.6276
  884MPD2     N12968   2.697   0.252  15.152  0.1431  0.1920 -0.1564
  884MPD2    H512969   2.645   0.320  15.097 -0.1339  1.1657  1.3050
  884MPD2    N112970   3.066   0.307  14.853 -0.1337 -0.6798  0.1226
  884MPD2    H712971   2.992   0.330  14.787 -1.5075 -2.5348  1.0115
  885MPD2     C12972   0.989   0.448   0.347  0.5526  1.0450  0.2364
  885MPD2    C112973   1.091   0.391   0.274  0.1708  0.3182  0.0690
  885MPD2    C212974   1.105   0.426   0.135  0.1323 -0.4626  0.2572
  885MPD2    C312975   1.005   0.502   0.074  0.0627  0.3749  0.5071
  885MPD2    C412976   0.904   0.557   0.151  0.1795 -0.0302 -0.0399
  885MPD2    C512977   0.900   0.535   0.292 -0.5791 -0.0067 -0.0858
  885MPD2     H12978   1.182   0.382   0.072 -0.7660 -1.2303 -0.3043
  885MPD2    H112979   0.835   0.624   0.101  1.3010  1.2541  0.1481
  885MPD2    H212980   0.970   0.417   0.449 -0.8733 -1.7868 -0.8923
  885MPD2    H312981   0.824   0.579   0.356 -0.2423  1.8561 -0.9687
  885MPD2     N12982   1.039   0.546  17.644 -0.0825 -0.1512 -0.2702
  885MPD2    H512983   1.111   0.499  17.590 -0.1257  1.3916 -1.6589
  885MPD2    N112984   1.183   0.319   0.344 -0.3072 -0.2250  0.3436
  885MPD2    H712985   1.151   0.281   0.432 -0.5815 -0.5712  0.0948
  886MPD2     C12986   2.107   3.520  15.285  0.3336 -0.5846 -0.0968
  886MPD2    C112987   2.243   3.549  15.282  0.5596  0.1133  0.2635
  886MPD2    C212988   2.284   3.679  15.246 -0.3511 -0.0769  0.5429
  886MPD2    C312989   2.187   3.777  15.219  0.0104 -0.1005  0.0253
  886MPD2    C412990   2.051   3.741  15.225  0.0832 -0.0971 -0.0534
  886MPD2    C512991   2.012   3.614  15.260  0.1667 -0.2432  0.4087
  886MPD2     H12992   2.389   3.700  15.237 -0.8582  1.6003 -1.3747
  886MPD2    H112993   1.977   3.819  15.211 -1.4639 -1.6628 -0.5747
  886MPD2    H212994   2.070   3.424  15.320  0.4411 -0.9162 -0.8858
  886MPD2    H312995   1.909   3.586  15.279 -0.2675  0.2127 -1.3083
  886MPD2     N12996   2.221   3.911  15.191  0.1976 -0.2944 -0.8775
  886MPD2    H512997   2.146   3.979  15.192  0.9200  0.5102 -0.6223
  886MPD2    N112998   2.339   3.460  15.330  0.1400 -0.9185 -0.0541
  886MPD2    H712999   2.433   3.492  15.352 -0.5202  0.6032  0.5760
  887MPD2     C13000   3.061   3.436  15.476 -0.2445  0.2754 -0.5893
  887MPD2    C113001   2.941   3.491  15.448 -0.0119  0.3967  0.1966
  887MPD2    C213002   2.943   3.625  15.416  0.4954 -0.0599  0.0432
  887MPD2    C313003   3.062   3.698  15.426 -0.4125 -0.3979  0.5859
  887MPD2    C413004   3.185   3.641  15.450 -0.5759  0.1892  0.5934
  887MPD2    C513005   3.178   3.507  15.472  0.3223 -0.8236 -0.4986
  887MPD2     H13006   2.853   3.682  15.397  3.5238  4.9444  0.5863
  887MPD2    H113007   3.281   3.691  15.447 -0.5697  0.0755 -1.0534
  887MPD2    H213008   3.068   3.332  15.506 -1.2095  0.3768  0.0045
  887MPD2    H313009   3.272   3.460  15.500  1.1371 -0.5575 -2.7991
  887MPD2     N13010   3.054   3.838  15.407 -0.6468  0.3092 -0.4039
  887MPD2    H513011   2.958   3.870  15.410 -0.2029  1.5475  0.6659
  887MPD2    N113012   2.814   3.428  15.459  0.6058  0.2861  1.3275
  887MPD2    H713013   2.730   3.481  15.438  0.7581 -0.2412 -0.6181
  888MPD2     C13014   0.069   4.180  14.510 -0.4520  0.1341 -0.3606
  888MPD2    C113015   0.066   4.171  14.650  1.3385  0.1943 -0.6617
  888MPD2    C213016   0.100   4.288  14.711 -0.0493  0.2548 -0.3586
  888MPD2    C313017   0.119   4.408  14.645 -0.0630 -0.2804 -0.4316
  888MPD2    C413018   0.135   4.410  14.509  0.2353  1.0665 -0.3305
  888MPD2    C513019   0.112   4.291  14.443 -0.0870 -0.4978 -0.0401
  888MPD2     H13020   0.091   4.295  14.818 -0.3202 -0.8294 -0.3094
  888MPD2    H113021   0.152   4.498  14.448 -3.2153  0.2476 -2.4723
  888MPD2    H213022   0.065   4.087  14.454 -1.3056 -0.0210 -0.0474
  888MPD2    H313023   0.120   4.294  14.335  3.6208 -4.4161  0.1224
  888MPD2     N13024   0.141   4.524  14.721  0.5383 -0.0820  0.0508
  888MPD2    H513025   0.152   4.508  14.820 -0.2088 -0.3073  0.1000
  888MPD2    N113026   0.026   4.056  14.722  0.0340  0.1663  0.1374
  888MPD2    H713027   0.056   4.056  14.819  3.3028  2.1039 -0.8515
  889MPD2     C13028   4.076   3.569  13.048 -0.6600 -0.4037 -0.5218
  889MPD2    C113029   4.143   3.603  13.163 -0.2008 -0.0600  0.0449
  889MPD2    C213030   4.173   3.735  13.182 -0.1856  0.3362 -0.0546
  889MPD2    C313031   4.156   3.833  13.083 -0.5784  0.4384 -0.4693
  889MPD2    C413032   4.102   3.793  12.963  0.0362 -0.0911  0.6523
  889MPD2    C513033   4.063   3.659  12.947  0.8180 -0.0723  0.4289
  889MPD2     H13034   4.238   3.762  13.265  0.9886 -1.0703 -0.5414
  889MPD2    H113035   4.092   3.867  12.885 -1.6537 -1.7926 -0.7464
  889MPD2    H213036   4.052   3.465  13.025  0.3564 -0.7108 -0.1687
  889MPD2    H313037   4.002   3.635  12.860 -0.1234  1.7580  0.5854
  889MPD2     N13038   4.209   3.964  13.104 -0.2982  0.0764  0.0048
  889MPD2    H513039   4.272   3.974  13.182 -2.1089  0.0281  1.4657
  889MPD2    N113040   4.153   3.505  13.260  0.0162 -0.4603  0.3808
  889MPD2    H713041   4.198   3.546  13.341  1.0124 -1.2052  0.2099
  890MPD2     C13042   3.645   0.243  14.380  0.1239 -0.1092 -0.4507
  890MPD2    C113043   3.760   0.291  14.427 -0.0123  0.2445  0.2399
  890MPD2    C213044   3.824   0.237  14.532 -0.0632 -0.0321  0.9999
  890MPD2    C313045   3.765   0.132  14.599 -0.7129  0.2522  0.7946
  890MPD2    C413046   3.636   0.092  14.559 -0.0200  0.0629 -0.5633
  890MPD2    C513047   3.579   0.142  14.446  0.5168 -0.3375 -1.0386
  890MPD2     H13048   3.917   0.275  14.573 -0.8457  2.8098  0.0960
  890MPD2    H113049   3.590   0.001  14.596  0.5405 -1.7723 -4.3147
  890MPD2    H213050   3.601   0.293  14.294  1.4188  1.6595 -0.0909
  890MPD2    H313051   3.483   0.101  14.416 -1.0721  0.6981  2.6271
  890MPD2     N13052   3.829   0.084  14.718 -0.2033 -0.1180 -0.2871
  890MPD2    H513053   3.929   0.099  14.731 -0.1667 -0.2024 -0.4717
  890MPD2    N113054   3.806   0.415  14.366  0.6042  1.0290 -0.0382
  890MPD2    H713055   3.746   0.463  14.299 -0.6919  0.5649  0.7827
  891MPD2     C13056   1.613   2.879  16.987  0.5330 -0.1304 -0.1227
  891MPD2    C113057   1.590   3.011  17.028  0.3746  0.3762 -0.4611
  891MPD2    C213058   1.677   3.058  17.120  0.1504  0.1535 -0.4299
  891MPD2    C313059   1.776   2.981  17.165 -0.1577 -0.9052 -0.2143
  891MPD2    C413060   1.797   2.849  17.126  0.1120  0.4799 -0.0293
  891MPD2    C513061   1.716   2.800  17.034  0.6997  0.0972  0.0168
  891MPD2     H13062   1.681   3.165  17.133 -0.3266  0.1159  0.0005
  891MPD2    H113063   1.870   2.785  17.173  0.1555  0.1555 -0.5395
  891MPD2    H213064   1.556   2.837  16.904  0.9437 -0.1975 -0.3732
  891MPD2    H313065   1.727   2.700  16.993  0.6739  0.0964  0.0120
  891MPD2     N13066   1.865   3.044  17.262  0.2263  0.4484 -0.1376
  891MPD2    H513067   1.842   3.139  17.287 -0.3241 -0.0869  1.4214
  891MPD2    N113068   1.491   3.086  16.963 -0.2739 -0.8588  0.4121
  891MPD2    H713069   1.451   3.055  16.876 -0.8856 -1.9251  1.0710
  892MPD2     C13070   2.749   4.660  15.004 -0.3396 -1.1309  0.0304
  892MPD2    C113071   2.665   4.646  14.894  0.1738  1.0538 -0.1616
  892MPD2    C213072   2.722   4.642  14.768  0.3130 -0.2690  0.1255
  892MPD2    C313073   2.859   4.638  14.745 -0.1670  0.3164  0.4003
  892MPD2    C413074   2.942   4.649  14.850  0.0786 -0.9694  0.2978
  892MPD2    C513075   2.891   4.660  14.979  0.3763 -0.1270  0.2853
  892MPD2     H13076   2.652   4.640  14.685 -0.2463 -2.7371  0.6507
  892MPD2    H113077   3.050   4.643  14.839 -0.1337  1.2588 -3.0416
  892MPD2    H213078   2.715   4.676  15.106 -1.6993 -0.3244 -0.5568
  892MPD2    H313079   2.958   4.675  15.063 -0.1954  1.1763  0.5167
  892MPD2     N13080   2.920   4.623  14.619 -0.1188  0.1509 -0.1060
  892MPD2    H513081   3.021   4.614  14.613 -0.0265 -0.2968  2.3162
  892MPD2    N113082   2.523   4.645  14.908 -0.7212 -0.6048  0.6263
  892MPD2    H713083   2.471   4.643  14.821  0.1328  0.0896  0.1036
  893MPD2     C13084   4.694   2.611   2.351 -0.7489  0.6664  0.2836
  893MPD2    C113085   0.103   2.590   2.320 -0.4234  0.1236  0.0263
  893MPD2    C213086   0.141   2.460   2.308 -0.5775 -0.2267 -0.0960
  893MPD2    C313087   0.052   2.356   2.338  0.1057  0.6774  0.0223
  893MPD2    C413088   4.646   2.387   2.384  0.9014 -0.3226  0.2322
  893MPD2    C513089   4.608   2.517   2.384 -0.2136 -0.3618 -1.0018
  893MPD2     H13090   0.230   2.439   2.250  0.2341 -0.6661  1.2996
  893MPD2    H113091   4.569   2.314   2.403  1.2418  0.2009  3.7105
  893MPD2    H213092   4.654   2.711   2.364 -1.7312  0.2189  0.7373
  893MPD2    H313093   4.506   2.540   2.413  0.5513  0.2434  1.1870
  893MPD2     N13094   0.079   2.226   2.292  0.5578 -0.1210 -0.0587
  893MPD2    H513095   0.004   2.158   2.300  0.0314  0.6922  1.7679
  893MPD2    N113096   0.179   2.706   2.288 -0.0711  0.7997  0.2075
  893MPD2    H713097   0.140   2.799   2.293 -0.8586  0.4118  1.1921
  894MPD2     C13098   1.981   0.863   1.584  0.1509 -0.8029  0.1590
  894MPD2    C113099   2.033   0.747   1.526  0.1423 -0.3890 -0.0176
  894MPD2    C213100   2.170   0.739   1.512 -0.0884 -0.7162  0.1108
  894MPD2    C313101   2.262   0.833   1.565 -0.2286  0.4747 -0.2996
  894MPD2    C413102   2.211   0.935   1.642  0.0345  0.4285  0.1433
  894MPD2    C513103   2.071   0.949   1.645  0.4664 -0.2497 -0.0507
  894MPD2     H13104   2.213   0.652   1.465  0.9626  0.0398 -0.3424
  894MPD2    H113105   2.267   0.999   1.709 -0.6767  0.6826  0.4878
  894MPD2    H213106   1.874   0.882   1.588  0.0545 -1.5569  1.1959
  894MPD2    H313107   2.022   1.034   1.691  2.2703 -0.0011  1.4007
  894MPD2     N13108   2.402   0.816   1.542  0.1689 -0.1508 -0.6587
  894MPD2    H513109   2.428   0.743   1.476  1.7708 -1.4329  1.4379
  894MPD2    N113110   1.962   0.648   1.461 -0.1441 -0.1144  0.2906
  894MPD2    H713111   2.008   0.575   1.407 -0.1682 -1.3514  1.9384
  895MPD2     C13112   1.960   4.053  13.470 -0.2708 -1.3640  0.2401
  895MPD2    C113113   1.945   3.988  13.348 -0.4386 -0.1826  0.1406
  895MPD2    C213114   2.013   3.877  13.311 -0.0186  0.0700 -0.0877
  895MPD2    C313115   2.093   3.815  13.402  0.1467  0.0882 -0.9226
  895MPD2    C413116   2.110   3.881  13.526  0.4885  0.2853 -0.2705
  895MPD2    C513117   2.049   3.993  13.554  0.2890 -0.5545  0.2834
  895MPD2     H13118   1.981   3.832  13.218  0.4481 -0.2353 -0.0990
  895MPD2    H113119   2.174   3.837  13.602  0.7022 -0.4963 -0.9008
  895MPD2    H213120   1.903   4.141  13.498  0.3130 -0.2800 -2.0146
  895MPD2    H313121   2.059   4.037  13.652  0.7312 -1.3050  0.5790
  895MPD2     N13122   2.152   3.692  13.367 -0.1796  0.2517 -0.4437
  895MPD2    H513123   2.104   3.647  13.290 -2.0561  2.2492 -0.4247
  895MPD2    N113124   1.855   4.034  13.248 -0.3217  0.2674 -0.0887
  895MPD2    H713125   1.854   3.985  13.159  0.0177  2.1098 -1.1128
  896MPD2     C13126   4.021   0.919   1.226  0.3422 -0.0917  0.8575
  896MPD2    C113127   4.014   1.019   1.327 -0.3708  0.3116  0.3377
  896MPD2    C213128   3.898   1.042   1.405 -0.2944  0.1136  0.0310
  896MPD2    C313129   3.787   0.963   1.389  0.3226 -0.9803  0.6432
  896MPD2    C413130   3.796   0.856   1.295  0.6401  0.1365 -0.6535
  896MPD2    C513131   3.908   0.833   1.214  0.0300 -0.4718 -0.5701
  896MPD2     H13132   3.894   1.129   1.470  1.1327  2.6874 -3.2860
  896MPD2    H113133   3.712   0.789   1.285  2.6870 -2.4332 -0.8830
  896MPD2    H213134   4.109   0.900   1.166  0.3446  2.4881  0.0733
  896MPD2    H313135   3.904   0.745   1.151 -0.3250 -1.8948  1.4603
  896MPD2     N13136   3.678   0.991   1.472 -0.7884  0.3035 -0.0197
  896MPD2    H513137   3.686   1.076   1.527 -2.2344  1.0194 -0.9150
  896MPD2    N113138   4.138   1.088   1.351 -0.6284  0.4943  0.1975
  896MPD2    H713139   4.207   1.071   1.278 -0.8470  3.0363 -0.6221
  897MPD2     C13140   0.045   3.983  10.670  0.0674  0.0635 -0.3596
  897MPD2    C113141   0.068   3.954  10.539  0.0741  0.4444 -1.0506
  897MPD2    C213142   0.039   3.830  10.483  0.1426 -1.0191  0.3347
  897MPD2    C313143   4.703   3.734  10.564  0.2385 -0.2377 -0.0883
  897MPD2    C413144   4.674   3.763  10.698 -0.5490 -0.3136 -0.2589
  897MPD2    C513145   4.708   3.886  10.747 -0.2277  0.2046 -0.0222
  897MPD2     H13146   0.070   3.800  10.384  0.6911 -0.9363  0.4834
  897MPD2    H113147   4.614   3.707  10.769  1.0475 -0.7725  0.7386
  897MPD2    H213148   0.084   4.076  10.711 -1.7367 -0.0899  1.6661
  897MPD2    H313149   4.691   3.906  10.852 -1.0190  0.6119 -0.2308
  897MPD2     N13150   4.654   3.617  10.491  0.2330  0.6367  0.2425
  897MPD2    H513151   4.656   3.617  10.390  0.6875  1.0613  0.2508
  897MPD2    N113152   0.136   4.046  10.459 -0.2072 -0.3411 -0.7001
  897MPD2    H713153   0.180   4.121  10.511  0.8404 -1.4715  0.0519
  898MPD2     C13154   2.422   3.860  17.225  0.0846 -0.0445 -0.0490
  898MPD2    C113155   2.548   3.911  17.192  0.5142 -0.2051 -0.4227
  898MPD2    C213156   2.558   4.017  17.105  0.2065  0.0506 -0.4576
  898MPD2    C313157   2.442   4.069  17.048 -0.2571 -0.0822 -0.5327
  898MPD2    C413158   2.318   4.018  17.081  0.1280 -0.0780  0.3024
  898MPD2    C513159   2.314   3.920  17.172 -0.3036  0.1582 -0.2359
  898MPD2     H13160   2.654   4.060  17.075 -0.4756  2.6881  1.1175
  898MPD2    H113161   2.222   4.041  17.035 -0.1559 -1.2055  0.3372
  898MPD2    H213162   2.404   3.769  17.281 -1.3568 -1.4223 -2.7681
  898MPD2    H313163   2.223   3.870  17.203 -0.7470 -0.1877 -2.0731
  898MPD2     N13164   2.453   4.173  16.955  0.6555 -0.3299 -0.2497
  898MPD2    H513165   2.546   4.205  16.927  0.6845  0.4188  0.7169
  898MPD2    N113166   2.668   3.864  17.251 -0.3160  0.5343  0.5134
  898MPD2    H713167   2.749   3.926  17.253 -0.9868  1.4861 -2.0887
  899MPD2     C13168   2.988   0.070  17.159  0.2987 -0.1436 -0.6380
  899MPD2    C113169   3.075   0.138  17.246  0.3991 -0.1328 -0.3530
  899MPD2    C213170   3.059   0.134  17.383  0.5045 -0.1869 -0.4236
  899MPD2    C313171   2.952   0.062  17.435 -0.0173  0.0513  0.7690
  899MPD2    C413172   2.880   4.707  17.358 -0.4802 -0.1155 -0.2128
  899MPD2    C513173   2.891   4.717  17.223 -0.2109 -0.1636  0.2912
  899MPD2     H13174   3.121   0.188  17.454 -2.7512  0.8171  1.6412
  899MPD2    H113175   2.804   4.637  17.395 -1.1072  0.6138 -0.1246
  899MPD2    H213176   2.993   0.066  17.050  0.3809 -1.4738 -0.5879
  899MPD2    H313177   2.822   4.666  17.157 -0.7787 -0.5283  1.1770
  899MPD2     N13178   2.921   0.076  17.569  0.8397  0.5155 -0.2275
  899MPD2    H513179   2.826   0.050  17.593  0.1548  2.6852 -0.5513
  899MPD2    N113180   3.175   0.214  17.182 -0.1399 -0.4162 -0.1695
  899MPD2    H713181   3.190   0.180  17.088  0.2672  0.2463 -0.3452
  900MPD2     C13182   2.947   1.741  12.646 -0.5471 -0.6046  0.1568
  900MPD2    C113183   2.849   1.644  12.658  0.2836  0.6716 -0.0329
  900MPD2    C213184   2.715   1.685  12.628  0.2112  1.0807 -0.4866
  900MPD2    C313185   2.682   1.812  12.581  0.1788  0.0784  0.7737
  900MPD2    C413186   2.784   1.905  12.576  0.0924 -0.4962 -0.3832
  900MPD2    C513187   2.911   1.870  12.606  0.0471  0.5110  0.0767
  900MPD2     H13188   2.638   1.608  12.627  2.2243 -0.9662 -0.0360
  900MPD2    H113189   2.762   2.007  12.546  0.9083 -0.2376 -0.0980
  900MPD2    H213190   3.050   1.724  12.673 -0.6887 -0.9139  0.5064
  900MPD2    H313191   2.978   1.956  12.604  0.5671  0.1529  1.9325
  900MPD2     N13192   2.548   1.843  12.545 -0.1400  0.2220 -0.8077
  900MPD2    H513193   2.481   1.768  12.537  0.0528 -0.0803  0.4712
  900MPD2    N113194   2.894   1.508  12.678 -0.6746  0.1779 -0.0297
  900MPD2    H713195   2.994   1.496  12.665 -1.3192 -1.6233 -3.3395
  901MPD2     C13196   2.585   0.451  12.754  0.0225  0.1127  0.5402
  901MPD2    C113197   2.701   0.456  12.672  0.4739  0.6798 -0.0150
  901MPD2    C213198   2.784   0.565  12.691  0.1644 -0.4950 -0.1933
  901MPD2    C313199   2.728   0.682  12.745  0.3761  0.6388  0.0606
  901MPD2    C413200   2.605   0.683  12.804  0.4607 -1.3457 -0.2545
  901MPD2    C513201   2.539   0.567  12.821  0.7809 -0.0704  0.2103
  901MPD2     H13202   2.881   0.573  12.644  0.8156 -3.9838  0.5923
  901MPD2    H113203   2.553   0.767  12.848  1.2662 -1.6397  1.2506
  901MPD2    H213204   2.524   0.362  12.745  0.6110 -0.4304  2.0573
  901MPD2    H313205   2.447   0.564  12.879  1.2133 -1.2481  0.8396
  901MPD2     N13206   2.799   0.804  12.738 -0.1411 -0.8110  0.1483
  901MPD2    H513207   2.895   0.793  12.707 -0.2118 -1.5587  0.1961
  901MPD2    N113208   2.743   0.328  12.615  0.3195  0.2288  0.2151
  901MPD2    H713209   2.668   0.262  12.599 -0.9715  1.6251  0.4525
  902MPD2     C13210   2.188   4.303  13.314  0.0517  0.5266 -0.1980
  902MPD2    C113211   2.120   4.380  13.227 -0.6390 -0.8916 -0.2131
  902MPD2    C213212   2.141   4.356  13.092  0.9087 -0.2044 -0.6054
  902MPD2    C313213   2.235   4.260  13.051 -0.0246 -0.0440 -0.3274
  902MPD2    C413214   2.314   4.195  13.146 -0.1812 -0.3947 -0.1476
  902MPD2    C513215   2.290   4.220  13.277 -0.5462 -0.0913  0.6469
  902MPD2     H13216   2.084   4.404  13.014 -0.3532 -2.2694 -0.9505
  902MPD2    H113217   2.390   4.124  13.115  1.5845  0.6811  1.7033
  902MPD2    H213218   2.172   4.309  13.421  1.2049 -0.5370  0.0280
  902MPD2    H313219   2.341   4.164  13.354  0.7277  2.8416  1.9189
  902MPD2     N13220   2.271   4.230  12.918 -0.8148 -0.0743 -0.0147
  902MPD2    H513221   2.357   4.179  12.903 -0.2879  0.5073  1.0376
  902MPD2    N113222   2.019   4.468  13.264 -0.1749  0.2832  0.0580
  902MPD2    H713223   2.002   4.489  13.362  0.1330 -0.7774  0.3375
  903MPD2     C13224   1.882   4.486  12.291  0.9183 -0.5135 -0.7644
  903MPD2    C113225   1.954   4.369  12.282 -0.0184  0.2297 -0.0108
  903MPD2    C213226   1.912   4.262  12.199 -0.3185 -0.4075 -0.1951
  903MPD2    C313227   1.795   4.288  12.125 -0.2095 -0.6108  0.5189
  903MPD2    C413228   1.731   4.409  12.128 -0.2094 -0.0243 -0.5754
  903MPD2    C513229   1.774   4.511  12.206 -0.0247  0.0897  0.2315
  903MPD2     H13230   1.942   4.159  12.212  0.2620 -0.0147  1.5864
  903MPD2    H113231   1.644   4.432  12.068 -0.4367  1.7939  0.4509
  903MPD2    H213232   1.914   4.559  12.364 -0.1159  0.0951 -0.9199
  903MPD2    H313233   1.721   4.605  12.197  0.9755  0.6127 -0.2223
  903MPD2     N13234   1.733   4.183  12.051 -0.1054  0.7962  0.7025
  903MPD2    H513235   1.787   4.097  12.048 -1.5895 -0.0927 -0.4850
  903MPD2    N113236   2.066   4.354  12.364 -0.8030  0.3936 -0.4033
  903MPD2    H713237   2.082   4.417  12.442 -0.8923  0.4605 -0.4403
  904MPD2     C13238   1.722   3.543  13.521 -0.7590 -0.5298 -0.0738
  904MPD2    C113239   1.671   3.483  13.636 -0.5759 -0.4068 -0.2933
  904MPD2    C213240   1.765   3.460  13.737  0.2956  0.5934 -0.1899
  904MPD2    C313241   1.898   3.502  13.735  0.6435 -0.4600 -0.5314
  904MPD2    C413242   1.944   3.553  13.610 -0.2959 -0.3270 -0.1500
  904MPD2    C513243   1.856   3.576  13.510 -0.2105 -0.2146  0.4282
  904MPD2     H13244   1.720   3.433  13.832  2.5884  1.3793  1.1220
  904MPD2    H113245   2.046   3.585  13.592 -0.6059 -0.0396 -1.4039
  904MPD2    H213246   1.663   3.567  13.433 -1.0556 -0.6912  0.0808
  904MPD2    H313247   1.895   3.630  13.424 -0.3565  0.9890  1.1106
  904MPD2     N13248   1.981   3.503  13.849  1.0428  0.0144  0.2355
  904MPD2    H513249   1.951   3.463  13.938 -4.3363  2.6359 -0.3714
  904MPD2    N113250   1.539   3.436  13.662  0.3206 -0.1411 -0.0830
  904MPD2    H713251   1.529   3.361  13.729 -0.3535  0.3371  0.3404
  905MPD2     C13252   1.512   3.316  13.038 -1.0893  0.3706 -0.0543
  905MPD2    C113253   1.569   3.426  13.101 -0.1397  0.2859 -0.9002
  905MPD2    C213254   1.702   3.424  13.138  0.3257 -0.0660 -0.2462
  905MPD2    C313255   1.778   3.310  13.118 -0.5362 -0.6374  0.1708
  905MPD2    C413256   1.723   3.207  13.043  0.2440  0.0697  0.5982
  905MPD2    C513257   1.588   3.207  13.008  0.4595  0.4246  0.0149
  905MPD2     H13258   1.744   3.503  13.199 -0.6925  0.7610 -0.6228
  905MPD2    H113259   1.768   3.114  13.012 -2.9424 -1.2233 -0.1442
  905MPD2    H213260   1.409   3.307  13.006 -0.7251 -3.3019 -0.1690
  905MPD2    H313261   1.552   3.121  12.951  1.7577 -0.2533  0.2177
  905MPD2     N13262   1.912   3.294  13.172 -0.0315  0.2331  0.0547
  905MPD2    H513263   1.961   3.206  13.164  0.3122  0.3307  1.0845
  905MPD2    N113264   1.480   3.527  13.142  0.2123 -0.3870 -0.7734
  905MPD2    H713265   1.382   3.505  13.160 -0.3419  2.0910 -0.7240
  906MPD2     C13266   3.352   3.853  10.864 -0.6391  0.2496 -0.0907
  906MPD2    C113267   3.355   3.718  10.845  0.1973  0.6448  0.0563
  906MPD2    C213268   3.311   3.637  10.948  1.0825 -0.0004 -0.0623
  906MPD2    C313269   3.280   3.695  11.073 -0.2903  0.0263  0.0846
  906MPD2    C413270   3.289   3.833  11.087  0.0840 -0.1758  0.2040
  906MPD2    C513271   3.320   3.910  10.982 -0.6178  0.1872  0.0056
  906MPD2     H13272   3.308   3.530  10.933  0.0054  0.0214 -0.0033
  906MPD2    H113273   3.276   3.874  11.186 -1.8611  1.0740 -0.5637
  906MPD2    H213274   3.368   3.906  10.772  0.5554  0.0483  0.0069
  906MPD2    H313275   3.305   4.017  10.982  3.0749  0.7170  3.1383
  906MPD2     N13276   3.247   3.620  11.183 -0.9080 -0.0779  0.4598
  906MPD2    H513277   3.209   3.672  11.261 -0.3852  2.5570 -1.0173
  906MPD2    N113278   3.391   3.653  10.726 -0.3448  0.1035 -0.5366
  906MPD2    H713279   3.377   3.553  10.724 -0.6614  0.0765  2.6559
  907MPD2     C13280   2.801   2.308  15.501  0.9702 -0.2175  0.0719
  907MPD2    C113281   2.891   2.285  15.400  0.3254  0.3883 -0.6731
  907MPD2    C213282   2.979   2.380  15.358 -0.5981  0.8318  0.4804
  907MPD2    C313283   2.958   2.514  15.402 -0.7202  0.0431  0.0906
  907MPD2    C413284   2.856   2.538  15.490 -0.0503  0.5725 -0.5602
  907MPD2    C513285   2.779   2.435  15.539 -0.5283  0.0266  0.5327
  907MPD2     H13286   3.060   2.353  15.292 -0.3186  0.6630  0.8978
  907MPD2    H113287   2.852   2.636  15.536  2.5314  0.2647  0.3452
  907MPD2    H213288   2.740   2.229  15.543  1.4729  0.1211  1.4304
  907MPD2    H313289   2.709   2.456  15.618 -0.7790  1.2810 -0.0155
  907MPD2     N13290   3.056   2.609  15.358  0.2577 -0.4517  0.0842
  907MPD2    H513291   3.143   2.574  15.318  0.3379 -0.7393  0.5149
  907MPD2    N113292   2.905   2.149  15.344 -0.2894  0.5352  0.0148
  907MPD2    H713293   2.964   2.125  15.265  0.3372  1.3260  0.2567
  908MPD2     C13294   0.212   4.163   9.468  0.2795  0.2768  0.2427
  908MPD2    C113295   0.110   4.116   9.547  0.4666  0.1266  0.3562
  908MPD2    C213296   0.140   4.113   9.685  0.3095  0.3133  0.7110
  908MPD2    C313297   0.253   4.162   9.740  0.0650  0.5097  0.0388
  908MPD2    C413298   0.344   4.222   9.653  0.5283  0.0763  0.0465
  908MPD2    C513299   0.321   4.222   9.520 -0.0980 -0.6306  0.7407
  908MPD2     H13300   0.063   4.066   9.746 -1.2090  1.7745 -0.0757
  908MPD2    H113301   0.431   4.278   9.688 -1.0247  1.6262  1.4230
  908MPD2    H213302   0.183   4.171   9.363 -0.0723 -0.1785  0.3023
  908MPD2    H313303   0.389   4.267   9.449 -1.1199  1.2956  0.9954
  908MPD2     N13304   0.260   4.171   9.878 -0.6933  0.3142  0.1478
  908MPD2    H513305   0.183   4.138   9.934  0.3520 -2.2886  0.0745
  908MPD2    N113306   4.711   4.089   9.488  0.8885  0.0328 -0.2701
  908MPD2    H713307   4.709   4.088   9.387  3.1632 -0.2388 -0.3119
  909MPD2     C13308   0.727   1.334  11.641 -0.0544  1.0737 -0.5678
  909MPD2    C113309   0.676   1.424  11.546  0.0895 -0.3248 -1.1465
  909MPD2    C213310   0.564   1.503  11.581 -0.1888  0.0214  0.5774
  909MPD2    C313311   0.505   1.487  11.709 -0.2824  0.0031 -0.1223
  909MPD2    C413312   0.552   1.394  11.796  0.1235  0.4380  0.1589
  909MPD2    C513313   0.662   1.320  11.767 -0.4103  0.4435 -0.5271
  909MPD2     H13314   0.521   1.573  11.510 -0.9853  0.1557  1.1937
  909MPD2    H113315   0.506   1.379  11.893 -0.5305  0.0754 -0.2110
  909MPD2    H213316   0.817   1.275  11.631  1.7838  3.6976  0.6378
  909MPD2    H313317   0.701   1.263  11.850 -3.1533  2.0188  1.8746
  909MPD2     N13318   0.408   1.582  11.743  0.5627  0.1439  0.0563
  909MPD2    H513319   0.426   1.670  11.696  0.9599 -0.8465 -1.6528
  909MPD2    N113320   0.729   1.431  11.416 -0.8957  0.3390 -0.1829
  909MPD2    H713321   0.696   1.505  11.356  2.6632  3.1025  1.2484
  910MPD2     C13322   1.538   3.196  15.746 -0.2119  0.1616  0.0944
  910MPD2    C113323   1.654   3.162  15.674 -0.5788 -0.4782  0.5756
  910MPD2    C213324   1.673   3.215  15.547  0.0469 -0.1481 -0.5153
  910MPD2    C313325   1.583   3.303  15.489  0.0612  0.0758  0.6102
  910MPD2    C413326   1.477   3.333  15.561 -0.7356  0.6275 -0.0247
  910MPD2    C513327   1.449   3.277  15.681  0.5762 -1.0437 -0.5176
  910MPD2     H13328   1.759   3.183  15.491 -0.5918 -1.1278 -0.9400
  910MPD2    H113329   1.391   3.390  15.529 -3.2758 -2.1297  1.8528
  910MPD2    H213330   1.528   3.173  15.851 -0.8392 -0.9848 -0.2236
  910MPD2    H313331   1.366   3.311  15.743  1.6922  1.7482 -0.5754
  910MPD2     N13332   1.605   3.366  15.365 -0.3828  0.0176 -0.2774
  910MPD2    H513333   1.533   3.430  15.332  0.6687  1.9260  1.1538
  910MPD2    N113334   1.747   3.077  15.724 -0.0284 -0.7142  0.6893
  910MPD2    H713335   1.816   3.044  15.658  0.2765  0.2007  0.5470
  911MPD2     C13336   0.155   3.399  16.187 -0.0582  0.5176 -0.4876
  911MPD2    C113337   0.122   3.456  16.307  0.5305  0.0699 -0.2383
  911MPD2    C213338   0.050   3.574  16.300  0.2954 -0.4950  0.0043
  911MPD2    C313339   0.002   3.625  16.182  0.2145  0.2543 -0.9122
  911MPD2    C413340   0.042   3.567  16.062 -0.1637  0.1324  0.3957
  911MPD2    C513341   0.117   3.456  16.067  0.2817  0.0447  0.0748
  911MPD2     H13342   0.031   3.625  16.393 -1.0905 -0.7298 -0.1485
  911MPD2    H113343   0.022   3.613  15.966 -0.6174  0.2662  0.5517
  911MPD2    H213344   0.228   3.319  16.189 -0.5361  0.0807 -0.7172
  911MPD2    H313345   0.162   3.414  15.978 -1.7089 -0.6866 -0.5848
  911MPD2     N13346   4.647   3.743  16.182  0.6515 -0.0863  0.4203
  911MPD2    H513347   4.592   3.760  16.099 -1.5058  0.8341  2.0252
  911MPD2    N113348   0.186   3.390  16.416  0.2213  0.3554  0.1135
  911MPD2    H713349   0.248   3.315  16.390  2.1253  1.4068  1.6978
  912MPD2     C13350   4.539   3.697  15.698 -0.3853  0.7213  0.4357
  912MPD2    C113351   4.475   3.693  15.821 -0.2895 -0.4312 -0.2324
  912MPD2    C213352   4.471   3.571  15.886 -0.1427  0.3618 -0.2728
  912MPD2    C313353   4.547   3.462  15.840 -0.7261 -0.1072 -0.0033
  912MPD2    C413354   4.603   3.466  15.717  0.2440  0.2388 -0.4195
  912MPD2    C513355   4.595   3.584  15.649 -0.4985  0.8825  0.0635
  912MPD2     H13356   4.429   3.565  15.986 -0.3265 -0.0863 -0.3783
  912MPD2    H113357   4.647   3.380  15.668  1.8707  1.4640 -1.1284
  912MPD2    H213358   4.541   3.789  15.640 -0.2024  0.0708 -0.5798
  912MPD2    H313359   4.627   3.586  15.546 -0.8110 -0.7269 -0.0636
  912MPD2     N13360   4.541   3.349  15.923 -0.0988 -0.2894  0.6453
  912MPD2    H513361   4.483   3.364  16.005 -0.9300  0.0144 -0.0132
  912MPD2    N113362   4.419   3.813  15.870  0.1974  0.1895 -0.1027
  912MPD2    H713363   4.434   3.902  15.824  0.3292  0.2724  0.1022
  913MPD2     C13364   0.061   0.336   9.998  0.4177 -0.2977 -0.3288
  913MPD2    C113365   0.054   0.439  10.094 -0.4270 -0.1595  0.6940
  913MPD2    C213366   0.033   0.569  10.056  0.3925 -0.3434 -0.4751
  913MPD2    C313367   0.027   0.596   9.918 -0.0319 -0.0129  0.3178
  913MPD2    C413368   0.016   0.492   9.825  0.0088 -0.6301 -0.3520
  913MPD2    C513369   0.049   0.365   9.862  0.1295  0.2633  0.5219
  913MPD2     H13370   0.038   0.645  10.133 -0.7552 -1.0198  0.2611
  913MPD2    H113371   4.720   0.508   9.719  0.4313  0.3810 -0.2787
  913MPD2    H213372   0.068   0.234  10.032  1.3283 -0.1565 -0.0850
  913MPD2    H313373   0.052   0.287   9.787  0.8480 -1.6495  2.5490
  913MPD2     N13374   0.038   0.730   9.867  0.0025 -0.5316 -0.3233
  913MPD2    H513375   0.023   0.734   9.767  1.3916  1.4578 -0.4571
  913MPD2    N113376   0.072   0.400  10.226  0.2924 -0.3660 -0.0318
  913MPD2    H713377   0.083   0.301  10.243 -0.7432 -0.5265 -0.3053
  914MPD2     C13378   3.026   0.622  11.968  0.3824 -0.6866 -0.9287
  914MPD2    C113379   3.039   0.649  12.107 -0.4107  0.3322 -0.8889
  914MPD2    C213380   3.024   0.541  12.198  0.1927 -0.5531 -0.2961
  914MPD2    C313381   2.988   0.414  12.146 -0.1990  0.5955  0.1199
  914MPD2    C413382   2.952   0.400  12.013  0.4509  0.4713 -0.7050
  914MPD2    C513383   2.981   0.497  11.929 -1.0800  0.1789 -0.5849
  914MPD2     H13384   3.039   0.552  12.305  3.4036  2.3013 -1.0581
  914MPD2    H113385   2.922   0.302  11.979 -0.2033  1.1709 -2.1298
  914MPD2    H213386   3.052   0.683  11.881 -1.3010  0.6845 -0.4804
  914MPD2    H313387   2.972   0.481  11.822  0.2755  1.4464 -0.8895
  914MPD2     N13388   3.012   0.306  12.227 -0.1711 -0.4736 -0.6194
  914MPD2    H513389   3.056   0.326  12.317  1.6182 -1.2593 -1.3145
  914MPD2    N113390   3.089   0.779  12.142  0.4592  0.0743  0.0930
  914MPD2    H713391   3.119   0.840  12.066 -3.0960  2.3209  0.4993
  915MPD2     C13392   1.180   0.368  15.434 -0.4592  0.2290  0.1335
  915MPD2    C113393   1.045   0.401  15.424 -0.6217 -0.0766 -0.0741
  915MPD2    C213394   0.972   0.426  15.541  0.3336 -0.3649  0.1560
  915MPD2    C313395   1.022   0.404  15.667 -0.2379 -0.4719  0.4158
  915MPD2    C413396   1.146   0.343  15.671 -0.6996  0.1665  0.4671
  915MPD2    C513397   1.229   0.331  15.563  0.3831  0.0269 -0.1665
  915MPD2     H13398   0.875   0.474  15.530  0.6459  0.8053  2.7104
  915MPD2    H113399   1.194   0.336  15.768 -0.1112  2.7016  0.3611
  915MPD2    H213400   1.232   0.345  15.342  2.7942  1.0146  1.7855
  915MPD2    H313401   1.326   0.283  15.570 -0.2334 -1.0269  1.0349
  915MPD2     N13402   0.943   0.438  15.782 -0.1453  0.2920  0.1773
  915MPD2    H513403   0.861   0.496  15.765  0.4190  0.5163 -1.8356
  915MPD2    N113404   0.992   0.419  15.291 -1.2227 -0.0297  0.1886
  915MPD2    H713405   1.056   0.402  15.214 -0.8035 -0.4200  0.6229
  916MPD2     C13406   4.178   3.345  15.823 -0.3115 -0.3595  0.3578
  916MPD2    C113407   4.136   3.224  15.879 -0.0866 -0.9121 -0.4962
  916MPD2    C213408   4.181   3.105  15.826  0.4043 -0.0941  0.2224
  916MPD2    C313409   4.263   3.105  15.711  0.1381 -0.6180  0.0225
  916MPD2    C413410   4.296   3.229  15.659  0.1809  0.7082 -0.2522
  916MPD2    C513411   4.256   3.349  15.716 -0.1557 -0.1590  0.3702
  916MPD2     H13412   4.149   3.008  15.862  1.3260 -0.5191 -0.1233
  916MPD2    H113413   4.359   3.238  15.571  0.6591  0.6865  0.0856
  916MPD2    H213414   4.148   3.441  15.864  1.2197  0.9902 -1.7053
  916MPD2    H313415   4.282   3.443  15.668  1.0164 -0.8659 -0.3818
  916MPD2     N13416   4.297   2.984  15.651 -0.4311  0.0220  0.2474
  916MPD2    H513417   4.260   2.902  15.697  0.1972 -0.8893 -0.8853
  916MPD2    N113418   4.044   3.239  15.992 -0.2744 -0.1649 -0.3617
  916MPD2    H713419   4.019   3.337  16.005 -2.8371 -0.7659 -0.9000
  917MPD2     C13420   3.881   1.307  11.070  0.5699  0.1036 -0.1084
  917MPD2    C113421   3.941   1.357  11.183 -0.8953  0.4307  0.1146
  917MPD2    C213422   4.054   1.437  11.165 -0.0133  0.1719  0.9272
  917MPD2    C313423   4.093   1.480  11.046 -0.0909 -0.3799  0.7817
  917MPD2    C413424   4.024   1.429  10.939 -0.4983  0.0202  0.2984
  917MPD2    C513425   3.926   1.336  10.950  0.3046 -0.0463 -0.4079
  917MPD2     H13426   4.114   1.465  11.250 -1.7964  0.6527  2.0346
  917MPD2    H113427   4.063   1.458  10.842 -1.3968  0.1270 -0.0363
  917MPD2    H213428   3.798   1.237  11.077  1.5696 -1.0734  0.0961
  917MPD2    H313429   3.872   1.298  10.865 -1.4887  1.4358  0.0745
  917MPD2     N13430   4.202   1.563  11.031  0.3625 -0.2869 -0.1847
  917MPD2    H513431   4.218   1.600  10.938 -0.1176  0.5697  0.0760
  917MPD2    N113432   3.895   1.309  11.311 -0.2680  0.0797  0.6858
  917MPD2    H713433   3.842   1.223  11.308 -1.0109  0.4696  2.2652
  918MPD2     C13434   3.949   1.784  12.189 -0.0188 -0.6641 -0.3844
  918MPD2    C113435   4.050   1.782  12.097 -0.1627  0.1207  0.0969
  918MPD2    C213436   4.032   1.692  11.995 -0.6248 -0.2732  0.1549
  918MPD2    C313437   3.931   1.597  12.001 -0.0302 -0.3655  0.8170
  918MPD2    C413438   3.838   1.595  12.096  0.4310  0.4175 -0.2642
  918MPD2    C513439   3.844   1.694  12.187 -0.0421 -0.3255 -0.6492
  918MPD2     H13440   4.118   1.678  11.930  1.3268 -3.6042  3.3822
  918MPD2    H113441   3.759   1.521  12.102  0.7541  0.1328  0.5591
  918MPD2    H213442   3.955   1.853  12.273  0.9890  0.4480 -1.3637
  918MPD2    H313443   3.765   1.700  12.260  1.2008  1.6570  0.5225
  918MPD2     N13444   3.931   1.497  11.903 -0.1005  0.4041 -0.3755
  918MPD2    H513445   3.980   1.520  11.817 -1.3896 -1.0926 -1.5212
  918MPD2    N113446   4.177   1.852  12.109  0.1322  0.8762  0.7169
  918MPD2    H713447   4.248   1.835  12.038 -2.1023  0.9940 -1.5249
  919MPD2     C13448   0.035   0.067  12.002  0.2518  0.8961 -0.9223
  919MPD2    C113449   4.704   4.674  11.950 -0.3010 -0.0588  0.2412
  919MPD2    C213450   4.677   4.671  11.813  0.2209  0.3156  0.1262
  919MPD2    C313451   4.690   0.063  11.734  0.2237  0.7792  1.3305
  919MPD2    C413452   0.007   0.178  11.788 -0.0131  0.1039  0.1891
  919MPD2    C513453   0.045   0.174  11.919  0.6400 -0.1981 -0.1657
  919MPD2     H13454   4.649   4.575  11.770  2.5343  0.2948 -1.3293
  919MPD2    H113455   0.041   0.266  11.735  2.0841 -0.7784  0.0789
  919MPD2    H213456   0.055   0.074  12.108 -2.6408  1.0895 -0.3963
  919MPD2    H313457   0.095   0.264  11.953  0.4300 -0.3516  0.5640
  919MPD2     N13458   4.663   0.060  11.593 -0.5904  0.2891 -0.2471
  919MPD2    H513459   4.656   0.152  11.549  2.0863  0.2505 -0.7594
  919MPD2    N113460   4.673   4.559  12.026  0.3378  0.1396 -0.5842
  919MPD2    H713461   4.625   4.484  11.977  0.4671 -0.0297 -0.4537
  920MPD2     C13462   4.591   0.633  10.809 -0.4233 -1.0610 -0.1145
  920MPD2    C113463   4.537   0.517  10.752  0.7146 -0.1824 -0.1543
  920MPD2    C213464   4.531   0.405  10.833 -0.7190 -0.2675 -0.3102
  920MPD2    C313465   4.563   0.401  10.968 -0.3672 -0.2858  0.1518
  920MPD2    C413466   4.595   0.522  11.022  0.3231 -0.3538  0.2379
  920MPD2    C513467   4.610   0.629  10.942  0.7604  0.5537  0.0725
  920MPD2     H13468   4.491   0.318  10.782 -1.8986 -0.4408  0.9207
  920MPD2    H113469   4.621   0.537  11.126  0.7403 -0.2948  0.1258
  920MPD2    H213470   4.618   0.725  10.758 -0.4316 -0.2412  1.3707
  920MPD2    H313471   4.639   0.721  10.990  1.5977  0.6837 -0.6824
  920MPD2     N13472   4.551   0.276  11.035  0.1689 -0.3348 -0.2185
  920MPD2    H513473   4.550   0.197  10.971  0.9281  0.5282 -1.3157
  920MPD2    N113474   4.497   0.510  10.612 -0.1446  0.1776  0.2543
  920MPD2    H713475   4.455   0.424  10.579 -0.9324  1.0194 -0.9619
  921MPD2     C13476   0.868   3.778  16.849  0.6291  0.2896 -0.5507
  921MPD2    C113477   0.884   3.650  16.877  0.5524  0.1899 -0.1278
  921MPD2    C213478   0.772   3.571  16.872 -0.1979  0.2769  0.4582
  921MPD2    C313479   0.647   3.627  16.840  0.5925  0.2817  0.8363
  921MPD2    C413480   0.646   3.761  16.803 -0.3628 -0.5961  0.0324
  921MPD2    C513481   0.758   3.836  16.808  0.0394 -0.8708  0.4630
  921MPD2     H13482   0.787   3.464  16.878  0.5903  0.2866 -1.3534
  921MPD2    H113483   0.550   3.804  16.777 -0.1860 -0.6459 -0.7240
  921MPD2    H213484   0.949   3.845  16.877  1.4460 -1.0255  0.2057
  921MPD2    H313485   0.753   3.944  16.802  0.0573 -0.9359 -0.7073
  921MPD2     N13486   0.518   3.561  16.825 -0.5814 -0.0088 -0.6950
  921MPD2    H513487   0.442   3.605  16.774 -0.6586  1.4799  0.7138
  921MPD2    N113488   1.014   3.599  16.896  0.2343  0.2764 -0.5883
  921MPD2    H713489   1.083   3.672  16.880  0.2485  0.1722 -0.9894
  922MPD2     C13490   1.042   1.047   0.982 -0.5077  0.5965  0.3237
  922MPD2    C113491   1.068   1.162   0.902 -0.0010 -0.0376 -0.0703
  922MPD2    C213492   1.023   1.160   0.770 -0.0329 -0.4627 -0.8991
  922MPD2    C313493   0.954   1.049   0.718 -0.5327 -0.0973 -0.0835
  922MPD2    C413494   0.946   0.937   0.796  0.3257  0.6678  0.9553
  922MPD2    C513495   0.988   0.933   0.932  0.1708  0.1817  0.0820
  922MPD2     H13496   1.035   1.250   0.711  0.8502  1.1479  1.7441
  922MPD2    H113497   0.890   0.847   0.775  0.8457  1.2085 -2.6897
  922MPD2    H213498   1.071   1.037   1.086 -0.1836 -1.5682  0.0198
  922MPD2    H313499   0.981   0.845   0.994 -0.8952  1.4082  1.6929
  922MPD2     N13500   0.908   1.061   0.584 -0.1852  0.0925  0.0131
  922MPD2    H513501   0.918   1.147   0.531 -1.4196 -0.2406 -0.7818
  922MPD2    N113502   1.123   1.277   0.953 -0.5135  0.1120 -0.3007
  922MPD2    H713503   1.105   1.358   0.895 -0.2465  1.4639  1.4935
  923MPD2     C13504   2.390   2.795   9.224  0.3270 -0.2962  0.0718
  923MPD2    C113505   2.423   2.896   9.312 -0.5348  0.7308 -0.4610
  923MPD2    C213506   2.548   2.902   9.362 -0.0564  0.5625  0.6545
  923MPD2    C313507   2.642   2.811   9.316 -0.4486 -0.4113 -0.4049
  923MPD2    C413508   2.612   2.713   9.232 -0.0814  0.1868  0.3265
  923MPD2    C513509   2.486   2.709   9.186  0.8942 -0.7197 -0.7114
  923MPD2     H13510   2.567   2.986   9.427  0.7813  1.0355 -0.1981
  923MPD2    H113511   2.680   2.632   9.207 -0.8393 -1.0912  2.3932
  923MPD2    H213512   2.287   2.782   9.193 -0.3765  1.3333  1.7508
  923MPD2    H313513   2.472   2.623   9.122  0.7938  0.7671 -2.7065
  923MPD2     N13514   2.775   2.811   9.361 -0.2051  0.2162 -0.3982
  923MPD2    H513515   2.838   2.738   9.332 -0.5813 -1.1610  2.2055
  923MPD2    N113516   2.318   2.983   9.350  0.5743  0.1529  0.6665
  923MPD2    H713517   2.230   2.958   9.308  1.1616  2.9713 -2.3135
  924MPD2     C13518   3.174   2.031  15.528  0.9549  0.4015  0.1446
  924MPD2    C113519   3.133   2.125  15.621 -0.4046  0.2618  0.2815
  924MPD2    C213520   3.177   2.254  15.605 -0.4410 -0.0437 -0.1970
  924MPD2    C313521   3.267   2.288  15.508 -0.0242 -0.1202  0.1275
  924MPD2    C413522   3.305   2.194  15.420  0.0057  0.5273 -0.8953
  924MPD2    C513523   3.259   2.070  15.425  0.1343 -0.6092 -0.0190
  924MPD2     H13524   3.144   2.329  15.676  1.3483  0.4145  0.1584
  924MPD2    H113525   3.380   2.209  15.343  1.8304  2.6318  1.2831
  924MPD2    H213526   3.135   1.929  15.523  1.1449  0.3649 -0.4825
  924MPD2    H313527   3.291   1.998  15.350 -0.0070  0.1599 -0.8164
  924MPD2     N13528   3.326   2.423  15.498 -0.7264 -0.2184 -0.0629
  924MPD2    H513529   3.375   2.441  15.411  1.5239 -0.3307  1.1675
  924MPD2    N113530   3.047   2.092  15.730 -0.2218  0.5010 -0.2434
  924MPD2    H713531   3.033   2.174  15.788 -1.5896  0.7716 -0.9436
  925MPD2     C13532   1.647   4.048  14.741 -0.0200 -0.4503 -0.6532
  925MPD2    C113533   1.574   4.165  14.768 -0.6528 -0.0740  0.5043
  925MPD2    C213534   1.585   4.214  14.897 -0.3996  0.9352  0.1786
  925MPD2    C313535   1.673   4.170  14.989 -0.0323  0.2023 -0.1935
  925MPD2    C413536   1.743   4.056  14.967 -0.5819 -0.4923  0.1756
  925MPD2    C513537   1.722   3.993  14.842 -0.1282  0.3846  0.7197
  925MPD2     H13538   1.535   4.309  14.913 -1.6791  0.2234  0.3920
  925MPD2    H113539   1.805   4.006  15.040  0.1103  0.7789  0.4630
  925MPD2    H213540   1.646   3.986  14.652  1.0265  1.9868 -2.3752
  925MPD2    H313541   1.779   3.903  14.820 -0.3889 -0.0512  1.8633
  925MPD2     N13542   1.693   4.230  15.119  0.0698 -0.4632 -0.2573
  925MPD2    H513543   1.774   4.192  15.167 -0.7295  0.0932  1.5276
  925MPD2    N113544   1.491   4.224  14.667  0.0170  0.4875 -0.4006
  925MPD2    H713545   1.431   4.301  14.694  1.2553  0.1235  3.3741
  926MPD2     C13546   1.162   3.122  13.356  0.2048 -0.2274 -0.1845
  926MPD2    C113547   1.030   3.103  13.318 -0.2420  0.9012 -0.0325
  926MPD2    C213548   0.993   3.176  13.209 -0.0406 -0.6695 -0.4641
  926MPD2    C313549   1.080   3.263  13.146 -0.1131  0.4576  0.2590
  926MPD2    C413550   1.208   3.282  13.195  0.2865  0.0699 -0.3982
  926MPD2    C513551   1.254   3.207  13.296 -0.2785 -0.3892  0.2596
  926MPD2     H13552   0.892   3.169  13.171 -0.5146 -0.0951  0.6918
  926MPD2    H113553   1.281   3.344  13.143  0.3251  0.1794 -0.2126
  926MPD2    H213554   1.202   3.065  13.439 -2.0390 -1.1475  0.2833
  926MPD2    H313555   1.355   3.221  13.334 -0.5073 -3.1595  1.8532
  926MPD2     N13556   1.039   3.335  13.025  0.0220  0.6502 -0.2889
  926MPD2    H513557   1.105   3.397  12.980 -1.0533 -0.3903 -3.3103
  926MPD2    N113558   0.942   3.018  13.388  0.0290  0.1034  0.3100
  926MPD2    H713559   0.847   3.006  13.353  0.9526 -2.9350 -1.0765
  927MPD2     C13560   4.405   0.188  17.556 -0.6655 -0.0946  0.0149
  927MPD2    C113561   4.493   0.101  17.615  0.1529  0.2349 -0.1124
  927MPD2    C213562   4.623   0.084  17.558 -0.1058 -0.8042  0.5937
  927MPD2    C313563   4.664   0.146  17.445  0.9324 -0.7667 -0.3261
  927MPD2    C413564   4.569   0.227  17.387  1.0435 -0.0203 -0.0331
  927MPD2    C513565   4.444   0.243  17.440  0.2552  0.3438  0.4645
  927MPD2     H13566   4.695   0.026  17.614 -0.6730 -1.7904  0.2975
  927MPD2    H113567   4.593   0.282  17.296 -0.9399  0.5217 -0.2487
  927MPD2    H213568   4.305   0.208  17.593 -0.4281 -0.9498  1.1191
  927MPD2    H313569   4.380   0.316  17.392  0.0925 -0.4990 -0.6096
  927MPD2     N13570   0.071   0.126  17.402 -0.2130  0.1443  0.1419
  927MPD2    H513571   0.124   0.049  17.441 -2.0507 -0.5037  1.3690
  927MPD2    N113572   4.450   0.045   0.038  0.8382  0.3257 -0.3751
  927MPD2    H713573   4.353   0.064   0.062  0.9568  0.1388  0.2664
  928MPD2     C13574   2.962   3.170   0.772 -0.4926  0.2795 -0.2911
  928MPD2    C113575   3.085   3.220   0.821  0.0660 -0.1333 -0.6069
  928MPD2    C213576   3.188   3.256   0.734 -0.3968  0.4979 -0.1169
  928MPD2    C313577   3.168   3.247   0.596  0.3900  0.1487 -0.8737
  928MPD2    C413578   3.044   3.203   0.550 -0.3584 -0.1620 -0.4625
  928MPD2    C513579   2.950   3.159   0.636  0.2942  0.3763 -0.2853
  928MPD2     H13580   3.286   3.277   0.775  0.4438 -1.3716 -1.1573
  928MPD2    H113581   3.020   3.197   0.444 -1.1498  0.7531 -0.3390
  928MPD2    H213582   2.894   3.120   0.840  0.7947 -1.8173 -0.5481
  928MPD2    H313583   2.862   3.112   0.595  0.6292  1.0709 -1.7975
  928MPD2     N13584   3.258   3.297   0.496 -0.6867  0.1735 -0.0743
  928MPD2    H513585   3.222   3.311   0.402 -1.3453  1.4837  0.3644
  928MPD2    N113586   3.111   3.247   0.959  0.0866 -0.5406 -0.7782
  928MPD2    H713587   3.206   3.277   0.979 -0.7035  0.9244  0.8203
  929MPD2     C13588   1.286   3.919   9.577 -0.7291 -0.3359  0.0153
  929MPD2    C113589   1.276   3.876   9.707  0.4761  0.2822  0.1334
  929MPD2    C213590   1.190   3.934   9.791  0.1206  0.2938  0.0769
  929MPD2    C313591   1.096   4.033   9.742  0.1770 -0.5272  0.1928
  929MPD2    C413592   1.114   4.084   9.614  0.0846 -0.3679 -0.5529
  929MPD2    C513593   1.206   4.018   9.537  0.5203  0.5767  0.4576
  929MPD2     H13594   1.172   3.883   9.885  0.9852 -1.5974 -0.7843
  929MPD2    H113595   1.056   4.166   9.575 -0.3151 -0.3744  0.0207
  929MPD2    H213596   1.345   3.866   9.502 -0.5371 -0.5102  0.2885
  929MPD2    H313597   1.224   4.063   9.439 -0.7764  1.2904  0.5402
  929MPD2     N13598   1.010   4.104   9.829  0.2779  0.2648 -0.3322
  929MPD2    H513599   0.968   4.182   9.779 -1.5311 -1.0047 -0.7405
  929MPD2    N113600   1.368   3.774   9.747  0.1365 -0.4134 -0.1552
  929MPD2    H713601   1.435   3.742   9.678  0.1911  1.3151 -0.8987
  930MPD2     C13602   4.244   1.019  14.099  0.3325 -0.1391  0.2872
  930MPD2    C113603   4.374   1.037  14.094  0.4152 -0.0948 -0.4050
  930MPD2    C213604   4.447   1.005  13.988  0.7174 -0.1549  0.1186
  930MPD2    C313605   4.384   0.968  13.873 -0.0392  0.2498  0.2342
  930MPD2    C413606   4.251   0.950  13.868  0.5767 -0.3882 -0.0504
  930MPD2    C513607   4.184   0.993  13.981 -0.5602 -0.3429 -0.1690
  930MPD2     H13608   4.549   1.042  13.988  0.4089  0.6796  2.2790
  930MPD2    H113609   4.200   0.922  13.777  1.2657  1.7297 -1.0819
  930MPD2    H213610   4.195   1.053  14.189 -1.3917  0.7706 -0.9945
  930MPD2    H313611   4.076   0.984  13.985 -0.4119 -0.6390  3.5400
  930MPD2     N13612   4.456   0.962  13.749 -0.7393  0.5177  0.7145
  930MPD2    H513613   4.400   0.942  13.667 -1.2731 -0.3722  1.3109
  930MPD2    N113614   4.435   1.091  14.216  0.0446 -0.0956  1.1463
  930MPD2    H713615   4.371   1.126  14.287  0.1513  0.3504  1.0246
  931MPD2     C13616   0.105   4.180   0.412  0.5714 -0.7830  0.1921
  931MPD2    C113617   4.717   4.220   0.480 -0.0304  0.0929  0.0119
  931MPD2    C213618   4.681   4.161   0.604 -0.4843 -0.8868  0.4596
  931MPD2    C313619   0.047   4.065   0.660  0.4213  0.0015 -0.2429
  931MPD2    C413620   0.164   4.026   0.588 -0.1212  0.5661  0.7664
  931MPD2    C513621   0.192   4.089   0.467 -0.0553 -0.8246  0.0927
  931MPD2     H13622   4.609   4.199   0.675  2.0159  2.1979  1.3611
  931MPD2    H113623   0.237   3.961   0.635  1.3453  1.3259 -0.4666
  931MPD2    H213624   0.122   4.219   0.312  3.1904 -0.2754  0.8377
  931MPD2    H313625   0.287   4.060   0.424  1.4236  2.0538  1.4686
  931MPD2     N13626   0.023   4.003   0.792 -0.5224 -0.1166  0.7339
  931MPD2    H513627   0.105   3.951   0.822 -0.7754 -0.3822  0.9587
  931MPD2    N113628   4.635   4.324   0.427  0.0167  0.4345  0.2749
  931MPD2    H713629   4.672   4.372   0.346 -1.5308  0.9172 -0.1474
  932MPD2     C13630   1.484   4.248  11.290 -0.3018 -0.5151 -0.1663
  932MPD2    C113631   1.604   4.269  11.349  0.6387  0.1060  0.0423
  932MPD2    C213632   1.645   4.172  11.439 -0.1891 -0.5663  0.5446
  932MPD2    C313633   1.582   4.049  11.470  0.1054 -0.2742  0.0924
  932MPD2    C413634   1.460   4.032  11.410  0.1507 -0.6612  0.9448
  932MPD2    C513635   1.412   4.131  11.323 -0.1904  0.2172  0.3788
  932MPD2     H13636   1.744   4.191  11.478  0.0644  0.3682 -0.5501
  932MPD2    H113637   1.409   3.937  11.421 -0.3023 -0.4849  0.3176
  932MPD2    H213638   1.454   4.317  11.212 -1.7516  0.8997  1.6667
  932MPD2    H313639   1.319   4.098  11.278  2.6737 -1.9478 -3.9391
  932MPD2     N13640   1.639   3.943  11.550 -0.0774 -0.0968 -0.4806
  932MPD2    H513641   1.588   3.856  11.548  0.9682 -0.7032 -0.7973
  932MPD2    N113642   1.688   4.376  11.326  0.1682 -0.4040 -0.3814
  932MPD2    H713643   1.768   4.382  11.389  1.5361 -0.1161 -2.1209
  933MPD2     C13644   2.907   3.679   1.764  0.5732 -0.2422  0.4321
  933MPD2    C113645   2.892   3.689   1.626 -0.2691 -0.0345 -0.8164
  933MPD2    C213646   2.851   3.807   1.563 -0.5908 -0.3220  0.0793
  933MPD2    C313647   2.826   3.916   1.641  0.0220  0.5102  1.1561
  933MPD2    C413648   2.844   3.909   1.779 -1.1136  0.5722  0.0161
  933MPD2    C513649   2.893   3.793   1.838  0.3664 -0.0957  0.3944
  933MPD2     H13650   2.843   3.806   1.455 -0.7596 -0.5025  0.0943
  933MPD2    H113651   2.811   3.986   1.847  0.7645  2.3264 -1.0778
  933MPD2    H213652   2.931   3.586   1.815  0.8868 -0.5961 -0.3580
  933MPD2    H313653   2.898   3.782   1.945  0.8600 -3.0385  0.0684
  933MPD2     N13654   2.803   4.039   1.581  0.0718 -0.1728 -0.1300
  933MPD2    H513655   2.808   4.033   1.480  0.4947 -0.3278 -0.1003
  933MPD2    N113656   2.935   3.575   1.548 -1.1202 -0.7464  0.6555
  933MPD2    H713657   2.965   3.498   1.606  0.8916 -1.6868 -1.6379
  934MPD2     C13658   3.831   0.165   2.300  0.3238  0.3570 -0.0380
  934MPD2    C113659   3.807   0.287   2.231 -0.4010 -0.1119 -0.6325
  934MPD2    C213660   3.737   0.279   2.111  0.2284 -0.5898 -0.0417
  934MPD2    C313661   3.702   0.160   2.045  0.0234  0.1247  0.3670
  934MPD2    C413662   3.737   0.048   2.111  0.3617 -0.1415 -0.5397
  934MPD2    C513663   3.802   0.046   2.233  0.1218  0.3126 -0.3120
  934MPD2     H13664   3.721   0.371   2.055 -0.4022 -0.9818 -0.5150
  934MPD2    H113665   3.697   4.676   2.080 -1.6983  0.8973 -1.0667
  934MPD2    H213666   3.870   0.156   2.401  0.2070 -1.2624 -0.1365
  934MPD2    H313667   3.833   4.677   2.279  2.7273  0.1881 -2.3710
  934MPD2     N13668   3.636   0.169   1.923  0.0838 -0.0990  0.1340
  934MPD2    H513669   3.598   0.261   1.904 -0.0470 -0.2942 -0.5554
  934MPD2    N113670   3.853   0.418   2.278  0.3668 -0.0245 -0.3527
  934MPD2    H713671   3.840   0.496   2.214 -1.1006 -0.2313 -0.3247
  935MPD2     C13672   4.015   4.499   1.105  0.0897 -0.0696  0.2688
  935MPD2    C113673   3.914   4.574   1.051 -0.0482  0.3317 -0.2362
  935MPD2    C213674   3.837   4.650   1.142 -0.0168 -0.3554 -0.1027
  935MPD2    C313675   3.852   4.644   1.279  0.0871 -1.0772 -0.6421
  935MPD2    C413676   3.960   4.570   1.327 -0.8367 -0.1156 -0.1714
  935MPD2    C513677   4.038   4.499   1.238 -0.1387 -0.1288  0.0651
  935MPD2     H13678   3.751   4.709   1.112  0.1750 -0.1522 -0.2498
  935MPD2    H113679   3.972   4.560   1.434 -0.2150 -0.8389 -0.3114
  935MPD2    H213680   4.076   4.426   1.054  0.6275  1.1168 -0.7786
  935MPD2    H313681   4.113   4.427   1.269 -1.4052 -1.7362 -0.6019
  935MPD2     N13682   3.776   4.711   1.380  0.0588  0.2989 -0.5562
  935MPD2    H513683   3.798   4.705   1.479 -0.9754 -0.1558 -0.3561
  935MPD2    N113684   3.886   4.590   0.911 -0.1876  0.4164 -0.3935
  935MPD2    H713685   3.812   4.656   0.887 -0.0802  0.1654 -1.3844
  936MPD2     C13686   2.416   2.947  12.457 -0.0930  0.4515 -0.6679
  936MPD2    C113687   2.426   3.004  12.584  0.5647 -0.3681  0.6009
  936MPD2    C213688   2.463   3.136  12.598  0.6267 -0.4185  0.2429
  936MPD2    C313689   2.472   3.224  12.488 -0.0045  0.9657 -0.6242
  936MPD2    C413690   2.444   3.167  12.362  0.1776  0.4025 -0.2184
  936MPD2    C513691   2.410   3.033  12.353  0.6743 -0.1703 -0.1046
  936MPD2     H13692   2.468   3.180  12.697 -4.6158  0.6046  0.0962
  936MPD2    H113693   2.433   3.220  12.268 -1.6514 -0.5204 -0.5149
  936MPD2    H213694   2.397   2.842  12.439 -1.5426  1.0350 -2.5675
  936MPD2    H313695   2.375   3.012  12.253 -1.0922  2.3322 -0.0246
  936MPD2     N13696   2.474   3.363  12.516  0.3979 -0.7790  0.3225
  936MPD2    H513697   2.498   3.386  12.612 -1.1940  2.5474 -0.0718
  936MPD2    N113698   2.411   2.943  12.711  0.3873 -0.5297 -0.5388
  936MPD2    H713699   2.423   3.009  12.787  1.0749 -0.4959 -0.6779
  937MPD2     C13700   4.677   4.020  11.761  0.4259 -0.8727 -0.3984
  937MPD2    C113701   4.621   4.146  11.774  0.1334  0.3673 -0.9026
  937MPD2    C213702   4.666   4.236  11.680 -0.6629  0.6011  0.1360
  937MPD2    C313703   0.023   4.200  11.574 -0.6078 -0.1296  0.1509
  937MPD2    C413704   0.064   4.072  11.554  0.8090 -0.8312 -0.4867
  937MPD2    C513705   0.022   3.980  11.648  0.1768  0.3375 -0.1688
  937MPD2     H13706   4.648   4.340  11.704  2.2657  0.0727  4.5858
  937MPD2    H113707   0.129   4.049  11.471  2.0819  0.9403  0.0008
  937MPD2    H213708   4.651   3.940  11.829 -0.6253 -1.4752 -1.4982
  937MPD2    H313709   0.042   3.874  11.640  2.1982  0.7209 -0.3555
  937MPD2     N13710   0.079   4.301  11.493 -0.0112 -0.4112 -0.0409
  937MPD2    H513711   0.059   4.399  11.514 -1.2217 -0.2264 -2.0446
  937MPD2    N113712   4.577   4.200  11.898  0.1279  0.1227  0.7925
  937MPD2    H713713   4.551   4.298  11.903 -0.9731 -0.1162 -0.2506
  938MPD2     C13714   3.023   4.704   0.989  0.3742 -0.1979 -0.1077
  938MPD2    C113715   2.943   0.080   1.044  0.2047  0.2878 -0.5141
  938MPD2    C213716   2.916   0.070   1.178  0.8426 -0.5055 -0.5779
  938MPD2    C313717   2.949   4.675   1.246 -0.4032  0.6104  0.3368
  938MPD2    C413718   3.025   4.582   1.186  0.5147  0.4096  0.1490
  938MPD2    C513719   3.062   4.587   1.054  0.0919 -0.1053  0.0060
  938MPD2     H13720   2.862   0.154   1.222 -1.3661 -1.7782 -0.8800
  938MPD2    H113721   3.055   4.484   1.224 -2.6680 -1.3841 -2.0030
  938MPD2    H213722   3.068   4.718   0.891  1.4224  1.7870  0.6573
  938MPD2    H313723   3.110   4.506   1.001 -0.6806  0.7503 -2.0146
  938MPD2     N13724   2.932   4.659   1.386 -0.1493  1.1454  0.5044
  938MPD2    H513725   2.990   4.590   1.433 -2.0423  0.7218  2.2524
  938MPD2    N113726   2.910   0.197   0.977  0.0813 -0.7349  0.5533
  938MPD2    H713727   2.889   0.275   1.038 -1.7757 -0.3383 -0.5935
  939MPD2     C13728   3.830   1.313   1.239  0.3555 -1.0903 -0.2152
  939MPD2    C113729   3.900   1.428   1.243  0.7580  0.3494  0.4317
  939MPD2    C213730   3.988   1.455   1.135  0.2576 -0.5513 -0.5810
  939MPD2    C313731   3.996   1.361   1.028  0.3756  0.4599  0.2887
  939MPD2    C413732   3.914   1.247   1.027  0.1870  0.1939 -0.3094
  939MPD2    C513733   3.830   1.224   1.132 -0.5759  0.3682  0.5427
  939MPD2     H13734   4.036   1.552   1.133  0.1106 -0.4751 -0.3730
  939MPD2    H113735   3.905   1.189   0.936  1.5470 -0.9643  0.2856
  939MPD2    H213736   3.770   1.279   1.322 -3.2945  1.8693 -1.6446
  939MPD2    H313737   3.770   1.134   1.145  0.8470 -0.3601  2.1774
  939MPD2     N13738   4.072   1.398   0.910 -0.0226  0.7517  0.5253
  939MPD2    H513739   4.116   1.489   0.911  0.0393  0.7298 -1.7665
  939MPD2    N113740   3.890   1.504   1.357  0.4101  0.5625  0.3224
  939MPD2    H713741   3.829   1.472   1.433  1.1069  0.1687  0.7155
  940MPD2     C13742   2.369   2.425  13.147 -0.0849  0.1610 -0.3463
  940MPD2    C113743   2.496   2.482  13.156 -0.8955  0.9292 -0.5756
  940MPD2    C213744   2.570   2.515  13.041 -0.1916  0.6706 -0.6456
  940MPD2    C313745   2.528   2.493  12.919 -0.5242  0.2919 -0.0963
  940MPD2    C413746   2.402   2.430  12.913 -0.4789 -0.1970  0.1722
  940MPD2    C513747   2.329   2.392  13.023 -0.6250  0.0564  0.0158
  940MPD2     H13748   2.667   2.561  13.059 -1.8335  4.3784 -1.4735
  940MPD2    H113749   2.367   2.396  12.817 -0.9616  0.4112  0.1298
  940MPD2    H213750   2.297   2.403  13.225  0.0163 -0.8731 -0.5429
  940MPD2    H313751   2.239   2.339  12.996 -1.2425  1.6545 -1.0624
  940MPD2     N13752   2.583   2.543  12.806 -0.9860  0.3033 -1.2972
  940MPD2    H513753   2.524   2.554  12.724 -1.9526 -0.6562 -0.7240
  940MPD2    N113754   2.546   2.529  13.277  0.1694 -0.2054 -0.0921
  940MPD2    H713755   2.646   2.543  13.286 -0.0429  0.0671  1.7386
  941MPD2     C13756   1.805   1.402   9.795 -0.5097  0.2665  0.3865
  941MPD2    C113757   1.739   1.408   9.678 -0.0026  0.3450 -0.4449
  941MPD2    C213758   1.679   1.294   9.642 -0.7849  0.2231 -0.5843
  941MPD2    C313759   1.654   1.182   9.718 -0.0470 -0.7680 -0.4766
  941MPD2    C413760   1.712   1.186   9.841  0.3538 -0.3568  0.3368
  941MPD2    C513761   1.796   1.288   9.872 -0.2643  0.1414  0.4452
  941MPD2     H13762   1.642   1.301   9.540  1.2922  2.0643 -1.2340
  941MPD2    H113763   1.712   1.100   9.907  3.0427 -1.2091 -0.7409
  941MPD2    H213764   1.869   1.481   9.831 -1.7169  0.3243  2.3889
  941MPD2    H313765   1.843   1.283   9.969  1.2521 -0.6629 -0.3197
  941MPD2     N13766   1.576   1.073   9.672 -0.3961 -0.1048  0.0287
  941MPD2    H513767   1.563   0.995   9.737  2.7386 -2.7915 -2.5930
  941MPD2    N113768   1.736   1.518   9.589  0.5579  0.0986 -0.2199
  941MPD2    H713769   1.675   1.510   9.509 -0.0675  1.1609  0.1579
  942MPD2     C13770   1.612   3.883   9.505 -0.1881 -0.2407  0.1434
  942MPD2    C113771   1.649   3.750   9.537  0.5796 -0.4023 -1.0630
  942MPD2    C213772   1.732   3.734   9.645 -0.7185  0.1259  0.2288
  942MPD2    C313773   1.760   3.840   9.729 -0.2988  0.5917  0.6835
  942MPD2    C413774   1.711   3.969   9.703 -0.4865  0.0651  0.3334
  942MPD2    C513775   1.646   3.993   9.582  0.3056 -0.1909 -0.1177
  942MPD2     H13776   1.785   3.639   9.655  0.2780  0.2615 -3.9728
  942MPD2    H113777   1.733   4.057   9.762  2.0495 -0.5291  0.2839
  942MPD2    H213778   1.566   3.904   9.409  0.7653 -1.6397 -0.6280
  942MPD2    H313779   1.627   4.095   9.552 -1.5533 -0.8899 -1.3159
  942MPD2     N13780   1.844   3.823   9.841 -0.4490  0.2750 -0.4965
  942MPD2    H513781   1.867   3.907   9.894 -0.9739 -0.8989  1.5783
  942MPD2    N113782   1.620   3.633   9.458 -1.0171 -0.3543  0.0865
  942MPD2    H713783   1.661   3.543   9.482  0.1099  0.0461 -0.3356
  943MPD2     C13784   1.027   2.081   9.743  0.3184  0.4543  0.2179
  943MPD2    C113785   0.896   2.113   9.756  0.5164 -0.0446  0.1412
  943MPD2    C213786   0.836   2.211   9.675  0.7269 -0.2990  0.2648
  943MPD2    C313787   0.912   2.261   9.564 -1.4985  0.1576  0.3213
  943MPD2    C413788   1.040   2.215   9.555  0.5302  0.6697  0.1019
  943MPD2    C513789   1.103   2.135   9.648  1.1447  0.2029  0.7418
  943MPD2     H13790   0.731   2.235   9.685  1.0583  0.8555  1.1056
  943MPD2    H113791   1.100   2.259   9.476  1.2839 -0.6100 -0.0337
  943MPD2    H213792   1.082   2.018   9.813 -0.9370  0.2393  1.0152
  943MPD2    H313793   1.204   2.109   9.619  1.3763  1.3248  0.5593
  943MPD2     N13794   0.857   2.345   9.464  0.6257 -0.1723 -0.3657
  943MPD2    H513795   0.916   2.362   9.383  1.2264 -1.8665 -0.2781
  943MPD2    N113796   0.824   2.050   9.860 -0.0238 -0.1791 -1.0400
  943MPD2    H713797   0.882   1.983   9.911 -0.2466 -0.6856 -1.4502
  944MPD2     C13798   4.668   1.053  10.737  0.3395  0.2405 -0.3217
  944MPD2    C113799   0.045   1.130  10.787  0.3416  0.2769 -0.2158
  944MPD2    C213800   0.055   1.141  10.928  0.7197  0.4231  0.3931
  944MPD2    C313801   4.689   1.076  11.008  0.5650 -0.3474 -0.4955
  944MPD2    C413802   4.583   1.002  10.951 -0.0564 -0.2806  0.1875
  944MPD2    C513803   4.580   0.983  10.815  0.2051  0.0617 -0.1553
  944MPD2     H13804   0.129   1.208  10.969  0.8101  1.8759 -2.2193
  944MPD2    H113805   4.509   0.950  11.009 -1.4265 -0.7737 -1.9962
  944MPD2    H213806   4.655   1.032  10.632 -0.1979 -0.8593 -0.0372
  944MPD2    H313807   4.504   0.917  10.777  0.8416 -0.4657 -0.5174
  944MPD2     N13808   4.705   1.100  11.143  0.3211  0.2121 -0.3201
  944MPD2    H513809   0.050   1.161  11.186  0.1433 -0.3918  0.8341
  944MPD2    N113810   0.139   1.173  10.691  0.3321  0.5602 -0.6602
  944MPD2    H713811   0.124   1.149  10.593  0.6369 -0.0948 -0.5489
    1TCq1    O113812   3.276   1.461  13.757 -0.4095  0.0038  0.0244
    1TCq1    C113813   3.387   1.534  13.767  0.5133  0.6625 -0.2739
    1TCq1    O213814   3.494   1.505  13.714  0.4667 -0.7394  0.1524
    1TCq1    C213815   3.374   1.602  13.892  0.1444 -0.2998 -1.2356
    1TCq1    C313816   3.245   1.621  13.949  0.6651  0.6764 -0.3407
    1TCq1    C413817   3.244   1.670  14.078 -0.0287 -0.6865  0.6077
    1TCq1    C513818   3.362   1.701  14.145  0.2945 -0.4755 -0.6739
    1TCq1    C613819   3.483   1.683  14.081  0.0939 -0.1357  0.2275
    1TCq1    C713820   3.487   1.632  13.957 -0.1036 -0.1154  0.4364
    1TCq1    C813821   3.606   1.673  14.163 -0.9944 -0.8750  0.0550
    1TCq1    O413822   3.687   1.585  14.141 -0.1077  0.0450 -0.2506
    1TCq1    C913823   3.111   1.695  14.136 -0.1453  0.1523 -0.6318
    1TCq1    O513824   3.103   1.723  14.257 -0.0667 -0.2566 -0.5330
    1TCq1    O613825   3.013   1.695  14.058  0.3724 -0.3082  0.4263
    1TCq1    H113826   3.225   1.466  13.841 -1.4657 -2.3187 -0.4716
    1TCq1    H213827   3.152   1.610  13.895 -0.3125  0.4489  1.3880
    1TCq1    H313828   3.360   1.722  14.251  1.5826  1.2300 -0.9988
    1TCq1    H413829   3.583   1.598  13.918  0.2183  0.8361  0.4110
    2MPD2     C13830   3.903   1.875  14.524 -0.3004 -0.4287  1.2191
    2MPD2    C113831   3.782   1.944  14.527 -0.3653  0.0163 -0.2145
    2MPD2    C213832   3.679   1.904  14.438  0.3299 -0.2158 -0.6460
    2MPD2    C313833   3.708   1.803  14.348  0.2257  0.5803 -0.2688
    2MPD2    C413834   3.830   1.738  14.352  0.4295 -0.3241  0.2969
    2MPD2    C513835   3.927   1.780  14.435 -0.4205  0.4474 -0.1360
    2MPD2     H13836   3.575   1.932  14.450  0.1958 -0.8940 -0.1963
    2MPD2    H113837   3.864   1.667  14.277  1.2954 -0.1323  0.5040
    2MPD2    H213838   3.973   1.892  14.605 -1.0837  2.4911  1.2864
    2MPD2    H313839   4.022   1.727  14.432  0.2765  1.7621 -1.3988
    2MPD2     N13840   3.602   1.781  14.253  0.2409 -0.2437 -0.2456
    2MPD2    H513841   3.525   1.847  14.262  1.1211  0.8673 -0.9258
    2MPD2    N113842   3.766   2.037  14.629 -0.0068  0.2954 -0.1337
    2MPD2    H713843   3.838   2.037  14.701  0.8839  0.2087 -1.0093
    3TMC2    C113844   3.656   2.197  14.754  0.8243  0.4411  0.8029
    3TMC2    C213845   3.706   2.162  14.875  0.4125 -0.0665 -0.7049
    3TMC2    C313846   3.747   2.259  14.958 -1.0293 -0.3651 -0.2887
    3TMC2    C413847   3.656   2.325  14.715  0.1655  0.0174  0.4253
    3TMC2    C513848   3.696   2.424  14.802  0.2751  0.1660 -0.1869
    3TMC2    C613849   3.737   2.389  14.930 -0.2609  0.3138 -0.5850
    3TMC2     C13850   3.651   2.116  14.638 -0.3232 -0.4084  1.2031
    3TMC2     O13851   3.567   2.142  14.552  0.0370  0.0311  0.4408
    3TMC2     H13852   3.725   2.060  14.908 -0.4524  0.4351  1.3357
    3TMC2    H113853   3.617   2.360  14.621  2.5083 -0.2788 -0.6557
    3TMC2    H213854   3.773   2.472  14.990 -0.7308  0.5469 -0.6310
    3TMC2    C713855   3.695   2.563  14.770  0.3171  0.9172 -0.1446
    3TMC2    C813856   3.799   2.226  15.084  1.2115 -0.1204 -0.5705
    3TMC2    O113857   3.689   2.647  14.862  0.2946  0.2076  0.8928
    3TMC2    O213858   3.884   2.292  15.134  0.3747  0.3112 -0.4742
    3TMC2    O513859   3.731   2.123  15.146 -0.0019  0.2409 -0.0936
    3TMC2    H513860   3.649   2.101  15.096 -0.4646  0.6512  0.4806
    4MPD2     C13861   3.493   3.467  13.724 -0.7908  0.0048 -0.3252
    4MPD2    C113862   3.446   3.351  13.785  0.4294 -0.0774  0.2674
    4MPD2    C213863   3.528   3.264  13.855 -0.3004 -0.8757 -0.0346
    4MPD2    C313864   3.664   3.288  13.848 -0.3071  0.3153 -0.4348
    4MPD2    C413865   3.713   3.400  13.778 -0.0808 -0.1381 -0.5841
    4MPD2    C513866   3.630   3.490  13.713 -0.1387  0.2409  0.0847
    4MPD2     H13867   3.486   3.182  13.913  0.1773 -1.2395 -0.2008
    4MPD2    H113868   3.817   3.429  13.787  0.4172 -2.3799  0.7889
    4MPD2    H213869   3.431   3.532  13.663  0.7636 -0.8435 -2.7923
    4MPD2    H313870   3.675   3.579  13.669  0.6680 -0.1849  0.0529
    4MPD2     N13871   3.757   3.196  13.904 -0.0957  0.5185 -0.5010
    4MPD2    H513872   3.713   3.126  13.964  0.3602  0.7768  0.1382
    4MPD2    N113873   3.304   3.333  13.762  0.4578 -0.0736  0.0028
    4MPD2    H713874   3.271   3.410  13.704  0.5841 -0.1540 -0.1757
    5TCq2    C113875   3.894   3.186  13.885 -0.1364  0.4396 -0.1996
    5TCq2    O213876   3.972   3.251  13.816  0.2094  0.0343  0.1048
    5TCq2    C213877   3.959   3.078  13.961 -0.3704  0.0111 -0.1835
    5TCq2    C313878   4.089   3.061  13.939  0.1434  0.1601  0.7874
    5TCq2    C413879   4.160   2.961  13.987 -0.8667  0.0102 -0.5952
    5TCq2    C513880   4.097   2.868  14.062  0.2644  0.4466  0.2916
    5TCq2    C613881   3.957   2.879  14.080 -0.0174  0.3142  0.3189
    5TCq2    C713882   3.888   2.987  14.032  0.2021  0.6222 -0.5160
    5TCq2    C813883   3.894   2.801  14.184 -0.9087  0.2012  0.2214
    5TCq2    O413884   3.941   2.689  14.204  1.0407 -0.4235  0.1670
    5TCq2    C913885   4.307   2.958  13.982  0.6899  0.6402 -0.3953
    5TCq2    O513886   4.374   3.043  13.918  0.9649 -0.0730  0.7139
    5TCq2    O613887   4.358   2.863  14.046 -0.2651 -0.4236  0.5177
    5TCq2    H213888   4.145   3.139  13.888  0.1506  0.0619  0.6443
    5TCq2    H313889   4.158   2.802  14.123  0.3067  0.6101  0.4260
    5TCq2    H413890   3.780   2.980  14.026  0.2026  0.5586 -0.4518
    6MPD1     C13891   2.599   3.207  12.035 -0.4827 -0.4748 -0.2765
    6MPD1    C113892   2.643   3.336  12.059 -0.5061 -0.2626  0.7108
    6MPD1    C213893   2.710   3.362  12.170 -0.0227  0.3419 -0.4350
    6MPD1    C313894   2.757   3.258  12.254  0.1830  0.7539 -0.4842
    6MPD1    C413895   2.719   3.130  12.220  0.4379  0.4349 -0.0923
    6MPD1    C513896   2.640   3.105  12.110 -0.4953  0.2573  0.7937
    6MPD1     H13897   2.724   3.466  12.199  2.0481 -0.1156  0.2104
    6MPD1    H113898   2.734   3.049  12.290 -1.3493  0.9464  0.8614
    6MPD1    H213899   2.543   3.184  11.945 -0.4229  1.4639 -0.8147
    6MPD1    H313900   2.603   3.005  12.091 -1.3493  1.1859 -2.4583
    6MPD1     N13901   2.820   3.278  12.380 -0.2602 -0.1404 -0.7998
    6MPD1    H513902   2.827   3.195  12.438  0.2755 -0.2230 -0.9866
    6MPD1    N113903   2.596   3.441  11.984  0.3651 -0.8808  0.5870
    6MPD1    H613904   2.597   3.416  11.885  3.0232 -3.3196  1.2183
    6MPD1    H713905   2.648   3.529  11.990 -1.8007  0.4082  0.7286
    7MPD2     C13906   2.943   3.735  13.105 -0.2411 -0.1868  0.1470
    7MPD2    C113907   2.991   3.611  13.102  0.0430  0.2146 -0.2567
    7MPD2    C213908   3.030   3.552  13.217 -0.0558 -0.1596  0.3129
    7MPD2    C313909   3.003   3.606  13.339 -0.0780 -0.0672  0.2404
    7MPD2    C413910   2.950   3.737  13.345  0.6145  0.2921  0.1903
    7MPD2    C513911   2.911   3.793  13.230 -0.1545  0.4390 -0.4696
    7MPD2     H13912   3.074   3.453  13.214 -0.1604 -0.2546  2.0380
    7MPD2    H113913   2.919   3.779  13.440 -0.0498  2.6940 -1.0724
    7MPD2    H213914   2.923   3.795  13.018 -0.6995 -0.3978  0.1075
    7MPD2    H313915   2.862   3.890  13.235  0.5779  0.8594 -1.4972
    7MPD2     N13916   2.997   3.541  13.467 -0.1384 -0.4924  0.2226
    7MPD2    H513917   2.985   3.596  13.551 -0.8584  1.3628 -1.0953
    7MPD2    N113918   3.016   3.538  12.986 -0.3542 -0.0540 -0.1315
    7MPD2    H713919   3.050   3.443  12.994  0.6979  0.3580  0.3913
    8TMC3    C113920   2.933   3.354  13.607 -0.8728  0.0883 -0.1784
    8TMC3    C213921   3.040   3.352  13.690 -0.0527 -0.1385 -0.1662
    8TMC3    C313922   3.089   3.236  13.741  0.2169  0.3181  0.1032
    8TMC3    C413923   2.862   3.240  13.582 -0.2692  0.4835  0.1246
    8TMC3    C513924   2.902   3.117  13.639  0.3824  0.7168 -0.0129
    8TMC3    C613925   3.016   3.121  13.717  0.4482 -0.6093 -0.3720
    8TMC3     C13926   2.967   3.407  13.471 -0.2198  0.4462  0.5800
    8TMC3     O13927   2.966   3.312  13.395  0.1893 -0.0677 -0.1457
    8TMC3     H13928   3.087   3.446  13.716 -1.8155  1.7597 -3.8793
    8TMC3    H113929   2.769   3.243  13.526  0.6630 -1.2982 -1.5107
    8TMC3    H213930   3.050   3.025  13.757 -2.7592 -0.5795  2.4135
    8TMC3    C713931   2.896   3.001  13.549  0.0941  0.4760 -0.5974
    8TMC3    C813932   3.221   3.232  13.798  0.0024  1.2059  0.5609
    8TMC3    O113933   2.920   2.883  13.578 -0.4862 -0.5936  0.2338
    8TMC3    O213934   3.257   3.130  13.851  0.4344 -0.5559  0.2191
    9TMC3    C113935   2.871   3.375  12.579  0.9569 -0.7781  0.4086
    9TMC3    C213936   2.841   3.259  12.645  0.2246  0.7714  0.2714
    9TMC3    C313937   2.845   3.250  12.780  0.4894 -0.0263 -0.8178
    9TMC3    C413938   2.930   3.480  12.650  0.7255  0.4289 -0.0644
    9TMC3    C513939   2.940   3.465  12.787 -0.6339  0.1540 -0.3431
    9TMC3    C613940   2.886   3.358  12.852  0.0489 -0.0575 -1.0276
    9TMC3     C13941   2.839   3.395  12.440  0.3265  0.2453  0.1855
    9TMC3     O13942   2.862   3.504  12.390  0.0539  0.5995 -0.0987
    9TMC3     H13943   2.782   3.186  12.590  0.8614  0.1079  0.4723
    9TMC3    H113944   2.949   3.576  12.603  1.5167 -0.3924 -1.4201
    9TMC3    H213945   2.840   3.368  12.949  0.4341  0.1346 -0.8630
    9TMC3    C713946   2.963   3.581  12.866  0.1360 -0.2413  0.6512
    9TMC3    C813947   2.794   3.132  12.851 -0.4536 -0.5115  0.1912
    9TMC3    O113948   2.898   3.676  12.834 -0.5559 -0.4038  0.6201
    9TMC3    O213949   2.729   3.047  12.796  0.5044 -0.1337 -0.7041
   10MPD2     C13950   2.843   2.854  13.292  0.0062  0.4079  0.1491
   10MPD2    C113951   2.867   2.992  13.304 -0.2107 -0.7518  0.0019
   10MPD2    C213952   2.879   3.076  13.195 -0.6639 -0.4362  0.3784
   10MPD2    C313953   2.856   3.029  13.069 -0.1000 -0.7393 -0.5241
   10MPD2    C413954   2.804   2.898  13.060 -0.0603  0.0367  0.2990
   10MPD2    C513955   2.812   2.807  13.165 -0.0631 -0.5496  0.0941
   10MPD2     H13956   2.893   3.181  13.215  2.1272 -0.3238 -2.1834
   10MPD2    H113957   2.769   2.856  12.967  1.7861  0.4222 -0.5713
   10MPD2    H213958   2.856   2.789  13.378  1.7688 -0.8128 -1.0371
   10MPD2    H313959   2.786   2.705  13.143  0.0296 -0.2776 -1.2561
   10MPD2     N13960   2.848   3.135  12.970 -0.0649 -0.3199 -0.3309
   10MPD2    H513961   2.890   3.214  13.019  0.3856 -1.5329  1.2676
   10MPD2    N113962   2.892   3.057  13.426 -0.2739  0.0925  1.0471
   10MPD2    H713963   2.901   3.158  13.425  2.4744 -0.1524  1.4906
   11MPD2     C13964   3.630   2.817  14.631  0.7035  0.9660 -0.3078
   11MPD2    C113965   3.698   2.715  14.568 -0.6854  0.9166 -0.8654
   11MPD2    C213966   3.769   2.727  14.454 -0.1120  0.2838  0.3591
   11MPD2    C313967   3.751   2.843  14.381  0.0633  0.2673 -0.1392
   11MPD2    C413968   3.684   2.952  14.436 -1.2837  0.4529  0.6181
   11MPD2    C513969   3.619   2.928  14.559  1.0023 -0.3920 -0.2510
   11MPD2     H13970   3.821   2.641  14.411  1.1216  0.4874  1.4676
   11MPD2    H113971   3.670   3.039  14.373 -1.2994  1.0917  1.5218
   11MPD2    H213972   3.576   2.818  14.725  0.4375  1.2575 -0.4610
   11MPD2    H313973   3.555   3.006  14.600 -0.4579 -1.8240  0.1832
   11MPD2     N13974   3.806   2.877  14.253  0.2224 -0.5699  0.9692
   11MPD2    H513975   3.787   2.973  14.224 -0.7585 -1.2708 -0.6825
   11MPD2    N113976   3.705   2.585  14.638  0.1169  0.0791  0.2538
   11MPD2    H713977   3.752   2.507  14.595  1.2866  1.0135 -0.1715
    1MPD1     C13978   2.168   3.092  16.881  0.0605 -0.5073 -0.1086
    1MPD1    C113979   2.229   3.215  16.846 -0.1422 -0.4297  0.0465
    1MPD1    C213980   2.143   3.323  16.839  0.6424  0.3906  0.6241
    1MPD1    C313981   2.006   3.304  16.847 -0.0591  0.6623 -0.0556
    1MPD1    C413982   1.952   3.183  16.887 -0.0252  0.2293 -1.1186
    1MPD1    C513983   2.033   3.073  16.913  0.3671 -0.3143 -0.3688
    1MPD1     H13984   2.190   3.419  16.823  2.2793 -0.6302 -0.7469
    1MPD1    H113985   1.845   3.168  16.894 -0.0421  0.8645  0.0042
    1MPD1    H213986   2.227   3.004  16.908 -1.0397 -1.0294  0.5938
    1MPD1    H313987   1.991   2.975  16.928 -0.7946  0.2923  0.3226
    1MPD1     N13988   1.929   3.417  16.821 -0.3528 -0.0831 -0.3502
    1MPD1    H513989   1.983   3.492  16.779 -0.3775 -0.1420 -0.4873
    1MPD1    N113990   2.365   3.231  16.859  0.0700 -0.6569  0.4763
    1MPD1    H613991   2.412   3.145  16.832  0.6465 -0.0250 -0.5032
    1MPD1    H713992   2.403   3.304  16.801  0.4848 -1.4704 -0.2801
    2MPD1     C13993   2.273   3.886  16.261  0.3856 -0.3257  0.0236
    2MPD1    C113994   2.291   3.772  16.335  0.2784  0.2170  0.7226
    2MPD1    C213995   2.187   3.729  16.412 -0.1482 -0.1923  0.1950
    2MPD1    C313996   2.070   3.799  16.420  0.3645 -0.2003 -0.4060
    2MPD1    C413997   2.059   3.915  16.348 -0.6228  0.0378  0.5798
    2MPD1    C513998   2.158   3.960  16.272  0.6574  0.0513 -0.2208
    2MPD1     H13999   2.190   3.633  16.463 -1.1880 -0.0089  0.5963
    2MPD1    H114000   1.968   3.973  16.356 -0.0542  1.0774 -0.3260
    2MPD1    H214001   2.347   3.933  16.197 -0.2034  1.9678  0.9936
    2MPD1    H314002   2.147   4.052  16.214 -0.8785 -0.3745 -0.5984
    2MPD1     N14003   1.965   3.745  16.496  0.2197  0.2201 -0.0038
    2MPD1    H514004   1.975   3.655  16.542  0.4141  0.3830  0.2767
    2MPD1    N114005   2.414   3.715  16.335  0.3088 -0.3979  0.1331
    2MPD1    H614006   2.457   3.736  16.245  1.2515 -0.1281  0.6451
    2MPD1    H714007   2.406   3.616  16.358 -0.1391 -0.3714  0.0850
    3TMC3    C114008   1.761   3.715  16.603 -0.0288  0.2695  0.9046
    3TMC3    C214009   1.633   3.758  16.649 -0.2658  1.0029 -0.3808
    3TMC3    C314010   1.570   3.699  16.752 -0.4058 -0.1967 -0.1597
    3TMC3    C414011   1.822   3.604  16.660 -0.3792  0.0293  0.4657
    3TMC3    C514012   1.753   3.555  16.770 -0.1374  0.0167 -0.0976
    3TMC3    C614013   1.628   3.590  16.811  1.1055  0.2629  0.3821
    3TMC3     C14014   1.841   3.800  16.521  0.0459  0.6111  0.1200
    3TMC3     O14015   1.793   3.907  16.486  0.5361  0.0877  0.5151
    3TMC3     H14016   1.583   3.849  16.617  1.1255  2.0636  0.4632
    3TMC3    H114017   1.892   3.543  16.604 -1.4882  0.0510 -0.9271
    3TMC3    H214018   1.570   3.525  16.876 -0.5630  1.3024 -0.0624
    3TMC3    C714019   1.792   3.424  16.823 -0.1610  0.1153  0.7139
    3TMC3    C814020   1.443   3.749  16.798 -0.3390 -0.1058 -0.5862
    3TMC3    O114021   1.711   3.350  16.886 -0.2745  0.5067  0.0394
    3TMC3    O214022   1.393   3.838  16.728 -0.3176 -0.3952 -0.2020
    4MPD1     C14023   1.112   3.845  17.185  0.4713 -0.7766  0.0942
    4MPD1    C114024   1.175   3.727  17.210  0.5726  0.3923 -0.1474
    4MPD1    C214025   1.276   3.683  17.126 -0.0122 -0.7405 -0.3226
    4MPD1    C314026   1.312   3.762  17.017 -0.3338 -0.0551 -0.7404
    4MPD1    C414027   1.231   3.870  16.984 -0.5614 -0.1604  0.3059
    4MPD1    C514028   1.132   3.912  17.069 -0.7664 -0.0658 -0.1527
    4MPD1     H14029   1.334   3.595  17.154  1.3109  0.0235 -0.6713
    4MPD1    H114030   1.254   3.926  16.894  1.0304 -1.4281 -0.0720
    4MPD1    H214031   1.046   3.896  17.254  2.4302 -0.6098  1.8271
    4MPD1    H314032   1.073   3.998  17.041 -0.9113 -0.0941  0.0723
    4MPD1     N14033   1.414   3.708  16.930 -0.3760  0.3051 -0.1505
    4MPD1    H514034   1.460   3.629  16.974 -1.4531 -0.2744 -0.0732
    4MPD1    N114035   1.157   3.660  17.332 -0.4494 -0.1851 -0.2514
    4MPD1    H614036   1.140   3.561  17.318 -1.4299 -0.2880  1.5503
    4MPD1    H714037   1.073   3.695  17.379 -0.6518  0.5641 -1.1804
    1TCq1    O114038   1.950   4.187  11.227  0.5003  0.2758  0.6920
    1TCq1    C114039   1.978   4.262  11.116  0.0781 -0.0229  0.9176
    1TCq1    O214040   1.911   4.259  11.012 -0.5225 -0.7072  0.0283
    1TCq1    C214041   2.123   4.291  11.105 -0.0045  0.3621 -0.6610
    1TCq1    C314042   2.197   4.345  11.214 -0.0595 -0.4517 -0.3935
    1TCq1    C414043   2.308   4.420  11.191  1.2092 -0.2468 -0.4545
    1TCq1    C514044   2.367   4.425  11.066  0.4767 -0.1173  0.1495
    1TCq1    C614045   2.287   4.375  10.965 -0.3483  0.6141 -0.1746
    1TCq1    C714046   2.161   4.328  10.979  0.3760 -0.7113 -0.2809
    1TCq1    C814047   2.330   4.376  10.823  0.2007 -0.2509  0.4744
    1TCq1    O414048   2.257   4.325  10.741  0.4711  0.6402 -0.9035
    1TCq1    C914049   2.396   4.438  11.301  0.1063  0.1836  0.6366
    1TCq1    O514050   2.337   4.430  11.409  0.1538  0.7663 -0.5971
    1TCq1    O614051   2.519   4.440  11.283  0.5389  0.5674  0.4529
    1TCq1    H114052   2.017   4.191  11.299  3.3627 -0.4163 -1.9155
    1TCq1    H214053   2.157   4.337  11.314  0.7206  2.8422  0.1845
    1TCq1    H314054   2.470   4.460  11.059  0.3056  0.3234 -0.1763
    1TCq1    H414055   2.093   4.300  10.899 -1.0692  0.8830  0.3801
    2MPD1     C14056   2.622   4.520  10.416  0.0397  0.6001  0.5806
    2MPD1    C114057   2.620   4.613  10.516 -0.2888 -0.0786  0.3340
    2MPD1    C214058   2.567   4.589  10.636  0.1035  0.2318 -0.1487
    2MPD1    C314059   2.492   4.477  10.668  0.2431  0.1969  0.3290
    2MPD1    C414060   2.485   4.387  10.562 -0.3167 -0.2736 -0.8212
    2MPD1    C514061   2.558   4.402  10.452  0.0746 -0.3026  0.8356
    2MPD1     H14062   2.574   4.665  10.714  0.4295  1.7628 -1.6747
    2MPD1    H114063   2.436   4.291  10.579  2.1194 -1.7514 -2.3003
    2MPD1    H214064   2.653   4.540  10.314  0.8546 -1.3414  0.4456
    2MPD1    H314065   2.566   4.323  10.378  0.7146  1.2278 -0.7432
    2MPD1     N14066   2.436   4.459  10.793  0.8552 -0.2580  0.2784
    2MPD1    H514067   2.474   4.528  10.858  1.7607 -1.7586  1.3507
    2MPD1    N114068   2.678   0.008  10.491  0.4307  0.1582  0.2716
    2MPD1    H614069   2.654   0.045  10.399  0.3241  1.2933  0.7471
    2MPD1    H714070   2.638   0.072  10.560  1.5699 -1.2289  2.2265
    1TCq1    O114071   1.230   4.552   0.967 -0.2450  0.5117 -1.0691
    1TCq1    C114072   1.151   4.447   0.947  0.8675 -0.3460  0.6365
    1TCq1    O214073   1.031   4.440   0.925  0.2072 -0.1041  0.0994
    1TCq1    C214074   1.230   4.341   0.997  0.0599 -0.5414 -1.1258
    1TCq1    C314075   1.177   4.253   1.083 -0.2296 -0.5399  0.8906
    1TCq1    C414076   1.245   4.138   1.113 -0.2572  0.2978 -0.0932
    1TCq1    C514077   1.376   4.122   1.067  0.1047 -0.6071  0.8055
    1TCq1    C614078   1.430   4.214   0.983 -0.7259  0.2091 -0.6300
    1TCq1    C714079   1.359   4.330   0.948 -0.4272  0.6975  0.2613
    1TCq1    C814080   1.568   4.204   0.935  0.0345  0.0515 -0.0451
    1TCq1    O414081   1.605   4.279   0.843 -0.5226  0.2971  0.2432
    1TCq1    C914082   1.215   4.074   1.236  0.4932 -0.3167 -0.5651
    1TCq1    O514083   1.299   3.993   1.282 -0.2686  0.0677  0.6778
    1TCq1    O614084   1.108   4.113   1.300 -0.1481 -0.2500 -0.2464
    1TCq1    H114085   1.324   4.529   0.984 -0.0245  0.4232 -2.4009
    1TCq1    H214086   1.099   4.285   1.150  0.8436  1.0869  1.3670
    1TCq1    H314087   1.421   4.036   1.115  2.1430  0.3201  0.5332
    1TCq1    H414088   1.403   4.402   0.880  0.2834 -0.8703 -0.9333
    2MPD1     C14089   2.025   3.959   0.951  0.3353 -0.0304  0.4160
    2MPD1    C114090   1.931   3.886   1.025 -0.3905 -0.7206  0.3966
    2MPD1    C214091   1.804   3.937   1.033 -0.4219  0.1557  0.5935
    2MPD1    C314092   1.764   4.056   0.981  0.2420 -0.1581 -0.0254
    2MPD1    C414093   1.858   4.133   0.918  0.6776 -0.4341  0.0539
    2MPD1    C514094   1.985   4.082   0.898  0.0899  0.2951  0.1628
    2MPD1     H14095   1.731   3.883   1.094  0.0844  1.7634  2.6175
    2MPD1    H114096   1.828   4.232   0.886 -1.8653 -1.7428 -1.5934
    2MPD1    H214097   2.120   3.910   0.932  0.1370  1.0568 -3.4156
    2MPD1    H314098   2.053   4.153   0.854 -1.5401  0.6935 -1.7014
    2MPD1     N14099   1.629   4.095   0.998  0.1021  0.1829  0.2587
    2MPD1    H514100   1.576   4.033   1.058 -0.8844  0.0218 -0.7814
    2MPD1    N114101   1.953   3.759   1.070 -0.3748  0.1676 -0.2509
    2MPD1    H614102   2.054   3.747   1.073 -0.2101  1.3269 -1.1788
    2MPD1    H714103   1.917   3.760   1.165 -0.3634 -0.2623 -0.2426
    1MPD1     C14104   3.427   3.754  12.089  0.1289 -0.8291  0.1341
    1MPD1    C114105   3.513   3.720  11.990  0.3579 -0.5616 -0.2207
    1MPD1    C214106   3.622   3.803  11.968 -0.0217 -0.1359 -0.1376
    1MPD1    C314107   3.635   3.923  12.040  0.4373  0.1080 -0.3932
    1MPD1    C414108   3.540   3.964  12.132  0.2751 -0.5046 -0.0882
    1MPD1    C514109   3.440   3.875  12.153  0.2595 -1.1187 -0.4815
    1MPD1     H14110   3.701   3.763  11.906  0.7364 -0.7317  1.2228
    1MPD1    H114111   3.555   4.052  12.193 -3.7373  0.3366 -0.3128
    1MPD1    H214112   3.345   3.696  12.128 -0.5041  2.3726  3.6511
    1MPD1    H314113   3.357   3.903  12.218  2.3687 -1.3168  2.2959
    1MPD1     N14114   3.753   3.999  12.007  0.0130 -0.0160 -0.0700
    1MPD1    H514115   3.814   3.951  11.941  0.2251 -0.6707  0.6143
    1MPD1    N114116   3.502   3.596  11.917  0.8707  0.0300  0.1592
    1MPD1    H614117   3.534   3.597  11.820 -1.9897 -1.7497 -0.7970
    1MPD1    H714118   3.408   3.557  11.916  0.4045  1.1802  0.4388
    2MPD1     C14119   3.365   0.114  10.495 -0.1277 -0.3860  0.2256
    2MPD1    C114120   3.499   0.103  10.470 -0.1290  0.0972 -0.1858
    2MPD1    C214121   3.552   4.700  10.445 -0.0513 -0.0838 -0.1446
    2MPD1    C314122   3.478   4.586  10.450 -0.2002  0.4851  0.2144
    2MPD1    C414123   3.346   4.604  10.473 -0.0448  0.4776  0.3606
    2MPD1    C514124   3.290   0.007  10.482  0.1198  1.0041 -0.0970
    2MPD1     H14125   3.659   4.691  10.426 -0.1213 -1.3400  0.0244
    2MPD1    H114126   3.284   4.515  10.476 -0.2775  0.5959 -0.9684
    2MPD1    H214127   3.314   0.209  10.510  0.9599  0.3116 -0.4120
    2MPD1    H314128   3.184   0.022  10.497 -0.0018 -1.2298  1.3103
    2MPD1     N14129   3.533   4.458  10.436 -0.5053 -0.3741 -0.0168
    2MPD1    H514130   3.468   4.381  10.445  0.1295 -0.9648 -0.4572
    2MPD1    N114131   3.579   0.213  10.495  0.1196 -0.2636 -0.1974
    2MPD1    H614132   3.533   0.299  10.466  1.2621 -0.6632 -3.2277
    2MPD1    H714133   3.671   0.201  10.453  0.9327  0.9600  1.2447
    3MPD1     C14134   3.123   3.741  10.242  0.1774  0.5724  0.9340
    3MPD1    C114135   3.101   3.845  10.331  0.4193 -0.3260 -0.0414
    3MPD1    C214136   3.215   3.918  10.365 -0.2201 -0.1730  0.5354
    3MPD1    C314137   3.338   3.897  10.305  0.4934  0.0566 -0.3445
    3MPD1    C414138   3.351   3.798  10.220 -0.9055  0.5114  0.5244
    3MPD1    C514139   3.248   3.718  10.194 -0.4369  0.3629 -0.2370
    3MPD1     H14140   3.209   3.997  10.439 -1.0967  0.0892  0.1879
    3MPD1    H114141   3.443   3.779  10.167 -0.5640 -1.0757  1.6732
    3MPD1    H214142   3.041   3.681  10.203  2.2159  0.5740 -3.2756
    3MPD1    H314143   3.273   3.646  10.116  0.5196 -0.4506  0.8329
    3MPD1     N14144   3.443   3.978  10.348 -0.1218  0.1813  0.5168
    3MPD1    H514145   3.405   4.057  10.399 -1.3144 -0.0249 -0.0486
    3MPD1    N114146   2.980   3.863  10.399  0.2289 -0.3914  0.0146
    3MPD1    H614147   2.896   3.832  10.350  0.9705 -0.0495 -1.4776
    3MPD1    H714148   2.972   3.961  10.427  0.1533 -1.2767  3.0640
    4MPD2     C14149   4.191   4.585  11.607 -0.1163 -0.0560  0.3382
    4MPD2    C114150   4.222   4.457  11.651 -0.4496 -0.1134  0.4326
    4MPD2    C214151   4.303   4.373  11.574 -0.8933  0.1265  0.1230
    4MPD2    C314152   4.322   4.398  11.439  0.2655 -0.0448 -0.2943
    4MPD2    C414153   4.290   4.527  11.393 -0.7870  0.1601 -0.5757
    4MPD2    C514154   4.217   4.621  11.478 -0.3675  0.4080  0.4342
    4MPD2     H14155   4.331   4.280  11.622 -2.4728 -0.2433  0.3400
    4MPD2    H114156   4.296   4.558  11.290 -0.6427  0.4485 -0.4816
    4MPD2    H214157   4.121   4.647  11.663 -1.2761 -0.7539 -0.3357
    4MPD2    H314158   4.182   4.715  11.436  1.1782  1.0864  0.6705
    4MPD2     N14159   4.387   4.304  11.353  0.2403 -0.3015  0.1453
    4MPD2    H514160   4.408   4.331  11.257 -0.0511 -0.1582  0.1245
    4MPD2    N114161   4.178   4.401  11.771 -0.4331 -0.1858  0.3121
    4MPD2    H714162   4.217   4.310  11.794  1.7855  0.9557  1.1455
    5TMC3    C114163   4.068   4.364  11.984  0.3483  0.2730 -0.0282
    5TMC3    C214164   3.940   4.312  12.000  0.7538  0.1378  0.3513
    5TMC3    C314165   3.908   4.178  12.003  0.1755  0.5849  0.3913
    5TMC3    C414166   4.160   4.267  11.982 -0.5093  0.0914  0.1534
    5TMC3    C514167   4.130   4.131  11.987 -0.8290  0.0168 -0.0915
    5TMC3    C614168   4.006   4.083  12.007  0.6051  0.4258 -0.2190
    5TMC3     C14169   4.083   4.450  11.866  0.4896 -0.4964 -0.0060
    5TMC3     O14170   3.989   4.524  11.854  0.3856 -0.1025  0.1231
    5TMC3     H14171   3.860   4.382  11.980  1.5037  0.2587 -2.1933
    5TMC3    H114172   4.262   4.303  11.974 -0.2559 -0.8469 -0.6985
    5TMC3    H214173   3.987   3.977  12.011  1.5490  0.3096  1.0958
    5TMC3    C714174   4.210   4.058  11.889 -0.4895 -0.2852 -0.2559
    5TMC3    C814175   3.776   4.132  12.038  0.7099  0.1998  0.3006
    5TMC3    O114176   4.255   4.128  11.797  0.2326 -0.5144  0.0088
    5TMC3    O214177   3.705   4.212  12.099  0.2559  0.6974  0.0794
    6TMC3    C114178   3.687   4.277  10.444 -0.2485 -0.7467 -0.9149
    6TMC3    C214179   3.605   4.191  10.372  0.3886  0.4579  0.5936
    6TMC3    C314180   3.658   4.063  10.355  0.2172 -0.8273  0.1284
    6TMC3    C414181   3.815   4.242  10.488 -0.4797 -0.3443  0.5761
    6TMC3    C514182   3.864   4.117  10.466  0.6639  0.4049 -0.3870
    6TMC3    C614183   3.780   4.027  10.398 -0.1980 -0.0308  0.3971
    6TMC3     C14184   3.667   4.422  10.424 -1.0887  0.1468 -0.1028
    6TMC3     O14185   3.765   4.493  10.427  0.0911  0.1221 -0.0375
    6TMC3     H14186   3.528   4.229  10.307 -0.5182 -0.2030  1.2899
    6TMC3    H114187   3.875   4.315  10.541  0.0869  0.3461 -1.0130
    6TMC3    H214188   3.824   3.932  10.372 -0.4334  0.3473 -1.3402
    6TMC3    C714189   3.969   4.068  10.551  0.3098  0.0095 -0.1557
    6TMC3    C814190   3.577   3.949  10.320 -0.1597 -0.0958  0.1510
    6TMC3    O114191   4.013   4.147  10.630  0.3376 -0.2514 -0.1623
    6TMC3    O214192   3.635   3.858  10.260 -0.1950 -0.1122 -0.4200
    7MPD2     C14193   4.379   3.645  11.650 -0.1643  0.1325 -0.5486
    7MPD2    C114194   4.402   3.779  11.628 -0.9579 -0.0384 -0.6152
    7MPD2    C214195   4.361   3.871  11.723 -0.7246  0.1362 -0.2448
    7MPD2    C314196   4.289   3.836  11.835 -0.4855 -0.4953  0.1700
    7MPD2    C414197   4.288   3.703  11.870  0.0800 -0.5997 -0.2321
    7MPD2    C514198   4.319   3.614  11.769 -0.9183 -0.4554 -0.4163
    7MPD2     H14199   4.384   3.972  11.693 -1.4682  0.3050 -0.2665
    7MPD2    H114200   4.217   3.671  11.945 -1.6375 -0.3525 -1.7466
    7MPD2    H214201   4.401   3.561  11.584  1.4487 -0.6335  0.9809
    7MPD2    H314202   4.300   3.510  11.793 -1.3756 -0.9750 -3.0405
    7MPD2     N14203   4.227   3.929  11.922 -0.1375  0.2573 -0.2520
    7MPD2    H514204   4.193   3.908  12.015  1.2367  2.3614  0.7378
    7MPD2    N114205   4.459   3.832  11.508  0.5040 -0.0851 -0.3621
    7MPD2    H714206   4.463   3.934  11.502  0.2617 -0.0941 -0.6726
    8TMC3    C114207   4.481   3.866  11.277 -0.1941 -0.2368  0.0694
    8TMC3    C214208   4.387   3.855  11.177  0.1573 -0.2090  0.7670
    8TMC3    C314209   4.326   3.968  11.125  0.3278 -0.2109  0.5397
    8TMC3    C414210   4.534   3.990  11.307  0.0125  0.4908  0.1072
    8TMC3    C514211   4.468   4.101  11.263 -0.1829  0.1477 -0.1178
    8TMC3    C614212   4.364   4.090  11.172 -0.2815  0.8682 -0.2920
    8TMC3     C14213   4.454   3.772  11.387 -0.5174  0.2323 -0.2725
    8TMC3     O14214   4.432   3.657  11.352 -0.5662  0.1596 -0.4852
    8TMC3     H14215   4.355   3.758  11.140  1.0075  0.0695 -0.7164
    8TMC3    H114216   4.617   3.997  11.377  1.3367 -0.0534 -1.3972
    8TMC3    H214217   4.326   4.186  11.138  1.7843  2.4119  1.7559
    8TMC3    C714218   4.425   4.173  11.381  0.1765  0.0464 -0.0472
    8TMC3    C814219   4.260   3.967  10.990  0.0689  0.5089 -0.5721
    8TMC3    O114220   4.420   4.120  11.491 -0.1809 -0.2603  0.3650
    8TMC3    O214221   4.179   4.054  10.965 -0.8547  0.3231  0.1264
    9MPD2     C14222   4.321   3.739  10.721 -0.3009  0.0807  0.9305
    9MPD2    C114223   4.275   3.849  10.777 -0.0685 -0.0727  0.0337
    9MPD2    C214224   4.178   3.928  10.705  0.0982  0.7820  0.2362
    9MPD2    C314225   4.123   3.879  10.581 -0.1648 -0.0614  0.3823
    9MPD2    C414226   4.159   3.751  10.542 -0.0114  0.0991 -0.5478
    9MPD2    C514227   4.253   3.682  10.611  0.5187 -0.8137 -0.3091
    9MPD2     H14228   4.155   4.027  10.744  0.8432  0.9244  0.3155
    9MPD2    H114229   4.137   3.706  10.446 -2.3795 -1.8669  0.9005
    9MPD2    H214230   4.390   3.672  10.770  0.0054 -0.3918 -0.1371
    9MPD2    H314231   4.290   3.596  10.557  2.7981  0.1171 -0.2424
    9MPD2     N14232   4.023   3.947  10.516 -0.2560 -0.3213 -0.1525
    9MPD2    H514233   3.979   3.901  10.437 -0.5484  1.4522 -1.0184
    9MPD2    N114234   4.324   3.876  10.908  0.0777 -0.3852 -0.1981
    9MPD2    H714235   4.402   3.816  10.933  0.4421 -0.9516 -2.6615
    1MPD1     C14236   4.246   3.208  16.840  0.0088  0.4903  0.0912
    1MPD1    C114237   4.310   3.178  16.717  0.3243  0.0942  0.5637
    1MPD1    C214238   4.248   3.101  16.621  0.5501 -0.1655  0.2199
    1MPD1    C314239   4.136   3.033  16.653 -0.3015  1.0595 -0.1473
    1MPD1    C414240   4.070   3.050  16.772 -0.0896 -1.1246  0.2290
    1MPD1    C514241   4.129   3.141  16.861 -0.0200 -0.1457  0.1068
    1MPD1     H14242   4.296   3.098  16.524 -1.8695 -0.3615 -0.9629
    1MPD1    H114243   3.978   2.999  16.798 -0.1604 -1.3632 -0.4979
    1MPD1    H214244   4.287   3.280  16.910 -1.4466  0.3215  1.0997
    1MPD1    H314245   4.080   3.164  16.956 -0.6960 -0.6857 -0.1138
    1MPD1     N14246   4.079   2.935  16.570 -0.4898  0.2584 -0.0511
    1MPD1    H514247   3.992   2.896  16.603 -0.2275  1.4205  2.0548
    1MPD1    N114248   4.423   3.252  16.678  0.4109 -0.9053  0.3134
    1MPD1    H614249   4.487   3.199  16.619  0.3748  3.1054 -3.2820
    1MPD1    H714250   4.471   3.267  16.766  2.2511 -2.2583 -0.4443
    2MPD1     C14251   3.966   2.691  15.606 -0.3442  0.4745 -0.5338
    2MPD1    C114252   3.957   2.812  15.666  0.1755 -0.4208  0.4756
    2MPD1    C214253   3.949   2.821  15.806 -0.5787  0.1579  0.0146
    2MPD1    C314254   3.942   2.706  15.881  0.3737 -0.0098 -0.2555
    2MPD1    C414255   3.960   2.584  15.825 -0.0548 -0.7282 -0.3878
    2MPD1    C514256   3.974   2.579  15.689  0.1349  0.2104  0.1197
    2MPD1     H14257   3.936   2.919  15.852 -1.5510 -0.4357  1.0089
    2MPD1    H114258   3.964   2.487  15.873 -0.3437 -2.1006 -3.1093
    2MPD1    H214259   3.954   2.668  15.501  0.9386  0.1153 -0.6108
    2MPD1    H314260   3.994   2.487  15.637 -0.5468 -1.5804  3.0240
    2MPD1     N14261   3.929   2.725  16.016 -0.0909 -0.1473  0.1306
    2MPD1    H514262   3.941   2.818  16.055  0.0387  0.1626 -0.6436
    2MPD1    N114263   3.918   2.919  15.580 -0.1425  0.5058 -0.0364
    2MPD1    H614264   3.942   3.007  15.624  1.3435 -0.7246  1.6458
    2MPD1    H714265   3.961   2.923  15.488 -1.0473  1.9711 -0.3813
    3TCq2    C114266   3.907   2.625  16.104  0.4643 -0.1539 -0.2982
    3TCq2    O214267   3.851   2.517  16.078  0.7031 -0.1494 -0.6601
    3TCq2    C214268   3.919   2.670  16.243  0.0611 -0.1825  0.3341
    3TCq2    C314269   3.868   2.590  16.338 -0.0628 -0.0021  0.0371
    3TCq2    C414270   3.911   2.600  16.468  0.1869  0.4542  0.7921
    3TCq2    C514271   3.988   2.704  16.505  0.1136  0.9777 -0.1632
    3TCq2    C614272   4.043   2.779  16.406  0.6528 -0.6563  0.3067
    3TCq2    C714273   4.017   2.764  16.274 -0.0420 -0.0698 -0.0597
    3TCq2    C814274   4.131   2.885  16.453  0.0222 -0.0140 -0.3240
    3TCq2    O414275   4.231   2.903  16.387 -0.1699 -0.8766 -0.1692
    3TCq2    C914276   3.875   2.498  16.563  0.1405 -0.1484 -0.0145
    3TCq2    O514277   3.907   2.531  16.684  0.5468  0.0688 -0.5598
    3TCq2    O614278   3.784   2.411  16.545  1.1059 -0.5644  0.0619
    3TCq2    H214279   3.794   2.516  16.308  1.1528 -0.4961 -1.7669
    3TCq2    H314280   4.025   2.711  16.607 -1.5620 -2.4088  0.6627
    3TCq2    H414281   4.063   2.827  16.199  0.0633  1.3545  1.1791
    1TCq1    O114282   1.346   2.649  12.787 -0.3059 -0.5350 -0.2913
    1TCq1    C114283   1.435   2.664  12.886  0.6589 -0.2374 -0.2997
    1TCq1    O214284   1.464   2.768  12.943 -0.1740 -0.2286 -0.3080
    1TCq1    C214285   1.440   2.530  12.938  0.3076  0.2119  0.5522
    1TCq1    C314286   1.326   2.461  12.973  0.5645  0.8596 -0.0268
    1TCq1    C414287   1.336   2.334  13.020 -0.1355  0.2461  0.8833
    1TCq1    C514288   1.462   2.276  13.050  0.3742  0.2510  0.3536
    1TCq1    C614289   1.568   2.357  13.023  0.6073  0.1451 -0.0317
    1TCq1    C714290   1.567   2.477  12.960 -0.0619 -0.6543  0.4772
    1TCq1    C814291   1.706   2.301  13.017 -0.7088  0.4241 -0.0358
    1TCq1    O414292   1.775   2.338  12.924 -0.1195  0.4553 -0.6781
    1TCq1    C914293   1.218   2.249  13.020 -0.6048  0.0789  0.6433
    1TCq1    O514294   1.106   2.300  12.997 -0.1126 -0.2657  0.0322
    1TCq1    O614295   1.238   2.129  13.046  0.0683 -0.0049  0.1599
    1TCq1    H114296   1.355   2.558  12.753  2.7813 -0.7639  1.1578
    1TCq1    H214297   1.229   2.511  12.970  0.6722  0.9424 -1.7256
    1TCq1    H314298   1.472   2.171  13.072  1.6131  0.2617 -0.1331
    1TCq1    H414299   1.654   2.532  12.925  0.4665 -1.3258  0.7211
    2MPD2     C14300   1.965   2.170  13.053 -0.5201  1.0746  0.3270
    2MPD2    C114301   1.865   2.184  13.155 -0.6741  0.6775  0.0379
    2MPD2    C214302   1.891   2.144  13.284 -0.0133 -0.5948 -0.4073
    2MPD2    C314303   2.020   2.095  13.312 -1.0449 -0.4106 -0.0942
    2MPD2    C414304   2.117   2.085  13.218  0.5867 -0.0531 -0.0906
    2MPD2    C514305   2.086   2.115  13.087  0.4673 -0.6302  0.3096
    2MPD2     H14306   1.823   2.152  13.368  0.9013 -0.0810  0.2794
    2MPD2    H114307   2.221   2.073  13.246  0.6550  2.3230  0.6649
    2MPD2    H214308   1.943   2.187  12.949 -2.3063  1.4430  0.7692
    2MPD2    H314309   2.162   2.115  13.010  0.2696 -0.3772  0.1182
    2MPD2     N14310   2.041   2.067  13.446 -0.0756 -0.6108 -0.0093
    2MPD2    H514311   1.958   2.074  13.505  1.5003 -0.7644  2.2320
    2MPD2    N114312   1.732   2.223  13.121  0.2649  0.6852 -0.0949
    2MPD2    H714313   1.662   2.207  13.193  2.6445 -0.1862  2.0465
    3TCq1    O114314   1.966   2.189  14.019 -0.2467 -0.5033  0.1080
    3TCq1    C114315   1.989   2.236  13.898 -0.0916 -0.2246 -0.1648
    3TCq1    O214316   1.910   2.307  13.827 -0.6752  0.1211 -0.4885
    3TCq1    C214317   2.097   2.171  13.834  0.1878  0.2395 -1.0742
    3TCq1    C314318   2.205   2.113  13.903 -0.4218 -0.3536  0.3384
    3TCq1    C414319   2.289   2.026  13.841 -0.4110  0.4545  0.3703
    3TCq1    C514320   2.256   1.984  13.711 -0.3316  0.0901 -0.4486
    3TCq1    C614321   2.145   2.026  13.650 -0.0532  0.1669 -0.0605
    3TCq1    C714322   2.069   2.126  13.709  0.5636  0.2891 -0.9192
    3TCq1    C814323   2.151   2.014  13.502 -0.1499  0.1788  0.6632
    3TCq1    O414324   2.246   1.965  13.446  0.1221 -0.1470 -0.5123
    3TCq1    C914325   2.404   1.978  13.903 -0.3594 -0.3316 -0.4565
    3TCq1    O514326   2.457   1.872  13.861 -0.5998 -0.1305  0.7900
    3TCq1    O614327   2.441   2.040  14.010 -0.0002 -0.0601 -0.0938
    3TCq1    H114328   2.036   2.124  14.044  0.7822 -0.1085 -1.7492
    3TCq1    H214329   2.235   2.156  13.999  1.7974  0.3158 -0.6628
    3TCq1    H314330   2.333   1.922  13.666  0.9735 -0.5788  2.6940
    3TCq1    H414331   1.990   2.173  13.651  1.2011  1.7168 -0.6306
    1MPD2     C14332   1.589   2.934  15.306 -0.2927 -0.5412 -0.5536
    1MPD2    C114333   1.525   2.807  15.304 -0.1309  0.5227 -1.1283
    1MPD2    C214334   1.600   2.689  15.317  0.4843 -0.2475  0.3924
    1MPD2    C314335   1.732   2.689  15.347 -0.0248  0.1534  0.1529
    1MPD2    C414336   1.794   2.811  15.359  0.0295  0.2278  0.6845
    1MPD2    C514337   1.725   2.925  15.335  0.1470  0.5863  0.0398
    1MPD2     H14338   1.546   2.595  15.312 -1.9396  1.1092  0.7828
    1MPD2    H114339   1.896   2.815  15.396  0.5778  0.4234 -0.8180
    1MPD2    H214340   1.545   3.029  15.279 -1.3266 -1.2394 -1.3045
    1MPD2    H314341   1.774   3.021  15.348 -0.3238  0.8221  0.0608
    1MPD2     N14342   1.807   2.578  15.377 -0.6280 -0.1349  0.4429
    1MPD2    H514343   1.906   2.590  15.394  0.4065 -3.4322 -3.4153
    1MPD2    N114344   1.383   2.810  15.297  0.0210  0.1654 -0.6506
    1MPD2    H714345   1.326   2.893  15.288 -1.5799 -0.7038  1.2954
    2TMC3    C114346   1.161   2.714  15.269 -0.3493 -0.4929  1.0951
    2TMC3    C214347   1.100   2.592  15.280  0.1069 -0.4023 -0.1236
    2TMC3    C314348   1.037   2.534  15.179 -0.3097  0.7331  0.2350
    2TMC3    C414349   1.141   2.786  15.154 -0.1134 -0.4129  0.2796
    2TMC3    C514350   1.054   2.735  15.060 -0.1290 -0.3087 -0.6794
    2TMC3    C614351   1.005   2.610  15.068 -0.1295 -0.3393  0.3037
    2TMC3     C14352   1.304   2.700  15.304 -0.5001 -0.6889 -0.0187
    2TMC3     O14353   1.324   2.587  15.346 -0.4315 -0.1801  0.0646
    2TMC3     H14354   1.127   2.531  15.365 -0.5705  0.8989  1.0286
    2TMC3    H114355   1.188   2.884  15.153 -2.5710  0.7605  0.2113
    2TMC3    H214356   0.938   2.577  14.989  0.1608 -1.4344  0.5177
    2TMC3    C714357   1.010   2.818  14.954 -0.2366 -1.0370  0.0110
    2TMC3    C814358   1.103   2.410  15.138 -0.0510 -0.0742 -0.1354
    2TMC3    O114359   0.896   2.807  14.905 -0.3317  0.6729 -0.0165
    2TMC3    O214360   1.048   2.347  15.048  0.6126  0.5721  0.1825
    3TCq1    O114361   1.421   3.579  14.160  0.0823  0.4110 -0.3159
    3TCq1    C114362   1.542   3.555  14.202  0.0365  0.7367  0.2331
    3TCq1    O214363   1.630   3.524  14.130  0.4831 -0.2952 -0.4623
    3TCq1    C214364   1.537   3.520  14.345 -0.0046 -0.0177  0.2940
    3TCq1    C314365   1.648   3.456  14.396  0.1121 -0.0482  0.6601
    3TCq1    C414366   1.647   3.387  14.514 -0.9064  0.4338 -0.0811
    3TCq1    C514367   1.531   3.375  14.580 -0.1878 -0.2260 -0.5109
    3TCq1    C614368   1.418   3.425  14.516  0.3668  0.0675 -0.1297
    3TCq1    C714369   1.420   3.489  14.398 -0.4250  0.2174  0.1686
    3TCq1    C814370   1.288   3.376  14.566 -0.1526  0.0795 -0.4769
    3TCq1    O414371   1.201   3.462  14.576 -0.3312  0.4921 -0.3836
    3TCq1    C914372   1.765   3.313  14.560  0.6390 -0.0016 -0.0048
    3TCq1    O514373   1.749   3.233  14.660 -0.0846  0.7582  0.0928
    3TCq1    O614374   1.857   3.302  14.477  0.4087 -0.5506 -0.0338
    3TCq1    H114375   1.382   3.651  14.214 -0.4788 -0.2600  0.1797
    3TCq1    H214376   1.743   3.472  14.345 -0.9099 -1.1290 -1.6160
    3TCq1    H314377   1.534   3.319  14.672  1.2546 -1.0759 -1.0827
    3TCq1    H414378   1.331   3.535  14.359 -0.1087  0.3176 -0.4419
    4MPD2     C14379   1.058   3.233  14.671  0.0154  0.2723 -0.5211
    4MPD2    C114380   1.189   3.191  14.697 -0.0511 -0.2940 -0.1381
    4MPD2    C214381   1.206   3.077  14.776  0.4194 -0.4319  0.1485
    4MPD2    C314382   1.096   3.006  14.821  0.2261 -0.4271  0.0918
    4MPD2    C414383   0.968   3.051  14.788 -0.1851  0.1943 -0.3901
    4MPD2    C514384   0.950   3.166  14.722 -0.5840 -0.2138 -0.4630
    4MPD2     H14385   1.309   3.047  14.790 -0.2474 -3.1950 -0.7266
    4MPD2    H114386   0.877   3.014  14.834 -0.2954  0.2541 -0.5585
    4MPD2    H214387   1.031   3.325  14.620 -0.2640  0.3408 -0.2516
    4MPD2    H314388   0.858   3.219  14.699 -0.3800 -0.3021 -1.4984
    4MPD2     N14389   1.108   2.899  14.912 -0.2397  0.1152 -0.0463
    4MPD2    H514390   1.202   2.867  14.936 -0.6011 -2.4069 -2.0102
    4MPD2    N114391   1.294   3.263  14.635  0.1886  0.1553  0.2446
    4MPD2    H714392   1.380   3.209  14.629  0.6717  0.7831  1.7635
    5TMC2    C114393   1.836   2.130  15.322 -0.3385 -0.2925 -0.1096
    5TMC2    C214394   1.945   2.153  15.241 -0.3857  0.1571  0.2645
    5TMC2    C314395   2.011   2.267  15.250  0.1364 -0.1849 -0.5464
    5TMC2    C414396   1.802   2.225  15.418  0.1595  0.0051 -0.1057
    5TMC2    C514397   1.855   2.350  15.411 -0.4377  0.0654 -0.2561
    5TMC2    C614398   1.966   2.373  15.330 -0.1674  0.0507 -0.3406
    5TMC2     C14399   1.729   2.098  15.232 -0.4855 -0.1091 -0.0439
    5TMC2     O14400   1.745   2.035  15.127  0.7385 -0.3271 -0.2013
    5TMC2     H14401   1.965   2.078  15.166  0.1453 -0.3162  0.8752
    5TMC2    H114402   1.727   2.207  15.493  1.4020  1.9961  1.6298
    5TMC2    H214403   2.012   2.471  15.336  0.5218 -0.2548 -0.6246
    5TMC2    C714404   1.756   2.451  15.399 -0.4081 -0.2308 -0.1160
    5TMC2    C814405   2.159   2.263  15.215  0.1527 -0.2223  0.0813
    5TMC2    O114406   1.640   2.405  15.414  0.1703  0.3524 -0.1973
    5TMC2    O214407   2.219   2.159  15.193 -0.0852  0.3885  0.2377
    5TMC2    O514408   2.191   2.379  15.155  0.1552 -0.3903  0.1862
    5TMC2    H514409   2.116   2.442  15.147  2.4679  2.1185 -2.0212
    6MPD2     C14410   1.256   2.161  15.086 -0.0766 -0.2538  0.5138
    6MPD2    C114411   1.288   2.256  15.187  0.0375 -0.6480 -0.2316
    6MPD2    C214412   1.404   2.243  15.252 -0.1889 -0.3465 -0.7608
    6MPD2    C314413   1.489   2.145  15.224  0.2031  0.3366 -0.9894
    6MPD2    C414414   1.460   2.057  15.123 -0.3323  0.2289 -0.0244
    6MPD2    C514415   1.341   2.064  15.056 -0.1267 -0.4133  0.1448
    6MPD2     H14416   1.428   2.316  15.328 -1.8568 -1.3044  0.6762
    6MPD2    H114417   1.523   1.972  15.102 -0.7120 -0.5894  2.1660
    6MPD2    H214418   1.159   2.160  15.038  0.1596  1.5991 -0.0030
    6MPD2    H314419   1.315   1.997  14.975  1.6760  2.2925 -2.6942
    6MPD2     N14420   1.614   2.155  15.278  0.0157  0.1908 -0.4465
    6MPD2    H514421   1.629   2.210  15.362  0.0361  0.3239 -0.5378
    6MPD2    N114422   1.213   2.370  15.215  0.5887  0.2701 -0.5850
    6MPD2    H714423   1.249   2.432  15.287  0.1851 -0.0428 -0.1110
  945NH4     N114424   0.032   4.002  14.071  0.4132 -0.0645 -0.0768
  945NH4     H214425   0.134   4.006  14.093  0.4963 -1.5368 -0.2260
  945NH4     H314426   0.010   3.903  14.049  0.4156  0.0698 -0.6793
  945NH4     H414427   0.010   4.063  13.989 -0.7478  0.9874  1.0095
  945NH4     H514428   4.706   4.027  14.158 -1.9395 -2.5501 -0.7301
  946SOD     NA14429   2.398   3.454  12.108 -0.0960  0.1989 -0.2986
  947SOD     NA14430   2.543   1.973  15.451 -0.0115  0.4666 -0.4042
  948SOD     NA14431   1.192   1.848  13.365 -0.2649 -0.3547 -0.2582
  949SOD     NA14432   2.025   2.795   1.431  0.1806 -0.3857  0.6371
  950SOD     NA14433   0.822   1.495   3.276  0.1792  0.0674 -0.0799
  951SOD     NA14434   1.707   2.155  11.493 -0.1250 -0.5411  0.0142
  952SOD     NA14435   3.967   0.804   0.432  0.0443 -0.4544 -0.2005
  953SOD     NA14436   2.407   4.269  11.531  0.5605 -0.2460 -0.1425
  954SOD     NA14437   2.661   2.115  12.010  0.0898 -0.1688 -0.8238
  955SOD     NA14438   1.293   0.219  11.660 -0.4915  0.4802  0.3715
  956SOD     NA14439   0.243   1.670  11.128  0.2084  0.2968  0.1196
  957SOD     NA14440   2.473   0.464   0.362 -0.3357  0.0115  0.2309
  958SOD     NA14441   0.736   3.029   1.500 -0.0636  0.1297  0.2512
  959SOD     NA14442   1.962   2.139  11.319 -0.1175 -0.3479 -0.2196
  960SOD     NA14443   1.746   2.443  11.401 -0.5519 -0.4697  0.4649
  961SOD     NA14444   0.635   2.469  14.881 -0.3826 -0.3558 -0.3537
  962SOD     NA14445   3.309   0.307   4.572  0.1204  0.2910 -0.1517
  963SOD     NA14446   3.866   2.749  14.982  0.1410  0.3459  0.3431
  964SOD     NA14447   2.336   1.425  12.491 -0.3423  0.1078  0.1485
  965SOD     NA14448   2.075   4.297  10.616  0.1921 -0.5527 -0.0836
  966SOD     NA14449   0.538   3.119  11.126  0.4776 -0.0031 -0.3805
  967SOD     NA14450   2.540   2.020  14.206 -0.2959  0.7595 -0.4937
  968SOD     NA14451   3.710   0.769   0.799 -0.4176  0.0515  0.3507
  969SOD     NA14452   3.223   2.250  14.790  0.1383 -1.0437 -0.1388
  970SOD     NA14453   2.555   0.353   8.698  0.0156  0.1872 -0.1214
  971SOD     NA14454   2.913   3.106   0.082  0.0259  0.1094 -0.8091
  972SOD     NA14455   1.017   2.087  13.010  0.2596 -0.4142 -0.3454
  973SOD     NA14456   0.676   1.774  10.560  0.2114  0.4107  0.0417
  974SOD     NA14457   0.897   2.279   8.824 -0.3911 -0.3794 -0.3590
  975SOD     NA14458   0.017   2.628   8.101  0.0058 -0.1253  0.2758
  976SOD     NA14459   0.957   1.963  10.553  0.2207 -0.0680 -0.0537
  977SOD     NA14460   4.513   2.969  13.755  0.0548 -0.0222 -0.4671
  978SOD     NA14461   2.045   1.833  11.763 -0.0809 -0.2343  0.2684
  979SOD     NA14462   3.590   3.862   2.140 -0.1424  0.1237  0.1573
  980SOD     NA14463   3.132   0.617  13.047  0.3575 -0.1243 -0.1385
  981SOD     NA14464   0.459   4.171  11.855 -0.4311 -0.1927 -0.0657
  982SOD     NA14465   0.382   2.562  13.239  0.0736 -0.3011 -0.0862
  983SOD     NA14466   2.878   3.496   3.537  0.4524 -0.4064 -0.4440
  984SOD     NA14467   2.947   3.237  10.839  0.8450 -0.0833  0.5868
  985SOD     NA14468   2.178   2.486  11.013 -0.5776 -0.1723  0.5207
  986SOD     NA14469   0.359   1.027  15.254  0.2347  0.2850  0.2470
  987SOD     NA14470   3.182   0.368  15.909  0.1039  0.0881 -0.5420
  988SOD     NA14471   3.921   3.546  17.566 -0.2103  0.0325  0.3134
  989SOD     NA14472   4.359   0.593   0.756 -0.3227  0.1424  0.4985
  990SOD     NA14473   3.744   1.572   0.867 -0.2229 -0.2817 -0.7459
  991SOD     NA14474   3.368   3.465  16.340  0.0371  0.0218  0.3666
  992SOD     NA14475   4.096   2.185  13.204  0.3533 -0.1411 -0.2033
  993SOD     NA14476   3.016   2.012  14.444 -0.7827  0.3481  0.1093
  994SOD     NA14477   2.035   3.181  14.452 -0.3181  0.0119  0.1718
  995SOD     NA14478   0.689   4.713   1.318 -0.6756  0.1928 -0.3359
  996SOD     NA14479   4.318   1.305   4.195 -0.3527  0.0367  0.5753
  997SOD     NA14480   1.798   3.685   2.096 -0.6749  0.0367  0.0941
  998SOD     NA14481   0.802   1.532  10.304  0.1899  0.4579  0.0460
  999SOD     NA14482   3.277   2.739  13.645  0.2422  0.4482  0.0386
 1000SOD     NA14483   4.673   2.626  10.101  0.1525  0.0313 -0.0694
 1001SOD     NA14484   1.405   4.226  15.899 -0.8470 -0.0602  0.2677
 1002SOD     NA14485   4.101   1.835  12.794 -0.5594 -0.0753  0.5731
 1003SOD     NA14486   0.677   4.007   0.792 -0.0707 -0.2353  0.6366
 1004SOD     NA14487   2.890   1.769  14.237 -0.3642  0.3210  0.5894
 1005SOD     NA14488   1.090   4.266   1.438  0.0988 -0.7603  0.0561
 1006SOD     NA14489   3.840   1.379   2.060  0.2765  0.2740  0.1594
 1007SOD     NA14490   3.784   4.185  11.043 -0.2160  0.3307  0.2991
 1008SOD     NA14491   0.240   2.321   9.651 -0.2244 -0.0970  0.1247
 1009SOD     NA14492   3.199   2.422   8.408 -0.7720 -0.1428 -0.2490
 1010SOD     NA14493   4.042   3.550   2.557  0.5280  0.1263  0.3527
 1011SOL     OW14494   2.896   3.083   1.863  0.1398 -0.1658  0.3377
 1011SOL    HW114495   2.827   3.037   1.815  2.3735 -0.7143 -2.3961
 1011SOL    HW214496   2.964   3.089   1.795  2.0410 -3.2627  1.9533
 1012SOL     OW14497   1.502   1.650   6.253  0.2796  0.4287 -0.0603
 1012SOL    HW114498   1.528   1.713   6.186 -1.3674  1.5085  0.3043
 1012SOL    HW214499   1.558   1.577   6.228 -0.3575  0.1447 -0.6650
 1013SOL     OW14500   2.639   0.002   9.611 -0.6554 -0.0113 -0.7851
 1013SOL    HW114501   2.548   0.016   9.583 -1.0661  1.9520  1.5417
 1013SOL    HW214502   2.686   0.066   9.558  0.0895  1.9284  2.2684
 1014SOL     OW14503   3.705   1.846   7.536  0.4685 -0.0212 -0.6063
 1014SOL    HW114504   3.742   1.762   7.508  0.2080 -0.3046 -0.1055
 1014SOL    HW214505   3.636   1.866   7.474 -2.0883 -2.0748  1.5563
 1015SOL     OW14506   3.556   3.937   8.738 -0.2240  0.2370  0.0957
 1015SOL    HW114507   3.581   3.900   8.823  1.8695 -1.5960 -1.3114
 1015SOL    HW214508   3.580   4.029   8.749 -2.4830  0.9877 -1.4186
 1016SOL     OW14509   0.684   3.303  17.647  0.0101 -0.0969  0.1662
 1016SOL    HW114510   0.741   3.238  17.688  2.0282  1.1950 -0.5959
 1016SOL    HW214511   0.604   3.294  17.699 -0.9699 -1.1683 -1.5442
 1017SOL     OW14512   1.552   2.835   9.730 -0.5197  0.7139  0.5405
 1017SOL    HW114513   1.533   2.919   9.771 -1.4057  0.6602  0.2300
 1017SOL    HW214514   1.543   2.853   9.637 -3.9420 -1.1939  0.5020
 1018SOL     OW14515   4.438   0.143  10.287 -0.2606  1.0578  0.0215
 1018SOL    HW114516   4.451   0.163  10.194 -2.1035 -0.1499 -0.4990
 1018SOL    HW214517   4.433   0.047  10.294 -3.8764  1.2411  0.2124
 1019SOL     OW14518   3.182   1.644  12.890  0.8498 -0.0911 -0.3314
 1019SOL    HW114519   3.097   1.604  12.905  1.6435 -1.7279 -0.1743
 1019SOL    HW214520   3.179   1.705  12.963  0.0583 -1.5939  0.8968
 1020SOL     OW14521   4.093   0.623   3.177  0.2340 -0.1329  0.2692
 1020SOL    HW114522   4.071   0.695   3.118  0.5027 -1.1516 -1.0586
 1020SOL    HW214523   4.014   0.578   3.208 -0.8278  1.9237  0.5670
 1021SOL     OW14524   3.862   2.593   6.489 -0.2748 -0.0018 -0.4208
 1021SOL    HW114525   3.889   2.502   6.502 -2.0801 -0.6964 -1.6381
 1021SOL    HW214526   3.902   2.612   6.404 -1.3964  0.8830 -0.7534
 1022SOL     OW14527   4.702   0.030  13.840  0.0746  0.0973  0.1445
 1022SOL    HW114528   4.659   0.024  13.926 -0.4374 -0.4487 -0.1554
 1022SOL    HW214529   0.065   0.046  13.877  0.5799 -1.9872 -0.1373
 1023SOL     OW14530   1.031   0.515   7.173 -0.0969  0.1389 -0.4389
 1023SOL    HW114531   0.979   0.461   7.114 -0.1403  0.1506 -0.4116
 1023SOL    HW214532   0.967   0.538   7.240  0.7473 -0.1717  0.4746
 1024SOL     OW14533   3.328   3.072   0.068 -0.0827 -0.5409 -0.2735
 1024SOL    HW114534   3.343   2.984   0.033 -0.1488 -0.0541 -1.5361
 1024SOL    HW214535   3.324   3.121  17.685  0.1456  0.6403  0.4221
 1025SOL     OW14536   1.831   3.020   3.872 -0.1931  0.3057  0.5484
 1025SOL    HW114537   1.781   2.981   3.800  1.2178  0.5711 -0.5556
 1025SOL    HW214538   1.902   2.957   3.881  0.2118  0.4865 -1.5164
 1026SOL     OW14539   0.650   1.693  16.634 -0.1107 -0.3621 -0.4173
 1026SOL    HW114540   0.681   1.602  16.628 -0.9545 -0.6380 -0.6172
 1026SOL    HW214541   0.679   1.726  16.549  0.4588 -0.6480 -0.3379
 1027SOL     OW14542   1.249   0.597   2.474 -0.0912 -0.0216  0.1533
 1027SOL    HW114543   1.246   0.681   2.519 -1.8331 -0.7883  1.4561
 1027SOL    HW214544   1.318   0.616   2.410  1.7716 -0.8052  1.9554
 1028SOL     OW14545   0.772   2.525   8.170 -0.2648  0.0157  0.5097
 1028SOL    HW114546   0.680   2.505   8.154 -0.3762  1.8235 -1.0886
 1028SOL    HW214547   0.788   2.606   8.121  0.4868 -0.0030  0.7172
 1029SOL     OW14548   2.554   1.575  15.122  0.0508  0.5375  0.7080
 1029SOL    HW114549   2.548   1.594  15.028 -1.7169  1.9669  1.1180
 1029SOL    HW214550   2.481   1.630  15.151 -1.8725 -1.3541 -0.5540
 1030SOL     OW14551   3.396   1.656  12.695  0.0346  0.2009 -0.9323
 1030SOL    HW114552   3.330   1.691  12.756 -0.9813 -0.0838 -1.8646
 1030SOL    HW214553   3.464   1.662  12.762 -1.1622  1.1111  0.2091
 1031SOL     OW14554   2.017   4.401   0.729 -0.3170 -0.5509 -0.0881
 1031SOL    HW114555   2.054   4.487   0.747 -1.7595  0.3863 -1.6406
 1031SOL    HW214556   1.938   4.437   0.690 -0.6479 -0.4617  0.6640
 1032SOL     OW14557   4.397   3.262   8.135 -0.0343  0.5659 -0.3623
 1032SOL    HW114558   4.454   3.338   8.139  1.4128 -0.5627  0.4127
 1032SOL    HW214559   4.340   3.274   8.212  0.8034 -1.9948  0.6578
 1033SOL     OW14560   1.933   3.782   8.473 -0.1059 -0.1924  0.1241
 1033SOL    HW114561   2.003   3.830   8.517 -0.1220 -0.1626  0.1176
 1033SOL    HW214562   1.931   3.813   8.383 -1.7991  0.5292  0.4011
 1034SOL     OW14563   4.333   1.191  10.052  0.1279  0.2594  0.0154
 1034SOL    HW114564   4.276   1.160  10.123  1.4362  2.6811  2.1310
 1034SOL    HW214565   4.422   1.175  10.081  0.1196  0.0749 -0.0576
 1035SOL     OW14566   3.028   2.853   4.311  0.0053 -0.2988  0.4817
 1035SOL    HW114567   2.959   2.847   4.377 -0.9249  0.9649 -0.3746
 1035SOL    HW214568   3.005   2.941   4.279 -1.8093 -0.4832  1.2530
 1036SOL     OW14569   0.251   1.158   3.530 -0.3056  0.4323  0.0280
 1036SOL    HW114570   0.327   1.152   3.471 -1.0461  3.0011 -1.1720
 1036SOL    HW214571   0.225   1.068   3.552 -2.8159  1.4015  1.0159
 1037SOL     OW14572   4.612   2.248  12.946 -0.2438 -0.1421  0.3859
 1037SOL    HW114573   4.664   2.167  12.943 -0.9027 -0.5179 -1.0818
 1037SOL    HW214574   4.679   2.316  12.939 -1.4211  0.9824  0.1199
 1038SOL     OW14575   2.577   0.810   8.240 -0.2065 -0.2999 -0.0201
 1038SOL    HW114576   2.619   0.876   8.185 -2.0301  0.4885 -0.4522
 1038SOL    HW214577   2.488   0.811   8.205 -1.0610  0.2238  2.1299
 1039SOL     OW14578   3.142   2.331  16.446  0.0608 -0.0940  0.2748
 1039SOL    HW114579   3.193   2.368  16.519  1.3164 -2.0160  0.3679
 1039SOL    HW214580   3.108   2.408  16.400 -0.7925 -0.7709 -0.2358
 1040SOL     OW14581   1.980   0.810   8.213  0.6649 -0.1043 -0.5890
 1040SOL    HW114582   1.966   0.751   8.287 -1.3963 -0.8646 -1.5820
 1040SOL    HW214583   1.914   0.776   8.153  0.2778 -0.1588 -0.1323
 1041SOL     OW14584   3.379   0.300   8.733 -0.5224 -0.5213 -0.4948
 1041SOL    HW114585   3.335   0.235   8.678  0.0864 -0.7262 -0.7372
 1041SOL    HW214586   3.462   0.256   8.751 -1.2317 -1.7262 -0.1892
 1042SOL     OW14587   0.441   2.283  16.265 -0.3893  0.2257 -0.0150
 1042SOL    HW114588   0.393   2.216  16.217  1.7855 -0.7282 -0.8379
 1042SOL    HW214589   0.388   2.360  16.244  0.0605  0.1764 -1.3307
 1043SOL     OW14590   3.492   4.193   2.312 -0.4391  0.3088 -0.0229
 1043SOL    HW114591   3.419   4.252   2.331 -0.5008  0.2248 -0.0017
 1043SOL    HW214592   3.572   4.246   2.314 -0.6630  0.6376  0.3637
 1044SOL     OW14593   2.367   2.868   8.872  0.1445 -0.0913 -0.0637
 1044SOL    HW114594   2.406   2.894   8.789 -0.3111  1.1964  0.1183
 1044SOL    HW214595   2.409   2.928   8.934 -0.8136 -1.7155  2.1796
 1045SOL     OW14596   1.194   3.663  15.567 -0.8062  0.1507  0.6281
 1045SOL    HW114597   1.203   3.734  15.631 -0.0986  0.3114  0.3466
 1045SOL    HW214598   1.101   3.646  15.577 -0.9212 -0.0740 -0.8379
 1046SOL     OW14599   1.664   4.676   6.575 -0.3564  0.0541 -0.4101
 1046SOL    HW114600   1.635   4.703   6.662  0.0911 -0.7245 -0.0172
 1046SOL    HW214601   1.718   4.600   6.597 -2.6681 -0.8128  2.2257
 1047SOL     OW14602   1.155   0.916  16.933  0.5443  0.5885  0.1383
 1047SOL    HW114603   1.073   0.957  16.907  1.2301  1.4172 -0.7150
 1047SOL    HW214604   1.181   0.857  16.861 -1.6223 -1.6292  1.1839
 1048SOL     OW14605   1.273   1.779   2.165 -0.1629  0.2107 -0.2189
 1048SOL    HW114606   1.225   1.845   2.216  0.6263  0.6797 -0.0857
 1048SOL    HW214607   1.351   1.761   2.216 -0.4925 -0.4334  0.0514
 1049SOL     OW14608   1.567   0.091   7.436  0.4558  0.0770 -1.0934
 1049SOL    HW114609   1.566   0.083   7.532  2.2438  1.8694 -0.9056
 1049SOL    HW214610   1.513   0.170   7.433 -0.1015 -0.1926  2.1478
 1050SOL     OW14611   0.088   1.831   2.937  0.1636  0.3710 -0.1695
 1050SOL    HW114612   4.721   1.801   2.936 -0.2246  1.5466 -1.1346
 1050SOL    HW214613   0.100   1.852   2.845  1.2333  0.1321 -0.0776
 1051SOL     OW14614   2.877   0.194   7.051  0.4478  0.0508  0.4355
 1051SOL    HW114615   2.965   0.219   7.077 -0.5053  2.7344  1.0948
 1051SOL    HW214616   2.860   0.247   6.973 -0.5822  2.1159  2.0404
 1052SOL     OW14617   2.872   1.387  17.300  0.1536 -0.1416 -0.2556
 1052SOL    HW114618   2.818   1.322  17.344 -1.3091  1.1083 -0.1964
 1052SOL    HW214619   2.943   1.412  17.359  0.8684 -5.6164  1.1905
 1053SOL     OW14620   3.629   4.468   8.561 -0.3736 -0.7478 -0.0801
 1053SOL    HW114621   3.661   4.542   8.509 -2.0515 -1.6740 -2.4372
 1053SOL    HW214622   3.689   4.398   8.538 -1.7481 -2.1218  0.4557
 1054SOL     OW14623   4.389   2.251   8.340  0.2208  0.2396 -0.3242
 1054SOL    HW114624   4.410   2.158   8.333 -2.1201 -0.2720 -0.6287
 1054SOL    HW214625   4.442   2.274   8.416  0.1462 -1.3300  0.1940
 1055SOL     OW14626   1.651   0.657  11.535  0.2329  0.2528  0.2364
 1055SOL    HW114627   1.683   0.652  11.625  1.0600  0.3319 -0.0502
 1055SOL    HW214628   1.562   0.626  11.547  0.1904 -0.2641 -1.3681
 1056SOL     OW14629   2.399   3.712   3.955  0.1375  0.2264  0.4388
 1056SOL    HW114630   2.449   3.781   3.912 -2.5404  0.7459 -1.8716
 1056SOL    HW214631   2.456   3.687   4.027  1.1806 -1.6087 -1.0070
 1057SOL     OW14632   3.473   4.043   3.199  0.6459  0.3315  0.5769
 1057SOL    HW114633   3.379   4.050   3.219  0.5173  0.2185  0.0153
 1057SOL    HW214634   3.481   4.070   3.108  0.0354  1.3596  0.8216
 1058SOL     OW14635   4.049   3.237   7.419 -0.2376  1.0226  0.2822
 1058SOL    HW114636   4.023   3.183   7.345  0.8228 -0.7653  1.2271
 1058SOL    HW214637   3.962   3.260   7.452 -0.2541  2.4276 -0.7099
 1059SOL     OW14638   3.204   4.011   2.203  0.4129  0.4792 -0.5062
 1059SOL    HW114639   3.213   4.064   2.283  1.3781  1.7197 -1.4485
 1059SOL    HW214640   3.283   4.003   2.151  0.4660 -1.6225 -0.0877
 1060SOL     OW14641   2.412   3.485  17.478 -0.6302  0.1430 -0.3930
 1060SOL    HW114642   2.459   3.561  17.443 -0.7395  0.1185 -0.5932
 1060SOL    HW214643   2.324   3.509  17.449 -1.0918  0.5407  1.3374
 1061SOL     OW14644   2.966   3.935   8.803  0.0750 -0.1092 -0.5065
 1061SOL    HW114645   3.058   3.962   8.810  0.0754  0.2722 -2.1227
 1061SOL    HW214646   2.974   3.853   8.755 -0.1626 -0.2260 -0.3442
 1062SOL     OW14647   1.771   0.032  16.112 -0.1164  0.2860  0.0104
 1062SOL    HW114648   1.846   0.052  16.167 -0.1699  1.4824 -0.3410
 1062SOL    HW214649   1.710   0.059  16.180 -2.4387 -1.7155 -1.2533
 1063SOL     OW14650   3.730   2.448   3.401 -0.3209  0.4280  0.4366
 1063SOL    HW114651   3.783   2.389   3.454  0.0895  1.2989  1.0088
 1063SOL    HW214652   3.780   2.530   3.407 -0.7211  0.6205  1.0829
 1064SOL     OW14653   4.553   1.741   6.518 -0.3403  0.0636 -0.5622
 1064SOL    HW114654   4.537   1.823   6.472  2.3949  0.7629 -0.2081
 1064SOL    HW214655   4.638   1.718   6.482 -0.6503 -1.5798 -0.2390
 1065SOL     OW14656   3.933   2.039   8.515  0.2480  0.1515  0.1960
 1065SOL    HW114657   3.981   1.968   8.556  0.7611  0.1270 -0.4378
 1065SOL    HW214658   3.961   2.108   8.575  0.3097 -1.5839  2.1609
 1066SOL     OW14659   1.087   1.737   9.665 -0.3362 -0.3165  0.1429
 1066SOL    HW114660   1.119   1.817   9.706  0.7036 -0.0360 -1.2174
 1066SOL    HW214661   1.110   1.737   9.572  3.3090 -2.0460  1.0338
 1067SOL     OW14662   1.722   2.343   7.482  0.1470 -0.2154  0.2678
 1067SOL    HW114663   1.726   2.371   7.574  2.0584  1.0977 -0.2112
 1067SOL    HW214664   1.632   2.313   7.480  0.0526 -0.1401  2.9840
 1068SOL     OW14665   3.379   0.486  15.917  0.0718  0.1541 -0.3434
 1068SOL    HW114666   3.469   0.483  15.950  1.0840  0.7240 -3.0444
 1068SOL    HW214667   3.364   0.577  15.891  1.7770 -0.0024 -1.8761
 1069SOL     OW14668   4.659   0.245   3.887 -0.2740 -0.2598 -0.1121
 1069SOL    HW114669   0.019   0.283   3.911 -0.2253  0.4117 -1.3866
 1069SOL    HW214670   4.602   0.321   3.876 -0.5171 -0.7273 -2.0268
 1070SOL     OW14671   2.042   0.731   5.975 -0.0272  0.4385 -0.3223
 1070SOL    HW114672   2.050   0.742   5.880  2.6668  2.1064  0.0972
 1070SOL    HW214673   2.124   0.686   5.994 -0.2425  0.0875 -0.2243
 1071SOL     OW14674   1.668   1.474   1.339 -0.0146 -0.0563  0.4593
 1071SOL    HW114675   1.621   1.476   1.256 -3.2176  0.0397  2.2836
 1071SOL    HW214676   1.741   1.414   1.318  0.8300  0.7261  1.1408
 1072SOL     OW14677   0.868   1.167   8.785 -0.0252 -0.3987  0.1649
 1072SOL    HW114678   0.937   1.233   8.783  0.1617 -0.5218  2.0019
 1072SOL    HW214679   0.836   1.181   8.874 -0.1845 -0.4507  0.1163
 1073SOL     OW14680   1.579   0.804  10.326 -0.2266 -0.8379  0.9254
 1073SOL    HW114681   1.643   0.817  10.256 -0.4068  0.1307  0.9472
 1073SOL    HW214682   1.511   0.744  10.296  1.4614 -1.7162 -1.1743
 1074SOL     OW14683   3.252   0.929   0.213  0.2357 -0.3838 -0.5732
 1074SOL    HW114684   3.298   0.883   0.283  0.0369  0.1048 -0.1255
 1074SOL    HW214685   3.305   1.008   0.204  0.2306 -0.1700  1.3178
 1075SOL     OW14686   4.359   0.276   3.336 -0.4428  0.3021 -0.0170
 1075SOL    HW114687   4.406   0.201   3.373  2.1454  1.7625 -0.3385
 1075SOL    HW214688   4.378   0.269   3.243 -1.1372  0.6358 -0.1820
 1076SOL     OW14689   1.666   0.364  12.772 -0.5707 -0.2508 -0.5599
 1076SOL    HW114690   1.644   0.449  12.735  0.7735  1.4573  2.5091
 1076SOL    HW214691   1.628   0.309  12.704  0.9561 -1.4953 -0.4208
 1077SOL     OW14692   3.446   3.454   8.608 -0.4119  0.1646 -0.1040
 1077SOL    HW114693   3.474   3.421   8.523  1.4659 -0.9791  0.9423
 1077SOL    HW214694   3.424   3.369   8.647  0.1571 -1.2716 -2.9758
 1078SOL     OW14695   1.830   3.665   6.126  0.3520  0.0013 -0.0368
 1078SOL    HW114696   1.780   3.626   6.198  1.5913 -2.0112 -0.2665
 1078SOL    HW214697   1.915   3.686   6.164  1.2049  0.2693 -2.1099
 1079SOL     OW14698   3.448   0.775   9.375 -0.4154  0.8022 -0.2781
 1079SOL    HW114699   3.472   0.737   9.459  0.5113  0.5452 -0.6571
 1079SOL    HW214700   3.424   0.703   9.317  1.8166 -1.3705  1.5271
 1080SOL     OW14701   4.522   3.353   7.864 -0.1201  0.1067 -0.2711
 1080SOL    HW114702   4.449   3.395   7.908  0.6642 -0.2867  1.4176
 1080SOL    HW214703   4.475   3.356   7.781 -0.0758  0.6604 -0.2762
 1081SOL     OW14704   2.507   0.920   7.800 -0.0632 -0.3377 -0.1995
 1081SOL    HW114705   2.507   0.824   7.795  2.6582 -0.4148  1.0146
 1081SOL    HW214706   2.515   0.948   7.709  0.2335 -0.8038 -0.3166
 1082SOL     OW14707   2.601   2.102   5.364 -0.2881  0.2488  0.4326
 1082SOL    HW114708   2.525   2.047   5.346 -0.1049  0.3546 -0.6973
 1082SOL    HW214709   2.559   2.187   5.346 -0.7268  0.1894  1.1975
 1083SOL     OW14710   3.114   0.615  11.146  0.3961  0.4584  0.0159
 1083SOL    HW114711   3.131   0.522  11.128  1.4167  0.2692  1.9972
 1083SOL    HW214712   3.094   0.607  11.239  3.7738 -1.3476  0.6259
 1084SOL     OW14713   0.161   0.780   3.829 -0.1405  0.0572  0.2783
 1084SOL    HW114714   0.246   0.812   3.799  0.7026 -1.0358  1.4947
 1084SOL    HW214715   0.182   0.750   3.918  0.6400 -3.1071 -0.9604
 1085SOL     OW14716   3.848   4.540   7.235 -0.2036 -0.4635  0.3504
 1085SOL    HW114717   3.775   4.546   7.296  0.3781  1.6432  0.8652
 1085SOL    HW214718   3.802   4.546   7.152  1.2108  0.5074 -0.3547
 1086SOL     OW14719   2.171   0.084  13.168  0.7950 -0.5096 -0.1730
 1086SOL    HW114720   2.195   0.074  13.260  0.8859  0.7835 -0.0511
 1086SOL    HW214721   2.213   0.169  13.154  0.5520  0.4721  5.0423
 1087SOL     OW14722   2.959   0.145   2.924 -0.5067 -0.0922 -0.0233
 1087SOL    HW114723   2.947   0.238   2.906  2.0375  0.2850  0.3699
 1087SOL    HW214724   2.981   0.098   2.844 -0.8947  0.6704 -0.5747
 1088SOL     OW14725   2.589   4.189   6.160  0.0485 -0.4402  0.2452
 1088SOL    HW114726   2.650   4.141   6.103  1.0207  0.7744  0.2678
 1088SOL    HW214727   2.634   4.271   6.179 -0.1861 -0.4285  0.7367
 1089SOL     OW14728   0.655   0.475   8.359  0.1024  0.0860  0.0550
 1089SOL    HW114729   0.705   0.484   8.440  1.4912  0.5471 -0.8445
 1089SOL    HW214730   0.672   0.385   8.333  2.1302  0.5533 -0.2529
 1090SOL     OW14731   0.506   1.361  13.386 -0.8522 -0.0330 -0.1171
 1090SOL    HW114732   0.441   1.425  13.357  0.1906  1.3482  0.5585
 1090SOL    HW214733   0.473   1.351  13.475  1.9895  0.8243  1.0377
 1091SOL     OW14734   4.169   0.786   9.455  0.2727  0.2252  0.6023
 1091SOL    HW114735   4.263   0.795   9.440  0.1629 -1.8960 -1.2839
 1091SOL    HW214736   4.171   0.704   9.503 -0.1811 -0.3248 -0.3057
 1092SOL     OW14737   0.197   0.484   9.211 -0.3089  0.1505 -0.0370
 1092SOL    HW114738   0.197   0.461   9.303  0.1070  0.7326  0.1138
 1092SOL    HW214739   0.284   0.522   9.195 -1.0131  1.7265 -0.1135
 1093SOL     OW14740   0.966   2.747  10.055  0.3184  0.0571 -0.3605
 1093SOL    HW114741   0.878   2.774  10.078  0.7309  0.4304  0.7467
 1093SOL    HW214742   0.954   2.679   9.988 -1.0864 -0.5656  0.5401
 1094SOL     OW14743   2.932   3.998   8.482  0.0463 -0.1143  0.2795
 1094SOL    HW114744   2.887   4.036   8.406  0.0236  1.3175  1.0173
 1094SOL    HW214745   2.941   3.903   8.471  2.4842  0.2273 -0.7839
 1095SOL     OW14746   0.156   1.790   4.233 -0.3731 -0.2677  0.8339
 1095SOL    HW114747   0.227   1.847   4.265  0.9518 -2.6671  2.1851
 1095SOL    HW214748   0.200   1.734   4.169  0.2489  0.1534  0.8927
 1096SOL     OW14749   0.357   0.201   4.149 -0.4993 -0.6210  0.1621
 1096SOL    HW114750   0.333   0.233   4.236  0.1804 -0.7503  0.3972
 1096SOL    HW214751   0.453   0.201   4.141 -0.5120 -2.1567 -0.0022
 1097SOL     OW14752   3.803   2.432   8.492  0.2795  0.3291  0.0824
 1097SOL    HW114753   3.710   2.429   8.517  0.2895  0.5135  0.1456
 1097SOL    HW214754   3.830   2.349   8.532 -0.6402  0.0971  0.2192
 1098SOL     OW14755   4.000   4.490  10.905  0.1009  0.3099 -0.3356
 1098SOL    HW114756   4.077   4.452  10.864  1.3607  0.2117  2.1324
 1098SOL    HW214757   3.943   4.479  10.829  0.0117  0.5726 -0.3065
 1099SOL     OW14758   4.132   2.267   8.488  0.4429  0.6664  0.4718
 1099SOL    HW114759   4.183   2.223   8.557  0.1507 -0.1594  0.1627
 1099SOL    HW214760   4.203   2.264   8.423  0.5991  0.1984  0.6555
 1100SOL     OW14761   0.846   1.019  11.549 -0.1385  0.3610 -0.2258
 1100SOL    HW114762   0.767   0.992  11.503  0.0149  1.0628 -0.9091
 1100SOL    HW214763   0.869   1.093  11.493  0.6854  0.3816  0.1436
 1101SOL     OW14764   4.212   2.372   7.217  0.8533  0.5519 -0.2688
 1101SOL    HW114765   4.143   2.312   7.187  1.0785  1.6492 -3.0163
 1101SOL    HW214766   4.182   2.448   7.167  0.2493  1.6763  1.7843
 1102SOL     OW14767   0.734   1.419  17.522 -0.4008  0.3837  0.7104
 1102SOL    HW114768   0.653   1.446  17.479  0.4244  1.3754 -0.2335
 1102SOL    HW214769   0.728   1.330  17.487  1.1532  0.2315  0.7965
 1103SOL     OW14770   1.758   2.631   6.822  0.6861 -0.1826 -0.5625
 1103SOL    HW114771   1.768   2.673   6.908 -0.0701  0.1074 -0.6202
 1103SOL    HW214772   1.848   2.614   6.793  0.1923 -0.1086 -2.1222
 1104SOL     OW14773   0.129   0.785  14.986 -0.4967  0.0222 -0.4735
 1104SOL    HW114774   0.168   0.854  15.041 -1.9114 -0.6537  1.3772
 1104SOL    HW214775   0.066   0.749  15.049  0.2809 -0.8133 -0.1696
 1105SOL     OW14776   3.652   2.817   4.753 -0.6818 -0.2237  0.6913
 1105SOL    HW114777   3.560   2.799   4.735 -0.4834 -1.1404  0.5645
 1105SOL    HW214778   3.694   2.788   4.672 -0.2252  1.0517  0.4869
 1106SOL     OW14779   2.221   3.602   9.221  0.0555 -0.0087 -0.4862
 1106SOL    HW114780   2.148   3.609   9.282 -0.2084  0.9415 -0.9125
 1106SOL    HW214781   2.305   3.596   9.267  0.7662  0.9007 -1.6636
 1107SOL     OW14782   1.349   4.031  16.021  0.1162 -0.1011 -0.0083
 1107SOL    HW114783   1.288   4.027  16.094  0.4043  2.5009  0.3792
 1107SOL    HW214784   1.422   3.977  16.052  2.7819  2.6983 -1.3848
 1108SOL     OW14785   3.563   1.857  11.356  0.2552 -0.2930  0.0200
 1108SOL    HW114786   3.626   1.914  11.400  0.0615  0.0243 -0.1160
 1108SOL    HW214787   3.486   1.901  11.391  0.4527  0.6913 -0.7937
 1109SOL     OW14788   1.849   1.039   6.418 -0.2711  0.2995 -0.3943
 1109SOL    HW114789   1.916   1.070   6.479  1.1645 -0.1230 -1.7512
 1109SOL    HW214790   1.779   1.009   6.475 -1.7596  3.6053 -0.5217
 1110SOL     OW14791   0.655   2.003   4.326  0.4819  0.0541  0.4078
 1110SOL    HW114792   0.561   1.992   4.311  0.3684 -0.3342  1.3700
 1110SOL    HW214793   0.676   2.038   4.240  0.4567  1.7386  1.0806
 1111SOL     OW14794   3.053   3.447  10.772 -0.0259 -0.0884  0.6828
 1111SOL    HW114795   3.136   3.413  10.737 -0.6491 -1.7594  0.8180
 1111SOL    HW214796   3.051   3.530  10.725 -1.9345 -0.0776  0.7967
 1112SOL     OW14797   2.222   4.669   2.304  0.1699  0.2786  0.5170
 1112SOL    HW114798   2.262   0.009   2.361 -0.5439  0.9089  0.3093
 1112SOL    HW214799   2.268   4.698   2.226 -0.1766  2.6555  1.2128
 1113SOL     OW14800   0.083   1.743   6.032  0.5577  0.1091  0.3523
 1113SOL    HW114801   0.168   1.732   5.991  0.7001  0.4601  0.5499
 1113SOL    HW214802   0.073   1.681   6.104 -1.0249 -0.3808 -0.2688
 1114SOL     OW14803   1.061   2.133  16.111  0.1996 -0.1238 -0.2982
 1114SOL    HW114804   0.987   2.074  16.098  1.8985 -2.1396 -0.9392
 1114SOL    HW214805   1.115   2.125  16.033  1.8755  0.6066  0.7851
 1115SOL     OW14806   0.591   3.028  11.596  0.2714  0.4335  0.2852
 1115SOL    HW114807   0.589   3.073  11.681 -0.0894  1.1643 -0.1059
 1115SOL    HW214808   0.611   2.937  11.618 -1.2843 -0.3638 -1.5959
 1116SOL     OW14809   3.293   3.622   3.251 -0.1111 -0.7956 -0.1365
 1116SOL    HW114810   3.271   3.692   3.188 -2.1108  1.7596  3.4156
 1116SOL    HW214811   3.241   3.552   3.212 -0.6262  0.0441 -0.9833
 1117SOL     OW14812   3.612   3.960  11.331 -0.4289 -0.3888 -0.5748
 1117SOL    HW114813   3.597   3.875  11.289 -0.1825 -0.0539 -1.3405
 1117SOL    HW214814   3.552   3.958  11.406  0.1320 -0.7568 -0.1420
 1118SOL     OW14815   3.235   0.411  12.658 -0.2677  0.0649 -0.0422
 1118SOL    HW114816   3.151   0.417  12.613 -0.6652 -3.6293  0.2045
 1118SOL    HW214817   3.237   0.315  12.666  1.9610  0.1486  0.4384
 1119SOL     OW14818   0.515   2.895  16.935  0.4787 -0.1905  0.4611
 1119SOL    HW114819   0.545   2.842  17.009  1.6339 -1.3326 -0.8234
 1119SOL    HW214820   0.420   2.894  16.945  0.4932 -0.5735  0.5574
 1120SOL     OW14821   3.626   0.391   2.972 -0.0222  0.0122 -0.3181
 1120SOL    HW114822   3.584   0.473   2.947  0.5363 -0.0011 -1.3016
 1120SOL    HW214823   3.683   0.422   3.042 -0.4205  0.9680 -0.4189
 1121SOL     OW14824   3.988   1.992  14.815  0.0512  0.1383  0.3714
 1121SOL    HW114825   4.039   1.984  14.896 -0.7247 -1.4160  0.7110
 1121SOL    HW214826   3.973   2.085  14.798  1.0938  0.5867  1.8511
 1122SOL     OW14827   4.128   3.014   6.124 -0.2984  0.2321 -0.0318
 1122SOL    HW114828   4.199   2.959   6.157  0.8290  0.5458 -1.9900
 1122SOL    HW214829   4.152   3.107   6.125 -1.6886  0.6216 -2.1099
 1123SOL     OW14830   4.106   2.330   2.432 -0.0962 -0.2620 -0.3148
 1123SOL    HW114831   4.190   2.313   2.474  1.0726  0.0410 -2.5204
 1123SOL    HW214832   4.089   2.253   2.377 -0.7222 -0.3621  0.0161
 1124SOL     OW14833   1.296   3.405   6.876  0.0813 -0.7362 -0.5050
 1124SOL    HW114834   1.265   3.320   6.846 -2.5195  0.1908 -0.4129
 1124SOL    HW214835   1.379   3.413   6.830 -0.4651  0.2655 -1.3225
 1125SOL     OW14836   3.340   0.037   0.145  0.1548 -0.4156 -0.1648
 1125SOL    HW114837   3.261   0.018   0.094 -0.7897  2.6067  0.2043
 1125SOL    HW214838   3.372   4.671   0.138  0.2041 -0.4219  0.1190
 1126SOL     OW14839   2.326   0.487   4.407  0.1372  0.1758  0.6578
 1126SOL    HW114840   2.266   0.427   4.450 -1.3777  1.3623  0.2051
 1126SOL    HW214841   2.378   0.514   4.482 -0.3023 -0.2606  1.1209
 1127SOL     OW14842   3.713   2.676   2.092  0.2722 -0.2406  0.1654
 1127SOL    HW114843   3.734   2.716   2.176 -0.7727  1.5464 -0.4032
 1127SOL    HW214844   3.796   2.694   2.048  0.3688 -0.6756  0.1699
 1128SOL     OW14845   2.613   4.339   2.513  0.0149  0.5639  0.5877
 1128SOL    HW114846   2.606   4.433   2.531 -0.9414  0.2992  1.5917
 1128SOL    HW214847   2.552   4.323   2.441 -2.0049  2.3929  1.8930
 1129SOL     OW14848   1.437   0.861  12.183 -0.8973 -0.0014  0.0880
 1129SOL    HW114849   1.437   0.780  12.131 -1.2516  0.1347 -0.1238
 1129SOL    HW214850   1.459   0.934  12.126  0.7016 -0.9914 -0.5613
 1130SOL     OW14851   0.793   2.242  16.806  0.0929 -0.2587  0.0292
 1130SOL    HW114852   0.846   2.298  16.749 -0.0139  0.2547  0.4336
 1130SOL    HW214853   0.723   2.207  16.752 -1.3929  0.7135  1.3114
 1131SOL     OW14854   4.067   3.785   2.539  0.6782 -0.2243 -0.1020
 1131SOL    HW114855   4.108   3.842   2.604 -0.2834  0.1604  0.1714
 1131SOL    HW214856   4.038   3.850   2.474  0.4230  0.1569  0.3911
 1132SOL     OW14857   0.655   1.804   3.854  0.2519 -0.2325 -0.3926
 1132SOL    HW114858   0.686   1.748   3.926  0.0401  1.7777  1.2676
 1132SOL    HW214859   0.577   1.848   3.888  1.4165  1.0584  0.5723
 1133SOL     OW14860   2.240   1.834  17.155 -0.5193 -0.3699 -0.1474
 1133SOL    HW114861   2.251   1.740  17.144 -0.3956 -0.3114 -0.5312
 1133SOL    HW214862   2.292   1.853  17.077  0.4004 -2.4931 -0.0296
 1134SOL     OW14863   4.649   3.134  12.589 -0.4160  0.3523  0.2478
 1134SOL    HW114864   4.598   3.189  12.530 -2.0045 -1.1462  0.2258
 1134SOL    HW214865   0.015   3.147  12.562  0.0368 -0.9324  1.1476
 1135SOL     OW14866   3.875   1.414  13.171 -0.2920 -0.3795 -0.1803
 1135SOL    HW114867   3.910   1.348  13.111  0.5956 -0.3678  0.3250
 1135SOL    HW214868   3.953   1.425  13.225 -1.3984  2.2144  0.9144
 1136SOL     OW14869   3.157   4.157   5.625 -0.1954 -0.4477 -0.4135
 1136SOL    HW114870   3.151   4.177   5.532  0.9922 -3.9639 -1.2140
 1136SOL    HW214871   3.115   4.072   5.629 -0.7148 -0.1104  1.4951
 1137SOL     OW14872   1.867   1.962   7.894  0.5685 -0.2014 -0.0841
 1137SOL    HW114873   1.795   1.951   7.956  0.6260  0.3997  0.0903
 1137SOL    HW214874   1.838   1.893   7.834 -2.5617  1.1026 -0.0727
 1138SOL     OW14875   1.102   4.081  14.455  0.5152  0.0372  0.8133
 1138SOL    HW114876   1.022   4.075  14.508 -0.0906  0.7431 -0.0147
 1138SOL    HW214877   1.162   4.020  14.496  0.6218 -0.6159 -0.3300
 1139SOL     OW14878   4.347   0.327   5.847 -0.5085  0.5422  0.1149
 1139SOL    HW114879   4.320   0.338   5.938  1.0195  0.4135  0.5905
 1139SOL    HW214880   4.442   0.319   5.856 -0.2512  2.6846 -0.8852
 1140SOL     OW14881   3.459   4.550  14.786 -0.0694  0.2308 -0.1854
 1140SOL    HW114882   3.515   4.482  14.749 -1.5515 -0.4587 -1.1837
 1140SOL    HW214883   3.522   4.615  14.816  0.2404  0.1985 -0.7577
 1141SOL     OW14884   4.681   2.543   9.676  0.5657  0.5266 -0.1021
 1141SOL    HW114885   0.044   2.508   9.659  0.2244  0.1102 -1.0253
 1141SOL    HW214886   4.694   2.637   9.662  0.7477  0.4917 -0.1677
 1142SOL     OW14887   4.713   1.081   3.650 -0.2530 -0.0860 -0.1281
 1142SOL    HW114888   4.638   1.098   3.707 -1.5428 -3.1880 -0.8654
 1142SOL    HW214889   0.055   1.073   3.718 -2.8477  3.0829  2.7521
 1143SOL     OW14890   0.773   1.348   7.798  0.0935  0.1302 -0.4072
 1143SOL    HW114891   0.783   1.442   7.810 -0.2072 -0.1051  1.5661
 1143SOL    HW214892   0.843   1.308   7.849 -0.1561 -1.7923 -1.5621
 1144SOL     OW14893   3.779   1.714   2.083 -0.5692 -0.2848  0.4982
 1144SOL    HW114894   3.707   1.662   2.047 -0.9871  0.4252  0.3218
 1144SOL    HW214895   3.851   1.662   2.048  0.2302  0.0455  1.6394
 1145SOL     OW14896   3.506   2.709   8.232  0.1085 -0.0555  0.4301
 1145SOL    HW114897   3.505   2.699   8.328 -1.7111  3.3631  0.7994
 1145SOL    HW214898   3.432   2.770   8.232  0.9852  1.0052 -0.0540
 1146SOL     OW14899   0.660   2.031   6.034  0.8281 -0.3019  0.3078
 1146SOL    HW114900   0.745   2.060   6.067  0.6686 -1.5103  1.7530
 1146SOL    HW214901   0.595   2.084   6.081  0.1508 -1.1964  0.3819
 1147SOL     OW14902   1.122   4.658   6.523 -0.1321 -0.4603 -0.4013
 1147SOL    HW114903   1.037   4.631   6.487 -1.0079 -1.5039  2.4351
 1147SOL    HW214904   1.115   4.622   6.612 -1.7090  0.8233 -0.0088
 1148SOL     OW14905   2.501   2.755  10.270 -0.4341 -0.4068 -0.0580
 1148SOL    HW114906   2.510   2.662  10.249 -2.4099 -0.7765  0.6811
 1148SOL    HW214907   2.561   2.797  10.208 -0.6488 -2.7353 -1.8789
 1149SOL     OW14908   3.955   3.118   7.173 -0.1368 -0.1727 -0.1465
 1149SOL    HW114909   3.895   3.084   7.238 -0.7060  0.9765 -0.0754
 1149SOL    HW214910   3.900   3.099   7.096  0.3242  0.4819 -0.6402
 1150SOL     OW14911   2.869   4.650   7.619  0.4490  0.0557  1.0028
 1150SOL    HW114912   2.829   0.006   7.652 -1.0783 -0.1165 -0.3870
 1150SOL    HW214913   2.793   4.603   7.585  0.1864  1.2380 -0.0660
 1151SOL     OW14914   3.679   0.938   5.612 -0.1318  0.0088  0.2342
 1151SOL    HW114915   3.716   0.916   5.697  1.7852 -1.2859 -0.9345
 1151SOL    HW214916   3.663   1.029   5.638  1.4795  0.1658  0.6780
 1152SOL     OW14917   2.608   3.818  13.016 -0.4321  0.1755  0.3231
 1152SOL    HW114918   2.665   3.895  13.017  0.1294 -0.2653  1.8350
 1152SOL    HW214919   2.549   3.836  13.089 -0.5721  4.0403 -0.7600
 1153SOL     OW14920   0.414   3.191   3.395 -0.0541 -0.2913  0.3847
 1153SOL    HW114921   0.370   3.196   3.310 -1.3847 -1.4113  0.9998
 1153SOL    HW214922   0.478   3.262   3.387  0.0907 -0.3411  1.1112
 1154SOL     OW14923   2.388   0.058   4.333  0.4488  0.7897  0.4345
 1154SOL    HW114924   2.387   0.125   4.265  0.8702 -0.7777 -1.1356
 1154SOL    HW214925   2.401   0.115   4.408  3.6400  1.5095 -0.6849
 1155SOL     OW14926   0.053   0.827   3.401 -0.2371 -0.2760 -0.9837
 1155SOL    HW114927   0.063   0.732   3.397  1.2117 -0.1027 -1.5198
 1155SOL    HW214928   0.060   0.855   3.309  1.5157 -0.2931 -0.8408
 1156SOL     OW14929   1.788   3.182  11.133  0.2667  0.2331 -0.3307
 1156SOL    HW114930   1.861   3.233  11.097 -1.0413  2.1576 -0.2443
 1156SOL    HW214931   1.802   3.202  11.226 -2.7530  1.5602 -0.1696
 1157SOL     OW14932   3.340   4.352  15.851 -0.0492  0.3427 -0.2144
 1157SOL    HW114933   3.402   4.288  15.814  0.5960  0.3064  0.9384
 1157SOL    HW214934   3.267   4.345  15.789  0.1739 -1.3054 -0.3003
 1158SOL     OW14935   1.672   4.512   6.326  0.6080  0.2550  1.0978
 1158SOL    HW114936   1.639   4.555   6.405 -3.1935  0.3077 -0.5368
 1158SOL    HW214937   1.712   4.430   6.354  3.6091  1.6495  0.8293
 1159SOL     OW14938   2.743   3.486  13.892  0.3395 -0.1423 -0.3501
 1159SOL    HW114939   2.701   3.448  13.969 -0.0658  1.2451  0.1216
 1159SOL    HW214940   2.670   3.534  13.851 -0.9985 -1.4105  0.5629
 1160SOL     OW14941   2.601   4.054  14.508 -0.2782 -0.2746 -0.2563
 1160SOL    HW114942   2.657   3.976  14.503  0.5593  0.4366 -1.9212
 1160SOL    HW214943   2.547   4.048  14.430 -1.2692 -4.0625  0.7029
 1161SOL     OW14944   0.412   1.971  11.396 -0.5844  0.2073 -0.7312
 1161SOL    HW114945   0.348   1.926  11.451  1.6494 -3.6005 -1.2238
 1161SOL    HW214946   0.388   1.955  11.304 -4.2430  0.5805  0.1746
 1162SOL     OW14947   1.379   2.565   2.271 -0.2487 -0.3812  0.3051
 1162SOL    HW114948   1.322   2.615   2.330  0.3402 -0.9127  1.3383
 1162SOL    HW214949   1.439   2.631   2.237 -1.3321  1.2333  1.5359
 1163SOL     OW14950   3.794   3.762   5.549  0.4818 -0.5220 -0.1822
 1163SOL    HW114951   3.820   3.685   5.601  1.1530 -0.6696 -0.7318
 1163SOL    HW214952   3.805   3.717   5.465 -0.6759  1.6181 -1.4592
 1164SOL     OW14953   3.884   4.145   7.882 -0.4482 -0.3627  0.4516
 1164SOL    HW114954   3.803   4.101   7.854 -1.9124  0.7382  2.8860
 1164SOL    HW214955   3.845   4.217   7.931 -0.9485  0.2930 -0.9387
 1165SOL     OW14956   3.254   3.938   3.291  0.2690  0.1765  0.0412
 1165SOL    HW114957   3.161   3.946   3.269  0.2073 -0.6248  0.0121
 1165SOL    HW214958   3.258   3.975   3.379  1.7908 -0.2077  0.1325
 1166SOL     OW14959   1.852   3.852   0.723  0.1899 -1.0362  0.8433
 1166SOL    HW114960   1.853   3.900   0.641  1.1950  0.3818  1.6981
 1166SOL    HW214961   1.866   3.923   0.785 -1.7239 -0.0806  0.1913
 1167SOL     OW14962   0.487   0.688   6.454  0.0189  0.8422 -0.4866
 1167SOL    HW114963   0.530   0.606   6.476  0.7120  1.2979 -0.1280
 1167SOL    HW214964   0.529   0.746   6.519  1.3808 -0.5906 -0.0852
 1168SOL     OW14965   1.758   2.767   6.074  0.6924  0.1000 -0.5224
 1168SOL    HW114966   1.748   2.835   6.007 -0.0627  0.8273  0.3211
 1168SOL    HW214967   1.746   2.816   6.156  1.7877 -0.0217 -0.2995
 1169SOL     OW14968   3.924   4.692   2.898 -0.3004  0.4026 -0.1166
 1169SOL    HW114969   3.914   0.036   2.964 -0.2297  0.6911 -0.4075
 1169SOL    HW214970   3.998   4.637   2.924  1.7489  2.8895 -0.7043
 1170SOL     OW14971   3.505   0.213   6.308  0.0220 -0.3524 -0.3382
 1170SOL    HW114972   3.506   0.173   6.221 -0.1268  0.8223 -0.8783
 1170SOL    HW214973   3.475   0.139   6.361 -2.2630 -0.0711 -1.2260
 1171SOL     OW14974   1.736   3.626   4.013 -0.3296  0.0273  0.3522
 1171SOL    HW114975   1.731   3.534   3.988 -0.8669  0.0294  0.4312
 1171SOL    HW214976   1.827   3.656   4.013 -0.3209 -0.0034 -1.8875
 1172SOL     OW14977   1.000   4.311   4.773 -0.3683  0.1729 -0.7163
 1172SOL    HW114978   0.999   4.403   4.747  2.0711  0.7311  1.0682
 1172SOL    HW214979   0.950   4.307   4.855 -1.0671 -0.3303 -1.1763
 1173SOL     OW14980   3.106   2.580   0.406  0.0660 -0.0468  0.3426
 1173SOL    HW114981   3.126   2.501   0.456 -1.6638 -0.4068  0.4801
 1173SOL    HW214982   3.186   2.630   0.423  2.3224 -3.1488 -1.1796
 1174SOL     OW14983   0.363   2.640   4.742  0.2894  0.1993 -0.4045
 1174SOL    HW114984   0.315   2.566   4.707  0.7600 -0.1123 -0.3926
 1174SOL    HW214985   0.299   2.710   4.727  1.2246  0.2912 -3.9739
 1175SOL     OW14986   1.648   0.831   0.274 -0.2444 -0.1386 -0.2140
 1175SOL    HW114987   1.599   0.911   0.257 -2.1978 -0.7893  2.3333
 1175SOL    HW214988   1.732   0.865   0.306 -0.4840 -0.4750  0.7628
 1176SOL     OW14989   3.632   2.225   7.323 -0.6564  0.0127 -0.5447
 1176SOL    HW114990   3.661   2.248   7.412  1.2089  0.4079 -1.2584
 1176SOL    HW214991   3.538   2.227   7.342 -0.5031 -1.5158  0.4115
 1177SOL     OW14992   0.531   4.373   1.173  0.3562 -0.1689  0.1614
 1177SOL    HW114993   0.566   4.346   1.258  1.0480 -0.9460 -0.3705
 1177SOL    HW214994   0.584   4.451   1.157 -1.3305  1.1924  1.1177
 1178SOL     OW14995   2.438   3.528   9.421  0.4978  0.1525  0.3031
 1178SOL    HW114996   2.471   3.614   9.449  1.2121  0.2088 -0.7178
 1178SOL    HW214997   2.444   3.477   9.501  1.4849  2.7588  1.9086
 1179SOL     OW14998   4.029   0.542   9.609  0.2671  0.2502  0.3535
 1179SOL    HW114999   3.997   0.544   9.519 -2.9838 -1.6376  1.4635
 1179SOL    HW215000   4.105   0.484   9.608  0.1887  0.2375 -3.1808
 1180SOL     OW15001   2.540   0.048   6.061 -0.1121 -0.0723 -0.5920
 1180SOL    HW115002   2.505   0.042   6.150 -2.3404  1.6559 -1.3376
 1180SOL    HW215003   2.631   0.021   6.075 -0.4901  0.0488  2.1437
 1181SOL     OW15004   0.919   1.865   4.340  0.3056  0.2898 -0.6223
 1181SOL    HW115005   0.828   1.883   4.316  0.2210 -1.8522 -1.9204
 1181SOL    HW215006   0.898   1.797   4.405  1.9098  0.9268  0.5694
 1182SOL     OW15007   4.218   0.202   8.908 -0.0975  0.3674  0.5158
 1182SOL    HW115008   4.177   0.275   8.954  0.0336 -0.5925  2.1633
 1182SOL    HW215009   4.144   0.141   8.908 -1.2210  1.7483 -3.7112
 1183SOL     OW15010   1.337   3.068  17.564 -0.7699 -0.4546 -0.2366
 1183SOL    HW115011   1.415   3.110  17.599 -1.3085  0.2163  0.1762
 1183SOL    HW215012   1.342   3.083  17.470 -1.4261 -0.0285 -0.2067
 1184SOL     OW15013   1.510   1.134  14.041  0.3227  0.3196  0.1395
 1184SOL    HW115014   1.504   1.190  14.119  0.8034  0.8836 -0.2258
 1184SOL    HW215015   1.420   1.117  14.015 -0.2743  1.5764  1.3652
 1185SOL     OW15016   2.335   4.186   9.372 -0.1588  0.0320  0.4357
 1185SOL    HW115017   2.365   4.101   9.340 -0.1125 -0.1290  0.9061
 1185SOL    HW215018   2.381   4.184   9.456  1.5360 -1.1500 -0.5324
 1186SOL     OW15019   2.823   2.802   6.201  0.5154  0.0521 -0.1026
 1186SOL    HW115020   2.767   2.733   6.237 -0.3066  0.0905 -1.3214
 1186SOL    HW215021   2.826   2.787   6.106  0.7465  1.4104 -0.3052
 1187SOL     OW15022   0.217   4.595   2.062 -0.4595  1.0373 -0.3701
 1187SOL    HW115023   0.220   4.608   1.967 -0.2166  0.1539 -0.4840
 1187SOL    HW215024   0.299   4.547   2.069  0.2325  2.0180 -1.6847
 1188SOL     OW15025   0.983   2.715   2.594  0.5452 -0.4391  0.1660
 1188SOL    HW115026   0.970   2.759   2.678  0.0816  0.7613 -0.5249
 1188SOL    HW215027   0.893   2.686   2.576  0.5092  0.7702 -1.7017
 1189SOL     OW15028   3.681   1.348  14.308  0.4330 -0.5033 -0.1893
 1189SOL    HW115029   3.663   1.442  14.303 -3.3939 -1.2829 -1.0026
 1189SOL    HW215030   3.608   1.305  14.352  0.2116 -0.8109 -0.8684
 1190SOL     OW15031   3.439   1.312   2.168  0.1688 -0.5792  0.6892
 1190SOL    HW115032   3.533   1.302   2.182  0.2460 -1.2062 -0.2896
 1190SOL    HW215033   3.414   1.269   2.250  0.5042  2.1694  2.2305
 1191SOL     OW15034   0.518   0.940  15.101 -0.0363  0.5555 -0.2363
 1191SOL    HW115035   0.603   0.976  15.077 -0.0488  0.9400  0.2976
 1191SOL    HW215036   0.520   0.867  15.039 -1.2785  0.8045 -0.5667
 1192SOL     OW15037   3.435   4.230   8.159  0.3350 -0.5255  0.0969
 1192SOL    HW115038   3.350   4.235   8.115  0.5489  0.3836 -0.2069
 1192SOL    HW215039   3.439   4.290   8.233 -0.5058 -1.3116  0.7898
 1193SOL     OW15040   3.265   0.661  11.680 -0.0890  0.4333  0.1876
 1193SOL    HW115041   3.316   0.720  11.624 -1.9880  1.3490 -0.5784
 1193SOL    HW215042   3.211   0.602  11.628  0.8752  0.2269 -0.5834
 1194SOL     OW15043   3.650   4.582  10.042  0.6739 -0.1039  0.4910
 1194SOL    HW115044   3.679   4.522  10.110  0.3392 -1.2724 -0.3967
 1194SOL    HW215045   3.675   4.534   9.963  1.0701 -0.9113  1.1168
 1195SOL     OW15046   1.866   4.493   8.135 -0.2909 -0.6235  0.1940
 1195SOL    HW115047   1.872   4.493   8.231  0.5678 -1.7254  0.1433
 1195SOL    HW215048   1.876   4.584   8.106  1.0424 -1.4337 -1.8556
 1196SOL     OW15049   3.341   4.000   6.247  0.4325  0.0366  0.2130
 1196SOL    HW115050   3.431   4.031   6.238  0.0138  1.3855  0.6072
 1196SOL    HW215051   3.349   3.971   6.338  1.3052  0.5458  0.3044
 1197SOL     OW15052   4.420   0.663   7.218 -0.0994  0.1646 -0.2569
 1197SOL    HW115053   4.371   0.654   7.300  0.9109  1.0578  0.4389
 1197SOL    HW215054   4.509   0.679   7.248 -1.1370  2.2181  1.7490
 1198SOL     OW15055   1.255   1.601   2.466  0.4582  0.4951  0.1821
 1198SOL    HW115056   1.294   1.664   2.526  0.0394 -0.1020  1.0955
 1198SOL    HW215057   1.305   1.630   2.391  0.4944  2.2025  0.8713
 1199SOL     OW15058   1.898   1.341  13.697 -0.4760 -0.0519  0.6820
 1199SOL    HW115059   1.910   1.345  13.792 -2.7859 -0.1827  0.9717
 1199SOL    HW215060   1.863   1.254  13.681  0.8041 -0.5244  0.4022
 1200SOL     OW15061   4.378   3.343   3.514  0.0429 -0.3928  0.4591
 1200SOL    HW115062   4.448   3.334   3.450 -0.1022 -0.4357  0.3054
 1200SOL    HW215063   4.345   3.253   3.509 -1.1496  0.0693 -0.1495
 1201SOL     OW15064   3.704   1.656   8.570 -0.3612  0.0282  0.3056
 1201SOL    HW115065   3.788   1.669   8.526 -0.4814  0.2112  0.1252
 1201SOL    HW215066   3.669   1.577   8.529 -0.4417 -0.6120  1.6140
 1202SOL     OW15067   0.700   0.035   2.748 -0.0427  0.3499 -0.2483
 1202SOL    HW115068   0.789   0.003   2.739 -0.6598 -1.0658 -1.3614
 1202SOL    HW215069   0.671   0.002   2.833  2.1313  1.1030  0.7640
 1203SOL     OW15070   1.730   0.312   6.648  0.2546 -0.0911 -0.0563
 1203SOL    HW115071   1.695   0.397   6.622  0.5671  0.0579  0.0050
 1203SOL    HW215072   1.785   0.336   6.722  2.0493 -1.9079 -0.8027
 1204SOL     OW15073   1.070   0.457   8.778 -0.0972 -0.3150 -0.1800
 1204SOL    HW115074   1.028   0.519   8.718 -0.7400 -0.3290  0.2542
 1204SOL    HW215075   1.074   0.510   8.857  0.0535 -1.8401  0.8198
 1205SOL     OW15076   0.545   3.866   4.056 -0.5148  0.2443 -0.3799
 1205SOL    HW115077   0.521   3.930   3.989  0.8246  1.1910  0.0479
 1205SOL    HW215078   0.604   3.800   4.018 -0.2434 -0.2512  0.9029
 1206SOL     OW15079   1.436   0.631  16.420 -0.4135  0.1495  0.1340
 1206SOL    HW115080   1.416   0.724  16.413 -1.2969  0.0692  1.5945
 1206SOL    HW215081   1.372   0.587  16.364  0.8517  0.3695 -1.4975
 1207SOL     OW15082   1.281   2.052  13.283 -0.2766  0.1558 -0.2182
 1207SOL    HW115083   1.366   2.096  13.293 -0.8290  1.1358  0.1865
 1207SOL    HW215084   1.253   2.084  13.197  0.4811  0.6843 -0.2650
 1208SOL     OW15085   1.923   4.681   2.910 -0.1749 -0.0586  0.0195
 1208SOL    HW115086   1.923   4.668   2.815  0.5934 -3.2582  0.4403
 1208SOL    HW215087   1.888   4.596   2.936 -1.8595  1.0613  1.4120
 1209SOL     OW15088   1.340   1.357   4.085 -0.3406  0.0378 -0.1119
 1209SOL    HW115089   1.258   1.373   4.039 -0.8405 -0.1417  0.7126
 1209SOL    HW215090   1.394   1.430   4.052  1.0550 -1.4346 -1.0888
 1210SOL     OW15091   3.742   3.925  15.570  0.4333 -0.4536 -0.3401
 1210SOL    HW115092   3.812   3.894  15.511  0.5757 -1.8554  0.5805
 1210SOL    HW215093   3.764   4.016  15.592 -1.6032  0.2061 -1.0515
 1211SOL     OW15094   3.613   3.290   6.133 -0.0321 -0.4229 -0.1815
 1211SOL    HW115095   3.669   3.271   6.208 -2.6215  0.1706  1.9118
 1211SOL    HW215096   3.653   3.238   6.064  1.7409  0.7829 -0.0547
 1212SOL     OW15097   1.151   4.141   5.644 -0.2102 -0.3094 -0.4945
 1212SOL    HW115098   1.153   4.220   5.698  3.1699  0.9909 -2.5163
 1212SOL    HW215099   1.217   4.160   5.577 -1.2738 -2.3815 -2.1059
 1213SOL     OW15100   0.851   0.163   6.079 -0.0579  0.3773  0.0020
 1213SOL    HW115101   0.941   0.193   6.091  0.4425 -0.1741 -2.4059
 1213SOL    HW215102   0.826   0.141   6.169 -1.9746 -0.6737 -0.7998
 1214SOL     OW15103   2.657   3.597   7.193 -0.0548  0.4541 -0.1643
 1214SOL    HW115104   2.698   3.557   7.117  0.7741  1.9831 -0.5104
 1214SOL    HW215105   2.598   3.523   7.210  1.7344 -1.7231 -3.6522
 1215SOL     OW15106   2.485   3.582   8.736  0.9958  0.7390  0.1403
 1215SOL    HW115107   2.415   3.615   8.792  0.0454 -1.6535  0.3814
 1215SOL    HW215108   2.479   3.488   8.753 -0.6226  0.8201 -0.0118
 1216SOL     OW15109   3.018   2.224  15.077  0.0230 -0.3347  0.0583
 1216SOL    HW115110   2.947   2.276  15.115  0.3696 -0.5878  1.0476
 1216SOL    HW215111   3.031   2.287  15.006 -0.0608 -0.0178  0.3233
 1217SOL     OW15112   2.746   0.518   6.282  0.0677 -0.9102 -0.1265
 1217SOL    HW115113   2.755   0.478   6.368 -1.6765  0.9479  0.9237
 1217SOL    HW215114   2.678   0.584   6.299  0.8909 -0.3857  1.1365
 1218SOL     OW15115   3.168   1.020   3.571  0.6095 -0.2647  0.1247
 1218SOL    HW115116   3.256   1.023   3.608  1.8806 -2.5164 -2.7308
 1218SOL    HW215117   3.134   0.968   3.644 -1.6209 -1.9280 -2.1086
 1219SOL     OW15118   2.583   1.139   1.214 -0.0739 -0.0715 -0.1117
 1219SOL    HW115119   2.605   1.231   1.206  2.1642 -0.7842 -2.2574
 1219SOL    HW215120   2.525   1.150   1.289 -0.1766 -0.7443 -0.0932
 1220SOL     OW15121   3.587   3.625  16.613  0.2227 -0.1665 -0.7068
 1220SOL    HW115122   3.621   3.694  16.670 -3.0874  0.4670  0.5547
 1220SOL    HW215123   3.668   3.601  16.569  2.2703  2.1824  1.8262
 1221SOL     OW15124   1.410   1.439   5.307  0.2453 -0.0349 -0.0972
 1221SOL    HW115125   1.336   1.396   5.351  1.2801 -1.4641  0.2436
 1221SOL    HW215126   1.448   1.494   5.375 -2.5813  3.5106 -1.3519
 1222SOL     OW15127   3.801   0.854   6.154  0.0119 -0.2282  0.4771
 1222SOL    HW115128   3.802   0.759   6.142 -2.9918 -0.5195  2.5624
 1222SOL    HW215129   3.869   0.863   6.220 -1.3027 -0.0193  1.7905
 1223SOL     OW15130   4.459   4.496   6.285 -0.2893  0.2572 -0.5699
 1223SOL    HW115131   4.490   4.571   6.234 -0.9001  0.5815 -0.4713
 1223SOL    HW215132   4.406   4.459   6.214 -1.1436 -0.1505  0.2773
 1224SOL     OW15133   0.506   4.530   8.781 -0.4592  0.5734  0.5884
 1224SOL    HW115134   0.524   4.441   8.812 -1.9501 -0.0716 -0.4636
 1224SOL    HW215135   0.510   4.585   8.860  0.1849  1.1362  0.1643
 1225SOL     OW15136   1.212   4.027  12.520  0.0673 -0.3731  0.4207
 1225SOL    HW115137   1.198   4.070  12.604 -1.6545 -0.5839  0.2400
 1225SOL    HW215138   1.300   4.004  12.549  0.9074  0.5747 -1.3513
 1226SOL     OW15139   0.507   0.202   1.685 -0.1451  0.5456 -0.3495
 1226SOL    HW115140   0.414   0.226   1.690 -0.2018  0.5083 -1.2059
 1226SOL    HW215141   0.549   0.286   1.699  0.0777  0.4698 -0.5680
 1227SOL     OW15142   3.968   4.270   3.088  0.3878 -0.7089 -0.8734
 1227SOL    HW115143   3.980   4.176   3.102  1.0566 -0.6522 -1.0718
 1227SOL    HW215144   3.903   4.301   3.151  0.6816  0.9159 -1.3618
 1228SOL     OW15145   0.869   1.051   2.031 -0.0556  0.9360 -0.2585
 1228SOL    HW115146   0.842   0.965   2.063  2.6027 -0.7931 -2.6569
 1228SOL    HW215147   0.790   1.076   1.982  1.2911 -0.8986 -3.3820
 1229SOL     OW15148   0.460   0.769  12.920 -0.0096  0.1120  0.3547
 1229SOL    HW115149   0.537   0.823  12.909 -0.5569  0.7568 -0.3242
 1229SOL    HW215150   0.480   0.741  13.009  0.5107 -0.3739  0.0833
 1230SOL     OW15151   4.057   2.576   6.284  0.6442  0.3559  0.1721
 1230SOL    HW115152   4.076   2.482   6.282  0.2826  0.3528 -3.3028
 1230SOL    HW215153   4.058   2.602   6.192  1.2136 -0.2862 -0.0008
 1231SOL     OW15154   3.533   4.686   3.712  0.0654 -0.1479 -0.0025
 1231SOL    HW115155   3.589   0.023   3.760  0.3269  0.8142 -1.5499
 1231SOL    HW215156   3.486   0.006   3.642  1.2636  1.4565  0.2255
 1232SOL     OW15157   3.794   2.338  13.154  0.2783 -0.0936  0.6477
 1232SOL    HW115158   3.797   2.252  13.114  1.0357 -0.9713  2.5835
 1232SOL    HW215159   3.853   2.331  13.230 -0.0873 -4.4649  0.5256
 1233SOL     OW15160   0.358   3.455  10.069  0.7088  0.1222  0.3456
 1233SOL    HW115161   0.298   3.477   9.998 -1.9408  0.2268  2.5831
 1233SOL    HW215162   0.294   3.438  10.139 -0.2418  2.0434 -0.0544
 1234SOL     OW15163   4.411   4.685   5.020  0.1136  0.6697  0.6649
 1234SOL    HW115164   4.448   4.626   5.086  1.0611  0.4156 -0.0960
 1234SOL    HW215165   4.488   0.010   4.991 -1.1515  2.8990  1.1205
 1235SOL     OW15166   3.655   4.079   7.529 -0.6197 -0.0765  0.6632
 1235SOL    HW115167   3.571   4.055   7.490 -0.1741 -0.5880 -0.0025
 1235SOL    HW215168   3.652   4.173   7.509  0.9431 -0.2062 -0.1852
 1236SOL     OW15169   4.153   2.679   8.976 -0.2397 -0.3556 -0.6489
 1236SOL    HW115170   4.231   2.639   9.015 -0.0869  1.1986  0.6015
 1236SOL    HW215171   4.171   2.766   9.011 -0.3203  0.0525 -1.6104
 1237SOL     OW15172   1.262   3.569   4.266 -0.2053  0.3131  0.1111
 1237SOL    HW115173   1.208   3.504   4.312 -0.1654  1.2614  1.5201
 1237SOL    HW215174   1.255   3.542   4.175  0.3570 -4.0439  1.3466
 1238SOL     OW15175   0.785   2.689  16.061  0.2787  0.1931  0.0986
 1238SOL    HW115176   0.799   2.711  15.969  0.6727 -1.4593 -0.2279
 1238SOL    HW215177   0.738   2.607  16.060 -1.5774  1.2528  0.9174
 1239SOL     OW15178   1.691   0.440   2.180  0.3995 -0.3680  0.0163
 1239SOL    HW115179   1.648   0.358   2.204 -0.4275 -0.1973 -0.8802
 1239SOL    HW215180   1.631   0.487   2.122 -0.1279 -2.4901 -1.1575
 1240SOL     OW15181   3.651   2.573  11.792  0.8206 -0.0612 -0.2372
 1240SOL    HW115182   3.703   2.493  11.784  0.1108 -0.8699  3.2680
 1240SOL    HW215183   3.565   2.533  11.775  1.2516 -0.6801 -0.9297
 1241SOL     OW15184   0.311   1.998   4.958 -0.3246 -0.6482 -0.1238
 1241SOL    HW115185   0.251   1.924   4.965  0.8276 -1.6949 -1.2010
 1241SOL    HW215186   0.357   1.991   5.042 -0.7950  0.7863  0.2455
 1242SOL     OW15187   0.477   0.505   8.803  0.1108 -0.4115 -0.6799
 1242SOL    HW115188   0.460   0.597   8.825  0.5726 -0.1643 -1.3669
 1242SOL    HW215189   0.527   0.516   8.722  1.4888  1.6370  0.4368
 1243SOL     OW15190   4.320   3.811   3.484  0.0633  0.1592 -0.4106
 1243SOL    HW115191   4.252   3.871   3.516 -1.1207 -0.9551 -0.8106
 1243SOL    HW215192   4.293   3.730   3.527 -2.3361  0.9336 -0.4633
 1244SOL     OW15193   0.149   2.700   2.592 -0.5195  0.5545  0.0813
 1244SOL    HW115194   0.084   2.770   2.591  0.3012  1.3151 -0.1495
 1244SOL    HW215195   0.155   2.672   2.500 -2.1780  0.5161 -0.0103
 1245SOL     OW15196   1.583   1.963   5.095  0.0930 -0.8039 -0.4264
 1245SOL    HW115197   1.629   2.027   5.041 -2.2628 -0.6788 -2.3289
 1245SOL    HW215198   1.500   1.960   5.047  0.1050  0.8490 -0.5470
 1246SOL     OW15199   1.790   0.541  13.080  0.3825  0.2641  0.4533
 1246SOL    HW115200   1.771   0.541  13.174 -0.3831 -0.1531  0.2997
 1246SOL    HW215201   1.726   0.605  13.048 -0.4092  0.0764  1.6460
 1247SOL     OW15202   2.940   0.193   2.246  0.0599  0.1607 -0.4240
 1247SOL    HW115203   2.978   0.281   2.246  0.2385  0.0828  0.4248
 1247SOL    HW215204   2.927   0.184   2.152 -4.1253 -0.5457  0.2511
 1248SOL     OW15205   2.765   3.862   4.855 -0.2747  0.1309  0.1426
 1248SOL    HW115206   2.781   3.955   4.873  0.5479 -0.6641  3.4495
 1248SOL    HW215207   2.671   3.877   4.843  0.3588  2.0170 -2.5729
 1249SOL     OW15208   2.168   1.140   5.624 -0.3273 -0.4669  0.2210
 1249SOL    HW115209   2.258   1.133   5.655 -0.1987  0.1787  0.0137
 1249SOL    HW215210   2.159   1.063   5.569  0.4576 -1.4317  1.4516
 1250SOL     OW15211   3.238   2.968   3.201  0.0524  0.0742  0.3526
 1250SOL    HW115212   3.207   2.878   3.215 -0.4173 -0.2835 -2.9324
 1250SOL    HW215213   3.332   2.955   3.191 -0.4745 -1.3747 -3.0357
 1251SOL     OW15214   2.815   2.710   5.531 -0.3620  0.3798 -0.1339
 1251SOL    HW115215   2.902   2.690   5.567 -0.3710 -2.1480 -1.4899
 1251SOL    HW215216   2.809   2.651   5.456 -0.6657  1.2591 -0.8046
 1252SOL     OW15217   0.039   3.724   4.223 -0.1607 -0.1833 -0.4777
 1252SOL    HW115218   4.692   3.787   4.216 -0.9155 -0.8236  1.4922
 1252SOL    HW215219   0.075   3.753   4.307  0.2064  1.0616 -1.0685
 1253SOL     OW15220   0.798   3.263   3.154 -0.4221 -0.0926 -0.2112
 1253SOL    HW115221   0.820   3.183   3.203  0.7577 -0.0440 -0.6635
 1253SOL    HW215222   0.744   3.307   3.220 -0.6083  0.4383 -0.7230
 1254SOL     OW15223   2.304   2.169   5.078 -0.1040 -0.1876  0.5620
 1254SOL    HW115224   2.216   2.182   5.041 -0.0167 -0.0549  0.4029
 1254SOL    HW215225   2.284   2.079   5.103 -0.3491 -0.2330  0.2058
 1255SOL     OW15226   2.300   2.259   0.417  0.5202 -0.2834  0.6076
 1255SOL    HW115227   2.352   2.234   0.341  0.7412 -1.6693  1.2264
 1255SOL    HW215228   2.361   2.268   0.490  3.0843  0.1701 -1.6086
 1256SOL     OW15229   0.034   3.961   7.947 -0.2268 -0.3279 -0.1753
 1256SOL    HW115230   4.688   3.897   7.959 -1.3812  1.0236  0.1790
 1256SOL    HW215231   4.719   4.044   7.973 -2.3980 -1.1651 -0.8122
 1257SOL     OW15232   1.716   3.887   7.194 -0.3472  0.6992 -0.3178
 1257SOL    HW115233   1.688   3.906   7.283 -0.9123 -0.7659 -0.1787
 1257SOL    HW215234   1.721   3.975   7.158  2.2997 -0.4812 -2.8002
 1258SOL     OW15235   0.239   1.191   7.353 -0.1736  0.6687  0.0642
 1258SOL    HW115236   0.187   1.232   7.284  0.9496  1.1327 -0.5069
 1258SOL    HW215237   0.331   1.198   7.325  0.0577 -2.4551  0.0223
 1259SOL     OW15238   3.818   3.446   6.006  0.3553 -0.9019  0.4734
 1259SOL    HW115239   3.836   3.470   6.097  0.1622  2.3864 -0.3321
 1259SOL    HW215240   3.724   3.466   6.013  0.1753 -1.2565 -0.8265
 1260SOL     OW15241   0.769   4.629   3.613 -0.1003  0.4574 -0.5618
 1260SOL    HW115242   0.858   4.661   3.605  1.0127 -2.1725  1.4021
 1260SOL    HW215243   0.733   4.660   3.530  0.3124 -0.4337 -1.0764
 1261SOL     OW15244   1.966   3.113   6.953  0.4381  0.4286  0.5406
 1261SOL    HW115245   2.059   3.101   6.970  0.6428  1.3293  0.0699
 1261SOL    HW215246   1.933   3.065   7.029  0.5234 -2.0480 -0.9842
 1262SOL     OW15247   4.223   1.559   8.056 -0.1747 -0.4278 -0.4654
 1262SOL    HW115248   4.146   1.524   8.010 -0.3930  0.9172 -1.1515
 1262SOL    HW215249   4.274   1.481   8.075 -0.7461 -0.2866  1.6729
 1263SOL     OW15250   2.533   2.308  16.692  0.2593 -0.1941  0.0732
 1263SOL    HW115251   2.577   2.223  16.697  0.7167  0.0713  0.5884
 1263SOL    HW215252   2.485   2.315  16.775 -0.8706 -2.1275 -0.4065
 1264SOL     OW15253   2.865   4.687   5.699  0.6911 -0.6105  0.3759
 1264SOL    HW115254   2.782   4.657   5.733 -0.3592  1.8818  0.0532
 1264SOL    HW215255   2.856   0.052   5.734  0.0962 -0.7569  0.5794
 1265SOL     OW15256   1.311   4.672   3.617 -0.1643  0.1141  0.6188
 1265SOL    HW115257   1.312   4.577   3.607  0.9073  0.0484  1.3370
 1265SOL    HW215258   1.370   4.679   3.693 -0.8002  0.5122  1.0760
 1266SOL     OW15259   0.438   1.725  10.806 -0.1134  0.1218 -0.3647
 1266SOL    HW115260   0.461   1.682  10.724  1.4709 -0.6603  0.4918
 1266SOL    HW215261   0.402   1.813  10.791 -2.9492 -1.2217 -1.2762
 1267SOL     OW15262   0.560   0.879   3.047  0.6266 -0.0469 -0.3828
 1267SOL    HW115263   0.607   0.864   2.965  0.7083  0.9341 -0.5106
 1267SOL    HW215264   0.481   0.919   3.009  0.0869 -0.5491  0.1995
 1268SOL     OW15265   4.712   4.037   0.198 -0.3431 -0.1988  0.2751
 1268SOL    HW115266   0.037   4.038   0.280 -0.4007 -0.6642  0.3167
 1268SOL    HW215267   4.633   4.089   0.213 -0.5651 -0.4208 -0.1337
 1269SOL     OW15268   2.892   1.412   7.026  0.7602  0.0015  0.3917
 1269SOL    HW115269   2.814   1.358   7.044  1.4866 -1.2019 -0.0894
 1269SOL    HW215270   2.938   1.364   6.958 -2.4691 -0.5795 -1.3713
 1270SOL     OW15271   2.055   4.153  16.763 -0.3523 -0.4332  0.1721
 1270SOL    HW115272   2.098   4.183  16.843  0.4285 -0.4443 -0.2317
 1270SOL    HW215273   1.971   4.196  16.774 -1.0480 -1.1971 -2.2121
 1271SOL     OW15274   3.717   1.050   2.312 -0.1008 -0.8670  0.3139
 1271SOL    HW115275   3.628   1.031   2.342 -0.7524  1.7182 -0.0386
 1271SOL    HW215276   3.763   1.067   2.394  0.1511  2.0976 -0.4409
 1272SOL     OW15277   3.004   1.564  10.372  0.1126 -0.3009  0.5053
 1272SOL    HW115278   2.954   1.563  10.290  0.9761  1.2592 -0.0297
 1272SOL    HW215279   3.063   1.490  10.360  0.8162 -0.2356  3.5484
 1273SOL     OW15280   1.819   4.008   7.642  0.2684  0.0073  0.4386
 1273SOL    HW115281   1.868   3.941   7.595 -1.8881 -1.2374 -0.0157
 1273SOL    HW215282   1.855   4.004   7.730 -1.1102 -0.5467  0.9628
 1274SOL     OW15283   3.610   1.709  13.367 -0.2426  0.6203 -0.0289
 1274SOL    HW115284   3.519   1.682  13.363  0.7091 -2.4452 -0.5757
 1274SOL    HW215285   3.646   1.640  13.423  0.7059  2.4013  1.5706
 1275SOL     OW15286   2.471   0.044   5.172 -0.1767 -0.4550  0.1041
 1275SOL    HW115287   2.435   0.105   5.237  0.1021 -1.1054  0.8647
 1275SOL    HW215288   2.529   4.724   5.234 -0.3147 -1.5057 -0.5191
 1276SOL     OW15289   1.999   1.720  14.652  0.2848  0.7821 -0.2700
 1276SOL    HW115290   1.963   1.809  14.646 -1.5522 -0.1123 -2.4062
 1276SOL    HW215291   2.093   1.730  14.637  0.3517  1.3315  0.4802
 1277SOL     OW15292   2.259   2.242  10.488  0.0342 -0.5688  0.1391
 1277SOL    HW115293   2.195   2.182  10.448 -0.8668 -0.5019  1.4736
 1277SOL    HW215294   2.287   2.296  10.414  3.1487 -1.2124  0.8636
 1278SOL     OW15295   4.636   2.916   5.478 -0.0034 -0.0695 -0.3068
 1278SOL    HW115296   4.680   2.832   5.479  0.3026  0.0554 -3.1803
 1278SOL    HW215297   4.659   2.942   5.568 -0.0354 -0.2959 -0.2328
 1279SOL     OW15298   3.553   3.263  14.651  0.0000  0.5188  0.1896
 1279SOL    HW115299   3.491   3.192  14.664  0.8187 -0.1624  0.3448
 1279SOL    HW215300   3.488   3.330  14.629 -0.0814  0.9901  1.8330
 1280SOL     OW15301   3.037   0.674   2.579 -0.3376 -0.0635 -0.6510
 1280SOL    HW115302   3.010   0.764   2.597  0.2436 -0.4042  1.8242
 1280SOL    HW215303   3.098   0.698   2.508 -0.5668  1.1049 -0.4510
 1281SOL     OW15304   3.394   0.915   1.150  0.3374  0.5342  0.5005
 1281SOL    HW115305   3.380   0.828   1.187 -0.3110  1.0138  1.4011
 1281SOL    HW215306   3.356   0.917   1.063 -0.7974 -1.5602  0.9604
 1282SOL     OW15307   4.290   3.167   7.010  0.1705 -0.5482  0.2622
 1282SOL    HW115308   4.222   3.208   7.063 -2.4102 -1.6788 -2.1951
 1282SOL    HW215309   4.294   3.075   7.038 -1.5230 -1.0603 -1.2450
 1283SOL     OW15310   4.219   0.062   3.506  0.0718  0.0802  0.0332
 1283SOL    HW115311   4.161   4.720   3.542 -1.9453 -0.2612 -3.8436
 1283SOL    HW215312   4.254   0.107   3.583 -1.0044  1.1420 -0.0933
 1284SOL     OW15313   4.387   4.544   1.995  0.3749  1.0217  0.1068
 1284SOL    HW115314   4.458   4.479   1.999  0.9915  1.5519 -1.9117
 1284SOL    HW215315   4.432   4.618   1.954  0.7354  0.9038  0.2845
 1285SOL     OW15316   2.015   0.932   8.521  0.2417 -0.2193 -0.1561
 1285SOL    HW115317   2.081   0.946   8.454  1.0714  1.3729  0.9708
 1285SOL    HW215318   1.969   0.854   8.490 -0.2680 -0.0482  0.1542
 1286SOL     OW15319   1.008   0.316   1.455 -0.0467 -0.1941 -0.0716
 1286SOL    HW115320   0.963   0.276   1.380 -1.3432 -0.0820  0.6411
 1286SOL    HW215321   0.952   0.390   1.478  0.7554  0.7705 -1.2784
 1287SOL     OW15322   2.347   1.109  17.021 -0.1049  0.4936 -0.0652
 1287SOL    HW115323   2.291   1.159  16.962  0.6757  1.5708  0.1080
 1287SOL    HW215324   2.417   1.079  16.964 -0.5194  0.3224 -0.4803
 1288SOL     OW15325   1.984   3.590   3.522  0.1712  1.0477 -0.3729
 1288SOL    HW115326   1.918   3.539   3.476 -0.8963  1.1470  1.0470
 1288SOL    HW215327   1.926   3.657   3.557 -0.4513 -0.9386  2.4469
 1289SOL     OW15328   1.128   1.779   6.060  0.1945  0.2876 -0.0652
 1289SOL    HW115329   1.190   1.800   5.990 -0.8164  1.2096 -0.6986
 1289SOL    HW215330   1.060   1.839   6.028 -0.8855 -0.5222  0.7101
 1290SOL     OW15331   1.411   1.933  10.330  0.4190 -0.1220 -0.4069
 1290SOL    HW115332   1.472   1.958  10.400 -0.6421 -2.9977  1.5280
 1290SOL    HW215333   1.392   2.023  10.302  0.5588 -0.1567 -0.6140
 1291SOL     OW15334   0.487   0.815   2.257 -0.4413  0.3884  0.1601
 1291SOL    HW115335   0.409   0.869   2.240  0.0606  0.7412 -1.0178
 1291SOL    HW215336   0.538   0.846   2.183  0.4240 -2.7495 -0.5558
 1292SOL     OW15337   0.122   0.105  11.043  0.1536 -0.1830 -0.8818
 1292SOL    HW115338   0.150   0.161  10.971  2.2548 -1.3606 -0.9945
 1292SOL    HW215339   0.083   0.027  11.005 -2.1985  1.0541 -1.0162
 1293SOL     OW15340   3.285   0.677   1.284 -0.1145  0.5987  0.1195
 1293SOL    HW115341   3.190   0.672   1.291 -0.0560 -0.6193  0.0593
 1293SOL    HW215342   3.315   0.614   1.349 -1.1321  0.6549  0.6408
 1294SOL     OW15343   2.507   1.303  12.568  0.2338  0.1304  0.9883
 1294SOL    HW115344   2.546   1.350  12.641  0.2011  3.4816 -1.1901
 1294SOL    HW215345   2.476   1.223  12.611  0.9038  0.2679  1.7253
 1295SOL     OW15346   2.472   1.959   7.806  0.0277 -0.2590 -0.4122
 1295SOL    HW115347   2.400   1.978   7.866 -0.7520  1.5956 -1.9280
 1295SOL    HW215348   2.487   2.046   7.768 -1.8335 -0.7417 -2.2578
 1296SOL     OW15349   0.037   2.193   8.525 -0.4041 -0.4631  0.4323
 1296SOL    HW115350   0.105   2.193   8.593 -1.6963  1.9949  1.7089
 1296SOL    HW215351   0.076   2.144   8.452 -1.6626 -0.0246 -0.5309
 1297SOL     OW15352   0.214   1.053  15.049 -0.3000 -0.2291 -0.2882
 1297SOL    HW115353   0.250   1.080  14.965  0.7076 -0.3671  0.1026
 1297SOL    HW215354   0.134   1.106  15.046  0.5751  1.1390  0.3384
 1298SOL     OW15355   3.598   1.138   9.193  0.1395  0.3926  0.0980
 1298SOL    HW115356   3.635   1.217   9.233 -1.7139 -0.5040  3.6327
 1298SOL    HW215357   3.589   1.079   9.268  0.3326 -0.4623 -0.5445
 1299SOL     OW15358   4.122   2.068  15.054 -0.0273  0.3965  0.5263
 1299SOL    HW115359   4.072   2.060  15.135 -0.9497  0.8470  0.0054
 1299SOL    HW215360   4.143   2.161  15.049 -1.1803  0.6052 -0.3889
 1300SOL     OW15361   3.091   2.464   2.713  0.0261  0.7788 -0.5764
 1300SOL    HW115362   3.150   2.533   2.682 -0.5607  2.5764  2.3473
 1300SOL    HW215363   3.114   2.386   2.662  0.4640  2.0585 -2.3571
 1301SOL     OW15364   3.026   4.346   3.505  0.4618  0.3423  0.6307
 1301SOL    HW115365   3.026   4.391   3.590  1.1048  1.4620  0.0349
 1301SOL    HW215366   2.952   4.288   3.524  0.2888 -0.0623 -1.2817
 1302SOL     OW15367   3.330   1.497   4.668 -0.6227 -0.0301 -0.0579
 1302SOL    HW115368   3.271   1.424   4.690 -2.1766  1.0348 -0.7176
 1302SOL    HW215369   3.301   1.515   4.579  0.5274 -0.6875 -0.5662
 1303SOL     OW15370   4.115   4.493   4.473 -0.4313  0.0302 -0.0404
 1303SOL    HW115371   4.126   4.402   4.499  2.4564  0.8633  1.5607
 1303SOL    HW215372   4.207   4.503   4.451 -0.7795  0.0316 -1.4837
 1304SOL     OW15373   2.564   2.083   3.403 -0.2032  0.1666 -0.5309
 1304SOL    HW115374   2.536   1.994   3.381  3.5098 -0.4037 -2.9771
 1304SOL    HW215375   2.601   2.112   3.320  0.1969 -1.8098 -1.0462
 1305SOL     OW15376   3.047   2.469   5.117 -0.1859 -0.2635  0.2588
 1305SOL    HW115377   3.020   2.390   5.070  0.2277 -0.6331  0.6440
 1305SOL    HW215378   3.061   2.424   5.200  1.3210  1.0443  0.7053
 1306SOL     OW15379   1.975   0.379  13.016  0.3430 -0.1161  0.1834
 1306SOL    HW115380   1.895   0.432  13.022  0.4574  0.3065 -1.9438
 1306SOL    HW215381   2.031   0.398  13.092 -0.8550  0.0312  1.0314
 1307SOL     OW15382   4.154   0.217   5.259  0.2071  0.4059 -0.1286
 1307SOL    HW115383   4.242   0.204   5.224  0.3810 -1.3802  0.9396
 1307SOL    HW215384   4.169   0.167   5.339  1.2310  0.1096 -0.5081
 1308SOL     OW15385   2.190   3.893   2.944 -0.0474 -0.1644  0.0258
 1308SOL    HW115386   2.206   3.837   3.019 -1.0156 -1.4929 -0.7654
 1308SOL    HW215387   2.244   3.970   2.964 -0.7236  0.3541 -0.1358
 1309SOL     OW15388   2.107   2.490   7.099 -0.6304 -0.2845 -0.2359
 1309SOL    HW115389   2.124   2.584   7.104 -0.2914 -0.2943 -1.2102
 1309SOL    HW215390   2.037   2.484   7.163 -0.0090 -0.3159  0.4479
 1310SOL     OW15391   2.222   2.000   0.915  0.6904  0.2230  0.4873
 1310SOL    HW115392   2.310   2.031   0.894  1.1227 -2.1960 -1.3291
 1310SOL    HW215393   2.199   2.045   0.996  0.4917  0.4080  0.3246
 1311SOL     OW15394   0.851   4.380  14.597 -0.3453 -0.0326 -0.0234
 1311SOL    HW115395   0.937   4.424  14.599 -0.5391  0.3132  0.7302
 1311SOL    HW215396   0.813   4.425  14.522  1.4806  0.9575 -0.3671
 1312SOL     OW15397   0.271   3.221   8.660 -0.5524 -0.4023 -0.3864
 1312SOL    HW115398   0.223   3.302   8.645  2.6626  1.0798 -2.5032
 1312SOL    HW215399   0.341   3.254   8.716 -1.1391 -1.2630  0.8842
 1313SOL     OW15400   0.675   2.025   6.699  0.3347 -0.4558 -0.2554
 1313SOL    HW115401   0.750   2.006   6.643  1.1606  3.4889 -0.5134
 1313SOL    HW215402   0.668   2.118   6.678 -1.1767 -0.3689  0.5937
 1314SOL     OW15403   4.672   1.785   8.854 -0.6914 -0.3292 -0.0141
 1314SOL    HW115404   4.605   1.719   8.871 -0.5426 -0.4750  0.0022
 1314SOL    HW215405   0.023   1.754   8.903 -1.3109 -1.1739  0.4086
 1315SOL     OW15406   4.573   3.734   8.747  0.3152  0.1067 -0.0636
 1315SOL    HW115407   4.505   3.669   8.732 -0.0611  0.7616 -1.2379
 1315SOL    HW215408   4.526   3.803   8.793 -0.0739 -0.2101  0.0140
 1316SOL     OW15409   1.343   4.641   5.599 -0.6564  0.0626 -0.4565
 1316SOL    HW115410   1.358   4.584   5.675 -1.3277 -2.9460 -2.5814
 1316SOL    HW215411   1.336   4.722   5.650  2.0416  0.3241 -0.4996
 1317SOL     OW15412   0.188   0.948   4.443 -0.0606 -0.5124 -0.6731
 1317SOL    HW115413   0.168   0.889   4.515 -1.2233 -0.8893 -1.2965
 1317SOL    HW215414   0.100   0.966   4.410 -1.5886 -1.7677  2.7265
 1318SOL     OW15415   3.538   0.280   4.525 -0.2913  0.0794 -0.6064
 1318SOL    HW115416   3.542   0.209   4.460 -1.2304 -0.7418  0.2308
 1318SOL    HW215417   3.631   0.274   4.548 -0.3064 -1.1953 -0.8869
 1319SOL     OW15418   0.452   1.643   3.053  0.1812  0.4309  0.5033
 1319SOL    HW115419   0.363   1.654   3.085 -0.8562 -2.1802 -1.4788
 1319SOL    HW215420   0.452   1.704   2.979  2.5098  1.5328  1.4201
 1320SOL     OW15421   3.892   4.417   8.544  0.1372  0.0479  0.2781
 1320SOL    HW115422   3.878   4.393   8.453  1.8384 -1.9171  0.5439
 1320SOL    HW215423   3.914   4.335   8.589  1.0639  0.0601 -0.1573
 1321SOL     OW15424   0.366   1.874   3.567  0.0234  0.6746  0.5500
 1321SOL    HW115425   0.351   1.969   3.568  1.8712  0.9468  3.1528
 1321SOL    HW215426   0.290   1.835   3.524 -0.1088 -1.5223  2.8003
 1322SOL     OW15427   0.152   3.034  10.731 -0.0411 -0.8740 -0.2280
 1322SOL    HW115428   0.213   3.004  10.798 -0.5213  0.5180  0.8198
 1322SOL    HW215429   0.201   3.113  10.706 -0.6493 -0.0085  1.3723
 1323SOL     OW15430   1.938   0.327   6.848  0.2041 -0.0997  0.3429
 1323SOL    HW115431   1.968   0.317   6.938 -0.9139 -1.8174  0.5118
 1323SOL    HW215432   1.907   0.417   6.859 -1.2404 -0.6201  0.4618
 1324SOL     OW15433   4.677   3.293   8.385  0.2295  0.1816  0.7991
 1324SOL    HW115434   4.613   3.326   8.448 -0.1734 -0.1943  0.5828
 1324SOL    HW215435   4.630   3.309   8.304  3.2213  0.1233 -0.9337
 1325SOL     OW15436   3.270   1.309   8.042 -0.0871 -0.3131  0.4274
 1325SOL    HW115437   3.296   1.391   8.082  0.8207  0.1113 -1.0629
 1325SOL    HW215438   3.180   1.335   8.022  0.8801  0.6608 -2.5800
 1326SOL     OW15439   1.857   1.382   4.487  0.1967  0.1804 -0.5486
 1326SOL    HW115440   1.805   1.347   4.415 -0.5363  0.1729 -0.0165
 1326SOL    HW215441   1.939   1.404   4.443 -0.2037 -0.0609 -1.4076
 1327SOL     OW15442   3.835   2.910  11.960  0.6753 -0.7998  0.6739
 1327SOL    HW115443   3.857   2.850  12.031  1.5366  1.2115  2.0929
 1327SOL    HW215444   3.870   2.875  11.878  1.9942  0.1808  0.8133
 1328SOL     OW15445   3.923   2.337  13.948 -0.0740  0.5599 -0.9586
 1328SOL    HW115446   3.988   2.406  13.930 -0.6586  2.2283  3.3220
 1328SOL    HW215447   3.874   2.373  14.021  1.4489 -0.8355  0.7280
 1329SOL     OW15448   3.016   1.624  10.652  0.2436  0.0427 -0.0911
 1329SOL    HW115449   3.009   1.622  10.556  1.5910 -0.3880 -0.1847
 1329SOL    HW215450   2.935   1.578  10.673  0.2516 -0.7009 -1.7025
 1330SOL     OW15451   3.302   0.930   5.738 -0.1211 -0.0801  0.1159
 1330SOL    HW115452   3.350   1.004   5.777  3.6442 -0.7740 -3.2740
 1330SOL    HW215453   3.232   0.935   5.804  0.6740 -0.6436  0.9947
 1331SOL     OW15454   0.552   0.288  11.275  0.3765 -0.1642  0.5502
 1331SOL    HW115455   0.646   0.304  11.273  0.5955 -1.5004 -0.9384
 1331SOL    HW215456   0.541   0.256  11.364  0.8876  1.8071  1.3139
 1332SOL     OW15457   3.341   1.148  16.623 -0.1848 -0.4262  0.0506
 1332SOL    HW115458   3.278   1.124  16.691 -0.5815 -1.5109 -0.6929
 1332SOL    HW215459   3.337   1.071  16.565 -2.4087  0.0612 -0.4383
 1333SOL     OW15460   2.591   1.371  12.070 -0.0390  0.6900  0.0865
 1333SOL    HW115461   2.647   1.368  12.147 -0.0616  1.7153  0.1493
 1333SOL    HW215462   2.505   1.374  12.112 -0.6390  0.3503 -1.1068
 1334SOL     OW15463   1.455   4.375  13.866 -0.1773  0.1094  0.0506
 1334SOL    HW115464   1.412   4.294  13.896  1.0693 -1.3696 -2.1933
 1334SOL    HW215465   1.544   4.361  13.896 -0.0008  1.9171  0.3299
 1335SOL     OW15466   3.268   3.134   6.337  0.2323  0.2530 -0.2429
 1335SOL    HW115467   3.302   3.108   6.423  0.4058 -0.2635 -0.4636
 1335SOL    HW215468   3.347   3.121   6.285 -0.7996 -2.9006 -1.0321
 1336SOL     OW15469   3.641   1.072   9.460 -0.7873  0.2554 -0.1418
 1336SOL    HW115470   3.708   1.138   9.479 -0.3929 -0.4035  0.7699
 1336SOL    HW215471   3.572   1.099   9.521 -1.3138 -0.5847 -0.3760
 1337SOL     OW15472   3.171   2.317   7.751 -0.1806  0.3161 -0.1302
 1337SOL    HW115473   3.223   2.245   7.787  1.6831  2.6001  1.7360
 1337SOL    HW215474   3.247   2.364   7.717  0.1740 -1.4293 -1.7144
 1338SOL     OW15475   0.434   2.107   8.174 -0.0915 -0.4663 -0.1319
 1338SOL    HW115476   0.451   2.195   8.140  3.7867 -1.0294  0.4237
 1338SOL    HW215477   0.459   2.056   8.097 -1.7109  2.1107 -2.3801
 1339SOL     OW15478   4.226   1.682  10.439  0.8721 -0.1573  0.2953
 1339SOL    HW115479   4.288   1.714  10.373 -0.9104  2.6537 -0.0146
 1339SOL    HW215480   4.187   1.762  10.475 -1.0350 -0.5471 -0.9070
 1340SOL     OW15481   0.741   3.293   2.890  0.2861 -0.7743  0.2846
 1340SOL    HW115482   0.772   3.279   2.980  0.9390  2.5100  0.5673
 1340SOL    HW215483   0.778   3.377   2.862 -1.1678 -0.1696  0.1774
 1341SOL     OW15484   2.538   3.158   3.183  0.2086 -0.0508  0.0550
 1341SOL    HW115485   2.535   3.064   3.200  0.8996 -0.7244 -3.4638
 1341SOL    HW215486   2.444   3.163   3.165 -0.2454  0.4107  2.6364
 1342SOL     OW15487   1.379   2.294   6.251  0.4670  0.0684 -0.3720
 1342SOL    HW115488   1.326   2.342   6.187  0.6630  1.0584  0.2221
 1342SOL    HW215489   1.444   2.352   6.290 -0.9539  0.2896  1.7050
 1343SOL     OW15490   3.806   0.724   6.574  0.1332  0.5883 -0.3152
 1343SOL    HW115491   3.814   0.649   6.634  0.2281 -0.7018 -1.9428
 1343SOL    HW215492   3.895   0.758   6.583  0.3781 -0.3483  0.7972
 1344SOL     OW15493   1.565   2.415   0.568 -0.0443 -0.2047 -0.0265
 1344SOL    HW115494   1.488   2.379   0.523 -1.2783  2.7209 -0.2900
 1344SOL    HW215495   1.577   2.373   0.653  4.6459  0.3491 -0.4266
 1345SOL     OW15496   2.689   1.873   2.095  0.0290  0.1027  0.2490
 1345SOL    HW115497   2.711   1.879   2.188 -1.4422 -0.1244  0.6062
 1345SOL    HW215498   2.736   1.795   2.064 -0.6959 -0.5092  0.6860
 1346SOL     OW15499   0.497   0.109  16.556 -0.0246  0.2300 -0.0308
 1346SOL    HW115500   0.489   0.157  16.638  1.1785 -1.0247  0.8293
 1346SOL    HW215501   0.570   0.161  16.523 -0.0270  1.6839  2.2535
 1347SOL     OW15502   2.424   1.907  13.276 -0.3404  0.7429 -0.4859
 1347SOL    HW115503   2.360   1.901  13.347 -0.1337  1.6507 -0.2177
 1347SOL    HW215504   2.503   1.881  13.324 -0.0077  2.6764  0.0124
 1348SOL     OW15505   3.004   0.453   7.941  0.8933 -0.1616 -0.2675
 1348SOL    HW115506   2.956   0.534   7.960  2.5644  1.4494 -2.8319
 1348SOL    HW215507   2.980   0.398   8.015  2.0489 -0.4718 -0.1170
 1349SOL     OW15508   2.269   0.354  14.889  0.0052 -0.0456 -0.0558
 1349SOL    HW115509   2.195   0.379  14.833  0.8669  0.3246 -1.0218
 1349SOL    HW215510   2.222   0.299  14.951 -1.9503  1.9534  0.2538
 1350SOL     OW15511   4.031   4.176   6.125  0.1595 -0.3635 -0.1367
 1350SOL    HW115512   3.972   4.157   6.051 -0.3882  2.2025 -0.3620
 1350SOL    HW215513   4.015   4.098   6.178 -2.5907  0.8703  0.8180
 1351SOL     OW15514   1.899   1.058   7.429 -0.0207 -0.4070 -0.1483
 1351SOL    HW115515   1.971   1.092   7.376  1.3599 -1.6952  0.8772
 1351SOL    HW215516   1.823   1.098   7.387  1.1460  1.1483 -0.7519
 1352SOL     OW15517   3.903   3.834  12.227  0.3537 -0.5400  0.0110
 1352SOL    HW115518   3.989   3.820  12.189  0.4101 -1.6021  0.5347
 1352SOL    HW215519   3.855   3.910  12.193  1.6787  0.1345 -0.3284
 1353SOL     OW15520   0.534   4.648   5.670 -0.3277 -0.6330 -0.8356
 1353SOL    HW115521   0.589   4.600   5.733  0.8813  1.7390 -0.1038
 1353SOL    HW215522   0.600   4.711   5.641 -0.8455  0.7264  0.9438
 1354SOL     OW15523   4.628   3.245   9.194 -0.3928  0.3528  0.2810
 1354SOL    HW115524   4.658   3.272   9.107  0.2507  0.2562  0.4668
 1354SOL    HW215525   4.684   3.171   9.219  0.0178 -0.5364 -3.2051
 1355SOL     OW15526   0.003   4.168  11.053 -0.0268 -1.0273  0.5027
 1355SOL    HW115527   0.033   4.151  11.142 -0.7722  0.3647  1.0206
 1355SOL    HW215528   4.640   4.202  11.072  0.1011 -1.1109  1.2354
 1356SOL     OW15529   2.686   4.175   8.397 -0.4256 -0.0221  0.4592
 1356SOL    HW115530   2.609   4.209   8.350 -1.0098 -0.4211  1.1234
 1356SOL    HW215531   2.700   4.240   8.466  1.2590 -1.2027  1.2025
 1357SOL     OW15532   0.156   1.235   9.022  0.0165  0.0347 -0.5635
 1357SOL    HW115533   0.066   1.213   9.047 -0.3197 -0.6204 -2.3077
 1357SOL    HW215534   0.191   1.153   8.987 -1.1175 -0.6337 -0.1385
 1358SOL     OW15535   2.733   1.076   1.979  0.0019 -0.0824 -0.8555
 1358SOL    HW115536   2.747   0.986   2.009 -0.5167  0.6292  1.5770
 1358SOL    HW215537   2.639   1.086   1.966 -0.0730  1.1642  0.5533
 1359SOL     OW15538   4.335   2.847   6.626  0.3671 -0.0070  0.2826
 1359SOL    HW115539   4.372   2.762   6.604  1.0037  1.0055 -2.4977
 1359SOL    HW215540   4.257   2.818   6.673  0.4370 -0.7418 -0.0635
 1360SOL     OW15541   1.732   3.191  14.915  0.2747  0.7741 -0.6039
 1360SOL    HW115542   1.818   3.217  14.949 -0.4841  1.2177  1.0070
 1360SOL    HW215543   1.740   3.206  14.821 -1.7360 -1.7470 -1.1786
 1361SOL     OW15544   3.524   4.429   4.269  0.2742  0.2626  0.4244
 1361SOL    HW115545   3.589   4.429   4.339 -0.0280  0.7297  0.7058
 1361SOL    HW215546   3.448   4.389   4.312  1.1668  0.4859  2.2293
 1362SOL     OW15547   0.019   0.345   3.373 -0.0157 -0.1016  0.0187
 1362SOL    HW115548   0.047   0.430   3.340  3.3924 -1.0621  0.4477
 1362SOL    HW215549   0.042   0.359   3.464 -0.4630 -3.3310  0.6455
 1363SOL     OW15550   3.255   4.486   8.807  0.6884 -0.0383  0.3881
 1363SOL    HW115551   3.185   4.481   8.872  1.7274 -2.6985  1.2905
 1363SOL    HW215552   3.227   4.572   8.775 -0.5794 -1.6125 -2.7136
 1364SOL     OW15553   1.757   4.685   3.840 -0.5790 -0.3655 -0.4831
 1364SOL    HW115554   1.776   0.050   3.869 -0.1833 -0.3871 -0.6689
 1364SOL    HW215555   1.843   4.661   3.806 -1.1250  1.1649 -2.9664
 1365SOL     OW15556   4.014   2.982   4.120 -0.6594 -0.2110 -0.6135
 1365SOL    HW115557   4.037   2.909   4.178 -0.3075  2.6474  2.8334
 1365SOL    HW215558   3.935   2.954   4.074 -1.7159  1.1395  0.3862
 1366SOL     OW15559   1.137   2.028   9.035  0.6829  0.4058 -0.3149
 1366SOL    HW115560   1.072   2.035   8.966 -1.7628  1.5473  2.1291
 1366SOL    HW215561   1.204   1.973   8.993 -0.5250  0.1292 -1.8914
 1367SOL     OW15562   0.123   0.993  12.077  0.0719 -0.1717  0.6010
 1367SOL    HW115563   0.062   0.941  12.025 -0.6521  0.5291  0.7413
 1367SOL    HW215564   0.070   1.011  12.154 -0.3449 -0.2500  0.3319
 1368SOL     OW15565   1.599   4.232   4.428  0.1313  0.0270 -0.5921
 1368SOL    HW115566   1.564   4.143   4.429  0.5564 -0.1274  1.2980
 1368SOL    HW215567   1.568   4.242   4.518 -0.4879  2.0795 -1.0438
 1369SOL     OW15568   3.747   3.404   2.399 -0.3907 -0.2009  0.8250
 1369SOL    HW115569   3.724   3.434   2.487  1.1631  1.3024  0.7328
 1369SOL    HW215570   3.813   3.470   2.378 -0.0818 -1.1166 -1.0536
 1370SOL     OW15571   4.648   1.516   9.755  0.3264 -0.1144  0.1731
 1370SOL    HW115572   0.009   1.498   9.796  1.2601  0.8051 -1.3900
 1370SOL    HW215573   4.622   1.608   9.768  0.4416 -0.0721  0.1011
 1371SOL     OW15574   4.390   4.006   6.669 -0.1170  0.3132  0.8268
 1371SOL    HW115575   4.483   3.995   6.648 -0.4019 -0.6070  0.0090
 1371SOL    HW215576   4.372   4.082   6.613  0.9160 -0.6041 -0.7654
 1372SOL     OW15577   2.540   2.007   3.664  0.4343 -0.2194 -0.2114
 1372SOL    HW115578   2.546   1.995   3.569  1.0188  0.7803 -0.2949
 1372SOL    HW215579   2.618   2.057   3.687 -1.3359  1.6146  1.9190
 1373SOL     OW15580   3.200   1.493  12.623  0.4220  0.0583  0.6479
 1373SOL    HW115581   3.253   1.550  12.678  0.7338 -0.0576  0.4684
 1373SOL    HW215582   3.269   1.450  12.572  1.5992  0.9781  1.4800
 1374SOL     OW15583   2.410   1.471   2.027  0.5865  0.4661  0.3193
 1374SOL    HW115584   2.485   1.510   2.073  0.9073  0.1239  0.0918
 1374SOL    HW215585   2.370   1.421   2.098  0.2157  0.6141  0.2117
 1375SOL     OW15586   2.547   4.089  11.518 -0.5290 -0.1683 -0.2858
 1375SOL    HW115587   2.629   4.128  11.489  0.6520 -1.4703  1.3439
 1375SOL    HW215588   2.577   4.002  11.544 -1.4043 -0.1947  0.6127
 1376SOL     OW15589   4.585   2.522  13.960 -0.2182  0.0655 -0.0374
 1376SOL    HW115590   4.640   2.481  14.028  0.1662 -0.7743 -0.8458
 1376SOL    HW215591   4.626   2.478  13.885 -1.6302 -3.1737  1.0758
 1377SOL     OW15592   0.996   1.046   5.354  0.4677  0.1017 -0.3419
 1377SOL    HW115593   0.921   1.041   5.295 -0.4799  0.3611  0.8224
 1377SOL    HW215594   0.954   1.008   5.432 -1.9767  1.0460 -1.2028
 1378SOL     OW15595   0.697   4.299   1.619  0.3063  0.0928  0.4121
 1378SOL    HW115596   0.742   4.223   1.655  2.7201  0.6423 -1.4035
 1378SOL    HW215597   0.734   4.370   1.669  0.5398 -0.3062  0.8007
 1379SOL     OW15598   1.374   0.980   2.033 -0.3762  0.1577 -0.1483
 1379SOL    HW115599   1.463   0.991   2.000 -0.3121 -1.0333 -0.3639
 1379SOL    HW215600   1.343   1.068   2.052  0.7786  0.1821  1.6923
 1380SOL     OW15601   2.500   2.970   3.894 -0.2936 -0.0076 -0.4224
 1380SOL    HW115602   2.424   2.924   3.930 -0.5788  0.7398 -0.0658
 1380SOL    HW215603   2.492   3.050   3.945  0.2105 -0.8568  0.9737
 1381SOL     OW15604   4.551   1.735  13.010  0.1787 -0.4571  0.0273
 1381SOL    HW115605   4.469   1.785  13.005 -0.9279 -2.4418 -1.8528
 1381SOL    HW215606   4.518   1.647  12.989 -0.1531 -0.2953 -0.1325
 1382SOL     OW15607   2.130   2.817   6.852 -0.6149 -0.0254  0.1594
 1382SOL    HW115608   2.059   2.823   6.916 -1.0115  0.1678 -0.3043
 1382SOL    HW215609   2.204   2.781   6.901  0.7416  2.8860  0.2133
 1383SOL     OW15610   2.335   0.051   4.665 -0.1347  0.0435 -0.1419
 1383SOL    HW115611   2.409   0.098   4.625  0.3536 -0.5711  0.0244
 1383SOL    HW215612   2.319   0.113   4.736 -3.2494 -2.7404  1.5873
 1384SOL     OW15613   2.581   2.181  10.731 -0.1278  0.7424  0.3617
 1384SOL    HW115614   2.616   2.205  10.817  1.4224 -0.2889  0.0166
 1384SOL    HW215615   2.497   2.153  10.768 -1.1642  1.1274 -1.7427
 1385SOL     OW15616   4.478   1.863   3.976  0.6002  0.4388 -0.0333
 1385SOL    HW115617   4.525   1.944   3.957 -1.8720  1.3021 -2.4096
 1385SOL    HW215618   4.456   1.845   3.884 -0.5311  2.5695 -0.1683
 1386SOL     OW15619   1.570   1.235   8.187 -0.1379  0.0874  0.0965
 1386SOL    HW115620   1.662   1.208   8.183  0.8981  3.1851  2.7399
 1386SOL    HW215621   1.578   1.310   8.246 -2.4681 -1.2052  2.0660
 1387SOL     OW15622   2.145   3.092  11.303  0.0930 -0.4084 -0.2260
 1387SOL    HW115623   2.099   3.158  11.354  1.2249 -0.6417  1.0915
 1387SOL    HW215624   2.188   3.039  11.369 -1.3506 -0.6955  0.4829
 1388SOL     OW15625   1.786   4.501   5.328 -0.0952 -0.0062  0.2697
 1388SOL    HW115626   1.752   4.497   5.417 -0.9675  0.6780 -0.0213
 1388SOL    HW215627   1.701   4.485   5.287  0.2719 -2.4665  0.5094
 1389SOL     OW15628   2.207   4.116   9.032 -0.7225 -0.1095 -0.1874
 1389SOL    HW115629   2.178   4.184   9.093  0.0208 -0.1288  0.1807
 1389SOL    HW215630   2.247   4.050   9.088  0.6450  0.2160 -0.7960
 1390SOL     OW15631   0.433   2.936  10.809  0.0391  0.3097 -0.0186
 1390SOL    HW115632   0.477   3.020  10.797 -2.6759  1.7129 -0.3151
 1390SOL    HW215633   0.458   2.893  10.728  1.1719  2.1300 -0.6378
 1391SOL     OW15634   2.812   3.640   1.025  0.2910 -0.4472  0.1201
 1391SOL    HW115635   2.775   3.662   1.111 -1.2375 -1.8941 -0.1560
 1391SOL    HW215636   2.735   3.631   0.968 -0.6429 -1.1691  1.4685
 1392SOL     OW15637   1.172   2.875  11.248  0.4437 -0.5482  0.3462
 1392SOL    HW115638   1.171   2.819  11.170 -1.2237 -0.0055 -0.0185
 1392SOL    HW215639   1.253   2.927  11.241  2.0648 -3.1982 -0.9023
 1393SOL     OW15640   1.082   4.573   6.124  0.7181 -0.8620  0.1286
 1393SOL    HW115641   1.174   4.551   6.136  0.8822  0.5590  1.4260
 1393SOL    HW215642   1.051   4.505   6.183  2.9517 -0.5400  1.6614
 1394SOL     OW15643   4.108   1.953   7.128 -0.0683 -0.7021  0.6365
 1394SOL    HW115644   4.078   1.968   7.218  0.1378 -1.0443  0.7615
 1394SOL    HW215645   4.042   1.893   7.092 -0.8002 -0.3604  1.3825
 1395SOL     OW15646   4.703   2.652   5.024  0.3017  0.1562  0.7550
 1395SOL    HW115647   4.704   2.624   5.116 -3.1612  0.7307  0.9435
 1395SOL    HW215648   0.067   2.689   5.010  0.1428 -0.7143 -2.4147
 1396SOL     OW15649   3.308   0.930  16.446  0.0283 -0.1633 -0.3792
 1396SOL    HW115650   3.380   0.868  16.456 -1.2508 -1.7899 -1.2791
 1396SOL    HW215651   3.301   0.927  16.350  1.0114 -0.1797 -0.4471
 1397SOL     OW15652   3.903   3.357  11.320 -0.1780 -0.4275  0.0824
 1397SOL    HW115653   3.971   3.346  11.386  0.2604 -1.1047 -0.4722
 1397SOL    HW215654   3.862   3.433  11.360 -0.4013 -0.6191  0.2180
 1398SOL     OW15655   0.011   2.386   6.228 -0.2688  0.4501 -0.4520
 1398SOL    HW115656   4.718   2.478   6.210 -2.4776 -0.2743 -2.0138
 1398SOL    HW215657   4.644   2.360   6.216 -0.7333  0.9091  2.0357
 1399SOL     OW15658   0.930   1.886  12.941 -0.1355  0.2784 -0.2565
 1399SOL    HW115659   0.852   1.842  12.975 -0.0037  0.3106  0.0842
 1399SOL    HW215660   0.962   1.828  12.872  0.2214  0.7394 -0.4782
 1400SOL     OW15661   1.821   0.417   8.901  0.1963 -0.2124 -0.0590
 1400SOL    HW115662   1.821   0.461   8.816 -0.0595 -1.6379 -0.8003
 1400SOL    HW215663   1.744   0.439   8.952  0.4936  2.0433 -0.5985
 1401SOL     OW15664   0.161   3.132   6.630  0.5942  0.4851  0.0824
 1401SOL    HW115665   0.246   3.149   6.671 -0.3561 -0.6712  2.5035
 1401SOL    HW215666   0.098   3.157   6.697  0.6011 -1.0289  0.6628
 1402SOL     OW15667   4.606   1.810   3.354  0.3110 -0.4350  0.1062
 1402SOL    HW115668   4.630   1.726   3.393 -1.6035 -1.9729 -1.9683
 1402SOL    HW215669   4.577   1.771   3.271 -2.2392 -0.0827  0.8198
 1403SOL     OW15670   1.300   2.396  12.670 -0.0700 -0.2118 -0.0211
 1403SOL    HW115671   1.337   2.309  12.686  1.8151  0.4924 -0.4982
 1403SOL    HW215672   1.281   2.387  12.577 -0.3264 -0.6257  0.0713
 1404SOL     OW15673   2.551   4.427   2.803 -0.7800  0.9106  1.0568
 1404SOL    HW115674   2.511   4.418   2.716  0.0773  0.1278  0.7434
 1404SOL    HW215675   2.475   4.470   2.843  0.0603  1.8207  1.6562
 1405SOL     OW15676   3.890   1.407   3.952 -0.6108  0.0894  0.1915
 1405SOL    HW115677   3.851   1.398   3.865 -2.1080 -2.8502  1.1931
 1405SOL    HW215678   3.887   1.500   3.974  0.3885 -0.0093  0.7542
 1406SOL     OW15679   0.444   2.150  13.270  0.3323  0.1152 -0.1343
 1406SOL    HW115680   0.503   2.077  13.253  0.5591  0.8008 -2.3704
 1406SOL    HW215681   0.386   2.098  13.326 -0.8845  1.4012 -0.1896
 1407SOL     OW15682   1.500   2.549  12.411  0.0879 -0.0842 -0.2441
 1407SOL    HW115683   1.532   2.617  12.352  0.8687  1.7290  2.2248
 1407SOL    HW215684   1.518   2.587  12.497  1.3524 -1.7444  0.2400
 1408SOL     OW15685   2.765   4.485   0.041  0.3181  0.2337  0.0286
 1408SOL    HW115686   2.845   4.535   0.063  0.0927  0.8754 -0.6010
 1408SOL    HW215687   2.713   4.553  17.698 -1.5040 -0.8442  0.5608
 1409SOL     OW15688   0.198   1.150  13.037 -0.0386  0.8323  0.7773
 1409SOL    HW115689   0.225   1.141  13.128  0.2276 -1.4302  0.4844
 1409SOL    HW215690   0.281   1.175  12.998  1.7089 -1.3735  3.1099
 1410SOL     OW15691   3.062   4.569   9.806 -0.6639 -0.1600 -0.0937
 1410SOL    HW115692   2.987   4.554   9.750 -0.5180  1.7221 -0.7714
 1410SOL    HW215693   3.066   4.665   9.806 -2.9810 -0.0693 -1.3416
 1411SOL     OW15694   4.693   0.698   5.326 -0.3155 -0.4078 -0.0935
 1411SOL    HW115695   4.619   0.637   5.329 -0.1860 -0.5163  0.8984
 1411SOL    HW215696   0.046   0.644   5.309 -1.8595 -2.0964 -1.7195
 1412SOL     OW15697   3.394   1.118   0.653  0.0872  0.0654 -0.2823
 1412SOL    HW115698   3.309   1.101   0.695  0.6681  0.1370  0.9343
 1412SOL    HW215699   3.381   1.206   0.619 -1.6145  0.4625  1.4186
 1413SOL     OW15700   4.359   2.136   4.448 -0.5355 -0.1158  0.1092
 1413SOL    HW115701   4.289   2.080   4.479  1.7256 -2.2294  1.4163
 1413SOL    HW215702   4.375   2.202   4.516 -0.8550  0.1887 -0.1130
 1414SOL     OW15703   0.478   0.101   6.621  0.5711  0.4408 -0.3404
 1414SOL    HW115704   0.494   0.145   6.705  2.4893  2.8399 -1.9722
 1414SOL    HW215705   0.390   0.128   6.597 -0.4222 -2.0776  0.4696
 1415SOL     OW15706   0.812   2.189  12.947 -0.8401  0.0797 -0.0724
 1415SOL    HW115707   0.758   2.153  12.876  3.2607 -2.1695 -2.0990
 1415SOL    HW215708   0.816   2.284  12.934  0.3982 -0.0604 -0.7407
 1416SOL     OW15709   2.644   3.082   2.171  0.4838  0.0870 -0.1682
 1416SOL    HW115710   2.594   3.037   2.238  0.1304 -0.1218 -0.5681
 1416SOL    HW215711   2.576   3.096   2.104  0.8257 -0.3233 -0.6008
 1417SOL     OW15712   4.720   3.342   8.927 -0.1194  0.4248  0.2479
 1417SOL    HW115713   4.674   3.281   8.869  1.1603  0.1417 -0.4769
 1417SOL    HW215714   0.040   3.395   8.860 -3.1895  0.3349 -1.8635
 1418SOL     OW15715   2.258   1.820  11.851 -0.0256 -0.3668 -0.4836
 1418SOL    HW115716   2.332   1.881  11.853 -1.5738  1.4559  0.9421
 1418SOL    HW215717   2.300   1.743  11.890 -0.5358 -0.8606 -0.9052
 1419SOL     OW15718   0.420   1.068   5.229 -0.0408 -0.3149  0.4225
 1419SOL    HW115719   0.434   1.092   5.321 -2.6604 -1.7217  1.1888
 1419SOL    HW215720   0.377   0.984   5.241  0.9204 -0.7836  0.6267
 1420SOL     OW15721   0.065   0.264   1.431 -0.0199 -0.7129  0.5250
 1420SOL    HW115722   0.041   0.193   1.491 -1.3984 -0.2666  0.5115
 1420SOL    HW215723   0.145   0.226   1.395  1.0181  2.0730 -0.0609
 1421SOL     OW15724   4.313   3.822   8.262  0.5661  0.5825  0.0851
 1421SOL    HW115725   4.387   3.883   8.261  0.3892  0.8432  1.7936
 1421SOL    HW215726   4.249   3.865   8.205  1.5576  1.1110 -0.6118
 1422SOL     OW15727   3.852   0.982   9.052 -0.5250  0.3792  0.0643
 1422SOL    HW115728   3.807   0.901   9.076  1.2167 -0.4426  0.5113
 1422SOL    HW215729   3.927   0.974   9.110 -0.3006  1.1254 -0.1211
 1423SOL     OW15730   0.929   3.771  12.419  0.2778 -0.2053 -0.1362
 1423SOL    HW115731   0.982   3.828  12.363  0.7222 -2.5168 -2.0860
 1423SOL    HW215732   0.935   3.817  12.502 -0.7237 -1.7552  0.7971
 1424SOL     OW15733   2.586   2.111   6.281 -0.1121  0.0523 -0.3026
 1424SOL    HW115734   2.513   2.108   6.219  0.7485  1.2597 -1.3694
 1424SOL    HW215735   2.607   2.018   6.290 -2.2266 -0.4656 -0.6650
 1425SOL     OW15736   3.018   1.851   1.389 -0.0525  0.7541 -0.3044
 1425SOL    HW115737   2.951   1.918   1.399 -0.5458  0.0980  0.7328
 1425SOL    HW215738   3.092   1.901   1.425  0.3307  0.6663 -0.9763
 1426SOL     OW15739   3.371   4.652   4.919  0.2058 -0.0959  0.3963
 1426SOL    HW115740   3.389   0.021   4.921  1.3263 -0.3001 -0.0198
 1426SOL    HW215741   3.393   4.636   5.011 -0.0924  1.0918  0.6672
 1427SOL     OW15742   3.985   0.710   5.078  0.5832 -0.1554  0.2770
 1427SOL    HW115743   4.027   0.655   5.011 -0.4456 -1.6487  0.8720
 1427SOL    HW215744   3.896   0.675   5.080  1.2186 -1.7214  1.1347
 1428SOL     OW15745   1.773   0.722   8.035 -0.4951  0.7371 -0.0525
 1428SOL    HW115746   1.700   0.766   7.992 -0.6304  0.0061 -0.5733
 1428SOL    HW215747   1.733   0.650   8.084  0.9853  0.3359  0.5743
 1429SOL     OW15748   2.268   3.303   3.224  0.4918  0.3779  0.3692
 1429SOL    HW115749   2.297   3.290   3.315 -0.7367  1.1470  0.8601
 1429SOL    HW215750   2.186   3.344   3.249 -0.0843 -0.4440 -0.1750
 1430SOL     OW15751   1.685   2.527   6.181 -0.1095 -0.3687 -0.2162
 1430SOL    HW115752   1.768   2.483   6.198 -0.6790 -0.6584  1.8093
 1430SOL    HW215753   1.714   2.613   6.151 -1.9415  0.3756  0.1369
 1431SOL     OW15754   1.643   2.873   3.189  0.1773 -0.1760 -0.8757
 1431SOL    HW115755   1.647   2.792   3.241  1.2026 -1.7048 -3.3255
 1431SOL    HW215756   1.550   2.872   3.167 -0.2329  0.3494  0.8548
 1432SOL     OW15757   1.598   4.142   7.727 -0.6028 -0.0639  0.6290
 1432SOL    HW115758   1.594   4.063   7.781 -1.4388  0.9390  2.0462
 1432SOL    HW215759   1.678   4.147   7.674 -1.3989 -0.0762 -0.5594
 1433SOL     OW15760   4.339   2.211   7.664 -0.1454  0.1684  0.3377
 1433SOL    HW115761   4.399   2.184   7.594  1.9757  0.8895  1.8791
 1433SOL    HW215762   4.373   2.164   7.740  1.0775  1.9756  0.9033
 1434SOL     OW15763   2.704   1.541  11.204  0.1879 -0.0230 -0.6816
 1434SOL    HW115764   2.742   1.624  11.232 -1.2961 -0.3735  2.3236
 1434SOL    HW215765   2.778   1.483  11.189 -0.7021 -1.2617 -0.2625
 1435SOL     OW15766   2.306   0.552   7.604  0.4768 -0.1708 -0.0723
 1435SOL    HW115767   2.232   0.492   7.609  0.5339 -0.0321  2.4813
 1435SOL    HW215768   2.259   0.634   7.586 -0.2981 -1.0374 -2.0299
 1436SOL     OW15769   2.340   0.571   6.516  0.1747  0.6536 -0.6008
 1436SOL    HW115770   2.263   0.567   6.460 -0.2073  2.4397 -0.2013
 1436SOL    HW215771   2.324   0.499   6.577  0.1195  1.3565  0.2225
 1437SOL     OW15772   4.592   4.027  14.302  0.4780 -0.1886  0.0721
 1437SOL    HW115773   4.599   3.979  14.384 -0.0108 -2.4172 -1.1886
 1437SOL    HW215774   4.570   4.114  14.335  1.3324 -0.6088  1.7497
 1438SOL     OW15775   3.663   2.654   4.539  0.0112 -0.4851 -0.1016
 1438SOL    HW115776   3.683   2.560   4.546  0.6842 -0.2261  1.3736
 1438SOL    HW215777   3.569   2.658   4.557  0.0170 -1.6514  0.2138
 1439SOL     OW15778   4.473   1.836   3.655  0.2410 -0.1136  0.4267
 1439SOL    HW115779   4.421   1.823   3.576 -0.3511  2.0333  0.4711
 1439SOL    HW215780   4.534   1.907   3.637  2.9933 -2.7087 -0.5095
 1440SOL     OW15781   1.325   3.797  14.295 -0.3919  0.4574  0.6006
 1440SOL    HW115782   1.246   3.845  14.269 -2.8667 -3.0717  1.5346
 1440SOL    HW215783   1.303   3.785  14.388  0.8662 -1.4786  0.6440
 1441SOL     OW15784   1.278   2.095   7.672 -0.0716  0.1208  0.0855
 1441SOL    HW115785   1.232   2.131   7.597 -0.7755  0.8216  0.8470
 1441SOL    HW215786   1.312   2.180   7.699  0.4597  0.5159 -1.8525
 1442SOL     OW15787   1.866   3.028   6.443  0.5154  0.1412  0.0060
 1442SOL    HW115788   1.890   3.021   6.535 -0.4544 -1.0319  0.1689
 1442SOL    HW215789   1.868   3.124   6.441  0.7105  0.1050 -2.3081
 1443SOL     OW15790   3.421   0.151  16.774  0.2811 -0.4062  0.4835
 1443SOL    HW115791   3.505   0.193  16.793 -0.1922  0.6326  0.2937
 1443SOL    HW215792   3.444   0.059  16.766 -0.5277 -0.6751  1.2048
 1444SOL     OW15793   1.130   2.247   7.442  0.3808  0.3416  0.0358
 1444SOL    HW115794   1.075   2.325   7.451  0.4635  0.2362  1.3865
 1444SOL    HW215795   1.122   2.236   7.347 -1.9362 -0.7786  0.3623
 1445SOL     OW15796   1.184   3.728   2.956 -0.0512 -0.1516  0.5894
 1445SOL    HW115797   1.167   3.692   3.043 -2.0505 -1.1531 -0.2262
 1445SOL    HW215798   1.106   3.784   2.945  0.4201  0.2704 -0.6082
 1446SOL     OW15799   2.864   0.901   5.502  0.2714  0.3012 -0.8426
 1446SOL    HW115800   2.958   0.886   5.496  0.3227  0.1070  0.3868
 1446SOL    HW215801   2.849   0.992   5.476 -1.5843 -0.0906 -1.1366
 1447SOL     OW15802   0.732   0.124   0.448 -0.2643 -0.5166  0.1291
 1447SOL    HW115803   0.666   0.070   0.491 -1.3760 -0.3473 -1.3609
 1447SOL    HW215804   0.697   0.143   0.361  1.7857  0.6097 -0.4462
 1448SOL     OW15805   2.020   0.535   3.748 -0.7484 -0.8260 -0.0983
 1448SOL    HW115806   2.015   0.477   3.671 -0.3661 -3.3247  1.7680
 1448SOL    HW215807   2.082   0.600   3.715 -1.8078  1.1106  1.8145
 1449SOL     OW15808   3.205   3.290   8.532 -0.3737 -0.4307 -0.0358
 1449SOL    HW115809   3.213   3.382   8.504 -0.4251  0.1010  1.6667
 1449SOL    HW215810   3.177   3.286   8.624 -1.9076 -1.2497 -0.5577
 1450SOL     OW15811   3.811   2.307  17.174  0.5091  0.4477 -0.0845
 1450SOL    HW115812   3.835   2.300  17.081 -1.0658 -2.5111 -0.2610
 1450SOL    HW215813   3.836   2.399  17.182  0.7854  0.4246 -0.6259
 1451SOL     OW15814   0.767   2.492   2.378  0.3490  0.4695  0.3518
 1451SOL    HW115815   0.832   2.494   2.308  0.2567  0.4806  0.2665
 1451SOL    HW215816   0.690   2.444   2.347  2.3185 -1.4648 -1.4456
 1452SOL     OW15817   0.919   3.533  10.461 -0.0624 -0.3224  0.0861
 1452SOL    HW115818   0.844   3.494  10.505 -0.6861 -0.4134 -1.0392
 1452SOL    HW215819   0.991   3.493  10.509  0.1069  0.8936  0.8451
 1453SOL     OW15820   0.569   0.150   3.872  0.5455  0.6325 -0.2528
 1453SOL    HW115821   0.655   0.145   3.832  0.1717  0.2085 -1.0131
 1453SOL    HW215822   0.573   0.087   3.945 -2.4103  0.9000  0.1768
 1454SOL     OW15823   0.934   1.958   3.167  0.6918 -0.4872  0.3633
 1454SOL    HW115824   0.967   2.005   3.090 -1.1832  1.7837  0.9429
 1454SOL    HW215825   0.896   2.037   3.207 -0.0146 -1.0943  0.8789
 1455SOL     OW15826   4.322   2.157  11.755 -0.0898 -0.1973  0.4171
 1455SOL    HW115827   4.383   2.231  11.750  1.7192 -1.6610  1.0516
 1455SOL    HW215828   4.302   2.159  11.848 -1.0254  2.5640  0.1460
 1456SOL     OW15829   1.661   2.241   5.071 -0.3955 -0.2495 -0.1257
 1456SOL    HW115830   1.723   2.304   5.107  0.1392  0.2276 -1.8498
 1456SOL    HW215831   1.584   2.267   5.122  0.6425  1.0343  0.7769
 1457SOL     OW15832   0.720   4.080   3.848 -0.0162 -0.7414 -0.3827
 1457SOL    HW115833   0.771   4.086   3.768  0.2029  0.1853 -0.1701
 1457SOL    HW215834   0.636   4.055   3.810  0.7209 -1.1746 -1.7084
 1458SOL     OW15835   4.313   0.850   5.834 -0.2693 -0.4109  0.2145
 1458SOL    HW115836   4.273   0.900   5.904  0.5401 -0.3912  0.6584
 1458SOL    HW215837   4.235   0.808   5.797 -1.9731  2.0721  1.0450
 1459SOL     OW15838   2.965   3.795   2.776 -0.1273  0.6169 -0.2493
 1459SOL    HW115839   3.058   3.777   2.788 -0.9281 -2.6952  1.0783
 1459SOL    HW215840   2.969   3.874   2.723  0.2059 -0.0629 -1.2308
 1460SOL     OW15841   0.502   4.495   2.830 -0.7623 -0.3525 -0.0618
 1460SOL    HW115842   0.474   4.429   2.893 -1.9839  0.5583  0.3520
 1460SOL    HW215843   0.592   4.516   2.853 -1.4411  1.0938  1.2155
 1461SOL     OW15844   4.395   0.203  11.582  0.0144 -0.4726 -0.1816
 1461SOL    HW115845   4.429   0.292  11.591  2.0134 -1.0772 -1.5790
 1461SOL    HW215846   4.318   0.226  11.531 -0.8942 -1.9584  0.5194
 1462SOL     OW15847   3.799   4.005   6.448  0.2063 -0.2471 -0.5925
 1462SOL    HW115848   3.725   4.025   6.390 -0.4252  0.6421  0.5215
 1462SOL    HW215849   3.776   4.056   6.525  1.5682  0.9342 -0.9514
 1463SOL     OW15850   0.731   3.571   6.647 -0.6370 -0.1034 -0.0478
 1463SOL    HW115851   0.738   3.564   6.552 -0.7752  0.8220 -0.1325
 1463SOL    HW215852   0.640   3.544   6.658 -1.2573  1.3046 -1.7966
 1464SOL     OW15853   4.359   2.998   0.148  0.4130  0.1921  0.2530
 1464SOL    HW115854   4.396   2.915   0.120  1.2379  0.9513 -0.9060
 1464SOL    HW215855   4.269   2.973   0.168  0.4788  0.2669  0.6460
 1465SOL     OW15856   3.963   1.253   5.006  0.2423  0.0406  0.2465
 1465SOL    HW115857   3.966   1.246   4.911 -1.0640 -0.2537  0.2260
 1465SOL    HW215858   3.921   1.338   5.019  0.2901 -0.3662  3.1159
 1466SOL     OW15859   0.690   1.428   5.531  0.1139 -0.1426 -0.1187
 1466SOL    HW115860   0.746   1.406   5.456 -0.3368  0.1363 -0.5365
 1466SOL    HW215861   0.684   1.524   5.530  1.5563 -0.0282  1.7614
 1467SOL     OW15862   0.466   3.275   5.604  0.1055  0.2045  0.0861
 1467SOL    HW115863   0.451   3.180   5.598  4.3721 -0.5881  1.9853
 1467SOL    HW215864   0.541   3.275   5.663 -3.0915 -0.6306  4.1762
 1468SOL     OW15865   2.694   3.347   1.584  0.2884 -0.0059 -0.8452
 1468SOL    HW115866   2.624   3.368   1.522 -0.8855 -0.0457  0.4411
 1468SOL    HW215867   2.748   3.301   1.520  0.8837 -2.3392  1.3446
 1469SOL     OW15868   2.810   4.365   2.733  0.3922 -0.0407 -0.5147
 1469SOL    HW115869   2.752   4.326   2.667 -1.1760  1.0744  0.2005
 1469SOL    HW215870   2.750   4.409   2.793  1.3618  0.7755 -0.1452
 1470SOL     OW15871   4.172   4.577  14.927  0.5939  0.5204 -0.4919
 1470SOL    HW115872   4.113   4.503  14.940  1.3920 -0.0671 -0.2226
 1470SOL    HW215873   4.173   4.585  14.832  1.6552  0.1620 -0.5090
 1471SOL     OW15874   0.732   3.950   2.624  0.1147  0.4723  0.0988
 1471SOL    HW115875   0.708   4.007   2.552 -0.2573 -0.5036 -0.5439
 1471SOL    HW215876   0.824   3.932   2.604  0.1461 -1.7075  2.1121
 1472SOL     OW15877   3.269   2.584  17.471  0.2918  0.0955  0.1900
 1472SOL    HW115878   3.332   2.530  17.424  0.2950 -0.2333  0.5794
 1472SOL    HW215879   3.254   2.541  17.555 -0.2616  0.8925  0.5119
 1473SOL     OW15880   1.262   0.926   7.312 -0.4065 -0.0727  0.4133
 1473SOL    HW115881   1.314   1.006   7.319  0.4229 -0.4679 -1.4059
 1473SOL    HW215882   1.176   0.968   7.306 -1.1831 -1.9492 -1.6439
 1474SOL     OW15883   3.039   1.988   2.429  0.1406  0.2593  0.1983
 1474SOL    HW115884   3.019   2.049   2.358  0.1712 -1.2491 -1.1155
 1474SOL    HW215885   3.079   2.048   2.491 -0.5733  1.3622 -0.4065
 1475SOL     OW15886   1.420   1.763   2.616  0.0585 -0.5318  0.1337
 1475SOL    HW115887   1.405   1.709   2.693 -2.8899 -0.4521 -0.3924
 1475SOL    HW215888   1.516   1.757   2.618  0.2113  0.8206 -3.1909
 1476SOL     OW15889   4.415   2.762   0.018  0.1537  0.4436 -0.8268
 1476SOL    HW115890   4.439   2.669   0.018 -1.5321  0.0058  0.0318
 1476SOL    HW215891   4.327   2.764  17.679 -0.9749  3.0209  1.8652
 1477SOL     OW15892   0.225   3.202  15.822  0.1450  0.7099  0.3590
 1477SOL    HW115893   0.133   3.223  15.836  0.8011  2.5765  1.8020
 1477SOL    HW215894   0.251   3.180  15.912 -0.4114  0.1242  0.3800
 1478SOL     OW15895   3.372   3.353  13.038 -0.7303 -0.1465 -0.1644
 1478SOL    HW115896   3.455   3.401  13.044 -0.3021 -0.7455 -1.1946
 1478SOL    HW215897   3.373   3.315  13.125  1.2516 -2.3761 -1.1727
 1479SOL     OW15898   3.326   3.161   7.871  0.6530  0.8467  0.0684
 1479SOL    HW115899   3.284   3.223   7.930  1.5912  1.6739 -0.1261
 1479SOL    HW215900   3.291   3.186   7.785 -0.8505  0.5937  0.6090
 1480SOL     OW15901   2.778   4.420   5.155 -0.0535 -0.3093  0.0690
 1480SOL    HW115902   2.719   4.391   5.085 -0.2752 -0.0866  0.1631
 1480SOL    HW215903   2.744   4.372   5.231 -1.7454  0.0773 -0.4300
 1481SOL     OW15904   1.682   0.281   7.050  0.1760 -0.2509  0.4933
 1481SOL    HW115905   1.649   0.348   6.990  0.0139 -1.2299 -0.5033
 1481SOL    HW215906   1.660   0.313   7.138 -1.2818 -2.2294  0.8574
 1482SOL     OW15907   1.754   3.189  14.259 -0.0905 -0.1910  0.1070
 1482SOL    HW115908   1.769   3.234  14.342  1.0813  2.2798 -1.4422
 1482SOL    HW215909   1.810   3.114  14.279  0.2544  0.2929  0.9747
 1483SOL     OW15910   3.194   2.347   4.398  0.2578  0.3067 -0.2923
 1483SOL    HW115911   3.191   2.433   4.357 -2.9314  0.3885  0.1254
 1483SOL    HW215912   3.167   2.298   4.320  1.2776 -0.4855 -0.1524
 1484SOL     OW15913   2.721   1.675   8.871 -0.1491 -0.0739  0.3542
 1484SOL    HW115914   2.644   1.729   8.859 -0.0313 -0.1507 -0.7539
 1484SOL    HW215915   2.689   1.603   8.925 -0.0806 -0.0196  0.4676
 1485SOL     OW15916   1.389   1.243  14.671 -0.1809  0.4322  0.3934
 1485SOL    HW115917   1.435   1.280  14.746 -0.9291  2.7752 -0.3006
 1485SOL    HW215918   1.349   1.166  14.710 -1.4452  1.2399  0.6869
 1486SOL     OW15919   3.091   4.717  11.063  0.4230  0.3641 -0.5187
 1486SOL    HW115920   3.173   0.036  11.041 -0.4764  1.6998 -1.3183
 1486SOL    HW215921   3.042   0.008  10.981  0.7899 -2.2034 -1.2161
 1487SOL     OW15922   1.991   2.402   3.302  0.5982 -0.6625  0.0597
 1487SOL    HW115923   2.039   2.321   3.283  1.5811 -0.1624  0.3915
 1487SOL    HW215924   1.926   2.412   3.233  1.5492  1.2891 -0.5299
 1488SOL     OW15925   0.169   0.821  10.936  0.4598  0.6154 -0.0267
 1488SOL    HW115926   0.086   0.867  10.936  0.0196 -0.1495  3.8810
 1488SOL    HW215927   0.206   0.838  11.023 -0.1621  1.1154  0.1424
 1489SOL     OW15928   0.305   3.796  10.717  0.3203  0.2456  0.6313
 1489SOL    HW115929   0.332   3.705  10.704  1.2282  0.7320 -0.9850
 1489SOL    HW215930   0.211   3.805  10.702  0.4565  0.1595 -0.2973
 1490SOL     OW15931   1.178   4.276  15.868  0.1114 -0.2448 -0.0947
 1490SOL    HW115932   1.097   4.231  15.843 -1.4198  2.2592  0.3894
 1490SOL    HW215933   1.150   4.366  15.856  3.3876  0.4869 -2.1641
 1491SOL     OW15934   2.659   0.409  16.097  0.4432 -0.2733  0.4114
 1491SOL    HW115935   2.601   0.395  16.022 -0.4644 -0.2400  1.1130
 1491SOL    HW215936   2.618   0.481  16.143 -0.0166  0.1289 -0.6349
 1492SOL     OW15937   4.107   1.143   2.752 -0.3964 -0.1357 -0.0258
 1492SOL    HW115938   4.096   1.090   2.673  2.4297  0.2347 -0.7025
 1492SOL    HW215939   4.152   1.085   2.814 -0.5818 -1.2473 -0.9375
 1493SOL     OW15940   0.628   3.246  10.691  0.0978  0.7060  0.0048
 1493SOL    HW115941   0.694   3.178  10.679 -1.8231 -1.2313  0.4749
 1493SOL    HW215942   0.629   3.283  10.603 -0.2166  1.5709  0.3604
 1494SOL     OW15943   3.911   3.440   8.799  0.1634 -0.6022  0.3617
 1494SOL    HW115944   3.987   3.488   8.765 -0.1499  0.0879  0.6306
 1494SOL    HW215945   3.851   3.512   8.780  1.5723  0.8341  1.2885
 1495SOL     OW15946   4.402   4.204   6.450  0.3285  0.0100  0.3339
 1495SOL    HW115947   4.363   4.221   6.365 -2.4107  0.9257  1.7896
 1495SOL    HW215948   4.465   4.138   6.421  0.5872  0.0075  0.8934
 1496SOL     OW15949   0.040   4.428   1.531 -0.1359 -0.0413  0.2632
 1496SOL    HW115950   4.674   4.440   1.502 -1.1276 -0.7626  3.1274
 1496SOL    HW215951   0.082   4.513   1.518  0.8440 -0.5136  0.3220
 1497SOL     OW15952   2.638   4.565   9.156  0.3646 -0.5111  0.3698
 1497SOL    HW115953   2.605   4.539   9.242  0.8455  0.6330  0.9087
 1497SOL    HW215954   2.718   4.514   9.164 -0.4126 -1.6453  1.0462
 1498SOL     OW15955   2.770   1.792   3.409  0.0545  0.3871  0.0739
 1498SOL    HW115956   2.754   1.699   3.392  0.5884 -0.3679  3.7277
 1498SOL    HW215957   2.719   1.822   3.334 -0.0469  0.0899  0.0221
 1499SOL     OW15958   0.912   4.271   3.824 -0.5089 -0.3661  0.1642
 1499SOL    HW115959   0.935   4.329   3.896  1.6347  0.6525 -1.3383
 1499SOL    HW215960   0.837   4.228   3.865 -0.1841  0.0444  1.1991
 1500SOL     OW15961   1.947   2.277   3.542 -0.5952 -0.4068 -0.2380
 1500SOL    HW115962   1.874   2.321   3.584 -0.9564 -0.3147 -0.9586
 1500SOL    HW215963   1.986   2.343   3.485  0.8067 -2.5643 -1.8117
 1501SOL     OW15964   3.562   4.246   2.661  0.4120  0.0266  0.0904
 1501SOL    HW115965   3.643   4.214   2.621  0.8195  0.0182  0.9330
 1501SOL    HW215966   3.590   4.329   2.698  1.4840 -0.3658  0.1379
 1502SOL     OW15967   2.972   0.562  11.399  0.3746  0.0329  0.4055
 1502SOL    HW115968   3.027   0.508  11.456  0.7148  0.5063  0.5248
 1502SOL    HW215969   2.931   0.617  11.466 -1.3478  0.9156 -1.3857
 1503SOL     OW15970   3.394   0.778   2.908  0.1142  0.1693  0.4232
 1503SOL    HW115971   3.347   0.702   2.875  3.2300 -2.3352  1.7478
 1503SOL    HW215972   3.479   0.742   2.884  0.3221 -0.0074  1.4232
 1504SOL     OW15973   1.766   0.412   3.093 -0.4936 -0.3509 -0.1714
 1504SOL    HW115974   1.826   0.472   3.047 -0.7936  1.6802  2.0831
 1504SOL    HW215975   1.778   0.335   3.037 -0.6628  0.1878 -0.9572
 1505SOL     OW15976   4.341   3.797   4.988 -0.2379 -0.6145  0.1546
 1505SOL    HW115977   4.379   3.836   4.909  0.5897  0.5589  1.1497
 1505SOL    HW215978   4.375   3.707   4.990 -0.2758 -0.5962  1.4538
 1506SOL     OW15979   2.791   0.414   6.525  0.6583 -0.3416 -0.5328
 1506SOL    HW115980   2.848   0.345   6.492 -0.2247 -2.1380  1.6742
 1506SOL    HW215981   2.776   0.371   6.609  0.8980  0.4232 -0.0998
 1507SOL     OW15982   0.955   1.842   3.897  0.5307 -0.2762 -0.1465
 1507SOL    HW115983   0.866   1.867   3.873  1.8472  1.4068 -3.1975
 1507SOL    HW215984   0.948   1.795   3.980  2.8795  0.2681  0.3794
 1508SOL     OW15985   2.536   2.651   1.253 -0.3030  0.0029 -0.1118
 1508SOL    HW115986   2.602   2.691   1.196  1.3952 -1.3665  0.9156
 1508SOL    HW215987   2.590   2.595   1.308 -0.3842  0.0710  0.0361
 1509SOL     OW15988   1.575   0.592   6.597 -0.1512 -0.0550  0.0123
 1509SOL    HW115989   1.516   0.646   6.649 -0.3575  0.1711 -0.4564
 1509SOL    HW215990   1.515   0.530   6.556  0.1551  0.4335 -1.1696
 1510SOL     OW15991   2.096   4.498   6.496 -0.6690  0.0085 -0.2414
 1510SOL    HW115992   2.069   4.517   6.406 -0.0084  1.9869 -0.0281
 1510SOL    HW215993   2.190   4.483   6.483 -0.7938 -0.0352 -1.1079
 1511SOL     OW15994   2.960   2.423   6.995 -0.1026 -0.0039 -0.0162
 1511SOL    HW115995   2.968   2.516   6.974  1.2923 -0.2922 -0.7241
 1511SOL    HW215996   3.022   2.408   7.067 -0.4945  0.9904  0.5345
 1512SOL     OW15997   2.300   0.169   7.187 -0.3276 -0.1190 -0.1074
 1512SOL    HW115998   2.282   0.090   7.239 -1.1725 -0.0113 -0.2490
 1512SOL    HW215999   2.391   0.178   7.218 -0.1722 -0.4437 -0.4783
 1513SOL     OW16000   0.172   4.399   5.172 -0.9040  0.0650  0.2768
 1513SOL    HW116001   0.176   4.325   5.233 -1.8017  1.2546  1.7497
 1513SOL    HW216002   0.081   4.395   5.145 -0.8006 -0.8605  0.0435
 1514SOL     OW16003   4.257   1.567   3.865  0.9721 -0.0708  0.0156
 1514SOL    HW116004   4.313   1.521   3.803 -0.6475 -2.2388  0.1842
 1514SOL    HW216005   4.322   1.564   3.936 -1.3228  1.1987  2.1578
 1515SOL     OW16006   4.249   0.900  16.840  0.2641 -0.2588  0.3732
 1515SOL    HW116007   4.215   0.893  16.929  1.6172 -2.1257  0.7370
 1515SOL    HW216008   4.304   0.823  16.826  1.3489  0.4388  0.8031
 1516SOL     OW16009   3.826   1.555  10.261 -0.3544  0.0669 -0.2250
 1516SOL    HW116010   3.815   1.461  10.273  0.1515 -0.1239 -1.2553
 1516SOL    HW216011   3.920   1.558  10.277  0.0001 -0.5873 -2.1891
 1517SOL     OW16012   2.976   3.201   6.331  0.1326 -0.3079 -0.2271
 1517SOL    HW116013   2.956   3.294   6.320 -0.8959 -0.7695 -2.2626
 1517SOL    HW216014   3.069   3.203   6.355 -0.3983  1.2094  1.6577
 1518SOL     OW16015   2.698   1.084   3.333 -0.1607  0.2963  0.1585
 1518SOL    HW116016   2.634   1.153   3.317  0.8010  1.5061  1.4664
 1518SOL    HW216017   2.766   1.147   3.358  0.0839  0.2897 -0.4896
 1519SOL     OW16018   4.722   2.969  14.078  0.2358  0.1762  0.1920
 1519SOL    HW116019   0.076   2.976  14.133  0.2232  1.7284 -0.0024
 1519SOL    HW216020   4.723   2.875  14.061  2.5696  0.2401 -0.1061
 1520SOL     OW16021   3.943   3.608   3.688  0.3256 -0.3656  0.0878
 1520SOL    HW116022   3.951   3.517   3.661 -2.1124 -0.6867  0.3917
 1520SOL    HW216023   3.866   3.637   3.639  1.0359 -1.8053 -1.8709
 1521SOL     OW16024   1.065   1.233  17.174 -0.0426 -0.1449 -0.2392
 1521SOL    HW116025   1.157   1.259  17.177  0.0144 -0.1271 -2.1413
 1521SOL    HW216026   1.059   1.229  17.078 -0.4472  0.5858 -0.2430
 1522SOL     OW16027   0.860   4.714  10.640 -0.3964 -0.2423  0.0161
 1522SOL    HW116028   0.905   0.053  10.585 -0.7283 -1.1658 -1.3379
 1522SOL    HW216029   0.925   4.666  10.692  0.9532 -0.4312 -1.8426
 1523SOL     OW16030   1.319   1.168   3.609 -0.6084  0.0132 -0.4260
 1523SOL    HW116031   1.231   1.167   3.649 -0.2536 -1.9219  0.2892
 1523SOL    HW216032   1.291   1.195   3.521 -1.5119  0.1712 -0.0976
 1524SOL     OW16033   0.924   3.344  11.703 -0.0713 -0.1373  0.2665
 1524SOL    HW116034   0.923   3.349  11.607 -0.8609 -0.5727  0.2513
 1524SOL    HW216035   1.018   3.337  11.720  0.3288  1.2189 -1.3843
 1525SOL     OW16036   2.470   3.940   8.467  0.0031  0.2612 -0.0119
 1525SOL    HW116037   2.539   3.875   8.455  0.7482  1.0899 -0.1843
 1525SOL    HW216038   2.507   4.008   8.411 -3.7544  0.9815 -1.5622
 1526SOL     OW16039   4.114   4.007   4.435  1.1014  0.1987 -0.6299
 1526SOL    HW116040   4.027   4.010   4.394  0.0554  0.1376  1.6150
 1526SOL    HW216041   4.168   4.052   4.370 -1.7736  2.7350 -1.2825
 1527SOL     OW16042   4.284   4.189   6.920  0.8908  0.0427 -0.5640
 1527SOL    HW116043   4.283   4.197   6.825  0.6204 -1.5374 -0.6916
 1527SOL    HW216044   4.299   4.282   6.940  0.4589 -0.1417  0.6391
 1528SOL     OW16045   1.972   0.934   9.110 -0.1391  0.2395 -0.4470
 1528SOL    HW116046   2.042   0.996   9.130  0.0601 -0.4530  0.9970
 1528SOL    HW216047   1.992   0.853   9.157  1.7482  0.6965 -0.4588
 1529SOL     OW16048   3.678   1.018   0.422 -0.6860  0.1824  0.5718
 1529SOL    HW116049   3.636   1.100   0.399 -1.1849 -0.5930 -1.2401
 1529SOL    HW216050   3.769   1.045   0.435 -0.8649  1.7402 -1.5846
 1530SOL     OW16051   0.151   1.161   1.182 -0.1650 -0.3017  0.4589
 1530SOL    HW116052   0.214   1.089   1.180 -1.1148 -1.1985  2.4151
 1530SOL    HW216053   0.201   1.238   1.206  1.2844 -1.4617  1.0949
 1531SOL     OW16054   0.338   3.008   3.933 -0.1089  0.1243  0.1439
 1531SOL    HW116055   0.330   2.940   4.001  1.0939 -0.3792 -0.2201
 1531SOL    HW216056   0.368   2.949   3.864 -0.1890  0.2445  0.0086
 1532SOL     OW16057   3.235   1.862   5.952  0.4234 -0.2854 -0.6017
 1532SOL    HW116058   3.329   1.842   5.955  0.4132 -0.3658 -0.8652
 1532SOL    HW216059   3.220   1.931   6.017  0.1372  0.8175 -1.8349
 1533SOL     OW16060   4.390   3.269  11.768  0.4200  0.3295 -0.7108
 1533SOL    HW116061   4.336   3.240  11.842  2.0398 -1.5095 -0.2302
 1533SOL    HW216062   4.466   3.306  11.813  1.3180 -2.6482  0.2497
 1534SOL     OW16063   1.415   3.996  13.953 -0.4440  0.3827 -0.3949
 1534SOL    HW116064   1.458   3.933  13.896 -1.8809  0.8174 -1.9572
 1534SOL    HW216065   1.484   4.011  14.017 -0.7550 -3.1733  0.7898
 1535SOL     OW16066   4.295   2.117   5.739 -0.0938  0.0482  0.1670
 1535SOL    HW116067   4.253   2.161   5.665  1.1068 -0.0451 -0.5626
 1535SOL    HW216068   4.357   2.176   5.781 -0.7267  0.5886  0.3407
 1536SOL     OW16069   0.979   0.971  11.795 -0.1611  0.6052 -0.0146
 1536SOL    HW116070   0.897   0.988  11.748  1.2295 -2.9089 -3.7215
 1536SOL    HW216071   0.945   0.964  11.884  0.0439  0.0295  0.0215
 1537SOL     OW16072   4.194   2.183   2.853  0.2890  0.0974 -0.2022
 1537SOL    HW116073   4.169   2.271   2.882 -1.8170 -0.0281 -1.6769
 1537SOL    HW216074   4.127   2.168   2.786  1.3868  0.4159 -1.3872
 1538SOL     OW16075   0.324   1.355   3.707 -0.3467  0.4624 -0.0061
 1538SOL    HW116076   0.386   1.299   3.753 -1.9427  0.6229  2.3316
 1538SOL    HW216077   0.304   1.295   3.634 -0.6532  0.6709 -0.0942
 1539SOL     OW16078   1.562   0.140   2.935 -0.3941 -0.4294  0.0081
 1539SOL    HW116079   1.564   0.059   2.885 -2.6524  0.3616 -1.4089
 1539SOL    HW216080   1.648   0.175   2.909  0.4162 -1.6990  1.0432
 1540SOL     OW16081   3.235   2.660  10.425  0.1401  0.1788  0.7301
 1540SOL    HW116082   3.293   2.681  10.498  0.2011 -0.2389  0.7974
 1540SOL    HW216083   3.226   2.752  10.399 -0.8441 -0.2094 -0.3041
 1541SOL     OW16084   4.591   3.864   1.662 -0.2286 -0.2770  0.0375
 1541SOL    HW116085   4.577   3.797   1.595  0.1853  0.3416 -0.6737
 1541SOL    HW216086   4.579   3.934   1.598  0.5681  1.0791  1.3709
 1542SOL     OW16087   4.382   1.369   8.857 -0.3564 -0.1562  0.1586
 1542SOL    HW116088   4.373   1.350   8.950 -0.9400 -0.6175  0.0137
 1542SOL    HW216089   4.431   1.451   8.856  1.6062 -1.3385  0.6248
 1543SOL     OW16090   0.972   1.225   3.608  0.2963  0.0900 -0.0615
 1543SOL    HW116091   0.998   1.167   3.536  3.6701 -0.0162  1.2654
 1543SOL    HW216092   0.985   1.312   3.570 -0.4538  0.3509  0.2782
 1544SOL     OW16093   1.827   1.865   2.537 -0.0143 -0.1724  0.3634
 1544SOL    HW116094   1.751   1.907   2.577 -0.1295  0.9067 -0.9654
 1544SOL    HW216095   1.791   1.794   2.484 -1.1675  0.6951 -0.0340
 1545SOL     OW16096   4.230   4.546  15.201  0.4777  0.1381  0.3928
 1545SOL    HW116097   4.216   4.552  15.106 -0.8528 -0.0491  0.5853
 1545SOL    HW216098   4.274   4.630  15.211  1.6952 -0.4450  0.0731
 1546SOL     OW16099   1.976   1.894   1.604  0.1273  0.1916  0.6659
 1546SOL    HW116100   1.959   1.970   1.548  2.3085  0.7152  0.6784
 1546SOL    HW216101   1.915   1.836   1.561  0.2963 -0.3502  1.1591
 1547SOL     OW16102   3.150   2.218   2.553 -0.0778 -0.0614 -0.2141
 1547SOL    HW116103   3.216   2.191   2.617  0.1177 -0.8351 -0.7451
 1547SOL    HW216104   3.204   2.228   2.474  4.1693  3.0870  3.0555
 1548SOL     OW16105   3.380   0.976  14.582 -0.2914  0.3428 -0.2740
 1548SOL    HW116106   3.446   0.924  14.627  0.0939  0.8686 -0.2260
 1548SOL    HW216107   3.316   0.914  14.548  1.0135 -0.4970 -1.1740
 1549SOL     OW16108   2.665   0.922   9.567  0.3987  0.0306 -0.7706
 1549SOL    HW116109   2.737   0.961   9.518 -0.1946  1.5762 -0.4151
 1549SOL    HW216110   2.715   0.878   9.635  1.4242  1.0890 -0.8320
 1550SOL     OW16111   1.031   0.547   6.294 -0.1721  0.1691 -0.1497
 1550SOL    HW116112   1.023   0.639   6.271  0.9658  0.0917 -0.8328
 1550SOL    HW216113   0.977   0.554   6.373  1.5056 -0.2559  1.0295
 1551SOL     OW16114   4.090   1.321   4.109  0.1842  0.1057 -0.6017
 1551SOL    HW116115   4.018   1.339   4.048 -1.6766  0.0762  1.5995
 1551SOL    HW216116   4.073   1.392   4.171 -0.6717 -0.4016 -0.2570
 1552SOL     OW16117   4.475   0.770   6.229  0.2622  0.1692 -0.0091
 1552SOL    HW116118   4.420   0.700   6.194  0.9012 -0.4895  0.3112
 1552SOL    HW216119   4.554   0.760   6.175 -0.1855 -1.0910 -0.4108
 1553SOL     OW16120   0.554   4.533   9.332  0.5492 -0.4089  0.6478
 1553SOL    HW116121   0.627   4.595   9.332  1.3893 -1.3864  2.4553
 1553SOL    HW216122   0.505   4.553   9.412 -2.8785  0.2745 -1.6142
 1554SOL     OW16123   2.602   0.015  12.298  0.0849 -0.4317 -0.0714
 1554SOL    HW116124   2.556   4.659  12.324 -1.2632  0.1580 -0.6337
 1554SOL    HW216125   2.567   0.062  12.373 -1.6983 -0.5497 -0.8225
 1555SOL     OW16126   3.002   2.161   3.591  0.0946  0.0722  0.0907
 1555SOL    HW116127   3.018   2.117   3.674  5.2354 -1.1321 -1.4945
 1555SOL    HW216128   2.907   2.165   3.597  0.0627  0.6188 -0.8025
 1556SOL     OW16129   3.149   1.587   0.055 -0.0655 -0.2866  0.2750
 1556SOL    HW116130   3.134   1.503   0.098 -1.2387 -0.6227 -0.7791
 1556SOL    HW216131   3.067   1.635   0.051  0.1547 -0.0078 -1.0941
 1557SOL     OW16132   0.507   2.478   3.532 -0.2407 -0.1384  0.1078
 1557SOL    HW116133   0.520   2.564   3.573 -1.6688  0.8299 -1.4511
 1557SOL    HW216134   0.574   2.495   3.465  0.5205 -0.7620  0.7118
 1558SOL     OW16135   3.144   3.271   8.801 -0.1726 -0.5640  0.0634
 1558SOL    HW116136   3.219   3.232   8.844 -0.2235  0.1703  0.8209
 1558SOL    HW216137   3.169   3.363   8.811  1.8674 -1.4529  2.9767
 1559SOL     OW16138   1.135   3.178   5.264  0.0840  0.2589  0.2450
 1559SOL    HW116139   1.075   3.246   5.296  1.7541  0.5423  2.8447
 1559SOL    HW216140   1.073   3.106   5.257  0.8028 -0.3931  0.5092
 1560SOL     OW16141   3.906   3.195   8.598 -0.8846  0.1454  0.2323
 1560SOL    HW116142   3.951   3.111   8.588 -0.4862  0.0636  2.6687
 1560SOL    HW216143   3.942   3.236   8.677 -1.1393  0.2417  0.2975
 1561SOL     OW16144   3.691   3.285   4.797  0.4410 -0.6552  0.2219
 1561SOL    HW116145   3.679   3.212   4.737  1.1579 -0.2165 -0.4539
 1561SOL    HW216146   3.614   3.288   4.854  1.6587 -1.2894  1.8930
 1562SOL     OW16147   0.688   2.720   9.886 -0.3985  0.1189  0.3716
 1562SOL    HW116148   0.693   2.736   9.980 -1.5009  0.0271  0.4387
 1562SOL    HW216149   0.731   2.798   9.851 -3.1461  1.3670 -0.2007
 1563SOL     OW16150   0.645   1.305   1.276 -0.0190  0.0774 -0.0556
 1563SOL    HW116151   0.720   1.298   1.218  1.9126  0.4642  2.3881
 1563SOL    HW216152   0.664   1.398   1.288  1.2227 -0.4241  1.9363
 1564SOL     OW16153   1.002   1.205   9.273  0.5001 -0.2501  0.3866
 1564SOL    HW116154   1.027   1.269   9.340  1.8636  0.1970 -0.5610
 1564SOL    HW216155   1.085   1.168   9.244  0.2647 -0.9196  0.5841
 1565SOL     OW16156   1.138   2.370   4.759  0.0557 -0.2209 -0.2129
 1565SOL    HW116157   1.104   2.357   4.848  2.6083  0.4524  0.8919
 1565SOL    HW216158   1.225   2.335   4.782 -0.5215  0.4451  3.0221
 1566SOL     OW16159   1.285   0.672   6.041 -0.3239 -0.3310  0.6128
 1566SOL    HW116160   1.376   0.678   6.067 -0.0914 -1.0700 -0.0311
 1566SOL    HW216161   1.253   0.753   6.080  1.4328  0.4572  0.4047
 1567SOL     OW16162   3.070   3.645   4.861  0.0084  0.0525 -0.1029
 1567SOL    HW116163   3.063   3.562   4.813 -1.8746  0.1429 -0.0124
 1567SOL    HW216164   3.077   3.619   4.953  0.0589 -0.7165 -0.3300
 1568SOL     OW16165   2.561   0.519   9.126  0.4610  0.2792 -0.2118
 1568SOL    HW116166   2.468   0.545   9.128  0.3923  0.0429 -0.3325
 1568SOL    HW216167   2.600   0.606   9.117  0.6940  0.3723  1.7330
 1569SOL     OW16168   3.741   2.839   2.534 -0.3214 -0.8835  0.3944
 1569SOL    HW116169   3.813   2.804   2.586  0.1310 -1.6250 -0.7411
 1569SOL    HW216170   3.758   2.933   2.532 -1.3170 -0.6914  1.2778
 1570SOL     OW16171   0.656   3.994  14.997 -0.1509  0.7924  0.2338
 1570SOL    HW116172   0.713   3.935  15.047  2.7582  1.2062 -2.6177
 1570SOL    HW216173   0.567   3.975  15.027  0.3678  1.5878  2.2405
 1571SOL     OW16174   4.493   4.518   1.479  0.4141 -0.2721  0.2807
 1571SOL    HW116175   4.493   4.613   1.485  0.4239 -0.2476 -0.0739
 1571SOL    HW216176   4.444   4.508   1.397 -1.5072 -2.3646  1.6968
 1572SOL     OW16177   3.197   3.641   6.853 -0.2481  0.3496 -0.3661
 1572SOL    HW116178   3.141   3.563   6.858 -0.1618  0.2923 -0.3092
 1572SOL    HW216179   3.140   3.709   6.817 -0.4411  0.2034 -0.3386
 1573SOL     OW16180   1.194   1.384   1.836  0.2524 -0.7226  0.9025
 1573SOL    HW116181   1.151   1.298   1.837  0.5305 -0.8867 -0.4852
 1573SOL    HW216182   1.127   1.438   1.877 -0.0150  0.1680 -0.7074
 1574SOL     OW16183   0.720   0.893   1.342  0.2907 -0.3708 -0.3048
 1574SOL    HW116184   0.694   0.812   1.298  0.0596  0.9836 -2.6637
 1574SOL    HW216185   0.643   0.948   1.326  0.2575 -0.1832  0.5213
 1575SOL     OW16186   2.169   0.275   6.226 -0.2876  0.1008 -0.5653
 1575SOL    HW116187   2.236   0.317   6.171  0.0210 -0.0106 -0.2770
 1575SOL    HW216188   2.217   0.285   6.309 -0.8491 -3.1476  0.1400
 1576SOL     OW16189   4.544   2.234   5.304 -0.2335  0.1364  0.2416
 1576SOL    HW116190   4.498   2.151   5.294 -0.8640  0.7312 -1.6073
 1576SOL    HW216191   4.629   2.197   5.329  0.2207 -0.0595 -1.5911
 1577SOL     OW16192   2.409   2.150   4.010  0.7891 -0.0120  0.3351
 1577SOL    HW116193   2.373   2.066   3.982  0.0246  0.4381 -0.0359
 1577SOL    HW216194   2.383   2.162   4.101  2.4278  0.5986  0.7279
 1578SOL     OW16195   0.332   1.627   4.056  0.1313 -0.0106  0.1005
 1578SOL    HW116196   0.284   1.546   4.072 -1.4468  0.7729 -0.5788
 1578SOL    HW216197   0.346   1.623   3.961  1.3148  1.5679  0.2084
 1579SOL     OW16198   0.326   0.661  17.061  0.3996 -0.2816 -0.2486
 1579SOL    HW116199   0.406   0.621  17.095  0.7894  1.8307  1.3094
 1579SOL    HW216200   0.277   0.664  17.143 -0.7229  1.0432 -0.9762
 1580SOL     OW16201   4.541   3.324   4.493 -0.3708  0.1970  0.0930
 1580SOL    HW116202   4.580   3.250   4.538 -0.8993 -0.1384  0.0050
 1580SOL    HW216203   4.584   3.322   4.408 -2.2104  0.4814 -0.8532
 1581SOL     OW16204   1.037   3.747   3.210 -0.2295  0.1642  0.1413
 1581SOL    HW116205   1.030   3.656   3.182 -0.1863  0.3430 -0.4619
 1581SOL    HW216206   0.953   3.780   3.177 -0.9858 -1.2768  0.6283
 1582SOL     OW16207   2.181   0.265   7.944  0.5635 -0.7651  0.1205
 1582SOL    HW116208   2.222   0.179   7.938  0.1224 -1.0803  1.5738
 1582SOL    HW216209   2.252   0.323   7.971  0.7874 -0.6550 -0.6933
 1583SOL     OW16210   0.822   0.208   4.581 -0.2776  0.1833  0.3765
 1583SOL    HW116211   0.768   0.130   4.575 -1.0317  0.6110  1.6404
 1583SOL    HW216212   0.894   0.189   4.521  0.6680  4.1701  0.2613
 1584SOL     OW16213   2.251   1.094   3.089 -0.0400  0.3560 -0.4198
 1584SOL    HW116214   2.276   1.095   2.997  0.4522  1.5861 -0.2707
 1584SOL    HW216215   2.161   1.060   3.096 -0.4905  1.1629 -2.2916
 1585SOL     OW16216   0.504   3.866  17.368  0.1535  0.1554  1.0184
 1585SOL    HW116217   0.471   3.845  17.281  1.0259  1.3143  0.4105
 1585SOL    HW216218   0.523   3.780  17.406 -2.8461 -1.3946 -1.0064
 1586SOL     OW16219   2.347   0.600   4.118 -0.2324  0.1528 -0.8790
 1586SOL    HW116220   2.331   0.594   4.212  0.7382 -2.1114 -0.8603
 1586SOL    HW216221   2.306   0.683   4.092 -0.5743 -0.0935 -1.1254
 1587SOL     OW16222   2.344   1.661   2.274  0.6328  0.0482 -0.2698
 1587SOL    HW116223   2.426   1.681   2.319  0.9856 -0.5456 -0.6661
 1587SOL    HW216224   2.320   1.750   2.250  0.6887  0.1358 -0.0063
 1588SOL     OW16225   1.536   4.690   6.128  0.6961  0.1069 -0.1953
 1588SOL    HW116226   1.486   0.008   6.197  0.4018 -0.9186  0.2184
 1588SOL    HW216227   1.578   4.619   6.176  0.2389  1.8478  2.8183
 1589SOL     OW16228   3.404   1.272   4.418 -0.0366  0.2279 -0.1041
 1589SOL    HW116229   3.475   1.335   4.435  0.9380 -1.3474  1.7363
 1589SOL    HW216230   3.385   1.275   4.325  2.3910 -1.3738 -0.6410
 1590SOL     OW16231   3.196   2.551   3.269 -0.0375 -0.2639  0.8422
 1590SOL    HW116232   3.147   2.615   3.321 -0.6189  0.1840 -0.2653
 1590SOL    HW216233   3.279   2.554   3.316 -0.0691 -1.2838  0.9675
 1591SOL     OW16234   3.562   3.746   9.429  0.1216 -0.0953 -0.1184
 1591SOL    HW116235   3.563   3.797   9.347 -1.2127 -0.7013 -0.5175
 1591SOL    HW216236   3.612   3.807   9.483  0.0177  0.3614 -0.5350
 1592SOL     OW16237   0.313   0.952   2.920 -0.3427 -0.3376  0.3470
 1592SOL    HW116238   0.244   0.984   2.861  1.4020 -1.2141 -2.1720
 1592SOL    HW216239   0.264   0.961   3.002  1.9290  0.9045  1.5722
 1593SOL     OW16240   3.229   0.845  16.703 -0.1644 -0.4213 -0.0135
 1593SOL    HW116241   3.268   0.797  16.630  0.9622  0.1832  0.1846
 1593SOL    HW216242   3.159   0.903  16.671 -0.4036 -0.9558 -0.4565
 1594SOL     OW16243   2.913   3.091   8.811  0.5435 -0.0203 -0.6074
 1594SOL    HW116244   2.970   3.164   8.786 -0.7662  0.9877 -0.6730
 1594SOL    HW216245   2.965   3.011   8.816  0.1392 -0.1855  1.2496
 1595SOL     OW16246   2.361   4.040   2.601 -0.4998 -0.0399  0.2440
 1595SOL    HW116247   2.444   3.993   2.601 -0.0571  0.7327  2.4787
 1595SOL    HW216248   2.351   4.041   2.506  1.9672 -0.7628 -0.0249
 1596SOL     OW16249   1.572   3.101  12.580 -0.6457  0.4289 -0.0898
 1596SOL    HW116250   1.575   3.082  12.486  1.1602  0.2976 -0.0125
 1596SOL    HW216251   1.633   3.040  12.622 -1.6422 -0.4886  0.0064
 1597SOL     OW16252   0.311   1.344   3.097  0.2283  0.0559 -0.5505
 1597SOL    HW116253   0.399   1.315   3.123  0.7350  2.8603  0.8940
 1597SOL    HW216254   0.313   1.438   3.112 -2.3550  0.2633 -1.4674
 1598SOL     OW16255   2.900   0.483   5.628  0.5670 -0.2268  0.0689
 1598SOL    HW116256   2.981   0.436   5.610  0.3057 -0.1606 -1.2553
 1598SOL    HW216257   2.835   0.413   5.618 -0.4813  0.7136  0.2832
 1599SOL     OW16258   2.330   2.910   4.305 -0.1233  0.7349 -0.0832
 1599SOL    HW116259   2.377   2.826   4.302 -1.6601 -0.1446  0.8201
 1599SOL    HW216260   2.267   2.898   4.376  0.5975  0.0171  0.4390
 1600SOL     OW16261   3.359   4.022   2.879 -0.3282  0.3870 -0.4021
 1600SOL    HW116262   3.319   4.107   2.897 -1.2448 -0.0667 -0.2653
 1600SOL    HW216263   3.346   4.026   2.784  0.1850  0.6941 -0.4576
 1601SOL     OW16264   2.723   4.228  16.876  0.0918  0.4779 -0.3334
 1601SOL    HW116265   2.756   4.317  16.876  1.3935  0.0042  0.1779
 1601SOL    HW216266   2.777   4.193  16.947 -0.7345 -0.5623 -0.2080
 1602SOL     OW16267   1.897   2.121   2.492  0.1797  0.0066 -0.3144
 1602SOL    HW116268   1.816   2.147   2.537 -0.1545  2.2125 -2.1796
 1602SOL    HW216269   1.898   2.026   2.483 -1.7340 -0.2956  2.7228
 1603SOL     OW16270   3.068   2.094  16.281 -0.1105 -0.3437 -0.0665
 1603SOL    HW116271   3.090   2.117  16.372 -2.5529  1.7011  0.0108
 1603SOL    HW216272   3.104   2.168  16.232 -0.6322 -0.6025 -0.8303
 1604SOL     OW16273   0.597   1.535   4.557 -0.5745 -0.1460  0.3705
 1604SOL    HW116274   0.603   1.440   4.558 -0.8443 -0.1640  0.3111
 1604SOL    HW216275   0.524   1.546   4.495 -1.8968  2.6207  2.4207
 1605SOL     OW16276   0.559   4.266   8.859 -0.0985 -0.2801  0.7611
 1605SOL    HW116277   0.561   4.212   8.780  1.2650 -1.6540  1.7271
 1605SOL    HW216278   0.606   4.218   8.927 -0.3489  0.4174  1.4220
 1606SOL     OW16279   1.447   0.136   4.273 -0.0996 -0.1647 -0.2501
 1606SOL    HW116280   1.512   0.068   4.289 -1.7896 -1.5843  0.6208
 1606SOL    HW216281   1.393   0.126   4.352  0.2981 -0.7174 -0.0485
 1607SOL     OW16282   2.128   2.908  14.879 -0.5079 -0.2071 -0.3222
 1607SOL    HW116283   2.193   2.878  14.942 -0.1124  0.1957 -0.5364
 1607SOL    HW216284   2.189   2.944  14.814  2.7129  1.5840  3.7008
 1608SOL     OW16285   3.980   2.590   8.629 -0.4642 -0.4099  0.7499
 1608SOL    HW116286   4.003   2.532   8.701  1.3268 -1.0998 -0.3807
 1608SOL    HW216287   3.927   2.533   8.573  0.8389 -1.9624  1.1148
 1609SOL     OW16288   1.824   2.071  15.939 -0.1303  0.5682 -0.2202
 1609SOL    HW116289   1.782   2.020  16.009  0.2920  2.5898  1.5079
 1609SOL    HW216290   1.744   2.098  15.894  0.7676 -0.0970 -2.1965
 1610SOL     OW16291   0.110   4.458  15.956  0.1680  0.0164 -0.1931
 1610SOL    HW116292   0.180   4.413  15.909 -0.3401 -0.6047 -0.3595
 1610SOL    HW216293   0.075   4.382  16.004  0.3425  0.5109  0.7231
 1611SOL     OW16294   2.844   4.562   9.631 -0.1373  0.1824 -0.6104
 1611SOL    HW116295   2.794   4.487   9.663  0.6659 -0.5857 -1.1414
 1611SOL    HW216296   2.773   4.625   9.637 -1.0707 -0.9538  0.1639
 1612SOL     OW16297   1.523   1.650  17.550  0.5042  0.2919 -0.0473
 1612SOL    HW116298   1.513   1.727  17.495  1.1285  0.2760 -0.1877
 1612SOL    HW216299   1.585   1.673  17.620 -0.6908  0.5011  0.9372
 1613SOL     OW16300   2.428   3.872   5.202 -0.1533  0.7489  0.1501
 1613SOL    HW116301   2.399   3.887   5.292  1.2286  1.7669  0.4219
 1613SOL    HW216302   2.489   3.945   5.193 -0.6040  0.6413 -3.4870
 1614SOL     OW16303   2.837   4.135   5.796  0.1033 -0.0216 -0.1170
 1614SOL    HW116304   2.834   4.117   5.890  0.1814 -0.1849 -0.1455
 1614SOL    HW216305   2.903   4.205   5.792 -1.2744  1.2009 -1.1904
 1615SOL     OW16306   0.116   4.212   8.666 -0.3746 -0.1333 -0.3237
 1615SOL    HW116307   0.046   4.278   8.668 -0.5141 -0.3377  1.3932
 1615SOL    HW216308   0.148   4.223   8.755  1.8444  0.2056 -1.1713
 1616SOL     OW16309   1.253   1.485   5.012 -0.0244 -0.1368  0.1068
 1616SOL    HW116310   1.252   1.428   4.935  0.9168  1.2182 -0.9264
 1616SOL    HW216311   1.241   1.427   5.087  0.6503 -0.7207 -0.2392
 1617SOL     OW16312   3.254   2.643   6.254 -0.3877  0.3961 -0.2089
 1617SOL    HW116313   3.170   2.672   6.288  0.4633  0.4619  1.8520
 1617SOL    HW216314   3.246   2.548   6.250  1.8514  0.1325  1.3331
 1618SOL     OW16315   1.897   3.161  16.165  0.6116 -0.1963 -0.7488
 1618SOL    HW116316   1.854   3.247  16.172  3.4724  1.1146  0.8089
 1618SOL    HW216317   1.964   3.173  16.097  0.2074  0.1835 -1.0815
 1619SOL     OW16318   3.573   1.181   7.411 -0.4162 -0.1469 -0.7408
 1619SOL    HW116319   3.655   1.221   7.439 -1.3260  0.0335  1.6775
 1619SOL    HW216320   3.580   1.098   7.460  0.3278 -0.4681 -1.3964
 1620SOL     OW16321   3.037   2.702   8.895  0.2162 -0.0790  0.3119
 1620SOL    HW116322   3.056   2.765   8.825 -0.3420  0.3429  0.5420
 1620SOL    HW216323   3.078   2.624   8.857 -0.0601 -0.3024  0.4739
 1621SOL     OW16324   3.115   1.282   0.100  0.4985 -0.0048  0.1152
 1621SOL    HW116325   3.088   1.220   0.032 -0.0432 -0.0746  0.3942
 1621SOL    HW216326   3.204   1.257   0.125  0.8390  0.0745 -1.0293
 1622SOL     OW16327   1.464   2.866   6.046  0.5722 -0.0383 -0.3081
 1622SOL    HW116328   1.430   2.809   6.116 -3.1454  1.2263 -1.0943
 1622SOL    HW216329   1.543   2.901   6.087 -0.4445  3.0867 -1.0335
 1623SOL     OW16330   3.119   2.095   2.923 -0.0074 -0.4948  0.3836
 1623SOL    HW116331   3.120   2.185   2.955 -0.6689 -0.7162  1.0231
 1623SOL    HW216332   3.194   2.094   2.864 -1.6628  0.5818 -1.7335
 1624SOL     OW16333   3.196   0.508   8.751 -0.2977 -0.4907  0.3135
 1624SOL    HW116334   3.205   0.536   8.660 -0.1553 -0.7061  0.2637
 1624SOL    HW216335   3.278   0.463   8.768  0.8843  1.6181  0.2101
 1625SOL     OW16336   0.482   3.733  10.136  0.0780 -0.4447 -0.6150
 1625SOL    HW116337   0.535   3.659  10.164  1.9248  0.3723 -1.9601
 1625SOL    HW216338   0.407   3.726  10.195 -0.0389  0.1976 -0.6905
 1626SOL     OW16339   2.467   3.505   5.356 -0.2900 -0.0462 -0.8447
 1626SOL    HW116340   2.412   3.538   5.428 -1.0438  0.1300 -1.5026
 1626SOL    HW216341   2.443   3.413   5.362  0.6754 -0.3860 -2.2522
 1627SOL     OW16342   3.541   2.142   1.295  0.0863  0.1690 -0.0034
 1627SOL    HW116343   3.573   2.124   1.383  1.7292  0.0350 -0.6251
 1627SOL    HW216344   3.609   2.193   1.251  0.0995 -1.5674 -2.0398
 1628SOL     OW16345   2.969   2.878   5.791 -0.2815 -0.6300  0.1243
 1628SOL    HW116346   3.037   2.834   5.740  0.3510 -0.9416  1.2242
 1628SOL    HW216347   2.944   2.820   5.862 -0.0958 -2.0573 -0.9716
 1629SOL     OW16348   1.622   2.559   4.604 -0.3241  0.1518 -0.0489
 1629SOL    HW116349   1.553   2.600   4.552 -0.1559  0.2741 -0.1734
 1629SOL    HW216350   1.705   2.600   4.579  0.3609 -0.9709  0.3347
 1630SOL     OW16351   0.149   4.258   8.097 -0.2291 -0.3553 -0.1972
 1630SOL    HW116352   0.130   4.350   8.081 -1.7306 -0.7092 -0.5169
 1630SOL    HW216353   0.088   4.240   8.168  0.6272 -2.8165 -0.0740
 1631SOL     OW16354   0.689   1.073   5.243 -0.1003  0.3117  0.5467
 1631SOL    HW116355   0.603   1.076   5.201  0.1190  0.3312  0.1025
 1631SOL    HW216356   0.674   1.072   5.338 -0.6040 -3.2319  0.4267
 1632SOL     OW16357   0.948   1.053   2.666 -0.4447 -0.0953  0.1302
 1632SOL    HW116358   0.897   0.974   2.647 -2.8548  0.9809  2.1906
 1632SOL    HW216359   0.935   1.095   2.581  0.8722 -0.1914 -0.1066
 1633SOL     OW16360   1.796   4.086   8.357  0.5922  0.5594  0.4178
 1633SOL    HW116361   1.727   4.127   8.409  1.3206  1.1081  0.9564
 1633SOL    HW216362   1.871   4.098   8.416  1.2546 -2.4812  0.2327
 1634SOL     OW16363   2.292   0.981  11.485  0.2549  0.0438 -0.1769
 1634SOL    HW116364   2.363   0.964  11.423  0.5541  0.2581  0.1065
 1634SOL    HW216365   2.308   1.074  11.501 -2.5387  0.3953  0.5527
 1635SOL     OW16366   2.634   2.689   3.815  0.4542 -0.4680 -0.4645
 1635SOL    HW116367   2.665   2.701   3.725 -0.8223 -0.7020 -0.9283
 1635SOL    HW216368   2.677   2.763   3.857 -0.9858 -0.6636  1.3099
 1636SOL     OW16369   0.300   1.930  13.372 -0.0921  0.1665 -0.0783
 1636SOL    HW116370   0.309   1.854  13.429 -0.0087  0.2610  0.0345
 1636SOL    HW216371   0.367   1.909  13.306 -0.3344 -0.6193 -0.0730
 1637SOL     OW16372   0.245   0.161   7.763 -0.0829  0.1323 -0.1007
 1637SOL    HW116373   0.156   0.130   7.746  0.4911 -0.8094 -1.3900
 1637SOL    HW216374   0.280   0.111   7.837  0.8456  1.7872  0.5819
 1638SOL     OW16375   3.894   2.081  13.146 -0.2211  0.0219  0.1318
 1638SOL    HW116376   3.943   2.012  13.101  2.0128  0.5619  1.7661
 1638SOL    HW216377   3.804   2.071  13.113 -1.0428  0.4016  2.2934
 1639SOL     OW16378   2.416   2.668   5.094 -0.5206 -0.7516 -0.4698
 1639SOL    HW116379   2.458   2.681   5.179 -1.1499 -0.5012 -0.1944
 1639SOL    HW216380   2.323   2.671   5.118 -0.4064 -3.9766  0.4042
 1640SOL     OW16381   3.839   4.081   8.230  0.1968 -0.5026 -0.0704
 1640SOL    HW116382   3.814   4.036   8.150 -1.2732  0.8150 -0.3663
 1640SOL    HW216383   3.808   4.020   8.297 -1.9971  1.0734  0.3695
 1641SOL     OW16384   1.100   0.545  14.697  0.0323  0.0413 -0.1226
 1641SOL    HW116385   1.150   0.626  14.684  1.6246 -1.0999 -1.2053
 1641SOL    HW216386   1.008   0.572  14.699 -0.1440 -0.4274 -1.8442
 1642SOL     OW16387   4.234   0.839   3.766 -0.3069 -0.5867 -0.0973
 1642SOL    HW116388   4.192   0.901   3.707  1.2892  1.6216  1.0482
 1642SOL    HW216389   4.159   0.820   3.822  0.2792 -2.9014 -0.0966
 1643SOL     OW16390   2.591   1.596   4.129  0.6035  0.1557  0.2267
 1643SOL    HW116391   2.513   1.563   4.174  1.9228 -1.5333  1.2414
 1643SOL    HW216392   2.606   1.528   4.063  2.6550 -0.2462  1.1084
 1644SOL     OW16393   4.241   0.947   8.774 -0.0573 -1.1591  0.4898
 1644SOL    HW116394   4.290   0.979   8.850 -1.7863 -2.7243  2.2814
 1644SOL    HW216395   4.314   0.931   8.714 -0.9841  1.8406 -1.3892
 1645SOL     OW16396   2.196   4.269  10.426  0.3152  0.0622  0.1970
 1645SOL    HW116397   2.211   4.341  10.365 -0.7080 -1.2758 -1.6213
 1645SOL    HW216398   2.206   4.184  10.382 -0.1254 -0.2881  0.7670
 1646SOL     OW16399   3.130   2.758   1.859  0.7258 -0.3315 -0.3604
 1646SOL    HW116400   3.187   2.814   1.911 -0.3477 -0.4291  0.9284
 1646SOL    HW216401   3.194   2.691   1.834  2.2576  1.4965 -1.3273
 1647SOL     OW16402   0.095   3.750   3.168  0.1295 -0.1560 -1.0100
 1647SOL    HW116403   0.079   3.698   3.247 -0.4239  1.2423 -0.2008
 1647SOL    HW216404   0.094   3.836   3.211  3.1730 -1.1903  1.1336
 1648SOL     OW16405   1.631   4.423  10.636  0.3297  0.1580  0.1924
 1648SOL    HW116406   1.635   4.353  10.570 -0.2914  0.5657 -0.2730
 1648SOL    HW216407   1.681   4.383  10.707  1.6314  0.1622 -0.7159
 1649SOL     OW16408   1.961   2.078   0.179  0.4528  0.3780  0.1728
 1649SOL    HW116409   1.965   2.066   0.084  1.7650 -3.1736  0.6403
 1649SOL    HW216410   1.962   2.172   0.192  1.1671  0.2849  0.7731
 1650SOL     OW16411   2.476   1.527  16.686  0.0557 -0.2343  0.1975
 1650SOL    HW116412   2.380   1.531  16.680  0.1184  1.4676  0.4283
 1650SOL    HW216413   2.492   1.527  16.780  2.1271 -2.0400 -0.1793
 1651SOL     OW16414   4.317   0.491   8.902 -0.2732  0.4317 -0.2738
 1651SOL    HW116415   4.394   0.435   8.895  0.1178  1.0719 -1.1519
 1651SOL    HW216416   4.349   0.581   8.892  2.2294 -0.2526  1.6561
 1652SOL     OW16417   3.449   0.615   5.319  0.5405  0.1855 -0.0544
 1652SOL    HW116418   3.388   0.635   5.249  1.3170  2.8890  0.0489
 1652SOL    HW216419   3.527   0.662   5.290  0.7868 -0.3046 -0.1840
 1653SOL     OW16420   3.808   1.678  12.555  0.4764 -0.1020  0.0810
 1653SOL    HW116421   3.749   1.746  12.588 -0.1149  0.0388 -1.2389
 1653SOL    HW216422   3.886   1.730  12.538 -0.2917  1.6828  2.0469
 1654SOL     OW16423   0.050   0.074   6.534 -0.1066  0.3288  0.0545
 1654SOL    HW116424   0.001   4.723   6.503 -0.5894  1.4013 -1.7944
 1654SOL    HW216425   0.115   0.032   6.589  2.1192  1.3039 -1.8461
 1655SOL     OW16426   3.481   1.861   8.191  0.1801  0.0646 -0.1804
 1655SOL    HW116427   3.511   1.783   8.144 -2.0987 -0.6003 -0.4938
 1655SOL    HW216428   3.566   1.903   8.206  0.1543 -0.2046  0.7083
 1656SOL     OW16429   2.396   3.892   5.479  0.5624 -0.2020  0.4008
 1656SOL    HW116430   2.467   3.849   5.526  1.1347 -0.2909 -0.5411
 1656SOL    HW216431   2.333   3.911   5.548  1.9527 -2.5460  2.3263
 1657SOL     OW16432   1.263   1.281   7.617 -0.2184 -0.0329  0.0200
 1657SOL    HW116433   1.192   1.217   7.623 -0.5025  0.2027 -0.8502
 1657SOL    HW216434   1.230   1.328   7.694 -2.6651 -1.2032 -0.3225
 1658SOL     OW16435   0.537   3.259  10.424 -0.3857 -0.1441 -0.3358
 1658SOL    HW116436   0.445   3.238  10.410 -0.6558  0.4506  0.5519
 1658SOL    HW216437   0.587   3.207  10.361 -0.4569  0.0678 -0.5694
 1659SOL     OW16438   0.819   4.333   5.003  0.1530 -0.3233 -0.0649
 1659SOL    HW116439   0.791   4.264   5.063  0.8946  0.6470  1.3974
 1659SOL    HW216440   0.871   4.388   5.062 -0.7367 -0.3168  0.7036
 1660SOL     OW16441   4.315   1.380  10.388 -0.5844  0.2067  0.0505
 1660SOL    HW116442   4.346   1.439  10.320 -0.9145  1.0024  0.5926
 1660SOL    HW216443   4.305   1.421  10.474  0.9896 -1.0157  0.8068
 1661SOL     OW16444   0.518   1.982   5.520 -0.0314 -0.2751 -0.1116
 1661SOL    HW116445   0.568   2.033   5.456 -0.0263 -1.7476 -1.2994
 1661SOL    HW216446   0.564   2.016   5.597 -1.3632  0.5807  0.3063
 1662SOL     OW16447   3.010   4.481   6.518  0.2362  0.2505 -0.2444
 1662SOL    HW116448   2.981   4.572   6.520 -1.5305 -0.3341  0.5345
 1662SOL    HW216449   3.099   4.479   6.553  0.3381 -1.1907 -0.5964
 1663SOL     OW16450   0.443   3.673   2.897 -0.3385 -0.2179  0.7618
 1663SOL    HW116451   0.438   3.676   2.801  0.7409 -2.0848  0.6451
 1663SOL    HW216452   0.360   3.628   2.911 -1.6640  1.2176 -2.4293
 1664SOL     OW16453   2.254   1.443  15.950 -0.7183  0.0457  0.1346
 1664SOL    HW116454   2.342   1.443  15.987 -0.2211  0.5271 -1.0588
 1664SOL    HW216455   2.255   1.520  15.893 -1.3024  0.3445  0.5148
 1665SOL     OW16456   4.576   1.539   8.910 -0.4311 -0.0066  0.1307
 1665SOL    HW116457   4.613   1.524   8.997 -2.0314  0.3046  0.8764
 1665SOL    HW216458   4.636   1.502   8.846  1.6478  1.2361  1.3702
 1666SOL     OW16459   1.531   2.083   5.328 -0.1203  0.2792 -0.4959
 1666SOL    HW116460   1.539   2.011   5.266  1.1629 -1.0936  1.2566
 1666SOL    HW216461   1.435   2.090   5.334 -0.1268 -0.7707  0.5865
 1667SOL     OW16462   0.971   4.525   5.696 -0.0952 -0.0474 -0.2048
 1667SOL    HW116463   0.899   4.564   5.646 -2.4415 -0.2338  2.9943
 1667SOL    HW216464   0.965   4.587   5.769  1.3944 -1.3608  1.0407
 1668SOL     OW16465   0.392   0.597  13.404 -0.1155 -0.5855  0.0365
 1668SOL    HW116466   0.325   0.588  13.336  1.8852 -0.7603 -1.9437
 1668SOL    HW216467   0.352   0.637  13.481  0.5504 -1.0481  0.6269
 1669SOL     OW16468   0.969   0.900   8.778  0.2042 -0.1439  0.5536
 1669SOL    HW116469   0.932   0.988   8.777  0.5619  0.0021  0.1717
 1669SOL    HW216470   1.058   0.909   8.812 -0.8153  2.8541  2.4421
 1670SOL     OW16471   1.326   4.303   3.265  0.4301 -0.4703  0.3886
 1670SOL    HW116472   1.258   4.306   3.197  1.4019  3.8527 -0.4273
 1670SOL    HW216473   1.347   4.210   3.265 -1.2857 -0.8532  0.4384
 1671SOL     OW16474   1.240   0.218   2.060  0.0630 -0.0977 -0.0757
 1671SOL    HW116475   1.285   0.135   2.042 -3.1446 -1.4918 -1.6722
 1671SOL    HW216476   1.156   0.209   2.015 -0.2301 -1.4332  0.7324
 1672SOL     OW16477   3.544   0.177   9.062 -0.0741 -0.0149  0.0448
 1672SOL    HW116478   3.622   0.162   9.116  0.7266  1.3938 -0.7066
 1672SOL    HW216479   3.511   0.087   9.056  0.7694 -0.1423 -2.4070
 1673SOL     OW16480   0.615   0.921   7.331 -0.1064  0.2493  0.1999
 1673SOL    HW116481   0.552   0.944   7.262 -0.5848  1.2266  0.9635
 1673SOL    HW216482   0.575   0.966   7.405  1.9147  1.5545  0.4789
 1674SOL     OW16483   3.828   0.313   1.157  0.2229 -0.1556 -0.0655
 1674SOL    HW116484   3.787   0.238   1.200  0.3804  1.2131  2.4887
 1674SOL    HW216485   3.836   0.381   1.225  1.2955  2.2708 -2.6025
 1675SOL     OW16486   1.968   0.661   8.455  0.1871 -0.6486 -0.3233
 1675SOL    HW116487   2.052   0.617   8.466  0.3793  0.0058  0.9007
 1675SOL    HW216488   1.915   0.594   8.498 -0.6711 -0.6452 -1.3752
 1676SOL     OW16489   2.128   1.591   9.346  0.1646  0.1151  0.3106
 1676SOL    HW116490   2.220   1.575   9.368  0.7574  0.1762 -2.1122
 1676SOL    HW216491   2.106   1.670   9.395 -2.7515 -0.4651 -0.0914
 1677SOL     OW16492   2.603   2.279   3.867  0.6352 -0.1113  0.6146
 1677SOL    HW116493   2.562   2.365   3.873  0.0481 -0.3099 -0.5358
 1677SOL    HW216494   2.551   2.231   3.932  0.8493 -0.4812  0.5141
 1678SOL     OW16495   3.797   4.343   7.524  1.0023 -0.2596  0.0818
 1678SOL    HW116496   3.722   4.369   7.578  0.2684 -0.6863 -0.7443
 1678SOL    HW216497   3.865   4.404   7.551 -0.6912  0.7745  2.0340
 1679SOL     OW16498   1.094   2.620   4.487 -0.7535  0.2148  0.0333
 1679SOL    HW116499   1.054   2.665   4.412 -2.3272 -0.0631  0.7157
 1679SOL    HW216500   1.053   2.534   4.487 -2.9637  1.2371 -0.3786
 1680SOL     OW16501   1.643   4.065   7.427 -0.0995  0.2919  0.3363
 1680SOL    HW116502   1.672   4.037   7.513  0.1151 -0.7136 -0.0652
 1680SOL    HW216503   1.701   4.141   7.415  1.7524 -0.9307  1.5318
 1681SOL     OW16504   3.763   2.482   2.722 -0.5373 -0.2223  0.4205
 1681SOL    HW116505   3.790   2.441   2.640  1.4017 -2.1140  1.9840
 1681SOL    HW216506   3.687   2.536   2.698  0.1801 -0.2404 -1.8590
 1682SOL     OW16507   3.248   0.065   4.142 -0.1182 -0.0187  0.6004
 1682SOL    HW116508   3.263   0.085   4.050 -0.9732  0.7220  0.6218
 1682SOL    HW216509   3.202   4.706   4.132  0.5180 -0.0723 -2.0128
 1683SOL     OW16510   0.135   2.678   8.612  0.0616  0.3178 -0.6288
 1683SOL    HW116511   0.082   2.703   8.536 -1.6646 -0.4374  0.3148
 1683SOL    HW216512   0.140   2.583   8.598  0.5258  0.5452 -1.9250
 1684SOL     OW16513   1.314   1.217   8.771 -0.0573 -0.0240  0.1368
 1684SOL    HW116514   1.321   1.312   8.762  0.9994 -0.1810 -0.7148
 1684SOL    HW216515   1.403   1.183   8.775  0.7364  2.1175  0.7387
 1685SOL     OW16516   0.039   1.309  14.976  0.1226  0.5618  0.1223
 1685SOL    HW116517   0.082   1.361  14.909  1.1609 -0.9446 -0.3827
 1685SOL    HW216518   4.700   1.260  14.924  2.8847 -0.4120 -2.2869
 1686SOL     OW16519   4.449   4.333   5.397  0.4523 -0.2301  0.0385
 1686SOL    HW116520   4.392   4.376   5.334 -0.6417  0.5449  1.5639
 1686SOL    HW216521   4.387   4.331   5.470 -0.3985  1.2278 -0.6578
 1687SOL     OW16522   0.185   2.620   4.436 -0.3868 -0.1377  0.5235
 1687SOL    HW116523   0.192   2.559   4.509  0.0032  0.5869  1.0967
 1687SOL    HW216524   0.148   2.563   4.369 -0.7521 -0.2830  0.8480
 1688SOL     OW16525   4.610   2.142   1.970  0.3227  0.1801  0.5525
 1688SOL    HW116526   4.698   2.117   1.940  0.1093 -1.0467  0.9412
 1688SOL    HW216527   4.567   2.058   1.987 -0.4903  0.3024 -0.9433
 1689SOL     OW16528   4.021   0.632  10.091 -0.0825 -0.2294 -0.1298
 1689SOL    HW116529   4.081   0.704  10.112  0.6151 -0.2450 -2.0365
 1689SOL    HW216530   4.053   0.618  10.002  1.1843 -2.9383  0.7524
 1690SOL     OW16531   3.852   4.257  13.992 -0.6913  0.0874 -0.0894
 1690SOL    HW116532   3.790   4.313  13.945 -0.1826  0.3185 -0.4781
 1690SOL    HW216533   3.873   4.191  13.927  2.4482  0.7931  0.2176
 1691SOL     OW16534   0.565   1.592   8.064  0.2575  0.1361 -0.3249
 1691SOL    HW116535   0.610   1.593   7.979 -2.0108  2.4928 -1.5127
 1691SOL    HW216536   0.625   1.530   8.105 -0.2900  0.9925  1.7170
 1692SOL     OW16537   4.594   1.031   6.283  0.1532 -0.3392  0.0243
 1692SOL    HW116538   4.522   0.969   6.271 -1.0027  0.7871  1.0667
 1692SOL    HW216539   4.594   1.079   6.201 -1.4556 -0.1437  0.1357
 1693SOL     OW16540   1.008   3.633  11.163 -0.1919  0.0484  0.4157
 1693SOL    HW116541   1.069   3.614  11.234  1.4215 -2.5376 -1.6312
 1693SOL    HW216542   0.991   3.545  11.131  0.4650  0.6263 -1.5646
 1694SOL     OW16543   0.942   2.044  15.416  0.0162  0.0029  0.0661
 1694SOL    HW116544   0.966   1.996  15.337  1.2164  1.5175 -0.4870
 1694SOL    HW216545   0.927   1.971  15.476 -0.4948 -0.2132 -0.3201
 1695SOL     OW16546   2.245   0.477   8.239 -0.4176 -0.5718 -0.2362
 1695SOL    HW116547   2.286   0.555   8.275 -0.4805 -0.8718  0.4824
 1695SOL    HW216548   2.256   0.420   8.314 -0.2380 -1.2916 -0.8097
 1696SOL     OW16549   4.016   4.422   5.573  0.3433  0.2946 -0.3306
 1696SOL    HW116550   3.991   4.483   5.643 -0.8754  0.9221 -1.3068
 1696SOL    HW216551   3.940   4.414   5.515 -0.5301  0.2083  0.8330
 1697SOL     OW16552   3.642   0.587   7.927 -0.4009  0.2080 -0.7177
 1697SOL    HW116553   3.706   0.573   7.997  0.3336  0.7062 -1.2918
 1697SOL    HW216554   3.566   0.532   7.948  1.4868 -2.2100 -0.2691
 1698SOL     OW16555   2.843   0.537   2.394 -0.2499  0.3561 -0.4602
 1698SOL    HW116556   2.894   0.514   2.317  1.3525 -1.6171  1.1765
 1698SOL    HW216557   2.879   0.624   2.413 -0.2994  0.3739 -0.4472
 1699SOL     OW16558   0.297   0.784   4.247 -0.0195  0.2608 -0.8642
 1699SOL    HW116559   0.269   0.852   4.308  0.3677 -0.8658  0.5555
 1699SOL    HW216560   0.382   0.765   4.286  0.1695  0.4575 -1.1866
 1700SOL     OW16561   3.567   2.345   9.463 -0.5125 -0.1051  0.0146
 1700SOL    HW116562   3.652   2.386   9.481 -1.5920  1.3308  1.8175
 1700SOL    HW216563   3.549   2.313   9.551  1.0590 -0.1559  0.3224
 1701SOL     OW16564   0.930   2.212   0.084  0.2713  0.3812 -0.0846
 1701SOL    HW116565   0.958   2.154   0.014 -1.8133  0.0432 -0.6399
 1701SOL    HW216566   0.987   2.181   0.154 -1.0781 -3.0137 -0.5187
 1702SOL     OW16567   1.196   4.264   5.250  0.2409 -0.1876  0.0509
 1702SOL    HW116568   1.156   4.302   5.328 -1.7144  1.3377 -1.6981
 1702SOL    HW216569   1.166   4.324   5.182  0.0536 -0.9563 -0.5455
 1703SOL     OW16570   3.572   1.608   9.579 -0.4799  0.0081  0.1531
 1703SOL    HW116571   3.503   1.611   9.646 -1.2674  2.6371 -0.7745
 1703SOL    HW216572   3.570   1.516   9.553 -0.0249 -0.5316  2.0523
 1704SOL     OW16573   1.534   3.746   2.458 -0.2727 -0.5046 -0.2814
 1704SOL    HW116574   1.555   3.840   2.455 -2.8780  0.0691 -0.0412
 1704SOL    HW216575   1.439   3.741   2.451 -0.1941  0.2328 -1.8581
 1705SOL     OW16576   3.090   3.725   1.185  0.5843  0.1322  0.0186
 1705SOL    HW116577   3.096   3.793   1.251  0.1355 -4.1036  4.4399
 1705SOL    HW216578   2.997   3.724   1.163  0.1493  2.3687  1.7852
 1706SOL     OW16579   4.287   0.139   2.805 -0.1532  0.3027 -0.0372
 1706SOL    HW116580   4.213   0.151   2.745 -1.1454 -1.8877  0.7241
 1706SOL    HW216581   4.309   0.048   2.784 -0.6252  0.2082 -0.1227
 1707SOL     OW16582   2.126   3.425   1.648  0.2643 -0.4405 -0.1019
 1707SOL    HW116583   2.215   3.462   1.650  0.2978 -0.4219 -1.6039
 1707SOL    HW216584   2.107   3.412   1.741 -0.4733 -1.2759 -0.3726
 1708SOL     OW16585   4.524   2.401  15.227 -0.1516  0.1255 -0.1024
 1708SOL    HW116586   4.567   2.458  15.164  1.6071 -0.6135  0.4463
 1708SOL    HW216587   4.438   2.386  15.187 -0.4724  1.0354  0.2361
 1709SOL     OW16588   4.478   0.452   3.886 -0.2066  0.3337  0.0534
 1709SOL    HW116589   4.431   0.498   3.956 -2.3129 -1.2875 -0.3035
 1709SOL    HW216590   4.442   0.501   3.812 -1.8625  0.3836  0.8973
 1710SOL     OW16591   2.175   0.984   7.790  0.1234 -0.0913  0.3532
 1710SOL    HW116592   2.144   1.015   7.876 -1.3175  1.6987 -0.7956
 1710SOL    HW216593   2.151   0.891   7.791  0.9639 -0.3085 -0.8497
 1711SOL     OW16594   2.312   0.060  16.249 -0.3406  0.8601  0.4557
 1711SOL    HW116595   2.379   0.088  16.187  1.5097 -0.7605  1.7087
 1711SOL    HW216596   2.343   0.098  16.331  0.3243 -1.4341  1.2859
 1712SOL     OW16597   3.669   4.205   3.043 -0.2217  0.0108 -0.4856
 1712SOL    HW116598   3.652   4.298   3.031  1.3092  0.1108 -1.8193
 1712SOL    HW216599   3.689   4.210   3.136 -1.1503 -4.3824 -0.0215
 1713SOL     OW16600   2.041   3.034   6.690  0.3317 -0.0796 -0.0119
 1713SOL    HW116601   1.984   3.081   6.751  0.1107  0.2535 -0.4755
 1713SOL    HW216602   2.079   2.964   6.744  0.6256  0.6185  0.6719
 1714SOL     OW16603   4.040   1.857   4.099 -0.0721 -0.7215 -0.4147
 1714SOL    HW116604   4.023   1.924   4.033 -2.3550 -2.3796 -1.5326
 1714SOL    HW216605   4.121   1.888   4.140  0.2690  0.4690 -2.0085
 1715SOL     OW16606   2.552   3.108  14.306  0.2355 -0.6141  0.7741
 1715SOL    HW116607   2.461   3.136  14.311  0.2260 -0.4113 -0.5415
 1715SOL    HW216608   2.525   3.017  14.323 -1.0778 -0.5297 -0.8036
 1716SOL     OW16609   0.923   1.860   7.881 -0.5543 -0.4255 -0.1193
 1716SOL    HW116610   0.949   1.942   7.923 -1.1991 -0.3317  0.0933
 1716SOL    HW216611   0.947   1.871   7.789 -0.3403  0.5523  0.0528
 1717SOL     OW16612   4.613   4.450   8.115 -0.2856  0.0594 -0.2584
 1717SOL    HW116613   4.610   4.456   8.020  1.0670  0.2401 -0.2987
 1717SOL    HW216614   4.631   4.543   8.128  0.2875 -0.3370  1.8390
 1718SOL     OW16615   3.949   2.624   4.655 -0.3694  0.2505  0.0999
 1718SOL    HW116616   4.009   2.641   4.582  2.7900 -0.7310  2.4669
 1718SOL    HW216617   3.875   2.582   4.611 -1.4221  1.0403  1.0990
 1719SOL     OW16618   0.046   1.856   7.570  0.3061 -0.1083 -0.0488
 1719SOL    HW116619   0.117   1.847   7.506 -0.7735  0.0732 -1.2645
 1719SOL    HW216620   0.059   1.780   7.626  0.8820 -0.9026 -1.2785
 1720SOL     OW16621   0.749   2.668   5.326 -0.2195  0.3435 -0.4958
 1720SOL    HW116622   0.736   2.617   5.406  1.9810  1.9340  0.8688
 1720SOL    HW216623   0.746   2.756   5.363 -1.0581 -0.1724  0.6754
 1721SOL     OW16624   0.687   1.473   1.825  0.5298  0.0243  0.0131
 1721SOL    HW116625   0.727   1.522   1.896 -0.6590  0.4472  0.3897
 1721SOL    HW216626   0.596   1.473   1.852  1.4550 -1.6914  3.1035
 1722SOL     OW16627   4.556   2.044  11.839  0.0033 -0.3514  0.2473
 1722SOL    HW116628   4.488   2.063  11.775 -0.8689  2.5640  2.0308
 1722SOL    HW216629   4.605   2.126  11.844  0.1717 -0.4808  0.8081
 1723SOL     OW16630   1.765   0.781  10.119  0.4868  0.2114 -0.0316
 1723SOL    HW116631   1.812   0.792  10.036  0.4467  1.5875  0.1182
 1723SOL    HW216632   1.807   0.698  10.140  2.5000  1.8415  2.4788
 1724SOL     OW16633   3.962   3.736   9.456  0.0110 -0.4046  0.1933
 1724SOL    HW116634   3.943   3.830   9.463 -3.2301 -1.1127  0.8492
 1724SOL    HW216635   3.890   3.701   9.403 -0.3289  1.2468 -0.4368
 1725SOL     OW16636   1.451   3.597   4.543 -0.0128  0.2303  0.0363
 1725SOL    HW116637   1.476   3.614   4.452 -0.7721 -0.7538 -0.3532
 1725SOL    HW216638   1.394   3.670   4.569 -1.3083 -0.1738 -1.6428
 1726SOL     OW16639   3.011   2.381  12.224 -0.4069  0.2072  0.1970
 1726SOL    HW116640   3.018   2.473  12.249 -0.4254  0.2468  0.0582
 1726SOL    HW216641   3.005   2.338  12.310 -0.6535 -3.2468 -1.5534
 1727SOL     OW16642   2.497   3.301  14.546 -0.2072  0.0301 -0.3606
 1727SOL    HW116643   2.510   3.226  14.604 -1.7459 -0.0476 -0.1104
 1727SOL    HW216644   2.588   3.324  14.529  0.1533  0.0300  1.5838
 1728SOL     OW16645   1.770   2.047  12.330 -0.1246  0.4304 -0.2757
 1728SOL    HW116646   1.827   2.124  12.328  2.2166 -1.2859  0.3392
 1728SOL    HW216647   1.685   2.084  12.354 -1.4682 -1.3236 -2.2649
 1729SOL     OW16648   1.643   0.008   5.115 -0.3212  0.3933 -0.0065
 1729SOL    HW116649   1.648   0.039   5.206  3.2090  0.8982 -0.3560
 1729SOL    HW216650   1.702   0.072   5.074 -0.9042  0.6723 -0.3992
 1730SOL     OW16651   2.259   0.486   0.494 -0.1070  0.1991  0.0139
 1730SOL    HW116652   2.279   0.440   0.575 -2.9074 -1.1765 -0.0696
 1730SOL    HW216653   2.164   0.503   0.499 -0.6673 -2.9516  0.0484
 1731SOL     OW16654   3.959   1.703  14.023 -0.3877  0.0261  0.6002
 1731SOL    HW116655   3.995   1.792  14.024 -0.3147  0.0100 -2.1373
 1731SOL    HW216656   3.888   1.714  14.087 -0.0250  0.1823  0.9766
 1732SOL     OW16657   1.040   2.818   6.854 -0.0992 -0.2086 -0.6855
 1732SOL    HW116658   0.967   2.878   6.866 -0.8841 -1.0293 -1.3238
 1732SOL    HW216659   1.102   2.856   6.917 -0.7947  0.1556 -0.2317
 1733SOL     OW16660   0.585   1.612   7.430  0.3273 -0.0056  0.3226
 1733SOL    HW116661   0.582   1.555   7.506  0.1453 -0.8073 -0.2915
 1733SOL    HW216662   0.666   1.656   7.456  0.6088 -0.3919  0.1056
 1734SOL     OW16663   0.666   0.298   7.651 -0.7519  0.8315  0.1760
 1734SOL    HW116664   0.585   0.313   7.700 -1.8418 -1.0165 -1.0323
 1734SOL    HW216665   0.654   0.362   7.580  1.8029  2.5804  1.3459
 1735SOL     OW16666   0.937   1.806  10.692  0.1001 -0.1190 -0.5338
 1735SOL    HW116667   1.016   1.759  10.717  0.4283  0.5073 -0.3947
 1735SOL    HW216668   0.877   1.732  10.686  1.1960 -0.8710 -2.1048
 1736SOL     OW16669   2.818   3.180   4.822 -0.1578 -0.3462 -0.7797
 1736SOL    HW116670   2.768   3.113   4.870 -0.3864 -0.3451 -1.0189
 1736SOL    HW216671   2.870   3.126   4.763 -0.7822 -0.7006 -1.0026
 1737SOL     OW16672   4.487   2.847   7.657  0.7123  0.4467 -0.0697
 1737SOL    HW116673   4.501   2.854   7.751 -0.8738 -0.9057  0.2746
 1737SOL    HW216674   4.554   2.898   7.613  1.4314 -0.8156 -0.4342
 1738SOL     OW16675   2.973   3.199  15.769 -0.1672  0.2130 -0.0473
 1738SOL    HW116676   2.938   3.216  15.682 -2.0957 -1.4040  0.4173
 1738SOL    HW216677   3.036   3.128  15.763  0.0149  0.3386  0.3418
 1739SOL     OW16678   2.285   4.592   3.587 -0.4404 -0.0461  0.3089
 1739SOL    HW116679   2.215   4.533   3.557  1.9725 -0.1269 -5.2645
 1739SOL    HW216680   2.353   4.568   3.524 -1.5048 -0.7679 -0.5616
 1740SOL     OW16681   3.219   0.665   2.382  0.0224 -0.4635  0.0532
 1740SOL    HW116682   3.243   0.704   2.298 -2.7000 -1.9919 -1.4210
 1740SOL    HW216683   3.302   0.645   2.426 -0.2259 -1.0857  0.2280
 1741SOL     OW16684   3.059   0.547  14.294 -0.3142 -0.1391  0.2684
 1741SOL    HW116685   3.135   0.573  14.240  0.1728 -1.6869  0.2116
 1741SOL    HW216686   3.090   0.463  14.327 -0.1868  0.2122  1.0417
 1742SOL     OW16687   3.282   2.754   4.068 -0.5890  0.0257 -0.3573
 1742SOL    HW116688   3.324   2.685   4.017 -5.1316 -1.3634 -2.1885
 1742SOL    HW216689   3.315   2.836   4.031 -0.0462  0.9001  2.0241
 1743SOL     OW16690   2.757   4.217   4.627 -0.7710 -0.0581 -0.1405
 1743SOL    HW116691   2.850   4.227   4.605 -0.0869 -3.4840  1.0501
 1743SOL    HW216692   2.765   4.255   4.715 -1.0518 -1.6162  0.5681
 1744SOL     OW16693   3.056   2.106   3.899  0.6884 -0.2145  0.2550
 1744SOL    HW116694   2.968   2.090   3.934 -0.3781 -1.5891 -3.0933
 1744SOL    HW216695   3.116   2.111   3.973  1.4221  0.3902 -0.3768
 1745SOL     OW16696   3.881   3.524   5.616  0.2298  0.6229 -0.1722
 1745SOL    HW116697   3.908   3.433   5.624  1.6766  0.8594 -2.1208
 1745SOL    HW216698   3.791   3.516   5.645  0.1883  1.1463 -0.1530
 1746SOL     OW16699   3.026   1.561   2.300 -0.1539  0.5549  0.4281
 1746SOL    HW116700   2.946   1.545   2.350  1.0017 -1.2458  1.6828
 1746SOL    HW216701   3.059   1.634   2.352 -0.9200  0.5621  0.9033
 1747SOL     OW16702   1.407   4.192   6.309  0.3692  0.1278  0.3241
 1747SOL    HW116703   1.383   4.113   6.262 -1.3997  1.9052 -1.7297
 1747SOL    HW216704   1.341   4.183   6.378 -1.5146 -0.2659 -1.5180
 1748SOL     OW16705   0.204   1.756   3.375 -1.0053 -0.2976  0.2287
 1748SOL    HW116706   0.150   1.717   3.306 -0.1777 -2.4712  0.7782
 1748SOL    HW216707   0.170   1.705   3.449 -2.6604 -1.0229 -1.0283
 1749SOL     OW16708   3.442   3.792   2.306  0.1950 -0.1300 -0.0657
 1749SOL    HW116709   3.412   3.704   2.330 -1.0238  0.7102  1.5815
 1749SOL    HW216710   3.375   3.836   2.359 -1.2298 -1.6702 -0.5715
 1750SOL     OW16711   1.093   0.710   2.106  0.2610  0.4352  0.1168
 1750SOL    HW116712   1.180   0.708   2.146  1.1062  1.5334 -1.6535
 1750SOL    HW216713   1.073   0.623   2.071  3.6970  0.2905 -1.4737
 1751SOL     OW16714   2.804   3.319   3.669  0.3416 -0.2283  0.1730
 1751SOL    HW116715   2.750   3.244   3.695 -0.1097  0.3207  0.8440
 1751SOL    HW216716   2.798   3.365   3.753  0.2007 -0.4507  0.2873
 1752SOL     OW16717   1.385   3.742   8.479 -0.0082  0.2635 -0.4796
 1752SOL    HW116718   1.412   3.820   8.432 -1.6062  0.4650 -1.0630
 1752SOL    HW216719   1.290   3.740   8.466 -0.2067 -1.9771  1.2479
 1753SOL     OW16720   3.233   3.899   6.015 -0.3119  0.9934 -0.0458
 1753SOL    HW116721   3.260   3.983   5.977  1.0800  1.5882  2.2628
 1753SOL    HW216722   3.259   3.915   6.106 -0.5386  0.1038  0.1719
 1754SOL     OW16723   3.200   0.486  11.495  0.1994 -0.0415 -0.2053
 1754SOL    HW116724   3.233   0.451  11.412  2.0382  0.4398  0.3403
 1754SOL    HW216725   3.165   0.402  11.526 -0.8976 -0.1692 -1.7986
 1755SOL     OW16726   3.320   1.665   5.359 -0.2704 -0.0275  0.2966
 1755SOL    HW116727   3.347   1.757   5.358 -0.0558 -0.0193  4.1285
 1755SOL    HW216728   3.232   1.665   5.398  0.0647 -0.5379  1.0545
 1756SOL     OW16729   1.074   0.923   4.186 -0.0325  0.1707 -1.0462
 1756SOL    HW116730   1.076   1.002   4.132 -2.3675  0.7660 -0.2761
 1756SOL    HW216731   1.132   0.864   4.139  0.3313 -0.0784 -0.2842
 1757SOL     OW16732   1.746   1.915  10.787  0.4055 -0.0426 -0.7319
 1757SOL    HW116733   1.809   1.852  10.751  0.1430 -0.9021  0.3227
 1757SOL    HW216734   1.742   1.881  10.876  0.9387  0.1345 -0.6391
 1758SOL     OW16735   2.788   4.207  14.383 -0.7319  0.0913  0.1027
 1758SOL    HW116736   2.755   4.202  14.473 -0.1999 -0.1821  0.2872
 1758SOL    HW216737   2.874   4.172  14.409 -0.5683  0.4469  0.0453
 1759SOL     OW16738   0.558   1.541   0.751 -0.0802 -0.5482 -0.2095
 1759SOL    HW116739   0.488   1.550   0.816 -0.2645 -0.2534 -0.4482
 1759SOL    HW216740   0.541   1.627   0.711 -0.1037  0.2225  1.4734
 1760SOL     OW16741   3.025   2.839   2.339 -0.4057 -0.2603  0.8615
 1760SOL    HW116742   2.999   2.876   2.255 -0.6866  0.5208  1.2950
 1760SOL    HW216743   2.963   2.871   2.405 -1.8736 -2.7163  0.6494
 1761SOL     OW16744   1.743   0.849   6.246 -0.1744 -0.1907  0.3554
 1761SOL    HW116745   1.793   0.890   6.316  0.7843 -1.1302  0.2343
 1761SOL    HW216746   1.800   0.776   6.221  1.5791  0.9101  1.0843
 1762SOL     OW16747   1.790   0.217   1.935  0.1821  0.1603  0.3339
 1762SOL    HW116748   1.779   0.240   1.843 -1.5515  0.4576  0.6210
 1762SOL    HW216749   1.804   0.303   1.973 -0.4456  0.5382 -0.3025
 1763SOL     OW16750   3.528   3.124   0.276  0.4885 -0.5830 -0.4112
 1763SOL    HW116751   3.502   3.092   0.363  1.0171 -3.6307 -1.3883
 1763SOL    HW216752   3.487   3.059   0.219 -1.6484 -1.6131  2.3012
 1764SOL     OW16753   0.272   0.767  11.215  0.3492  0.0345 -0.9741
 1764SOL    HW116754   0.299   0.834  11.278 -1.4288 -0.6656  0.4969
 1764SOL    HW216755   0.344   0.706  11.229  0.2031  0.4144  1.3752
 1765SOL     OW16756   3.553   0.612   0.767 -0.2912 -0.3675 -0.1700
 1765SOL    HW116757   3.489   0.640   0.702 -0.2064 -0.2410 -0.1984
 1765SOL    HW216758   3.505   0.622   0.849 -0.0084  0.9219 -0.1666
 1766SOL     OW16759   4.369   1.637   2.391  0.2610  0.8737 -0.1270
 1766SOL    HW116760   4.406   1.563   2.440  1.5176  0.4209 -1.7555
 1766SOL    HW216761   4.339   1.603   2.307  2.2513 -1.1702 -0.0126
 1767SOL     OW16762   1.343   0.577  12.158  0.1104  0.0699  0.1068
 1767SOL    HW116763   1.402   0.564  12.084 -0.6646 -0.8959 -0.3398
 1767SOL    HW216764   1.347   0.490  12.199  0.7770  0.2781  0.4845
 1768SOL     OW16765   2.140   3.171   8.027  0.0009  0.4132  0.5608
 1768SOL    HW116766   2.123   3.133   8.114 -0.1296 -1.1073 -0.1287
 1768SOL    HW216767   2.220   3.219   8.050  0.5851 -0.2272 -0.1085
 1769SOL     OW16768   2.293   0.838   6.803 -0.1782  0.2687 -0.3367
 1769SOL    HW116769   2.362   0.776   6.779 -0.3901 -0.3690  0.7137
 1769SOL    HW216770   2.298   0.828   6.898  1.5891 -0.0068 -0.4563
 1770SOL     OW16771   4.374   1.019   2.273 -0.0674  0.5871  0.7752
 1770SOL    HW116772   4.400   0.927   2.267  1.1751  0.9308  0.8696
 1770SOL    HW216773   4.338   1.044   2.188 -0.8954  1.7230  1.4550
 1771SOL     OW16774   3.920   3.231  15.596  0.3721  0.0385  0.2818
 1771SOL    HW116775   3.930   3.284  15.517 -2.9906  0.5408  0.1885
 1771SOL    HW216776   3.921   3.293  15.669  0.5586 -0.8615  1.0447
 1772SOL     OW16777   1.072   3.118   3.348  0.4318 -0.2234  0.0132
 1772SOL    HW116778   0.982   3.088   3.358  0.6425 -0.1817  1.9270
 1772SOL    HW216779   1.119   3.050   3.396 -0.5996 -0.3534  0.8147
 1773SOL     OW16780   3.959   1.550  10.589  0.5352  0.3197 -0.5215
 1773SOL    HW116781   3.981   1.639  10.618  2.9500  0.4366 -2.7354
 1773SOL    HW216782   3.873   1.561  10.548 -0.2778 -0.8476  0.8626
 1774SOL     OW16783   2.564   0.415   7.025 -0.1619 -0.0696 -0.1617
 1774SOL    HW116784   2.653   0.451   7.025 -0.3252  0.3321  0.5886
 1774SOL    HW216785   2.569   0.362   6.946 -0.1551 -1.3887  0.7068
 1775SOL     OW16786   3.709   2.360  15.633 -0.0949  0.3998 -0.6793
 1775SOL    HW116787   3.783   2.326  15.684 -0.9393 -0.3518  0.0546
 1775SOL    HW216788   3.671   2.417  15.700  1.6785 -2.4163  2.7237
 1776SOL     OW16789   2.048   4.669   0.629 -0.6660  0.3724 -0.3378
 1776SOL    HW116790   2.091   0.026   0.655  2.0664 -0.6111 -1.7215
 1776SOL    HW216791   1.957   4.697   0.637  0.1781  3.7090 -2.0705
 1777SOL     OW16792   2.275   3.476   2.672  0.1046 -0.2272 -0.2601
 1777SOL    HW116793   2.245   3.566   2.659 -0.0689 -0.3158 -0.4699
 1777SOL    HW216794   2.308   3.449   2.587 -0.8991  0.9144 -1.0156
 1778SOL     OW16795   3.908   1.559   9.571  0.3897  0.2578 -0.3806
 1778SOL    HW116796   3.865   1.581   9.653 -2.1000  2.9102 -2.3659
 1778SOL    HW216797   3.976   1.496   9.595  0.1951 -0.3732 -1.4542
 1779SOL     OW16798   2.829   1.411   7.443  0.7282  0.4006  0.2619
 1779SOL    HW116799   2.815   1.504   7.422  2.2435  0.9716  1.8133
 1779SOL    HW216800   2.922   1.398   7.422  0.3614  0.8528 -1.6480
 1780SOL     OW16801   1.454   0.227  12.021  0.0609  0.1151 -0.6184
 1780SOL    HW116802   1.509   0.173  11.964  0.3221  0.8892 -1.0986
 1780SOL    HW216803   1.531   0.269  12.059 -0.7543  1.0662 -0.0230
 1781SOL     OW16804   0.675   3.731   0.026  0.0469  0.3720 -0.7722
 1781SOL    HW116805   0.757   3.709  17.681  0.6499  0.3487  0.3486
 1781SOL    HW216806   0.665   3.826   0.031 -0.1975  0.4879 -3.5034
 1782SOL     OW16807   2.917   0.333  16.993 -0.5638 -0.1592  0.3424
 1782SOL    HW116808   2.968   0.351  17.073  0.2125  1.8378 -0.6171
 1782SOL    HW216809   2.840   0.387  17.007 -1.1603 -0.7605 -0.6124
 1783SOL     OW16810   2.579   2.719  13.999  0.0102 -0.0073  0.5770
 1783SOL    HW116811   2.509   2.705  14.063  0.7066 -0.5772  1.2157
 1783SOL    HW216812   2.557   2.811  13.987 -1.5962 -0.2617  1.5421
 1784SOL     OW16813   4.687   3.764   6.315 -0.1524 -0.1693  0.1700
 1784SOL    HW116814   0.043   3.779   6.365  0.9592  0.0364 -1.6775
 1784SOL    HW216815   4.690   3.676   6.277 -0.9214 -0.5066  0.8932
 1785SOL     OW16816   4.214   1.517  10.636 -0.7635 -0.0294  0.4105
 1785SOL    HW116817   4.123   1.505  10.609 -0.0024  2.5561 -3.3075
 1785SOL    HW216818   4.233   1.585  10.572  1.4278 -1.5441 -0.5778
 1786SOL     OW16819   1.500   1.180  12.113  0.4602  0.1496 -0.5649
 1786SOL    HW116820   1.590   1.156  12.133  0.0061 -0.7791  0.3309
 1786SOL    HW216821   1.496   1.150  12.022 -1.5054 -1.5118  0.0789
 1787SOL     OW16822   2.095   2.983   4.491 -0.0955  0.1166  0.0515
 1787SOL    HW116823   2.053   2.952   4.411 -0.4546  0.6734  0.0216
 1787SOL    HW216824   2.113   2.899   4.533  3.4928  0.2646 -1.1969
 1788SOL     OW16825   0.903   3.514   3.124  0.1114 -0.5429 -0.5393
 1788SOL    HW116826   0.869   3.425   3.133 -0.9628 -0.1147 -0.4317
 1788SOL    HW216827   0.821   3.563   3.122 -1.6289 -3.4158 -0.1352
 1789SOL     OW16828   2.467   1.901   7.078  0.1276 -0.1306  0.3757
 1789SOL    HW116829   2.407   1.972   7.058  2.5262  1.8004  0.1349
 1789SOL    HW216830   2.419   1.826   7.041 -0.3143 -0.0329  0.7534
 1790SOL     OW16831   1.428   1.772  12.644 -0.3414  0.9057  0.1833
 1790SOL    HW116832   1.471   1.703  12.594 -0.7735  0.4636  0.4246
 1790SOL    HW216833   1.418   1.837  12.575  0.2392  1.3985  0.5582
 1791SOL     OW16834   0.865   2.472   4.419 -0.3328  0.2014  0.4181
 1791SOL    HW116835   0.832   2.388   4.452 -1.8937  0.8233  0.4763
 1791SOL    HW216836   0.787   2.528   4.420  0.7829  1.7538 -0.7236
 1792SOL     OW16837   2.030   3.942   5.488  0.3833 -0.0040  0.3249
 1792SOL    HW116838   1.957   4.002   5.475 -0.0674 -0.8469 -1.0467
 1792SOL    HW216839   2.015   3.889   5.410 -1.2104 -1.0758  1.3743
 1793SOL     OW16840   0.084   1.215   8.408 -0.5014 -0.1486  0.0309
 1793SOL    HW116841   0.168   1.182   8.378 -1.2487 -1.2032 -0.8867
 1793SOL    HW216842   0.052   1.249   8.325 -2.5098  1.9499  1.6711
 1794SOL     OW16843   3.522   2.779  16.017  0.5019  0.3691  0.4850
 1794SOL    HW116844   3.429   2.799  16.006  0.1872 -0.5292  1.5452
 1794SOL    HW216845   3.543   2.813  16.104  0.6310  2.2361 -0.2737
 1795SOL     OW16846   3.580   0.342   9.293  0.0718  0.0727 -0.2319
 1795SOL    HW116847   3.524   0.420   9.293  0.7302  0.5484 -2.5250
 1795SOL    HW216848   3.531   0.294   9.227  1.0646  0.4270 -1.2236
 1796SOL     OW16849   2.070   3.603   4.012 -0.0494 -0.2108 -0.3750
 1796SOL    HW116850   2.143   3.612   4.073 -0.1639 -2.4134  0.1021
 1796SOL    HW216851   2.108   3.527   3.967  1.0368 -0.2330  0.5614
 1797SOL     OW16852   2.329   2.199  11.818  0.7351 -0.8235 -0.0399
 1797SOL    HW116853   2.301   2.198  11.909  0.6542  1.8169 -0.0530
 1797SOL    HW216854   2.424   2.195  11.827  0.9241  1.5973 -0.9364
 1798SOL     OW16855   1.717   4.476   2.908  0.0611  0.3531 -0.0688
 1798SOL    HW116856   1.691   4.408   2.970  0.7181 -0.4180 -0.6315
 1798SOL    HW216857   1.659   4.550   2.925  0.1980  0.3403  0.4493
 1799SOL     OW16858   0.997   3.525   8.257  0.4086  0.5181  0.7858
 1799SOL    HW116859   1.035   3.453   8.306  2.2267 -0.0175 -1.4313
 1799SOL    HW216860   1.065   3.592   8.261 -0.2268  1.2845 -1.3892
 1800SOL     OW16861   1.125   0.067   0.911  0.5578  0.1590 -0.1279
 1800SOL    HW116862   1.197   0.115   0.951  1.0013  0.3208 -1.1351
 1800SOL    HW216863   1.152   4.701   0.894  0.3928  0.4022 -1.6980
 1801SOL     OW16864   2.325   2.273   4.777 -0.0666 -0.0943 -0.2500
 1801SOL    HW116865   2.236   2.289   4.746  0.1399  0.4738 -0.5507
 1801SOL    HW216866   2.329   2.178   4.766  1.5462 -0.4740  3.5213
 1802SOL     OW16867   0.479   1.277  13.893  0.0527  0.4494  0.6399
 1802SOL    HW116868   0.531   1.325  13.958  0.1484 -1.3566  1.8992
 1802SOL    HW216869   0.520   1.190  13.890  1.6840  1.2583 -1.3055
 1803SOL     OW16870   3.534   0.823  14.746 -0.5438  0.5623 -0.3385
 1803SOL    HW116871   3.582   0.743  14.724 -2.9329 -0.4996 -1.6928
 1803SOL    HW216872   3.534   0.816  14.841  1.3157 -0.4180 -0.4091
 1804SOL     OW16873   4.166   0.079   6.178  0.7414  0.1012 -0.3382
 1804SOL    HW116874   4.100   0.094   6.245  0.9829 -0.0857 -0.0588
 1804SOL    HW216875   4.136   4.713   6.169  0.2209  0.1757  0.6489
 1805SOL     OW16876   3.395   0.511  17.554  0.0732  0.5445 -0.5190
 1805SOL    HW116877   3.453   0.455  17.606 -0.2466 -1.2774 -2.1189
 1805SOL    HW216878   3.355   0.444  17.498  1.1794 -0.9014  0.4098
 1806SOL     OW16879   0.352   1.518  13.171 -1.0321 -0.6195 -0.2261
 1806SOL    HW116880   0.359   1.593  13.112  3.1637 -1.0679 -0.3323
 1806SOL    HW216881   0.263   1.489  13.154 -1.5645  0.8149  0.0805
 1807SOL     OW16882   2.754   1.239   9.296 -0.1858  0.3924  0.4211
 1807SOL    HW116883   2.693   1.311   9.308 -1.2966 -0.7423  1.6481
 1807SOL    HW216884   2.800   1.242   9.380  0.9450 -1.5222 -0.1153
 1808SOL     OW16885   3.625   0.979   0.716  0.1983 -0.2981  0.2254
 1808SOL    HW116886   3.540   1.011   0.685  0.4698 -0.5173 -0.7581
 1808SOL    HW216887   3.693   1.039   0.685 -1.2426  1.5385  0.6507
 1809SOL     OW16888   1.722   2.113  14.136  0.1968 -0.2526 -0.1493
 1809SOL    HW116889   1.804   2.139  14.095  0.0986 -0.4080 -0.4426
 1809SOL    HW216890   1.676   2.196  14.134  1.0296  0.1428 -3.3260
 1810SOL     OW16891   0.156   2.139   7.593  0.4853 -0.5004 -0.1365
 1810SOL    HW116892   0.118   2.051   7.598 -0.9401  0.1234 -0.0512
 1810SOL    HW216893   0.247   2.128   7.620  0.0840 -1.1689  0.9239
 1811SOL     OW16894   3.389   3.267  13.287 -0.7505  0.2633  0.2737
 1811SOL    HW116895   3.306   3.244  13.329  0.0577  1.5493  2.5698
 1811SOL    HW216896   3.436   3.187  13.310 -2.2896 -0.9198 -0.7548
 1812SOL     OW16897   1.347   0.943   1.089  0.0943  0.1474  0.0845
 1812SOL    HW116898   1.300   1.017   1.127  0.2213  2.0278 -3.3959
 1812SOL    HW216899   1.416   0.925   1.153 -0.1436  0.8574  0.5390
 1813SOL     OW16900   1.839   3.829   8.219  0.7801  0.1504  0.3728
 1813SOL    HW116901   1.809   3.919   8.236 -0.9591 -0.7574  2.0968
 1813SOL    HW216902   1.754   3.786   8.232  0.2460  0.3750 -2.2086
 1814SOL     OW16903   2.512   4.604   7.406 -0.1313  0.2300 -0.6600
 1814SOL    HW116904   2.544   4.578   7.319 -0.0243  0.9939 -0.8507
 1814SOL    HW216905   2.555   4.542   7.465 -0.2763  0.2120 -0.5741
 1815SOL     OW16906   4.620   2.571   5.869 -0.3528 -1.0600 -0.1152
 1815SOL    HW116907   4.622   2.476   5.869 -2.2406 -1.1062  0.7462
 1815SOL    HW216908   4.532   2.582   5.835  0.0570 -1.0664 -1.1737
 1816SOL     OW16909   1.824   0.370   9.273 -0.1790 -0.2633 -0.4596
 1816SOL    HW116910   1.895   0.429   9.296 -2.4800  2.6586 -0.7158
 1816SOL    HW216911   1.855   0.284   9.301 -0.7709 -0.6963 -1.1184
 1817SOL     OW16912   2.072   0.567  16.565 -0.4935 -0.6202  0.0635
 1817SOL    HW116913   2.077   0.644  16.508  2.0621 -0.3758  0.6075
 1817SOL    HW216914   2.007   0.600  16.627  0.7433 -0.8217  1.4906
 1818SOL     OW16915   0.662   3.908   7.691 -0.3862  0.0813 -0.0932
 1818SOL    HW116916   0.711   3.970   7.745  2.0091 -1.4288 -0.5661
 1818SOL    HW216917   0.593   3.968   7.662  0.5069  0.2770 -1.8110
 1819SOL     OW16918   4.644   4.369  15.213 -0.0774  0.4071  0.1113
 1819SOL    HW116919   4.584   4.343  15.283 -2.7380  0.5887 -2.0927
 1819SOL    HW216920   4.599   4.331  15.138 -1.3344 -0.8586  1.5038
 1820SOL     OW16921   4.722   1.308   3.479  0.4376  0.0765 -0.0078
 1820SOL    HW116922   0.088   1.293   3.453  0.6468  1.0863  0.1408
 1820SOL    HW216923   4.711   1.229   3.531 -1.7582  1.2410  1.3142
 1821SOL     OW16924   2.016   0.262   1.538  0.0090  0.0608  0.1531
 1821SOL    HW116925   2.088   0.225   1.589 -0.4518 -1.5786 -0.3992
 1821SOL    HW216926   2.057   0.286   1.455 -0.6899  0.0202 -0.2091
 1822SOL     OW16927   2.506   0.302   0.932  0.4527  0.0221 -0.1077
 1822SOL    HW116928   2.539   0.213   0.919  1.0215 -0.1375  2.5213
 1822SOL    HW216929   2.492   0.298   1.026 -0.0029  1.0485 -0.1349
 1823SOL     OW16930   4.507   0.661   8.568 -0.1045  0.5516 -0.1752
 1823SOL    HW116931   4.437   0.638   8.507 -2.3438  1.3172  2.1033
 1823SOL    HW216932   4.572   0.594   8.551  0.0801  0.6585  0.1109
 1824SOL     OW16933   0.205   3.916   6.172 -0.2607 -0.3767 -0.0492
 1824SOL    HW116934   0.148   3.858   6.121  0.2047 -0.8332 -0.0471
 1824SOL    HW216935   0.267   3.942   6.103 -0.5207  1.0803  0.2574
 1825SOL     OW16936   1.022   1.572   5.817  0.0670  0.5570  0.5982
 1825SOL    HW116937   0.973   1.639   5.864  0.9770 -0.2101  2.6476
 1825SOL    HW216938   0.995   1.492   5.864 -0.0823 -0.6360 -1.5198
 1826SOL     OW16939   3.578   2.000   4.130 -0.3828 -0.3524  0.3755
 1826SOL    HW116940   3.617   2.079   4.168  0.0354 -0.6862  0.6430
 1826SOL    HW216941   3.582   1.931   4.196 -0.2224  1.1687  1.9734
 1827SOL     OW16942   2.566   3.471   8.234  0.4329  0.1157  0.1134
 1827SOL    HW116943   2.578   3.556   8.191 -0.9063  0.6246  0.7428
 1827SOL    HW216944   2.544   3.502   8.322 -4.1419 -1.4203 -0.4627
 1828SOL     OW16945   3.380   4.502   2.779  0.7999 -0.4233 -0.2906
 1828SOL    HW116946   3.335   4.418   2.787  2.4857 -1.1875  1.3464
 1828SOL    HW216947   3.315   4.549   2.726  0.3727 -1.0310 -0.3055
 1829SOL     OW16948   2.444   2.495   4.629 -0.5071  0.3491 -0.2039
 1829SOL    HW116949   2.400   2.433   4.687 -0.9644  0.1648 -0.7583
 1829SOL    HW216950   2.432   2.571   4.686  3.1306 -1.1912  2.6045
 1830SOL     OW16951   4.085   0.909   4.345  0.3196  0.0205 -0.0865
 1830SOL    HW116952   4.131   0.991   4.326  1.8766 -0.3782  1.9494
 1830SOL    HW216953   4.129   0.881   4.425 -1.3011 -0.8297  0.5054
 1831SOL     OW16954   1.171   3.146   3.788  0.2641 -0.8397  0.4279
 1831SOL    HW116955   1.197   3.115   3.875 -0.8409 -2.7556  0.0651
 1831SOL    HW216956   1.123   3.226   3.812  0.0619 -0.7176 -0.3706
 1832SOL     OW16957   0.270   2.374  13.381 -0.0308 -0.1983 -0.6424
 1832SOL    HW116958   0.198   2.313  13.366 -0.0797 -0.0197 -1.1416
 1832SOL    HW216959   0.339   2.310  13.400 -1.0845 -1.1007  0.1171
 1833SOL     OW16960   4.012   3.960   6.284  0.2482 -0.5621  0.1797
 1833SOL    HW116961   4.075   3.934   6.350 -0.0695 -0.3996  0.5494
 1833SOL    HW216962   3.934   3.965   6.340 -0.3020 -0.4788 -0.5853
 1834SOL     OW16963   0.475   0.014  10.124  0.1848  0.4025 -0.1172
 1834SOL    HW116964   0.454   0.102  10.154  2.7396  1.4804 -1.4673
 1834SOL    HW216965   0.431   4.672  10.178  0.7903 -0.1081 -0.2406
 1835SOL     OW16966   4.682   0.006   2.236 -0.2394 -0.2036 -0.7470
 1835SOL    HW116967   4.716   0.044   2.155 -1.7369  1.8966 -0.3856
 1835SOL    HW216968   4.706   0.067   2.305  5.2518  0.0892 -2.8586
 1836SOL     OW16969   0.448   3.229   0.071 -0.1436 -0.1109 -0.1766
 1836SOL    HW116970   0.410   3.289   0.135  1.9011  1.6662 -0.6209
 1836SOL    HW216971   0.394   3.235  17.692 -1.6103  1.3842  0.9557
 1837SOL     OW16972   1.934   2.782   0.574  0.1552 -0.2020  0.4836
 1837SOL    HW116973   2.003   2.725   0.541 -3.0196 -1.4869 -3.8416
 1837SOL    HW216974   1.862   2.740   0.528  1.2203 -1.9628  0.4248
 1838SOL     OW16975   2.353   2.712   6.950 -0.0434  0.1609 -0.0214
 1838SOL    HW116976   2.415   2.696   7.021  0.5974 -0.6002 -0.7670
 1838SOL    HW216977   2.396   2.775   6.893  0.3098  0.2707  0.3707
 1839SOL     OW16978   3.203   1.470   2.598 -0.3696  0.2250  0.3890
 1839SOL    HW116979   3.255   1.515   2.664  0.6256  0.6607 -0.6838
 1839SOL    HW216980   3.194   1.538   2.531  0.5668 -1.2371 -1.2339
 1840SOL     OW16981   3.653   3.754   2.777 -0.1643  0.0359  0.4253
 1840SOL    HW116982   3.565   3.729   2.804  0.3579 -1.0246  1.1442
 1840SOL    HW216983   3.660   3.843   2.812 -1.4138  0.4653 -0.4104
 1841SOL     OW16984   3.011   3.979   7.645  0.4533 -0.2943 -0.5037
 1841SOL    HW116985   2.921   3.991   7.675  0.3261 -2.2200 -0.0957
 1841SOL    HW216986   3.009   3.991   7.550 -0.5953  1.2700 -0.2822
 1842SOL     OW16987   3.672   1.989  10.980  0.1140  0.3405 -0.6498
 1842SOL    HW116988   3.691   1.895  10.976 -0.4872  0.1867  0.1399
 1842SOL    HW216989   3.690   2.000  11.073 -1.0346  1.3741 -0.5572
 1843SOL     OW16990   2.074   3.866   3.731  0.4414  0.0537  0.3689
 1843SOL    HW116991   2.160   3.908   3.735  0.9860 -0.8307 -1.7065
 1843SOL    HW216992   2.097   3.776   3.755 -0.4439 -0.0233  0.9306
 1844SOL     OW16993   3.343   2.938  17.169 -0.1673  0.2241 -0.1518
 1844SOL    HW116994   3.358   2.942  17.263 -1.6545 -0.8581  0.1234
 1844SOL    HW216995   3.432   2.907  17.149 -1.2615 -1.3826 -2.5530
 1845SOL     OW16996   4.357   4.576   4.332  0.3082  0.3031 -0.3735
 1845SOL    HW116997   4.398   4.554   4.415  1.0547  2.1206 -0.2522
 1845SOL    HW216998   4.420   4.634   4.288  2.2219 -0.9749  0.6966
 1846SOL     OW16999   0.902   3.397   9.133 -0.2770 -0.0561 -0.0346
 1846SOL    HW117000   0.875   3.328   9.074  1.8370 -0.7411 -0.2124
 1846SOL    HW217001   0.977   3.349   9.169 -2.0615 -1.6996  1.4337
 1847SOL     OW17002   0.267   4.566  11.744  0.2631  0.3462  0.4444
 1847SOL    HW117003   0.190   4.623  11.753 -0.2524 -0.3106  0.1382
 1847SOL    HW217004   0.320   4.611  11.679  1.1846  0.8818  1.5612
 1848SOL     OW17005   4.119   4.017   8.175 -0.1400  0.3717 -0.1120
 1848SOL    HW117006   4.147   4.103   8.145  0.3305 -0.4776 -2.0677
 1848SOL    HW217007   4.031   4.031   8.212 -0.8316 -2.1771 -0.7415
 1849SOL     OW17008   4.588   0.116   3.337  0.3522 -0.2137  0.1620
 1849SOL    HW117009   4.617   0.207   3.333 -0.3811  0.0153 -0.0339
 1849SOL    HW217010   4.655   0.072   3.389 -0.4145 -1.3099  0.2097
 1850SOL     OW17011   2.402   4.486   8.996 -0.5808  0.1132 -0.2283
 1850SOL    HW117012   2.422   4.398   8.966  2.1321  1.7839 -3.3454
 1850SOL    HW217013   2.477   4.510   9.050 -0.3762  0.8299 -0.8327
 1851SOL     OW17014   0.616   2.806   7.654  0.2985  0.0934  0.1496
 1851SOL    HW117015   0.626   2.901   7.662 -0.4720  0.2552 -0.8268
 1851SOL    HW217016   0.570   2.789   7.572  0.3976  1.2657 -0.1417
 1852SOL     OW17017   3.384   2.878  11.716 -0.1911  0.3801 -0.3998
 1852SOL    HW117018   3.437   2.949  11.753  1.3793 -1.8111  1.5557
 1852SOL    HW217019   3.428   2.808  11.763 -2.4167 -0.6427  0.1399
 1853SOL     OW17020   0.163   1.417   6.907  0.3539  0.2641  0.1807
 1853SOL    HW117021   0.126   1.375   6.830 -0.7345  3.0322 -0.8076
 1853SOL    HW217022   0.245   1.448   6.868  0.2186 -1.1674 -1.2339
 1854SOL     OW17023   1.678   2.752   7.695  0.4294  1.0276 -0.2304
 1854SOL    HW117024   1.673   2.829   7.752  1.1561 -0.3179  1.6726
 1854SOL    HW217025   1.616   2.768   7.624 -1.0359  0.2956  0.8861
 1855SOL     OW17026   0.853   0.509  11.795 -0.3999  0.2997 -0.2294
 1855SOL    HW117027   0.937   0.501  11.752 -0.7312  0.7259 -0.9475
 1855SOL    HW217028   0.799   0.437  11.763  0.8743 -0.5123 -0.5073
 1856SOL     OW17029   3.216   0.739  13.226  0.7736 -0.5454 -0.7081
 1856SOL    HW117030   3.252   0.825  13.246 -0.3705 -0.5999  1.4733
 1856SOL    HW217031   3.201   0.700  13.312 -3.0736 -3.1550 -2.5910
 1857SOL     OW17032   1.202   3.718  14.722 -0.2572 -0.6112  0.0536
 1857SOL    HW117033   1.219   3.628  14.694  1.1266  0.2793 -1.9585
 1857SOL    HW217034   1.264   3.710  14.795 -0.7100 -1.2636  0.3761
 1858SOL     OW17035   0.203   2.361   0.475  0.3892 -0.4775 -0.0823
 1858SOL    HW117036   0.166   2.381   0.390 -2.3971  0.5080  1.3819
 1858SOL    HW217037   0.260   2.437   0.488  0.3307 -0.5845  0.8218
 1859SOL     OW17038   1.754   1.932   4.321  0.1452  0.5396 -0.0528
 1859SOL    HW117039   1.803   2.014   4.334 -0.5830  0.6705  1.7711
 1859SOL    HW217040   1.795   1.892   4.244  1.0057 -2.0350  1.7769
 1860SOL     OW17041   4.354   1.956   2.727 -0.4292  0.0503  0.3577
 1860SOL    HW117042   4.344   1.960   2.632 -0.0950  0.1055  0.3241
 1860SOL    HW217043   4.305   2.032   2.759  2.3315  2.0066 -0.0650
 1861SOL     OW17044   2.721   1.210   5.885 -0.5606 -0.3681 -0.0546
 1861SOL    HW117045   2.734   1.132   5.831 -0.1292  1.3805 -2.5213
 1861SOL    HW217046   2.628   1.207   5.909  0.0965 -0.9268  2.4355
 1862SOL     OW17047   3.383   4.383   6.225 -0.2622  0.2483  0.2938
 1862SOL    HW117048   3.349   4.441   6.157 -1.0024 -0.5988 -0.0426
 1862SOL    HW217049   3.446   4.326   6.182 -0.9961  0.2748 -0.8091
 1863SOL     OW17050   2.993   2.197  16.626  0.0101  0.3476  0.5610
 1863SOL    HW117051   3.042   2.250  16.563 -0.4437  1.5930  1.2509
 1863SOL    HW217052   2.923   2.257  16.651  0.2145  0.9643 -0.3402
 1864SOL     OW17053   4.403   4.391  17.261 -0.1048 -0.1455  0.2174
 1864SOL    HW117054   4.387   4.299  17.243 -1.4048  0.5552 -2.1806
 1864SOL    HW217055   4.427   4.380  17.353 -0.7477 -0.0222  0.4078
 1865SOL     OW17056   0.833   2.000   5.117  0.4520 -0.2872  0.0246
 1865SOL    HW117057   0.800   1.998   5.027 -2.3618  0.9735  1.0557
 1865SOL    HW217058   0.753   1.996   5.168  1.0039 -0.5430  0.8819
 1866SOL     OW17059   1.380   1.338  16.395  0.1578 -1.4014 -0.2302
 1866SOL    HW117060   1.464   1.302  16.422  1.4558  0.8298 -1.2924
 1866SOL    HW217061   1.334   1.264  16.357 -0.1500 -0.9915 -0.6539
 1867SOL     OW17062   1.607   3.703   8.234 -0.2734 -0.0730 -0.5125
 1867SOL    HW117063   1.658   3.645   8.178  0.8650  1.0694 -0.6499
 1867SOL    HW217064   1.522   3.706   8.190 -0.2601 -0.8786 -0.5805
 1868SOL     OW17065   0.309   0.738   7.199 -0.0353 -0.2105  0.5893
 1868SOL    HW117066   0.305   0.642   7.208 -1.9600 -0.0010  2.0813
 1868SOL    HW217067   0.263   0.769   7.277 -0.4258 -1.6034  0.9189
 1869SOL     OW17068   2.112   1.634   0.129 -0.2766  0.6845  0.2276
 1869SOL    HW117069   2.139   1.665   0.216  1.3948  0.5267 -0.2282
 1869SOL    HW217070   2.194   1.593   0.104  0.1327  1.4507  0.2928
 1870SOL     OW17071   0.412   0.400   3.263  0.3746  0.8129 -0.3326
 1870SOL    HW117072   0.468   0.411   3.186  0.9794  2.1496  0.3031
 1870SOL    HW217073   0.366   0.320   3.236  0.7769  0.8724 -1.2213
 1871SOL     OW17074   3.937   0.300   6.634 -0.3807 -0.2076 -0.1224
 1871SOL    HW117075   3.911   0.245   6.708  2.1636 -0.2679  0.7034
 1871SOL    HW217076   4.023   0.261   6.620  0.2101  0.2908  2.1593
 1872SOL     OW17077   3.658   3.516   0.720 -0.1164 -0.4282  0.1541
 1872SOL    HW117078   3.611   3.438   0.690 -0.7460 -0.3868  1.0385
 1872SOL    HW217079   3.595   3.551   0.782  0.2095  2.0390 -0.9244
 1873SOL     OW17080   3.791   0.135   4.832 -0.4975 -0.5928 -0.3475
 1873SOL    HW117081   3.789   0.048   4.872 -1.8400 -0.3588  0.0936
 1873SOL    HW217082   3.713   0.163   4.880 -0.7439  0.8896 -1.5911
 1874SOL     OW17083   2.510   0.494   7.443  0.0220  0.2044  0.3506
 1874SOL    HW117084   2.439   0.492   7.506  0.7449  1.8077  1.2180
 1874SOL    HW217085   2.548   0.582   7.448  0.9932 -0.0274 -2.7753
 1875SOL     OW17086   2.886   2.252   0.925 -0.2909  0.3713 -0.5190
 1875SOL    HW117087   2.848   2.188   0.985 -1.8624  0.6365 -1.2261
 1875SOL    HW217088   2.976   2.225   0.910 -0.2328 -1.2367  2.7769
 1876SOL     OW17089   1.629   4.377   8.692  0.0536 -0.2163  0.2114
 1876SOL    HW117090   1.557   4.394   8.753  2.3266  2.6538  2.0930
 1876SOL    HW217091   1.619   4.462   8.650 -1.2430 -0.5148 -0.0991
 1877SOL     OW17092   4.029   0.245   6.913  0.2967  0.0451 -0.6200
 1877SOL    HW117093   4.063   0.196   6.987 -0.6014  0.7359  0.2433
 1877SOL    HW217094   3.953   0.282   6.957  0.7880 -0.5105  0.6745
 1878SOL     OW17095   0.452   3.858  14.697  0.3355 -0.0958  0.1329
 1878SOL    HW117096   0.456   3.801  14.774 -2.2071 -0.5125 -0.0392
 1878SOL    HW217097   0.456   3.944  14.739  0.3601  1.6204 -3.4380
 1879SOL     OW17098   2.662   4.557  15.320 -0.7797 -0.1101 -0.0414
 1879SOL    HW117099   2.643   4.646  15.291  2.0294  0.0083 -1.5323
 1879SOL    HW217100   2.589   4.509  15.281  1.5070 -0.5304 -3.8052
 1880SOL     OW17101   3.093   3.978   0.229  0.0843 -0.1887 -0.0480
 1880SOL    HW117102   3.066   4.034   0.302  1.3647  0.5181 -0.1116
 1880SOL    HW217103   3.118   3.899   0.277 -0.9638 -0.7181 -0.3616
 1881SOL     OW17104   3.456   3.740   6.956  0.0056 -0.0551  0.6769
 1881SOL    HW117105   3.385   3.692   6.913  1.1878  1.1759 -2.7028
 1881SOL    HW217106   3.514   3.674   6.994  0.8576 -0.1523 -0.7846
 1882SOL     OW17107   4.609   2.202   4.165  0.3485  0.0245 -0.1804
 1882SOL    HW117108   4.588   2.109   4.176 -0.8760  0.2954 -0.1794
 1882SOL    HW217109   4.556   2.218   4.086 -0.8505  0.3977  0.7031
 1883SOL     OW17110   3.557   4.621   4.075 -0.0030  0.1538 -1.0004
 1883SOL    HW117111   3.533   4.560   4.145  0.3886  1.0142 -0.1095
 1883SOL    HW217112   3.650   4.601   4.063  0.1781  0.2995  0.1849
 1884SOL     OW17113   1.859   4.319  16.786  0.0967 -0.1719 -0.5998
 1884SOL    HW117114   1.900   4.402  16.765  0.1563 -0.5345 -1.9010
 1884SOL    HW217115   1.772   4.339  16.754 -0.4446 -0.9301  0.3800
 1885SOL     OW17116   0.429   4.471   3.476 -0.4294 -0.6283 -0.3247
 1885SOL    HW117117   0.387   4.534   3.536 -0.2225 -1.7120  0.9643
 1885SOL    HW217118   0.483   4.432   3.546  1.9185 -1.7834 -2.7932
 1886SOL     OW17119   2.467   3.720   7.808  0.3736 -0.2305 -0.3619
 1886SOL    HW117120   2.399   3.769   7.854 -0.1032 -0.6584 -0.6099
 1886SOL    HW217121   2.469   3.635   7.852  2.2902 -0.1117 -0.2051
 1887SOL     OW17122   4.499   0.169   9.680  0.2476  0.8795  0.0332
 1887SOL    HW117123   4.464   0.102   9.738 -0.8531  1.1893 -0.2773
 1887SOL    HW217124   4.567   0.114   9.640  0.8326  1.4733  0.2128
 1888SOL     OW17125   4.512   2.288   5.790 -1.0665 -0.1068 -0.1020
 1888SOL    HW117126   4.521   2.218   5.855  1.3482  0.2761 -0.0473
 1888SOL    HW217127   4.572   2.252   5.725  1.2342  2.8113  0.4596
 1889SOL     OW17128   1.414   3.272   4.008 -0.1740  0.2006 -0.2582
 1889SOL    HW117129   1.340   3.330   4.023  1.2292  2.2016 -0.9986
 1889SOL    HW217130   1.371   3.188   3.993  0.5730 -0.7490  2.9379
 1890SOL     OW17131   1.997   3.442   2.862  0.3318 -0.6931  0.1074
 1890SOL    HW117132   2.007   3.347   2.866  1.3475 -0.5345  1.5573
 1890SOL    HW217133   2.078   3.469   2.820 -1.1266  2.4397 -0.6618
 1891SOL     OW17134   2.380   1.750   5.908 -0.0948 -0.0653 -0.1530
 1891SOL    HW117135   2.292   1.761   5.870  0.3417 -1.4792 -1.5280
 1891SOL    HW217136   2.356   1.713   5.993 -0.7925 -0.3237 -0.4612
 1892SOL     OW17137   0.137   2.519   9.984 -0.1030 -0.6459  0.1133
 1892SOL    HW117138   0.127   2.525   9.889  0.0326 -0.1437  0.1267
 1892SOL    HW217139   0.176   2.433   9.998  4.7925  1.2736 -1.5053
 1893SOL     OW17140   4.080   2.230   3.384  0.5255  0.2605  0.1955
 1893SOL    HW117141   4.139   2.162   3.416 -2.3043 -1.8601  0.8814
 1893SOL    HW217142   4.029   2.244   3.464 -0.3748  1.3365 -0.5614
 1894SOL     OW17143   0.954   1.079  14.882 -0.2852 -0.0564 -0.0036
 1894SOL    HW117144   0.913   1.162  14.859 -1.3747  0.0625  2.3476
 1894SOL    HW217145   1.046   1.101  14.896 -0.6177  0.3495  1.5008
 1895SOL     OW17146   0.714   4.488  14.389  0.0953 -0.2953 -0.5454
 1895SOL    HW117147   0.742   4.447  14.307 -1.0464 -1.1319 -0.5160
 1895SOL    HW217148   0.714   4.582  14.368 -2.6126  0.0750  1.1386
 1896SOL     OW17149   0.025   0.153   2.452  0.1947  0.0434 -0.4686
 1896SOL    HW117150   0.080   0.132   2.527  0.6788 -0.3300 -0.9245
 1896SOL    HW217151   4.663   0.133   2.485 -0.0110  0.7595 -0.5669
 1897SOL     OW17152   4.612   3.317  16.911  0.0539  0.0057  0.2858
 1897SOL    HW117153   4.562   3.380  16.963 -2.2686 -1.4671 -0.1535
 1897SOL    HW217154   4.700   3.344  16.937 -0.0248 -1.0759  1.6539
 1898SOL     OW17155   3.936   2.193   1.190  0.1142 -0.2854  0.2462
 1898SOL    HW117156   3.997   2.217   1.121  1.2172  0.8496  1.6201
 1898SOL    HW217157   3.859   2.248   1.177  0.9101  1.3202  2.3848
 1899SOL     OW17158   0.329   1.750   1.454  0.3440  0.3838 -0.3434
 1899SOL    HW117159   0.330   1.729   1.361 -0.0109 -2.6779  0.3609
 1899SOL    HW217160   0.419   1.774   1.474  0.5414 -1.2764  0.7039
 1900SOL     OW17161   0.910   2.618   9.733 -0.1943 -0.6459  0.1950
 1900SOL    HW117162   0.822   2.650   9.752 -0.0385 -0.6907  0.9985
 1900SOL    HW217163   0.934   2.573   9.814 -0.8682 -0.8712  0.2664
 1901SOL     OW17164   3.055   4.262  13.757 -0.5146 -0.2686 -0.1966
 1901SOL    HW117165   3.073   4.248  13.850  0.1450 -1.1466 -0.4537
 1901SOL    HW217166   2.993   4.334  13.758 -1.8531 -1.4699  3.2783
 1902SOL     OW17167   2.981   4.397  15.137  0.0228  0.2488  0.5804
 1902SOL    HW117168   2.976   4.444  15.053 -1.0076 -0.4645  0.2526
 1902SOL    HW217169   2.898   4.358  15.163 -0.2591  0.9079  0.6675
 1903SOL     OW17170   2.543   3.810   6.301  0.2334 -0.3938 -0.3017
 1903SOL    HW117171   2.610   3.799   6.368  0.8562  1.5852 -0.6156
 1903SOL    HW217172   2.490   3.734   6.328 -1.7722  1.7037  1.6720
 1904SOL     OW17173   2.209   4.557  11.591  0.1253 -0.0511 -0.0488
 1904SOL    HW117174   2.239   4.510  11.513  1.1588  0.4744  0.0293
 1904SOL    HW217175   2.140   4.610  11.551  0.9813  0.0187 -1.4447
 1905SOL     OW17176   4.446   0.053   7.922  0.3056 -0.2885  0.0767
 1905SOL    HW117177   4.411   4.695   7.888 -2.5287  0.3130  1.5372
 1905SOL    HW217178   4.434   0.121   7.856  1.2110  2.1963  2.4613
 1906SOL     OW17179   2.537   2.604   9.942 -0.3140  0.3514  0.0592
 1906SOL    HW117180   2.560   2.672   9.878  1.3566 -1.0948 -0.8744
 1906SOL    HW217181   2.606   2.542   9.916 -0.6724 -0.9386  2.2401
 1907SOL     OW17182   2.638   1.371   8.085 -0.4419 -0.2438  0.7103
 1907SOL    HW117183   2.545   1.373   8.061 -1.0659 -2.2690  2.9846
 1907SOL    HW217184   2.677   1.367   7.997 -1.5246 -1.5057  0.2743
 1908SOL     OW17185   1.079   2.309  14.652  0.4795 -0.4371  0.1548
 1908SOL    HW117186   1.080   2.264  14.568 -1.8424 -0.2075  0.0015
 1908SOL    HW217187   1.052   2.398  14.629 -0.5957 -1.0028 -0.7377
 1909SOL     OW17188   0.538   3.566  10.864 -0.3952 -0.1862 -0.4112
 1909SOL    HW117189   0.595   3.568  10.941 -1.0461 -1.0550  0.0997
 1909SOL    HW217190   0.584   3.614  10.795 -1.5421  1.9272  0.3048
 1910SOL     OW17191   3.105   2.799  16.331 -0.1116  0.4165 -0.2296
 1910SOL    HW117192   3.144   2.876  16.290 -0.5432  1.1868  0.8254
 1910SOL    HW217193   3.024   2.837  16.365  0.0870  1.7571 -1.2259
 1911SOL     OW17194   3.993   1.153   6.914 -0.2313  0.2836 -0.1128
 1911SOL    HW117195   4.072   1.109   6.882  0.4726  1.3567  0.1342
 1911SOL    HW217196   3.953   1.195   6.838 -0.6829  1.6348  0.8739
 1912SOL     OW17197   4.043   3.572   0.757  0.5334  0.4797  0.0085
 1912SOL    HW117198   4.115   3.573   0.820 -0.0894 -0.3682  0.7432
 1912SOL    HW217199   3.976   3.633   0.788 -0.7082 -1.0236  0.3261
 1913SOL     OW17200   0.314   0.816  10.270 -0.3920 -0.0816  0.3350
 1913SOL    HW117201   0.318   0.912  10.271 -1.4472 -0.0438  1.7447
 1913SOL    HW217202   0.229   0.808  10.226 -1.1933 -1.0413  2.0509
 1914SOL     OW17203   2.391   1.345  11.809  0.5042  0.0908 -0.1119
 1914SOL    HW117204   2.408   1.382  11.896  1.3465  0.9644 -0.6461
 1914SOL    HW217205   2.472   1.306  11.777  1.1956  0.2642  1.4296
 1915SOL     OW17206   3.115   0.143   6.198  0.0175 -0.1268 -0.5076
 1915SOL    HW117207   3.167   0.205   6.146  0.0177  1.2644  1.1276
 1915SOL    HW217208   3.171   0.097   6.261 -1.2725 -0.5533  0.3120
 1916SOL     OW17209   2.049   1.072  11.607  0.4738 -0.0487  0.5692
 1916SOL    HW117210   2.138   1.080  11.572 -0.6541 -1.9974 -2.7406
 1916SOL    HW217211   2.057   1.100  11.698  0.1548  2.0031 -0.0221
 1917SOL     OW17212   1.964   3.812   1.392  0.1159  0.0553 -0.0865
 1917SOL    HW117213   1.899   3.849   1.452  1.2081  2.1833 -0.2232
 1917SOL    HW217214   2.029   3.882   1.404  0.2913 -0.5371  2.4381
 1918SOL     OW17215   4.199   3.462   7.383 -0.2185 -0.2637  0.7258
 1918SOL    HW117216   4.151   3.513   7.448 -2.2311  0.3271 -1.2168
 1918SOL    HW217217   4.158   3.376   7.393  0.4037 -0.4818  1.3480
 1919SOL     OW17218   0.696   3.704   8.028 -0.2623  0.4221 -0.2751
 1919SOL    HW117219   0.778   3.752   8.017 -0.3940  0.9235  1.0362
 1919SOL    HW217220   0.640   3.735   7.957  0.3338 -1.8126 -1.7515
 1920SOL     OW17221   0.039   2.439   4.270 -0.3934 -0.1977 -1.1946
 1920SOL    HW117222   4.712   2.480   4.339  1.4278 -0.2725  0.1995
 1920SOL    HW217223   4.699   2.378   4.233 -1.1627 -0.5040  0.6248
 1921SOL     OW17224   2.556   1.483   7.305 -0.0570  0.0018  0.3903
 1921SOL    HW117225   2.599   1.563   7.335 -1.0432  0.5235  0.4313
 1921SOL    HW217226   2.627   1.445   7.254 -0.7932  0.5108 -1.0253
 1922SOL     OW17227   2.791   0.415   1.206 -0.3114  0.4556 -0.2552
 1922SOL    HW117228   2.834   0.399   1.291 -0.4260  2.4561  0.1708
 1922SOL    HW217229   2.791   0.510   1.196 -0.6921  0.6466  1.6101
 1923SOL     OW17230   3.525   0.796   8.897 -0.8583  0.0089 -0.4022
 1923SOL    HW117231   3.606   0.772   8.943 -1.2245  1.3644  0.9493
 1923SOL    HW217232   3.525   0.890   8.919 -0.3418  0.1924 -1.1894
 1924SOL     OW17233   2.629   2.432   8.158  0.4850  0.0584 -0.4774
 1924SOL    HW117234   2.700   2.373   8.184  1.0966  1.5330  1.2546
 1924SOL    HW217235   2.567   2.437   8.231  1.0393 -0.0411 -0.0010
 1925SOL     OW17236   1.472   0.590  11.915 -0.0437  0.0972  0.6736
 1925SOL    HW117237   1.558   0.624  11.892  0.1632  0.0430  1.3459
 1925SOL    HW217238   1.431   0.585  11.829  2.6546 -2.4256 -0.4629
 1926SOL     OW17239   1.664   2.903  16.324  0.8226  0.2615  0.4504
 1926SOL    HW117240   1.615   2.952  16.390 -0.5157  0.2197 -0.5073
 1926SOL    HW217241   1.637   2.961  16.253  0.1975 -0.7369 -0.1413
 1927SOL     OW17242   2.499   0.247  17.696 -0.0988 -1.0562 -0.2035
 1927SOL    HW117243   2.411   0.261  17.661 -0.1073 -0.5609  0.0084
 1927SOL    HW217244   2.479   0.192   0.073  1.2543 -1.3622 -0.0579
 1928SOL     OW17245   3.415   4.362   8.408  0.5437 -0.3838  0.3841
 1928SOL    HW117246   3.452   4.414   8.480  1.6892 -0.2974 -0.2695
 1928SOL    HW217247   3.369   4.292   8.454 -0.3166 -0.5606 -0.7439
 1929SOL     OW17248   4.589   4.015  15.409  0.2530 -0.6960  0.2630
 1929SOL    HW117249   4.641   3.975  15.340 -1.1284 -1.4174 -0.3614
 1929SOL    HW217250   4.629   4.102  15.410  1.7070 -1.3684  1.2218
 1930SOL     OW17251   3.777   0.835   8.340  1.2376  0.3047  0.2113
 1930SOL    HW117252   3.724   0.789   8.406  0.7520  0.7942  0.1679
 1930SOL    HW217253   3.722   0.833   8.261 -0.5526  2.8442  1.3863
 1931SOL     OW17254   2.418   3.986  14.707 -0.3968 -0.2179  0.1860
 1931SOL    HW117255   2.466   4.012  14.628  1.9580 -0.9879  1.3680
 1931SOL    HW217256   2.493   3.979  14.766 -0.4635 -0.2589  0.2657
 1932SOL     OW17257   3.281   1.336   6.437 -0.0134  0.5839 -0.4503
 1932SOL    HW117258   3.307   1.272   6.503 -0.2953  1.3850  0.4310
 1932SOL    HW217259   3.291   1.289   6.354 -1.6302  0.2273 -0.4403
 1933SOL     OW17260   0.809   1.550   8.778  0.0549  0.5167 -0.2798
 1933SOL    HW117261   0.755   1.528   8.853 -0.3669  1.0854 -0.4202
 1933SOL    HW217262   0.893   1.514   8.806 -2.1159 -3.2754  1.2569
 1934SOL     OW17263   4.120   0.987  11.916 -0.9893  0.7481  0.6057
 1934SOL    HW117264   4.140   1.002  12.008 -0.0958  1.7899  0.2404
 1934SOL    HW217265   4.033   0.948  11.925 -0.3855 -0.4446  1.4431
 1935SOL     OW17266   3.088   2.332   6.755  0.7182 -0.0454 -0.1817
 1935SOL    HW117267   3.138   2.262   6.796  0.3794 -0.0235  0.2690
 1935SOL    HW217268   3.045   2.383   6.823 -0.8609 -1.0882 -0.4053
 1936SOL     OW17269   2.704   3.403  11.709 -0.9095 -0.2339  0.6602
 1936SOL    HW117270   2.647   3.326  11.716 -0.8015 -0.5822 -2.6886
 1936SOL    HW217271   2.788   3.375  11.745 -0.2235  2.4265  1.1154
 1937SOL     OW17272   3.171   1.309   4.757  0.6581  0.1330 -0.2013
 1937SOL    HW117273   3.143   1.250   4.687 -0.1396  0.2675  0.0038
 1937SOL    HW217274   3.099   1.372   4.763 -0.2967 -1.1780  1.8493
 1938SOL     OW17275   2.675   3.562  16.173 -0.1804  0.7583 -0.3751
 1938SOL    HW117276   2.674   3.585  16.080 -2.3114 -1.0667 -0.7892
 1938SOL    HW217277   2.696   3.648  16.208 -0.2403  0.8549 -0.5786
 1939SOL     OW17278   4.375   1.675   4.342  0.3656 -0.7866 -0.1475
 1939SOL    HW117279   4.373   1.641   4.431 -1.6586  1.7228  0.7772
 1939SOL    HW217280   4.461   1.716   4.346 -2.1443  4.2221  3.2935
 1940SOL     OW17281   4.076   0.511   7.107 -0.1450 -0.5412  0.0595
 1940SOL    HW117282   4.100   0.443   7.170  0.0560  1.4700  2.1062
 1940SOL    HW217283   4.164   0.548   7.098 -0.8689  1.3479  0.7574
 1941SOL     OW17284   3.793   2.982   7.341 -0.1811  0.2250  0.3557
 1941SOL    HW117285   3.745   2.951   7.417 -0.9947  3.3910  1.1169
 1941SOL    HW217286   3.879   2.948   7.368 -0.1757  0.4703  0.6483
 1942SOL     OW17287   4.287   0.360   3.575  0.4278 -0.4414 -0.3233
 1942SOL    HW117288   4.341   0.437   3.594 -1.4272  0.0850  2.8600
 1942SOL    HW217289   4.324   0.336   3.491 -2.4140 -0.5347 -1.5628
 1943SOL     OW17290   0.307   1.556   8.162 -0.2963  0.6994 -0.6496
 1943SOL    HW117291   0.385   1.578   8.112  1.2687  0.9207  1.8878
 1943SOL    HW217292   0.319   1.461   8.172 -0.8202  0.7066  0.0658
 1944SOL     OW17293   2.059   3.028  11.032  0.4394  0.0757  0.0384
 1944SOL    HW117294   2.081   3.057  11.120  1.1335  2.1578 -0.8085
 1944SOL    HW217295   2.047   3.111  10.985 -0.6024  0.6833  1.3845
 1945SOL     OW17296   3.347   0.119   6.992 -0.4150 -0.5703  0.7117
 1945SOL    HW117297   3.321   0.027   6.997  2.0245 -1.3377 -1.0482
 1945SOL    HW217298   3.262   0.157   7.014 -0.4980 -0.0080 -0.6125
 1946SOL     OW17299   1.897   2.727   5.093 -0.0949 -0.2021  0.1676
 1946SOL    HW117300   1.971   2.777   5.127  1.5822 -1.2959 -1.9232
 1946SOL    HW217301   1.835   2.800   5.090 -2.8896 -2.4971  2.0129
 1947SOL     OW17302   3.621   1.376  13.281 -0.6788  0.2150 -0.1669
 1947SOL    HW117303   3.701   1.380  13.229  0.3116 -1.2143  1.2234
 1947SOL    HW217304   3.648   1.430  13.355 -0.8239 -0.1098  0.1242
 1948SOL     OW17305   4.460   2.933   9.053  0.4860  0.1768 -0.4078
 1948SOL    HW117306   4.452   2.844   9.017  1.2029 -0.4042  0.8680
 1948SOL    HW217307   4.516   2.970   8.985 -0.2960  1.1088 -0.5432
 1949SOL     OW17308   4.186   2.404   4.756 -0.2094  0.0228 -0.5027
 1949SOL    HW117309   4.178   2.350   4.835 -2.8331  1.2367  0.0308
 1949SOL    HW217310   4.111   2.463   4.756 -1.4292 -1.5220  0.3825
 1950SOL     OW17311   4.400   3.162   9.312 -0.4772  0.2681 -0.3559
 1950SOL    HW117312   4.373   3.252   9.331  2.4881  1.0678  0.0745
 1950SOL    HW217313   4.476   3.183   9.257 -0.8225  1.2309 -0.4678
 1951SOL     OW17314   0.484   3.870   6.267 -0.0501  0.0844  0.3082
 1951SOL    HW117315   0.503   3.831   6.181 -1.3373 -1.6877  0.8439
 1951SOL    HW217316   0.391   3.848   6.266 -0.3836  1.5554 -0.7486
 1952SOL     OW17317   2.512   2.717   4.265 -0.2989 -0.1350 -0.2043
 1952SOL    HW117318   2.604   2.737   4.282 -0.0685 -0.8246 -0.6478
 1952SOL    HW217319   2.498   2.628   4.297 -1.2322 -0.8654 -2.5978
 1953SOL     OW17320   2.235   2.631   8.957 -0.0759 -0.5165 -1.1570
 1953SOL    HW117321   2.289   2.703   8.925 -0.2718  0.4739  0.7534
 1953SOL    HW217322   2.168   2.687   8.997  0.8307  0.4776 -1.0254
 1954SOL     OW17323   1.980   4.072   9.916 -0.6411  0.0534  0.0326
 1954SOL    HW117324   1.947   4.120   9.992  0.0753 -1.0188  1.0176
 1954SOL    HW217325   2.073   4.069   9.937 -0.9254  0.6788  1.3753
 1955SOL     OW17326   4.201   0.032   5.480  0.0406  0.6105  0.2504
 1955SOL    HW117327   4.188   4.663   5.467 -0.1760  0.8325 -1.1108
 1955SOL    HW217328   4.202   0.031   5.576  0.0879  1.4870  0.2623
 1956SOL     OW17329   0.506   1.006  10.828  0.1360  0.5035 -0.1061
 1956SOL    HW117330   0.432   0.949  10.806  0.5419 -0.0302 -0.0786
 1956SOL    HW217331   0.474   1.041  10.911 -1.6816  0.1656 -0.6563
 1957SOL     OW17332   3.636   0.649   2.839  0.5868  0.0251 -0.5260
 1957SOL    HW117333   3.696   0.716   2.806  0.6926  0.9384  1.4696
 1957SOL    HW217334   3.676   0.567   2.811 -0.5900  0.0891 -2.4029
 1958SOL     OW17335   1.042   4.541  11.620  0.2922  0.0747 -0.1525
 1958SOL    HW117336   1.027   4.492  11.540  0.5976  0.1713 -0.2709
 1958SOL    HW217337   1.075   4.471  11.677  0.3472  0.3980  0.2194
 1959SOL     OW17338   1.174   2.016  13.653 -0.4983 -0.0693 -0.8958
 1959SOL    HW117339   1.108   1.979  13.595 -1.2990 -2.0308  1.2555
 1959SOL    HW217340   1.170   2.109  13.631  0.6151  0.3145  0.5091
 1960SOL     OW17341   2.725   0.414   8.569  0.0129 -0.4048  0.4386
 1960SOL    HW117342   2.813   0.442   8.595  0.3408 -2.1272  1.1828
 1960SOL    HW217343   2.725   0.452   8.481  0.4860 -1.8206 -0.1821
 1961SOL     OW17344   2.737   4.571   2.253 -0.0848  0.7463  0.3835
 1961SOL    HW117345   2.672   4.578   2.183  2.2103  3.2044 -1.4868
 1961SOL    HW217346   2.715   4.637   2.319 -3.2292 -1.3532  1.4551
 1962SOL     OW17347   4.453   2.020   3.140 -0.3414 -0.0076 -0.1492
 1962SOL    HW117348   4.405   2.063   3.069  0.2707  1.7881  0.5120
 1962SOL    HW217349   4.502   2.095   3.173  0.0961  0.4241 -1.7962
 1963SOL     OW17350   1.434   0.982  10.116 -0.2001 -0.1582 -1.1734
 1963SOL    HW117351   1.393   0.907  10.074 -0.3744 -0.6303 -0.1729
 1963SOL    HW217352   1.358   1.021  10.160  0.8726 -1.2128  1.6301
 1964SOL     OW17353   0.776   3.340  10.150  0.8121  0.6675 -0.0836
 1964SOL    HW117354   0.831   3.321  10.074 -0.5391 -1.7359 -0.4701
 1964SOL    HW217355   0.779   3.256  10.196  1.0453  0.5915 -0.2393
 1965SOL     OW17356   2.082   1.201   4.894  0.3025  0.4475  0.3196
 1965SOL    HW117357   2.029   1.254   4.954 -1.7320  0.5110 -1.5530
 1965SOL    HW217358   2.080   1.252   4.814  0.6975  1.4711  0.9685
 1966SOL     OW17359   3.187   2.714  17.101 -0.2131  0.3518  0.1162
 1966SOL    HW117360   3.212   2.665  17.179  0.7623 -0.3573 -0.6427
 1966SOL    HW217361   3.226   2.797  17.128  2.5115 -0.9523  0.2731
 1967SOL     OW17362   4.350   1.254   8.452  0.0501 -0.6620 -0.3162
 1967SOL    HW117363   4.415   1.287   8.514  0.5283 -0.2728 -1.0405
 1967SOL    HW217364   4.396   1.192   8.395 -0.8415  0.7952 -2.5776
 1968SOL     OW17365   4.594   3.280   0.310  0.4373  0.0492 -0.5928
 1968SOL    HW117366   4.549   3.343   0.254 -1.0140 -0.4689 -0.0095
 1968SOL    HW217367   4.677   3.276   0.264  0.4097 -3.7361 -0.3323
 1969SOL     OW17368   0.609   2.805   8.336 -0.0207  0.5373  0.4244
 1969SOL    HW117369   0.578   2.718   8.361 -1.5899  0.8962 -0.2823
 1969SOL    HW217370   0.552   2.837   8.267  0.8156 -0.5540 -0.7926
 1970SOL     OW17371   2.787   2.684  15.020  0.0874  0.2918  0.8846
 1970SOL    HW117372   2.845   2.744  14.973 -0.2814  0.1407  0.2344
 1970SOL    HW217373   2.786   2.725  15.107  0.9928 -1.8067  1.8701
 1971SOL     OW17374   2.453   2.658   0.106 -0.2926 -0.2962  0.3461
 1971SOL    HW117375   2.374   2.605   0.117 -0.2184 -0.2334  1.2048
 1971SOL    HW217376   2.415   2.720   0.043  0.7358  1.8089  1.7869
 1972SOL     OW17377   3.021   3.255  17.654  0.4273  0.4629 -0.7657
 1972SOL    HW117378   3.045   3.215  17.570 -0.1901 -0.3445 -0.5666
 1972SOL    HW217379   3.093   3.309  17.685 -0.7670  0.9882  1.1140
 1973SOL     OW17380   3.025   1.474   5.803 -1.1405  0.0792  0.3897
 1973SOL    HW117381   3.028   1.384   5.838  1.6278  0.0713  0.1665
 1973SOL    HW217382   3.048   1.523   5.882 -0.6671 -0.6038  0.6796
 1974SOL     OW17383   1.189   3.112   8.507 -0.3339  0.3900 -0.3139
 1974SOL    HW117384   1.281   3.089   8.518  0.1202  2.6061  0.5100
 1974SOL    HW217385   1.162   3.034   8.555 -0.0218  0.2298 -0.4009
 1975SOL     OW17386   0.415   3.171   6.722  0.0528 -0.3623 -0.5344
 1975SOL    HW117387   0.439   3.192   6.632 -0.2345  2.4515  0.0494
 1975SOL    HW217388   0.408   3.259   6.759 -0.3324 -1.2559  1.5256
 1976SOL     OW17389   1.461   4.303   2.000 -0.5846  0.4435 -0.3925
 1976SOL    HW117390   1.431   4.319   1.910 -0.1786 -1.4073 -0.8526
 1976SOL    HW217391   1.374   4.291   2.038  0.5355  1.6566  2.5135
 1977SOL     OW17392   1.989   2.586   0.060 -0.4011 -0.2097 -0.4730
 1977SOL    HW117393   2.076   2.602   0.024 -1.1325  0.2819 -2.0186
 1977SOL    HW217394   1.938   2.640  17.699 -2.3340 -0.0993  1.2580
 1978SOL     OW17395   1.314   2.568   3.187 -0.5021  0.2292 -0.0979
 1978SOL    HW117396   1.387   2.580   3.126 -0.9937 -0.5671 -0.8254
 1978SOL    HW217397   1.359   2.535   3.265  0.0195 -0.3967 -0.6631
 1979SOL     OW17398   2.727   2.544   7.682  0.7021 -0.1214  0.2740
 1979SOL    HW117399   2.658   2.610   7.678  0.6029 -0.2139  0.4630
 1979SOL    HW217400   2.699   2.499   7.762  0.6136  1.4126  1.1035
 1980SOL     OW17401   4.110   3.728   5.450  0.0556  0.7827 -0.1894
 1980SOL    HW117402   4.081   3.700   5.363  0.6718  0.6943 -0.3676
 1980SOL    HW217403   4.105   3.648   5.502 -1.1160  1.6651  1.0663
 1981SOL     OW17404   4.311   1.158   7.398  1.0260  0.6065  0.4600
 1981SOL    HW117405   4.356   1.078   7.422  0.6456 -0.1881 -1.4677
 1981SOL    HW217406   4.362   1.210   7.460  0.5909  1.8813 -0.2411
 1982SOL     OW17407   2.786   4.331   7.748  0.1263 -0.5357 -0.0968
 1982SOL    HW117408   2.767   4.409   7.800  1.8485  0.1037 -0.4445
 1982SOL    HW217409   2.870   4.358   7.711  0.8007 -2.4735  0.0321
 1983SOL     OW17410   2.125   2.057   6.009  0.2318  0.0352 -0.2734
 1983SOL    HW117411   2.032   2.053   6.030  0.3723  0.4581  0.4312
 1983SOL    HW217412   2.128   2.055   5.913 -0.2935  0.9439 -0.3166
 1984SOL     OW17413   3.661   2.204   4.285  0.1876 -0.2882  0.0848
 1984SOL    HW117414   3.620   2.180   4.368  1.4895 -2.2887  0.1548
 1984SOL    HW217415   3.752   2.195   4.311 -0.5468 -1.6109  2.2225
 1985SOL     OW17416   2.841   1.872   0.460  0.0442 -0.2850  0.3130
 1985SOL    HW117417   2.868   1.884   0.551 -0.2600  1.1062  0.2193
 1985SOL    HW217418   2.749   1.846   0.465 -0.0672 -0.2352 -1.3538
 1986SOL     OW17419   0.671   3.515   8.999 -0.4463 -0.2851  0.5084
 1986SOL    HW117420   0.733   3.481   9.064  0.6512  1.2458  0.2588
 1986SOL    HW217421   0.588   3.487   9.038 -0.9592 -0.2648 -0.5857
 1987SOL     OW17422   2.044   0.455   7.620 -0.6326  0.4410 -0.5237
 1987SOL    HW117423   2.062   0.361   7.628  2.1996  0.8976 -1.3587
 1987SOL    HW217424   2.019   0.475   7.710 -1.6627 -1.5647 -0.3699
 1988SOL     OW17425   3.158   2.707  12.513 -0.0937 -0.3924 -0.1136
 1988SOL    HW117426   3.245   2.742  12.532 -0.6232 -0.6416  2.7984
 1988SOL    HW217427   3.116   2.706  12.599  0.1747 -0.7209  0.0130
 1989SOL     OW17428   3.114   2.132   0.412 -0.3248 -0.3706  0.0365
 1989SOL    HW117429   3.203   2.109   0.388 -0.3297  0.2475 -0.5855
 1989SOL    HW217430   3.108   2.064   0.479  0.4900 -0.0699  0.4072
 1990SOL     OW17431   4.627   1.076   4.749  0.2212 -0.1301 -0.1136
 1990SOL    HW117432   4.720   1.090   4.730 -0.6071  3.0283 -1.7611
 1990SOL    HW217433   4.641   1.006   4.813  0.4487 -0.0623 -0.0879
 1991SOL     OW17434   2.738   4.664   6.795  0.0387  0.8706  0.1298
 1991SOL    HW117435   2.771   4.578   6.770  1.3933  0.3654  3.7729
 1991SOL    HW217436   2.662   4.653   6.852 -0.6792  2.2852 -0.5277
 1992SOL     OW17437   2.766   1.247   1.488 -0.0019  0.1732 -0.0567
 1992SOL    HW117438   2.760   1.273   1.396 -1.5004 -1.6282 -0.4527
 1992SOL    HW217439   2.860   1.258   1.506 -0.0803 -0.1026  0.5552
 1993SOL     OW17440   1.867   3.931   7.913  0.5338 -0.4777 -0.0264
 1993SOL    HW117441   1.941   3.925   7.973 -0.9498  2.1031  2.0490
 1993SOL    HW217442   1.804   3.985   7.960  1.5226  0.8196 -0.2289
 1994SOL     OW17443   1.339   1.321   1.605 -0.0320  0.3652  0.1810
 1994SOL    HW117444   1.430   1.328   1.635 -0.5949  1.5404  1.6581
 1994SOL    HW217445   1.303   1.340   1.692 -1.0458  1.5989 -0.5229
 1995SOL     OW17446   2.552   1.250   1.656 -0.4081 -0.1543 -0.0215
 1995SOL    HW117447   2.628   1.230   1.602 -3.4607 -1.9877 -3.5843
 1995SOL    HW217448   2.538   1.164   1.696 -1.2088  0.3002  0.6905
 1996SOL     OW17449   4.174   0.238  11.270  0.3681 -0.6715 -0.6317
 1996SOL    HW117450   4.254   0.276  11.235  0.0410  1.9353  1.4598
 1996SOL    HW217451   4.167   0.274  11.358 -2.3811 -2.1441 -0.2327
 1997SOL     OW17452   1.027   4.467   5.147  0.3800 -0.2083  0.4529
 1997SOL    HW117453   1.005   4.557   5.170  3.6734  0.5519  0.5476
 1997SOL    HW217454   1.108   4.472   5.096 -0.9461 -2.0165 -1.8622
 1998SOL     OW17455   2.773   2.854   3.289 -0.5479  0.2746  0.1349
 1998SOL    HW117456   2.814   2.923   3.236 -0.5392 -0.2321 -0.5154
 1998SOL    HW217457   2.691   2.855   3.239 -3.6242  1.2927  5.2477
 1999SOL     OW17458   1.555   4.293   0.568 -0.0025 -0.4356 -0.2841
 1999SOL    HW117459   1.543   4.261   0.657  0.1232  1.7457  0.5209
 1999SOL    HW217460   1.511   4.378   0.567 -1.3499 -1.1571 -2.0701
 2000SOL     OW17461   3.573   3.909  14.746 -0.1175  0.3648 -0.1057
 2000SOL    HW117462   3.524   3.975  14.696 -2.3126 -1.4758 -0.4112
 2000SOL    HW217463   3.640   3.897  14.679  0.3031 -1.1780  0.5877
 2001SOL     OW17464   2.210   4.558   5.494  0.0757  0.1712  0.3656
 2001SOL    HW117465   2.231   4.469   5.520  1.2192 -0.0254 -1.2628
 2001SOL    HW217466   2.173   4.554   5.407 -0.9182 -1.6527  0.8784
 2002SOL     OW17467   3.272   4.139   3.983  0.0916  0.2511 -0.2231
 2002SOL    HW117468   3.328   4.177   3.915 -0.0804 -0.6229 -0.8518
 2002SOL    HW217469   3.332   4.152   4.056 -0.0523  1.0843 -0.2510
 2003SOL     OW17470   2.846   2.252   8.170 -0.4619 -0.2717  0.6949
 2003SOL    HW117471   2.872   2.305   8.095  0.6961  0.2254  1.4478
 2003SOL    HW217472   2.798   2.174   8.142  0.5974 -0.1571 -1.4075
 2004SOL     OW17473   3.563   2.561  10.596  0.2596 -0.3609  0.1303
 2004SOL    HW117474   3.523   2.475  10.583  2.5720 -1.1935 -1.4774
 2004SOL    HW217475   3.629   2.551  10.665 -0.5472 -0.9289  0.8379
 2005SOL     OW17476   2.832   2.899   4.532 -0.6828 -0.6640  0.0486
 2005SOL    HW117477   2.886   2.915   4.609 -0.5335  1.5209 -0.5065
 2005SOL    HW217478   2.791   2.982   4.509  0.0016  0.1744  1.8382
 2006SOL     OW17479   0.717   1.312   3.360 -0.2033  0.1625 -0.2616
 2006SOL    HW117480   0.739   1.220   3.370  0.1011  0.1867 -0.6792
 2006SOL    HW217481   0.668   1.330   3.440  1.2712  2.7772  0.0810
 2007SOL     OW17482   0.266   0.624   4.032 -0.2401  0.6534 -0.3623
 2007SOL    HW117483   0.261   0.674   4.113  0.8009  0.1033  0.0426
 2007SOL    HW217484   0.353   0.584   4.041  0.6113  2.4344 -0.7678
 2008SOL     OW17485   3.669   4.200   9.022 -0.5072  0.0100 -0.2366
 2008SOL    HW117486   3.705   4.288   9.010  0.2589 -0.6491 -2.6718
 2008SOL    HW217487   3.587   4.211   8.974  0.5818  2.3470 -1.5223
 2009SOL     OW17488   1.237   1.532   8.216  0.2148  0.1913  0.0264
 2009SOL    HW117489   1.288   1.576   8.283 -0.0707  0.3572  0.1328
 2009SOL    HW217490   1.248   1.590   8.141  0.2158 -0.4309 -0.4627
 2010SOL     OW17491   1.997   1.714   0.882 -0.1328 -0.5460 -0.1828
 2010SOL    HW117492   2.037   1.763   0.810 -1.0496  2.3590  1.2460
 2010SOL    HW217493   1.961   1.795   0.919  0.7954 -0.5314  0.6980
 2011SOL     OW17494   4.427   3.263   0.077 -0.2945 -0.5856 -0.0184
 2011SOL    HW117495   4.384   3.310   0.148 -0.0048  0.3780 -0.4818
 2011SOL    HW217496   4.431   3.175   0.114 -1.0964 -0.8980 -0.6743
 2012SOL     OW17497   4.351   2.445  10.158  0.0812  0.1558  0.1830
 2012SOL    HW117498   4.272   2.483  10.195  0.2411  0.4075  0.2637
 2012SOL    HW217499   4.326   2.368  10.106  1.9417 -0.3170 -0.0237
 2013SOL     OW17500   0.213   1.037   3.153 -0.3039  0.4405  0.1466
 2013SOL    HW117501   0.158   1.114   3.168  1.6991  1.0236  4.5741
 2013SOL    HW217502   0.292   1.058   3.204 -0.4048  1.4356 -0.1211
 2014SOL     OW17503   0.368   0.953  16.694 -0.3194  0.3030  0.7629
 2014SOL    HW117504   0.326   0.895  16.757 -2.0546  2.2052  1.3467
 2014SOL    HW217505   0.294   1.013  16.685 -0.8425 -0.1281  2.2170
 2015SOL     OW17506   4.129   1.645   8.676 -0.1089  0.3027 -0.0860
 2015SOL    HW117507   4.128   1.549   8.674  1.3542  0.2570  1.2162
 2015SOL    HW217508   4.040   1.669   8.700  0.6940  2.3282  0.7972
 2016SOL     OW17509   2.507   2.903  11.611  0.6788 -0.2283  0.2410
 2016SOL    HW117510   2.588   2.854  11.592 -0.3359 -2.0043  0.5227
 2016SOL    HW217511   2.452   2.866  11.541  1.0499  0.3442 -0.3517
 2017SOL     OW17512   3.811   1.941   2.212  0.2691  0.5274  0.6641
 2017SOL    HW117513   3.728   1.951   2.258  0.4783 -0.6550  1.2861
 2017SOL    HW217514   3.799   1.858   2.165  0.4391  1.8577 -1.7505
 2018SOL     OW17515   3.128   1.331  10.312  0.7018 -0.1162 -0.8721
 2018SOL    HW117516   3.119   1.261  10.247 -0.4281 -0.7694 -0.0108
 2018SOL    HW217517   3.176   1.300  10.389  0.2316  0.7611 -0.2281
 2019SOL     OW17518   3.250   4.226   6.405 -0.4507 -0.4616  0.1385
 2019SOL    HW117519   3.316   4.159   6.386  0.1180 -0.2939  1.4625
 2019SOL    HW217520   3.285   4.296   6.349 -0.5300 -1.1747 -0.7949
 2020SOL     OW17521   2.305   3.934   9.190 -0.3235  0.4178  0.0762
 2020SOL    HW117522   2.248   3.887   9.251 -0.4209 -1.9230 -1.8447
 2020SOL    HW217523   2.388   3.887   9.187 -0.2207  0.6565 -0.7359
 2021SOL     OW17524   0.078   0.187   6.850  0.4787  0.2948 -0.2313
 2021SOL    HW117525   0.147   0.155   6.908  0.2452  1.0680  0.4873
 2021SOL    HW217526   0.080   0.114   6.789 -1.4048 -0.8284  1.0657
 2022SOL     OW17527   4.389   1.641  15.828  0.8531  0.9159  0.4598
 2022SOL    HW117528   4.448   1.716  15.820 -1.1117  2.2865 -1.2222
 2022SOL    HW217529   4.361   1.647  15.737  2.8189 -0.0425 -0.2187
 2023SOL     OW17530   4.252   1.618  14.960 -1.0841  0.4235  0.2652
 2023SOL    HW117531   4.322   1.683  14.950 -1.1731  0.6963  1.4516
 2023SOL    HW217532   4.189   1.658  14.900  0.7750  0.5663 -1.6080
 2024SOL     OW17533   1.759   1.170   5.534 -0.0196  0.1863 -0.2435
 2024SOL    HW117534   1.725   1.155   5.622  1.6434 -2.9954 -0.1545
 2024SOL    HW217535   1.729   1.261   5.523 -1.1301  0.1458  2.4844
 2025SOL     OW17536   0.871   4.453   2.767 -0.5358  0.3969 -0.3383
 2025SOL    HW117537   0.845   4.500   2.846 -2.4584 -0.4757 -0.4594
 2025SOL    HW217538   0.922   4.522   2.726  0.3513 -0.6751 -1.0369
 2026SOL     OW17539   4.314   1.383   5.441  0.1889  0.3688 -0.2901
 2026SOL    HW117540   4.226   1.401   5.408  1.0798  1.5899 -1.9770
 2026SOL    HW217541   4.368   1.435   5.382  0.0409  0.7690 -0.0749
 2027SOL     OW17542   2.826   3.143   9.704  0.7157 -0.0493 -0.3258
 2027SOL    HW117543   2.861   3.066   9.748  0.2026 -0.8290 -1.2757
 2027SOL    HW217544   2.800   3.105   9.620 -0.2039  1.8318 -0.9050
 2028SOL     OW17545   2.447   1.489   0.784  0.0308 -0.2809 -0.3801
 2028SOL    HW117546   2.369   1.509   0.836  1.1812  1.4563  0.6957
 2028SOL    HW217547   2.424   1.405   0.745  0.4300 -0.7339  0.3629
 2029SOL     OW17548   2.925   4.425   7.028  0.0993  0.5530 -0.5488
 2029SOL    HW117549   2.993   4.387   7.084 -2.0613 -1.8695  0.4295
 2029SOL    HW217550   2.978   4.496   6.991  1.0791  0.8226  1.3511
 2030SOL     OW17551   3.511   0.210   9.747 -0.2787 -0.2715  0.4956
 2030SOL    HW117552   3.431   0.193   9.698 -1.5205  0.2851  2.3304
 2030SOL    HW217553   3.571   0.189   9.675 -0.6321  2.2528 -0.5178
 2031SOL     OW17554   2.384   2.400   7.150  0.4358  1.0337 -0.0403
 2031SOL    HW117555   2.296   2.435   7.135  0.1062  0.5815  0.8179
 2031SOL    HW217556   2.419   2.460   7.216  1.5165  0.9275 -0.5152
 2032SOL     OW17557   3.400   2.738   3.773  0.1777 -0.2661 -0.0883
 2032SOL    HW117558   3.367   2.827   3.780  0.7144 -0.2872  2.6567
 2032SOL    HW217559   3.473   2.740   3.834 -2.0342 -3.1375  2.5913
 2033SOL     OW17560   3.745   0.078   6.865  0.0088  0.8305 -0.1530
 2033SOL    HW117561   3.734   0.168   6.898  0.9081  1.0040 -0.3358
 2033SOL    HW217562   3.700   0.080   6.781  0.4105 -0.1814 -0.3820
 2034SOL     OW17563   1.663   0.304  11.684 -0.5687 -0.4256 -0.7847
 2034SOL    HW117564   1.609   0.274  11.611  0.0932  0.5840 -1.6816
 2034SOL    HW217565   1.743   0.331  11.639 -0.7362 -0.3188 -1.0122
 2035SOL     OW17566   4.594   1.121  10.112 -0.0483  0.8344  0.8581
 2035SOL    HW117567   4.601   1.028  10.092  1.3030  1.0194  0.4913
 2035SOL    HW217568   4.567   1.121  10.204 -3.0054 -0.3735 -0.0071
 2036SOL     OW17569   0.717   2.034   8.544 -0.3871 -0.1140  0.0996
 2036SOL    HW117570   0.718   2.028   8.449 -1.6708 -0.9331  0.1402
 2036SOL    HW217571   0.765   1.958   8.578  0.5350 -0.0737 -1.0997
 2037SOL     OW17572   2.716   1.854   6.296  0.5860  0.2324  0.2554
 2037SOL    HW117573   2.720   1.806   6.379 -2.1255  1.4741  1.1255
 2037SOL    HW217574   2.790   1.914   6.297  0.7694  0.0069  0.2125
 2038SOL     OW17575   2.355   2.016   4.711  0.0363 -0.5410  0.1363
 2038SOL    HW117576   2.310   1.962   4.776  0.1913  1.4126  1.8720
 2038SOL    HW217577   2.306   2.003   4.629 -0.0716 -2.3292  0.4845
 2039SOL     OW17578   3.352   3.341  15.845 -0.0614  0.2069 -0.4630
 2039SOL    HW117579   3.262   3.366  15.865  0.4248  0.8005  0.9863
 2039SOL    HW217580   3.384   3.431  15.840  3.8845 -1.3062 -2.3049
 2040SOL     OW17581   2.974   1.413   1.019 -0.4687 -0.1496  0.5097
 2040SOL    HW117582   3.037   1.419   1.090  0.1103  0.7398 -0.0773
 2040SOL    HW217583   2.933   1.498   1.037  0.0822  0.4655 -1.1028
 2041SOL     OW17584   0.405   4.281   2.969  0.1067 -0.1352 -0.2790
 2041SOL    HW117585   0.449   4.202   2.998 -1.9959 -1.3227 -0.2952
 2041SOL    HW217586   0.380   4.319   3.053 -1.3386  1.0953 -1.2673
 2042SOL     OW17587   3.521   4.526   8.810  0.0711  0.1326 -0.3460
 2042SOL    HW117588   3.555   4.494   8.726  2.1707  1.0975  0.1368
 2042SOL    HW217589   3.426   4.527   8.797  0.0327 -0.1330 -0.0748
 2043SOL     OW17590   3.747   4.176   4.661  0.3555 -0.0100  0.0392
 2043SOL    HW117591   3.804   4.101   4.678  0.4780  0.0071 -0.2883
 2043SOL    HW217592   3.809   4.249   4.654  1.4053 -0.7630  1.3997
 2044SOL     OW17593   0.186   3.389   3.568 -0.2162  0.5314 -0.6912
 2044SOL    HW117594   0.271   3.431   3.551  0.9722 -1.3700  0.5450
 2044SOL    HW217595   0.183   3.399   3.663 -0.9210 -0.4151 -0.6191
 2045SOL     OW17596   4.306   0.456  11.176  0.0580  0.8906 -0.4885
 2045SOL    HW117597   4.318   0.530  11.236 -2.2294  0.3559  0.6067
 2045SOL    HW217598   4.393   0.418  11.162 -0.2506  0.3502 -0.8884
 2046SOL     OW17599   0.314   1.073  13.787 -0.1637  0.9314  0.7112
 2046SOL    HW117600   0.321   1.169  13.783 -0.0355  0.9460  1.2891
 2046SOL    HW217601   0.261   1.052  13.863 -0.8412  0.1665  0.0206
 2047SOL     OW17602   1.260   3.842   9.177  0.3431  0.6337  0.0311
 2047SOL    HW117603   1.193   3.776   9.192  0.2369  0.0511 -2.8981
 2047SOL    HW217604   1.334   3.807   9.227  0.4411 -0.1503 -0.6565
 2048SOL     OW17605   1.001   2.074   8.795  0.3043 -0.1344  0.5361
 2048SOL    HW117606   0.955   1.991   8.781 -0.1088 -0.0260  1.2585
 2048SOL    HW217607   1.048   2.095   8.714  0.1345 -1.7208  0.0354
 2049SOL     OW17608   0.485   4.003  15.934 -0.2650 -0.3919  0.0263
 2049SOL    HW117609   0.454   3.913  15.949  2.0365 -1.0901  0.6973
 2049SOL    HW217610   0.437   4.051  16.001 -1.2795 -0.4499 -0.6698
 2050SOL     OW17611   4.023   3.118   2.751 -0.3425 -0.2549  0.1749
 2050SOL    HW117612   4.113   3.148   2.765 -0.5360  0.6684 -0.5925
 2050SOL    HW217613   4.030   3.055   2.823 -0.9458  0.1137  0.5577
 2051SOL     OW17614   2.360   1.550   7.624  0.3402 -0.3088  0.4025
 2051SOL    HW117615   2.305   1.472   7.630 -1.8430  1.2108  0.2249
 2051SOL    HW217616   2.347   1.568   7.531  1.4401 -1.6392 -0.0083
 2052SOL     OW17617   3.862   3.579   2.699 -0.1755  0.3279  0.0880
 2052SOL    HW117618   3.849   3.486   2.716  0.8002  0.5261  1.9407
 2052SOL    HW217619   3.787   3.619   2.743  2.0144  1.5256  2.7461
 2053SOL     OW17620   3.344   1.014   2.716  0.0363 -0.0031  0.2427
 2053SOL    HW117621   3.317   1.079   2.782 -0.5348 -0.9841  0.9826
 2053SOL    HW217622   3.326   0.936   2.768 -1.3902 -1.8584 -3.0445
 2054SOL     OW17623   0.348   4.150  15.742  0.0538 -0.0614  0.2045
 2054SOL    HW117624   0.326   4.226  15.796 -0.0977  0.1106 -0.0988
 2054SOL    HW217625   0.381   4.086  15.805  2.7468  0.4727 -0.6715
 2055SOL     OW17626   3.036   3.170  10.640 -0.0263  0.3634 -0.0738
 2055SOL    HW117627   2.980   3.149  10.566  0.6710  1.2078 -0.8339
 2055SOL    HW217628   3.086   3.239  10.597  1.3698  0.5628  1.8782
 2056SOL     OW17629   0.706   0.016   3.234 -0.4702  0.1039 -0.3997
 2056SOL    HW117630   0.649   0.066   3.292 -0.1090  0.9226 -0.7476
 2056SOL    HW217631   0.784   0.054   3.274  0.2376  0.0746 -1.7282
 2057SOL     OW17632   3.676   0.155   3.823 -0.2297 -0.4703 -0.3423
 2057SOL    HW117633   3.704   0.240   3.788 -1.4809 -0.3985 -1.1623
 2057SOL    HW217634   3.752   0.124   3.873  0.7280  1.3443 -0.6772
 2058SOL     OW17635   0.742   4.207   7.644  0.2576 -0.2451 -0.1878
 2058SOL    HW117636   0.711   4.283   7.694  1.2004 -0.9764  1.5073
 2058SOL    HW217637   0.662   4.186   7.596 -0.3839  1.4942  0.1137
 2059SOL     OW17638   1.861   1.957  14.653  0.0481  0.0318 -0.4662
 2059SOL    HW117639   1.832   1.997  14.734  1.9659 -2.9520  1.7078
 2059SOL    HW217640   1.781   1.934  14.605  0.4565  1.0091 -1.6391
 2060SOL     OW17641   3.403   0.614  12.723 -0.0085  0.1676 -0.1192
 2060SOL    HW117642   3.424   0.680  12.658 -1.9376  1.6530  0.7699
 2060SOL    HW217643   3.359   0.550  12.666 -1.3358 -1.7415  3.0366
 2061SOL     OW17644   0.120   3.153   3.992 -0.4341  0.0687  0.7261
 2061SOL    HW117645   0.065   3.076   4.004 -0.6426  0.2827  1.1413
 2061SOL    HW217646   0.205   3.108   3.986 -0.0165  0.7903  1.1782
 2062SOL     OW17647   3.712   2.253  17.553 -0.3594  0.4203 -0.2518
 2062SOL    HW117648   3.669   2.316  17.495 -0.2453  1.8821  1.2394
 2062SOL    HW217649   3.642   2.189  17.545 -0.1227 -0.0332  1.3356
 2063SOL     OW17650   0.515   0.087   3.014  0.0527 -0.2085  0.1296
 2063SOL    HW117651   0.593   0.060   3.063  0.4252 -0.6492 -0.7099
 2063SOL    HW217652   0.528   0.181   3.024  0.3579 -0.3424  1.0126
 2064SOL     OW17653   0.443   3.321  15.166  0.2196  0.1024  0.3455
 2064SOL    HW117654   0.390   3.398  15.142  0.9379  0.1454 -1.0714
 2064SOL    HW217655   0.374   3.270  15.209  0.7746 -1.9757 -1.3010
 2065SOL     OW17656   0.054   2.218   8.129 -0.4597  0.6982 -0.5885
 2065SOL    HW117657   0.083   2.162   8.057  2.5008 -0.4181  1.4549
 2065SOL    HW217658   0.032   2.294   8.076 -0.0857  1.9498  1.0606
 2066SOL     OW17659   2.371   1.543  15.633  0.0654 -0.6713 -0.2756
 2066SOL    HW117660   2.426   1.465  15.632  1.2569  0.1625  0.0439
 2066SOL    HW217661   2.297   1.485  15.648 -1.1820  0.9322 -0.2205
 2067SOL     OW17662   4.308   2.549   8.555  0.2087  0.2529 -0.0152
 2067SOL    HW117663   4.229   2.505   8.589  0.7906 -0.5646  0.2684
 2067SOL    HW217664   4.372   2.488   8.591  1.5208 -0.0125 -2.8662
 2068SOL     OW17665   3.668   2.301   6.192 -0.0700  0.3794  0.3812
 2068SOL    HW117666   3.649   2.394   6.181 -1.2666  0.0960  0.1314
 2068SOL    HW217667   3.724   2.276   6.119 -1.2159  0.3467 -0.4787
 2069SOL     OW17668   4.514   3.244   4.962 -0.1123 -0.4043  0.9319
 2069SOL    HW117669   4.427   3.221   4.930 -0.2574 -0.5855  1.4597
 2069SOL    HW217670   4.568   3.204   4.894  0.0254  0.5283  0.4893
 2070SOL     OW17671   4.240   0.118  14.867 -0.2284 -0.2480 -0.5088
 2070SOL    HW117672   4.214   0.031  14.895  0.6689  0.4936  2.5507
 2070SOL    HW217673   4.198   0.125  14.781  1.3586 -0.4603 -1.2898
 2071SOL     OW17674   1.120   3.326   2.713  0.0190 -0.2666  0.6391
 2071SOL    HW117675   1.105   3.337   2.619  0.6806 -0.4065  0.5159
 2071SOL    HW217676   1.214   3.343   2.706  0.3575 -2.1384  0.5164
 2072SOL     OW17677   3.476   0.297   5.507  0.1929 -0.1825  0.3119
 2072SOL    HW117678   3.447   0.223   5.453  0.4903 -0.5808  0.6974
 2072SOL    HW217679   3.569   0.297   5.487  0.2935  0.2823  0.8064
 2073SOL     OW17680   4.222   2.043   0.620 -0.1156 -0.0295  0.0749
 2073SOL    HW117681   4.193   1.958   0.586  0.9011 -0.1374 -0.5384
 2073SOL    HW217682   4.293   2.064   0.559 -1.2193  1.7697 -0.5994
 2074SOL     OW17683   2.547   1.336   9.942 -0.5631  0.4340 -0.3711
 2074SOL    HW117684   2.620   1.315  10.001  1.3363  1.8367 -2.2206
 2074SOL    HW217685   2.494   1.400   9.990 -1.4145 -0.8531  0.4097
 2075SOL     OW17686   1.222   2.958   1.154  0.6940  0.4156  0.2808
 2075SOL    HW117687   1.190   2.883   1.104 -1.1860  1.7574 -0.5199
 2075SOL    HW217688   1.273   3.008   1.091  2.0701 -0.5146  0.6623
 2076SOL     OW17689   2.352   1.043   5.216 -0.0225  0.0318 -0.0970
 2076SOL    HW117690   2.325   1.129   5.186 -0.1041  0.0782  0.1091
 2076SOL    HW217691   2.427   1.070   5.269 -0.7485 -0.6530  1.2930
 2077SOL     OW17692   3.667   1.155   3.818 -0.2097 -0.1118 -0.1656
 2077SOL    HW117693   3.709   1.161   3.904  0.1243  1.2674 -0.4217
 2077SOL    HW217694   3.625   1.069   3.817  0.5789 -0.5079  0.4644
 2078SOL     OW17695   0.420   1.874   2.889 -0.4578  0.3500  0.5701
 2078SOL    HW117696   0.485   1.934   2.924 -0.6458 -0.2550  1.9378
 2078SOL    HW217697   0.391   1.927   2.815 -0.1689  1.0184  0.9448
 2079SOL     OW17698   4.037   1.423   9.986 -0.3371 -0.1697 -0.0005
 2079SOL    HW117699   3.995   1.340   9.965  0.2939  0.3892 -3.4816
 2079SOL    HW217700   4.071   1.409  10.074 -0.1810 -1.0107 -0.1934
 2080SOL     OW17701   0.942   3.857  15.616  0.5120  0.3236 -0.3318
 2080SOL    HW117702   1.013   3.855  15.681 -0.5676 -4.2741  0.6740
 2080SOL    HW217703   0.908   3.768  15.616  0.8711  0.1862 -0.0904
 2081SOL     OW17704   4.017   1.160   7.350  0.7108 -0.1233 -0.5795
 2081SOL    HW117705   4.020   1.221   7.276  0.3420 -0.9024 -1.2313
 2081SOL    HW217706   4.109   1.151   7.377  0.7815  2.1063 -0.0744
 2082SOL     OW17707   0.803   2.047   9.344  0.0517 -0.4132 -0.9551
 2082SOL    HW117708   0.851   1.967   9.322  0.0983 -0.4549 -0.7087
 2082SOL    HW217709   0.877   2.106   9.352  0.3082 -0.6870 -1.3103
 2083SOL     OW17710   0.107   2.578  12.658  0.2677  0.4131 -0.2819
 2083SOL    HW117711   0.176   2.530  12.613  0.4630 -0.1526  0.6314
 2083SOL    HW217712   0.124   2.662  12.615  1.7956  0.5174  0.5031
 2084SOL     OW17713   1.221   0.966   0.485 -0.1575 -0.1795 -0.3216
 2084SOL    HW117714   1.243   0.979   0.577  0.0898 -3.0045  0.0257
 2084SOL    HW217715   1.131   0.937   0.502 -0.4263  2.1269  2.1900
 2085SOL     OW17716   3.522   2.095   7.744  0.1326 -0.5125 -0.7917
 2085SOL    HW117717   3.496   2.151   7.817  1.5387  0.4774 -1.0530
 2085SOL    HW217718   3.439   2.094   7.695 -1.7274  1.3111  2.3180
 2086SOL     OW17719   1.233   4.292   7.687 -0.4894 -0.1079  0.1508
 2086SOL    HW117720   1.169   4.363   7.696  0.2970  0.3881  1.8141
 2086SOL    HW217721   1.178   4.214   7.691 -2.0650  1.1528  3.4349
 2087SOL     OW17722   2.463   1.303  14.485  0.5548 -0.2610  0.1141
 2087SOL    HW117723   2.463   1.220  14.533  1.7319 -1.4138 -1.9048
 2087SOL    HW217724   2.451   1.272  14.395  0.1531 -1.5515  0.6083
 2088SOL     OW17725   0.899   3.357   1.830 -0.7016 -0.4038 -1.0744
 2088SOL    HW117726   0.892   3.265   1.805 -1.8515 -1.0788  1.7352
 2088SOL    HW217727   0.919   3.340   1.922  0.2553  0.3551 -1.1380
 2089SOL     OW17728   1.755   4.601   3.273  0.3914 -0.7066  0.9259
 2089SOL    HW117729   1.802   4.557   3.202  4.4313  1.2710  2.3943
 2089SOL    HW217730   1.665   4.572   3.262  0.2549 -0.4046  1.2653
 2090SOL     OW17731   4.489   3.148  12.800  0.9720  0.0860 -0.6482
 2090SOL    HW117732   4.532   3.132  12.716 -0.2031  0.0572 -1.2455
 2090SOL    HW217733   4.564   3.179  12.851 -0.1429 -1.0266  1.6482
 2091SOL     OW17734   3.513   2.670  10.849 -0.0799  0.1463  0.1499
 2091SOL    HW117735   3.480   2.653  10.761 -1.6128  2.5595  0.2527
 2091SOL    HW217736   3.485   2.761  10.859  1.8509  0.4566  2.5695
 2092SOL     OW17737   0.762   1.380   9.898  0.5509 -0.2913 -0.7730
 2092SOL    HW117738   0.814   1.318   9.847 -0.6235 -0.7602 -1.3946
 2092SOL    HW217739   0.717   1.414   9.821  0.0512  0.2470 -0.2544
 2093SOL     OW17740   2.304   1.243   2.549 -1.0433  0.0098  0.0696
 2093SOL    HW117741   2.224   1.191   2.560 -0.8126 -0.9662 -2.9997
 2093SOL    HW217742   2.296   1.277   2.638  0.0899  0.1455  0.1127
 2094SOL     OW17743   0.408   2.111   7.751 -0.0442 -0.4300 -0.1142
 2094SOL    HW117744   0.480   2.135   7.693  1.3573  1.0694  2.2226
 2094SOL    HW217745   0.449   2.052   7.814 -1.0145 -0.3784  0.5698
 2095SOL     OW17746   0.838   2.113   4.804  0.7543  0.1700 -0.3028
 2095SOL    HW117747   0.925   2.079   4.782  1.1959  1.3580 -0.3553
 2095SOL    HW217748   0.835   2.191   4.749 -1.7595  1.9285  2.3699
 2096SOL     OW17749   3.167   1.301   3.737  0.1112  0.0425 -0.6881
 2096SOL    HW117750   3.074   1.320   3.730  0.4117  0.2317 -3.9893
 2096SOL    HW217751   3.193   1.310   3.646 -1.4856  3.0047 -0.8585
 2097SOL     OW17752   0.993   2.187   3.622  0.2661 -0.7979  0.0279
 2097SOL    HW117753   0.988   2.140   3.705  0.7535 -0.7305  0.0949
 2097SOL    HW217754   1.055   2.136   3.570  1.7328 -0.7374  1.7310
 2098SOL     OW17755   4.077   0.817   2.981 -0.1405  0.2819  0.2266
 2098SOL    HW117756   4.064   0.749   2.915  0.4687  0.0996  0.2979
 2098SOL    HW217757   4.166   0.837   2.952 -0.4624 -0.7534 -1.4554
 2099SOL     OW17758   0.023   3.079  16.699  0.2901 -0.4136  0.3148
 2099SOL    HW117759   0.089   3.025  16.654 -0.0944 -0.4593 -0.1964
 2099SOL    HW217760   4.716   3.015  16.764  0.4551 -1.7773 -0.9360
 2100SOL     OW17761   3.103   1.314   0.471 -0.2644  0.0319  0.2389
 2100SOL    HW117762   3.069   1.233   0.435 -1.1518  0.9490 -0.9441
 2100SOL    HW217763   3.196   1.311   0.449 -0.2334  1.2827  0.1934
 2101SOL     OW17764   1.798   4.501   1.545 -0.5698  0.2354  0.0963
 2101SOL    HW117765   1.885   4.484   1.581 -0.3766 -1.1211 -1.0622
 2101SOL    HW217766   1.795   4.597   1.551  0.8080  0.1554  2.0914
 2102SOL     OW17767   2.206   4.205   1.554 -0.0804  0.1747  0.1751
 2102SOL    HW117768   2.137   4.252   1.602 -0.6490  0.4246 -0.8850
 2102SOL    HW217769   2.252   4.283   1.524  0.6719 -0.9036 -1.4442
 2103SOL     OW17770   3.282   0.940   5.147  0.6268 -0.3120 -0.0066
 2103SOL    HW117771   3.206   0.971   5.098  1.3170 -0.0050 -0.8865
 2103SOL    HW217772   3.262   0.847   5.160 -0.2842 -0.5162 -2.8349
 2104SOL     OW17773   4.697   3.351   1.130  0.3725  0.0795  0.5740
 2104SOL    HW117774   4.668   3.265   1.160 -2.1462  0.9409  0.5758
 2104SOL    HW217775   0.062   3.336   1.161 -0.1836 -0.7828  1.7494
 2105SOL     OW17776   0.720   2.717   7.188  0.1220 -0.6610 -0.2662
 2105SOL    HW117777   0.641   2.664   7.180 -0.5691  0.2310  0.6312
 2105SOL    HW217778   0.685   2.806   7.199 -0.4213 -0.8871 -0.1957
 2106SOL     OW17779   2.804   2.504   5.290 -0.0743  0.1912  0.1876
 2106SOL    HW117780   2.860   2.524   5.215  2.2256 -2.3195  1.2306
 2106SOL    HW217781   2.809   2.409   5.282 -2.5653 -0.0618  1.8202
 2107SOL     OW17782   4.371   3.917   6.066  0.4939  0.1241 -0.4773
 2107SOL    HW117783   4.330   3.951   5.987 -0.6380 -1.7292 -0.6715
 2107SOL    HW217784   4.387   3.827   6.038  0.8007 -1.1909  3.9005
 2108SOL     OW17785   2.360   3.582   6.666  0.1470 -0.0036 -0.0020
 2108SOL    HW117786   2.423   3.524   6.709  1.2363  0.8498 -0.4248
 2108SOL    HW217787   2.279   3.551   6.706  1.0314 -1.3329  0.7820
 2109SOL     OW17788   3.330   0.868   7.666 -0.3875  0.5671 -0.5976
 2109SOL    HW117789   3.240   0.899   7.673 -0.5163  0.3521 -1.3809
 2109SOL    HW217790   3.340   0.839   7.576 -0.6418 -0.4194 -0.3106
 2110SOL     OW17791   3.387   0.974   6.344 -0.4627 -0.4845 -0.6359
 2110SOL    HW117792   3.322   0.936   6.403 -0.8304 -1.3149 -1.5931
 2110SOL    HW217793   3.453   0.905   6.338  0.7982  0.4763  2.0372
 2111SOL     OW17794   2.336   4.252   6.759 -0.2674 -0.0288 -0.5275
 2111SOL    HW117795   2.253   4.298   6.746 -0.4615 -0.0115  0.7358
 2111SOL    HW217796   2.342   4.201   6.678  1.6923  1.3113 -1.2062
 2112SOL     OW17797   2.937   2.419   1.491  0.2812  0.0758  0.5440
 2112SOL    HW117798   2.879   2.399   1.564 -0.4171 -0.6519 -0.2176
 2112SOL    HW217799   3.018   2.397   1.538  0.8215  0.9019 -0.0096
 2113SOL     OW17800   1.426   2.916   0.667  0.4657 -0.2304 -0.1876
 2113SOL    HW117801   1.476   2.834   0.666 -1.5144 -1.4707  1.5173
 2113SOL    HW217802   1.344   2.874   0.642  0.3325 -0.4410  0.5935
 2114SOL     OW17803   0.266   2.542   9.687  0.0107 -0.4572 -0.3142
 2114SOL    HW117804   0.362   2.537   9.688 -0.0435 -1.2563  0.4175
 2114SOL    HW217805   0.267   2.638   9.688 -1.5763 -0.4162 -1.8856
 2115SOL     OW17806   3.459   3.472   7.168  0.0043 -0.0888  0.4641
 2115SOL    HW117807   3.379   3.517   7.196 -1.5560 -0.1160 -3.9462
 2115SOL    HW217808   3.508   3.480   7.250  0.1415  1.9633  0.1866
 2116SOL     OW17809   1.613   4.185   8.520 -0.1306 -0.8292  0.0976
 2116SOL    HW117810   1.622   4.254   8.586 -0.2434  0.0018 -0.7469
 2116SOL    HW217811   1.548   4.131   8.564  0.6275 -2.6339 -1.0121
 2117SOL     OW17812   4.620   0.160   4.434 -0.4466  0.3742 -0.3126
 2117SOL    HW117813   4.612   0.076   4.390  0.9187 -0.7452  1.5597
 2117SOL    HW217814   4.639   0.215   4.357 -3.7175 -0.1909 -1.4880
 2118SOL     OW17815   3.041   2.359  13.458  0.4196  0.5439  0.1725
 2118SOL    HW117816   2.974   2.403  13.510 -0.8208  0.2394 -1.1513
 2118SOL    HW217817   3.012   2.270  13.481 -3.1094  1.9785  1.2479
 2119SOL     OW17818   2.186   3.087   3.826 -0.2465  0.8661  0.1669
 2119SOL    HW117819   2.258   3.070   3.766  0.1013  0.3457  0.7377
 2119SOL    HW217820   2.149   2.999   3.822 -0.5189  1.0533 -1.4121
 2120SOL     OW17821   2.878   0.967   3.951 -0.0489 -0.2637  0.4489
 2120SOL    HW117822   2.929   1.041   3.983 -2.8816  1.2826  1.3040
 2120SOL    HW217823   2.788   0.983   3.980 -0.6736 -1.8554 -0.6187
 2121SOL     OW17824   1.048   1.584   6.635  0.1309  0.1959 -0.6615
 2121SOL    HW117825   1.077   1.666   6.677  1.8304 -1.4629  1.4038
 2121SOL    HW217826   1.129   1.546   6.603  0.8166  1.4807 -0.4865
 2122SOL     OW17827   2.768   4.373   4.828  0.2824 -0.1424 -0.1539
 2122SOL    HW117828   2.833   4.436   4.795  1.1776 -0.4568  1.0182
 2122SOL    HW217829   2.689   4.414   4.794  0.1559  0.0017  0.3149
 2123SOL     OW17830   4.594   1.875   4.555  0.0071  0.4592  1.0591
 2123SOL    HW117831   4.684   1.908   4.548 -1.2882  3.2403 -2.2763
 2123SOL    HW217832   4.550   1.953   4.588 -0.9904  0.2901  0.1082
 2124SOL     OW17833   3.279   1.469   3.904 -0.2853 -0.1992  0.2328
 2124SOL    HW117834   3.236   1.406   3.847 -4.2390  0.8529  1.9765
 2124SOL    HW217835   3.221   1.545   3.894  1.3564  1.2975  2.0097
 2125SOL     OW17836   0.953   1.567  10.462  0.1038 -0.5434 -0.2231
 2125SOL    HW117837   0.921   1.518  10.538  1.7965 -0.7181  0.3761
 2125SOL    HW217838   1.039   1.595  10.493 -0.2443  0.2960 -0.0459
 2126SOL     OW17839   3.814   3.478  17.361 -0.2948  0.2661  0.2041
 2126SOL    HW117840   3.844   3.542  17.297 -3.7857  0.4704 -1.2466
 2126SOL    HW217841   3.740   3.434  17.319 -0.6261  0.1427  0.9093
 2127SOL     OW17842   4.272   4.026   5.812 -0.1761  0.6336  0.0174
 2127SOL    HW117843   4.289   4.120   5.807 -2.1724  1.0733  1.4545
 2127SOL    HW217844   4.291   3.981   5.729  0.8651  0.1158  0.5381
 2128SOL     OW17845   1.053   0.149   5.719  0.9127 -0.6154 -0.7267
 2128SOL    HW117846   1.082   0.240   5.717 -1.3444  0.1099 -0.2552
 2128SOL    HW217847   1.095   0.126   5.802 -0.3538  0.1930  0.1590
 2129SOL     OW17848   3.524   3.980  14.312  0.3416  0.6396 -0.1147
 2129SOL    HW117849   3.531   4.070  14.280  2.3045  0.2838 -0.6637
 2129SOL    HW217850   3.607   3.943  14.282  0.7692  1.8560 -0.4382
 2130SOL     OW17851   4.469   2.007   1.059 -0.3235  0.1048  0.8027
 2130SOL    HW117852   4.393   2.018   1.115 -0.2762 -0.0566  0.8986
 2130SOL    HW217853   4.444   1.945   0.990  2.1423  0.2768 -0.2462
 2131SOL     OW17854   3.663   1.052   8.873 -0.2659 -0.2214  0.2938
 2131SOL    HW117855   3.602   1.081   8.941  1.5904  3.9574  0.1623
 2131SOL    HW217856   3.732   1.013   8.928  1.0389 -0.4539 -1.4943
 2132SOL     OW17857   0.963   0.698   6.518  0.5891 -0.5361 -0.2879
 2132SOL    HW117858   1.002   0.765   6.574  3.5466 -1.2442 -1.5190
 2132SOL    HW217859   0.895   0.741   6.466 -1.0955 -2.8804 -0.0028
 2133SOL     OW17860   0.327   3.215  10.675  0.1763 -0.0523  0.4258
 2133SOL    HW117861   0.308   3.240  10.585  2.5118  1.9482  0.4976
 2133SOL    HW217862   0.417   3.238  10.700  0.2381 -0.6129  0.7288
 2134SOL     OW17863   3.393   0.651   6.209  0.0705 -0.3319 -0.0765
 2134SOL    HW117864   3.423   0.592   6.278  0.7077 -1.0780 -0.9808
 2134SOL    HW217865   3.466   0.714   6.204 -0.7198  0.6302  0.5517
 2135SOL     OW17866   2.184   2.088  16.861  0.2642 -0.1442 -0.1742
 2135SOL    HW117867   2.250   2.019  16.864  1.6908  1.2564  0.3717
 2135SOL    HW217868   2.235   2.165  16.884 -0.7737  0.6512 -0.5184
 2136SOL     OW17869   0.491   1.478   2.774  0.3045 -0.0865 -0.3388
 2136SOL    HW117870   0.516   1.458   2.864 -0.4913 -1.2792 -0.3881
 2136SOL    HW217871   0.414   1.422   2.765  1.2125 -1.4261  0.1885
 2137SOL     OW17872   1.903   2.138   1.453  0.5897 -0.1745 -0.2631
 2137SOL    HW117873   1.881   2.124   1.361 -2.2728  0.7540  0.3016
 2137SOL    HW217874   1.812   2.152   1.478  1.3780  1.6673  1.5317
 2138SOL     OW17875   2.668   3.402  17.543  0.2687  0.3947 -0.6140
 2138SOL    HW117876   2.574   3.420  17.548 -0.2444 -2.3054 -0.8202
 2138SOL    HW217877   2.675   3.391  17.448 -1.4726 -0.5435 -0.6371
 2139SOL     OW17878   0.552   1.361   4.191  0.1784  0.1890  0.2695
 2139SOL    HW117879   0.519   1.409   4.267  2.5804 -1.2759  2.2433
 2139SOL    HW217880   0.493   1.288   4.172  0.1523 -0.0634  1.3231
 2140SOL     OW17881   4.294   2.435   3.289 -0.0404 -0.2980 -0.4281
 2140SOL    HW117882   4.218   2.383   3.264  0.9555 -1.3196 -1.3142
 2140SOL    HW217883   4.273   2.516   3.243  0.1257 -1.6738 -2.9047
 2141SOL     OW17884   0.966   3.963   8.969  0.5831  0.2338 -0.4580
 2141SOL    HW117885   0.988   4.053   8.948 -0.3235  0.1410 -1.7835
 2141SOL    HW217886   1.044   3.925   8.928  2.3441  1.5321  1.6828
 2142SOL     OW17887   1.162   0.281   0.692  0.3690 -0.2595  0.0374
 2142SOL    HW117888   1.164   0.368   0.733  1.3342  0.1564 -0.8827
 2142SOL    HW217889   1.128   0.229   0.765 -0.4495 -0.5051 -0.5231
 2143SOL     OW17890   0.910   3.383   5.221 -0.1325 -0.6105  0.0477
 2143SOL    HW117891   0.962   3.458   5.251 -1.7330  0.6860 -0.4289
 2143SOL    HW217892   0.833   3.374   5.278 -1.3581  0.1540 -1.5077
 2144SOL     OW17893   0.669   4.654   4.692  0.3481 -0.3341  0.2835
 2144SOL    HW117894   0.692   4.724   4.752 -1.8783  0.3818  0.2997
 2144SOL    HW217895   0.634   4.584   4.747 -0.7118  0.0108  0.0404
 2145SOL     OW17896   1.474   1.220   4.987  0.5530  0.5022  0.4539
 2145SOL    HW117897   1.423   1.202   4.908 -1.1513 -2.0497  2.1330
 2145SOL    HW217898   1.404   1.225   5.052  0.4644  0.8404  0.3326
 2146SOL     OW17899   3.077   2.414  12.592 -0.1602 -0.2357  0.0175
 2146SOL    HW117900   3.108   2.447  12.677 -1.3202 -0.3410  0.4881
 2146SOL    HW217901   3.128   2.475  12.540 -1.8319  0.5316 -0.7385
 2147SOL     OW17902   1.062   1.846   7.361 -0.5372  0.1029  0.1501
 2147SOL    HW117903   0.967   1.859   7.363 -0.6819 -1.3558  2.8467
 2147SOL    HW217904   1.076   1.852   7.266 -1.2991 -0.5208 -0.0082
 2148SOL     OW17905   1.777   1.723   7.668 -0.1514 -0.3890 -0.1632
 2148SOL    HW117906   1.819   1.789   7.613  0.3794 -0.9302 -0.4136
 2148SOL    HW217907   1.688   1.748   7.642 -0.4516  0.1382  1.3570
 2149SOL     OW17908   1.538   3.498  17.099  0.9384  0.6679 -0.3322
 2149SOL    HW117909   1.525   3.403  17.103  0.2219  0.7534 -0.6396
 2149SOL    HW217910   1.554   3.513  17.192  0.5546  0.1909 -0.1870
 2150SOL     OW17911   4.145   0.109   6.463 -0.5564 -0.0605  0.3955
 2150SOL    HW117912   4.183   0.021   6.471  1.0294  0.8059  2.7132
 2150SOL    HW217913   4.227   0.158   6.476 -0.4015  0.0856 -1.2338
 2151SOL     OW17914   1.646   4.480   5.567 -0.1448 -0.6135  0.0013
 2151SOL    HW117915   1.602   4.529   5.636 -1.6932 -1.3208 -0.4859
 2151SOL    HW217916   1.579   4.417   5.541 -0.5671  0.0195 -0.4174
 2152SOL     OW17917   1.878   3.785  12.554  0.4988 -0.0222  0.3933
 2152SOL    HW117918   1.969   3.760  12.565 -0.3188 -3.2443 -0.1257
 2152SOL    HW217919   1.864   3.846  12.626  0.8455 -0.4535  0.8225
 2153SOL     OW17920   2.018   1.588   8.456  0.8338 -1.0042  0.6264
 2153SOL    HW117921   2.090   1.621   8.403  2.0292 -1.1377  2.1632
 2153SOL    HW217922   2.031   1.493   8.463 -0.8041 -1.5191 -3.0518
 2154SOL     OW17923   0.847   4.098   1.746 -0.4800 -0.0759 -0.6334
 2154SOL    HW117924   0.820   4.014   1.709 -0.2947  0.0565 -1.0638
 2154SOL    HW217925   0.917   4.122   1.686  0.3403 -1.7245 -0.3167
 2155SOL     OW17926   1.697   0.678   2.918 -0.2286 -0.0201 -0.7600
 2155SOL    HW117927   1.765   0.612   2.904  0.4141  0.3087  0.7744
 2155SOL    HW217928   1.740   0.758   2.888  0.4876 -0.3908 -0.7403
 2156SOL     OW17929   2.118   1.944   5.161  0.6551  0.2968 -0.5800
 2156SOL    HW117930   2.094   1.862   5.205  3.0026  0.7152  1.4813
 2156SOL    HW217931   2.054   2.006   5.195  1.7611  1.3794 -0.4730
 2157SOL     OW17932   3.863   2.566   8.252  0.2072  0.5064  0.5650
 2157SOL    HW117933   3.795   2.513   8.212  0.4814  1.1540 -0.7689
 2157SOL    HW217934   3.864   2.523   8.338  2.5991 -0.5525  0.0320
 2158SOL     OW17935   4.376   0.588  17.468 -0.0271  0.0354  0.4455
 2158SOL    HW117936   4.376   0.560  17.376 -1.3648  0.4742  0.3094
 2158SOL    HW217937   4.461   0.633  17.466  0.7485 -1.5666 -2.2041
 2159SOL     OW17938   1.467   0.567   3.141 -0.1001 -0.2994 -0.4472
 2159SOL    HW117939   1.495   0.498   3.201  0.6331  0.4192  0.0280
 2159SOL    HW217940   1.546   0.585   3.090  0.0763 -0.8120 -0.3572
 2160SOL     OW17941   2.502   3.111   4.336  0.3835  0.5042 -0.1597
 2160SOL    HW117942   2.447   3.190   4.333 -1.8939 -1.0855 -0.0204
 2160SOL    HW217943   2.430   3.048   4.328 -0.5108  1.5280 -0.1493
 2161SOL     OW17944   1.953   1.694  11.915 -0.3095  0.4849  0.6748
 2161SOL    HW117945   1.874   1.646  11.889  1.5377 -1.9614 -0.3593
 2161SOL    HW217946   1.904   1.757  11.969 -1.9609  1.4446 -1.9500
 2162SOL     OW17947   2.983   3.655   9.868 -0.1741 -0.5737  0.1615
 2162SOL    HW117948   3.051   3.719   9.888  1.2685 -2.0372 -0.0688
 2162SOL    HW217949   3.033   3.584   9.828 -0.1388 -0.7508  0.5205
 2163SOL     OW17950   4.688   3.688   7.723 -0.2865 -0.0658  0.5226
 2163SOL    HW117951   4.636   3.725   7.651  0.4832 -2.1071 -1.0938
 2163SOL    HW217952   4.629   3.700   7.797 -2.2447 -1.2650 -0.8147
 2164SOL     OW17953   3.380   3.537   4.729  0.2473 -0.4441 -0.0439
 2164SOL    HW117954   3.338   3.615   4.764  1.9848  0.1770  0.6121
 2164SOL    HW217955   3.469   3.565   4.748  0.4809 -0.4101 -1.1895
 2165SOL     OW17956   4.567   2.185   7.486 -0.0557 -0.2679 -0.2235
 2165SOL    HW117957   4.631   2.243   7.528  0.5484 -0.0582 -1.4461
 2165SOL    HW217958   4.607   2.155   7.405 -0.3857 -1.7749  0.1756
 2166SOL     OW17959   2.884   1.053   4.776  0.1223 -0.3958 -0.2294
 2166SOL    HW117960   2.833   1.134   4.776  2.1343  0.8694 -0.0122
 2166SOL    HW217961   2.818   0.992   4.745  1.7211 -1.2301 -2.0286
 2167SOL     OW17962   2.191   4.297   5.838 -0.0394  0.0677  0.7998
 2167SOL    HW117963   2.282   4.325   5.849  0.2414 -0.4948 -0.1868
 2167SOL    HW217964   2.149   4.383   5.825  0.9489  0.1514 -1.7202
 2168SOL     OW17965   4.669   4.483  16.759  0.3387 -0.1156  0.4464
 2168SOL    HW117966   4.639   4.400  16.723  4.2728 -1.4649  0.3182
 2168SOL    HW217967   4.673   4.460  16.851  2.0447 -0.8523  0.1948
 2169SOL     OW17968   4.659   4.639   9.781 -0.0924 -0.1319 -0.8196
 2169SOL    HW117969   4.724   4.586   9.826 -1.6854  0.1995  1.8569
 2169SOL    HW217970   4.714   4.654   9.704  1.2342 -0.2976  0.0936
 2170SOL     OW17971   2.840   1.344   5.673 -0.3728  0.3723 -0.2475
 2170SOL    HW117972   2.803   1.326   5.759  1.8664 -0.7458  0.4756
 2170SOL    HW217973   2.913   1.387   5.717 -1.1233 -0.6403  1.9385
 2171SOL     OW17974   1.613   2.459  11.938  0.0959  0.3518 -0.2891
 2171SOL    HW117975   1.534   2.443  11.886 -0.4615 -1.8874  1.2134
 2171SOL    HW217976   1.604   2.542  11.986 -0.5421  0.5537 -0.7542
 2172SOL     OW17977   1.869   2.794   5.479  0.2604  0.6504  0.4605
 2172SOL    HW117978   1.961   2.786   5.454  0.4570  0.7129  1.1627
 2172SOL    HW217979   1.881   2.809   5.573 -0.2301  0.7902  0.4997
 2173SOL     OW17980   4.194   1.874   5.923  0.0780  0.4369 -0.5899
 2173SOL    HW117981   4.165   1.813   5.856 -2.9083  0.7974  0.3664
 2173SOL    HW217982   4.191   1.955   5.872  0.0034  2.5767  2.7387
 2174SOL     OW17983   3.686   1.646  13.097  0.6746  0.0907  0.2294
 2174SOL    HW117984   3.710   1.553  13.093  2.1104  0.4126  1.6453
 2174SOL    HW217985   3.682   1.664  13.191  0.2801 -1.5313  0.5426
 2175SOL     OW17986   0.951   4.664  11.296  0.2544  0.4814  0.0485
 2175SOL    HW117987   1.028   4.672  11.239 -0.5192 -0.4688 -1.1576
 2175SOL    HW217988   0.910   4.600  11.237  0.1681  0.2162  0.3974
 2176SOL     OW17989   2.057   0.676   6.490  0.2410  0.4383 -0.3814
 2176SOL    HW117990   2.041   0.587   6.461  1.8049  0.6809 -1.9685
 2176SOL    HW217991   2.048   0.725   6.409  2.6153 -0.3962 -1.1495
 2177SOL     OW17992   4.703   3.927   8.459  0.5493 -0.1517  0.3380
 2177SOL    HW117993   0.042   3.972   8.404 -0.2380 -0.8574 -1.1735
 2177SOL    HW217994   4.649   3.998   8.492  1.0332 -0.8817  2.6429
 2178SOL     OW17995   3.219   2.988   3.673 -0.9809 -0.4140  0.2284
 2178SOL    HW117996   3.131   3.019   3.652 -0.9828 -0.0872  0.7229
 2178SOL    HW217997   3.244   3.056   3.736  1.4739 -0.5123 -0.6233
 2179SOL     OW17998   1.375   1.940  12.929 -0.0950 -0.6630 -0.2731
 2179SOL    HW117999   1.336   2.014  12.975  2.8256  0.6936 -0.0167
 2179SOL    HW218000   1.364   1.977  12.842  0.0016  1.4588  0.6170
 2180SOL     OW18001   3.532   3.276   2.288 -0.5222  0.2952  0.3083
 2180SOL    HW118002   3.611   3.330   2.291 -0.9078  0.8587  0.2840
 2180SOL    HW218003   3.522   3.230   2.372  0.9485  1.1081  0.9263
 2181SOL     OW18004   1.116   3.976   3.841 -1.0434 -0.3093  0.0496
 2181SOL    HW118005   1.054   4.049   3.833 -1.8624 -0.8194  1.7542
 2181SOL    HW218006   1.104   3.964   3.935 -1.8571 -0.4971 -0.0722
 2182SOL     OW18007   3.604   1.201   5.410  0.0545  0.3200  0.0265
 2182SOL    HW118008   3.555   1.283   5.417 -1.9536 -0.9684  0.9207
 2182SOL    HW218009   3.623   1.199   5.503 -0.5538  1.0346  0.1642
 2183SOL     OW18010   4.316   2.432  13.722  0.1971 -0.3802  0.2516
 2183SOL    HW118011   4.314   2.510  13.778  3.2861  0.4818 -0.8148
 2183SOL    HW218012   4.394   2.381  13.743  0.2137 -0.8604 -0.9287
 2184SOL     OW18013   3.824   4.129   5.958 -0.1337  0.0419  0.1993
 2184SOL    HW118014   3.838   4.158   5.868 -0.5571 -2.3536 -0.6335
 2184SOL    HW218015   3.758   4.063   5.935 -0.4745  0.5469 -0.2660
 2185SOL     OW18016   1.355   2.659   2.825 -0.4525  0.0114  0.2464
 2185SOL    HW118017   1.267   2.641   2.858 -0.6508 -0.5645 -0.6130
 2185SOL    HW218018   1.362   2.755   2.820 -1.5287  0.2400  2.7219
 2186SOL     OW18019   0.784   0.936   4.837 -0.5068  0.1206 -0.2449
 2186SOL    HW118020   0.830   1.005   4.885 -0.1808 -1.6496  1.9962
 2186SOL    HW218021   0.693   0.957   4.857 -0.5209  2.8350 -3.1388
 2187SOL     OW18022   4.380   4.529   3.016  0.2595 -0.5679  0.3077
 2187SOL    HW118023   4.458   4.576   3.047  0.2275 -1.0215  1.0772
 2187SOL    HW218024   4.391   4.440   3.050 -0.9334 -0.8174  0.0347
 2188SOL     OW18025   2.164   0.407   4.052 -0.0537 -0.6062 -0.9346
 2188SOL    HW118026   2.209   0.483   4.087 -2.6404  0.0710  0.8634
 2188SOL    HW218027   2.193   0.421   3.962  0.3512  0.4805 -0.6367
 2189SOL     OW18028   3.105   2.354   1.746 -0.0611  0.0492  0.1513
 2189SOL    HW118029   3.199   2.351   1.765 -0.1893 -2.0304  0.4152
 2189SOL    HW218030   3.061   2.353   1.831 -0.2979 -3.5592 -0.0095
 2190SOL     OW18031   0.745   1.252   7.298 -0.1215 -0.1573  0.4838
 2190SOL    HW118032   0.798   1.327   7.327 -0.1313 -0.2750  0.8119
 2190SOL    HW218033   0.763   1.192   7.371 -1.5756 -0.5551  0.5145
 2191SOL     OW18034   3.344   2.298  14.965 -0.5388 -0.4248  0.2448
 2191SOL    HW118035   3.371   2.374  14.914  0.3522 -1.2067 -0.4627
 2191SOL    HW218036   3.294   2.352  15.026 -0.7297 -1.2089  0.7859
 2192SOL     OW18037   4.282   0.423   2.726  0.1716 -0.1211 -0.2081
 2192SOL    HW118038   4.345   0.408   2.655 -0.9082 -0.9100 -1.0053
 2192SOL    HW218039   4.270   0.334   2.758 -0.2548  0.6130  1.6795
 2193SOL     OW18040   2.567   0.251   3.857 -0.0329 -0.3496  0.6107
 2193SOL    HW118041   2.622   0.318   3.817  0.3653 -0.2518  1.3169
 2193SOL    HW218042   2.493   0.258   3.796  1.6620  0.9790 -1.2846
 2194SOL     OW18043   3.533   0.879  11.920  0.1701 -0.1793 -0.0586
 2194SOL    HW118044   3.578   0.891  11.837 -0.7073  1.1052 -0.3501
 2194SOL    HW218045   3.479   0.956  11.940 -0.7006 -0.7700 -0.1189
 2195SOL     OW18046   1.541   4.569  11.518 -0.2729  0.6619 -0.0786
 2195SOL    HW118047   1.538   4.572  11.614 -0.4879 -2.8436  0.0254
 2195SOL    HW218048   1.512   4.481  11.493 -1.2907  1.4022 -1.5090
 2196SOL     OW18049   2.304   1.153   7.358 -0.0455  0.8484 -0.1545
 2196SOL    HW118050   2.347   1.238   7.342  0.0888  1.0267  1.1714
 2196SOL    HW218051   2.220   1.196   7.371  0.3413  1.5657  0.0028
 2197SOL     OW18052   3.755   3.616   9.289 -0.3011 -0.0834  0.4534
 2197SOL    HW118053   3.692   3.596   9.359 -2.0259  0.7837 -0.8277
 2197SOL    HW218054   3.696   3.597   9.216 -0.1887 -1.4189  0.7143
 2198SOL     OW18055   0.184   4.322   4.129 -0.0226 -0.3298  0.1035
 2198SOL    HW118056   0.178   4.373   4.210 -0.6355  0.5209 -0.4793
 2198SOL    HW218057   0.174   4.390   4.062 -2.6265 -0.4616  0.3800
 2199SOL     OW18058   2.449   3.978  10.544 -0.5140 -0.5753 -0.5003
 2199SOL    HW118059   2.509   4.015  10.609  0.2161 -0.8505 -1.0164
 2199SOL    HW218060   2.494   3.898  10.518 -0.5327 -1.4662  2.1675
 2200SOL     OW18061   3.699   3.453   8.307  0.0170  0.2558  0.2115
 2200SOL    HW118062   3.741   3.490   8.229  1.4367  1.2471  1.4503
 2200SOL    HW218063   3.774   3.406   8.342  0.9934  1.9913  0.4728
 2201SOL     OW18064   2.685   1.647  13.579 -0.2031  0.6656 -0.5617
 2201SOL    HW118065   2.623   1.593  13.628  0.0276  1.0300  0.1388
 2201SOL    HW218066   2.648   1.731  13.606  0.8054  0.4569  1.5061
 2202SOL     OW18067   2.585   0.299   8.947  0.0005  0.0299 -0.4505
 2202SOL    HW118068   2.597   0.222   9.003 -2.5410  0.3436  0.5108
 2202SOL    HW218069   2.569   0.374   9.004 -0.8798 -0.7907  0.3699
 2203SOL     OW18070   4.686   0.338   1.788 -0.5374 -0.5144 -0.6182
 2203SOL    HW118071   4.637   0.286   1.724  0.4917 -0.2265 -1.6576
 2203SOL    HW218072   0.041   0.286   1.803  0.2679  0.9486  0.2850
 2204SOL     OW18073   0.606   2.436  16.008  0.4501 -0.4333  0.0579
 2204SOL    HW118074   0.616   2.341  16.006  0.7291 -0.4421  2.1118
 2204SOL    HW218075   0.619   2.449  15.914  2.7505  3.8887  0.9812
 2205SOL     OW18076   1.510   2.897   4.269  0.0166  0.0901 -0.1863
 2205SOL    HW118077   1.507   2.847   4.351 -0.5672 -2.2832 -1.6564
 2205SOL    HW218078   1.473   2.978   4.302 -0.6699  0.3171 -1.5373
 2206SOL     OW18079   4.514   0.837   3.857 -0.4237  0.2738  0.0017
 2206SOL    HW118080   4.433   0.802   3.820  0.0001 -0.2413 -0.4281
 2206SOL    HW218081   4.555   0.846   3.770  0.1790  0.0160  0.2596
 2207SOL     OW18082   3.228   3.508  11.838 -0.4211  0.6596  0.2325
 2207SOL    HW118083   3.243   3.443  11.906  0.2904  1.3290  0.7315
 2207SOL    HW218084   3.237   3.452  11.762 -3.2444  0.8951 -0.2430
 2208SOL     OW18085   0.235   0.246   1.794 -0.2252  0.8154 -0.0342
 2208SOL    HW118086   0.262   0.200   1.873  0.3249  1.4821  0.1651
 2208SOL    HW218087   0.240   0.339   1.817  0.9580  0.3817  1.3990
 2209SOL     OW18088   2.181   2.133   6.730 -0.5467  0.4878  0.1246
 2209SOL    HW118089   2.240   2.159   6.659  1.3415 -3.9231  0.0681
 2209SOL    HW218090   2.218   2.051   6.761  1.5291  0.4963 -2.3168
 2210SOL     OW18091   2.825   0.642   8.009 -0.1331  0.2108  0.0739
 2210SOL    HW118092   2.798   0.731   8.032 -3.3392 -0.1446 -2.3105
 2210SOL    HW218093   2.767   0.618   7.937  1.9005  0.2227 -1.5419
 2211SOL     OW18094   3.951   2.737   2.003  0.4606  0.2744 -0.2608
 2211SOL    HW118095   3.963   2.769   2.092 -2.4020 -1.5607  0.7615
 2211SOL    HW218096   3.951   2.823   1.960 -0.9222  1.1142  1.4373
 2212SOL     OW18097   0.562   3.579  11.166 -0.0110 -0.0619 -0.0172
 2212SOL    HW118098   0.470   3.608  11.162  0.4307  1.3625  0.2896
 2212SOL    HW218099   0.598   3.616  11.246 -2.6948  0.3963  0.9816
 2213SOL     OW18100   1.182   2.333  10.113  0.2128 -0.5027  0.0937
 2213SOL    HW118101   1.238   2.268  10.070  0.9552  1.6890 -2.2386
 2213SOL    HW218102   1.128   2.273  10.164 -2.8799  2.3397  0.1387
 2214SOL     OW18103   0.909   1.113   8.507  0.0279 -0.3810 -0.0409
 2214SOL    HW118104   0.891   1.206   8.489  1.3059  0.1720  1.5101
 2214SOL    HW218105   0.877   1.118   8.597 -0.2081  1.5467 -0.2188
 2215SOL     OW18106   3.769   0.421   2.700 -0.2092 -0.3494 -0.2780
 2215SOL    HW118107   3.838   0.413   2.635 -0.0460 -1.7942  0.0857
 2215SOL    HW218108   3.695   0.378   2.658 -0.7241 -0.0175  0.2889
 2216SOL     OW18109   4.519   2.017   0.486 -0.2707 -0.0898 -0.6663
 2216SOL    HW118110   4.595   2.012   0.428 -0.2907  1.1160 -0.7986
 2216SOL    HW218111   4.560   1.999   0.571  0.2744 -0.1299 -0.9382
 2217SOL     OW18112   0.766   3.561   2.123  0.1209 -0.2079 -0.3777
 2217SOL    HW118113   0.682   3.583   2.163  0.4680 -1.8846  1.2689
 2217SOL    HW218114   0.736   3.549   2.032  0.8174  1.3968 -0.8137
 2218SOL     OW18115   3.490   2.074  15.056 -0.5987  1.1743 -0.5229
 2218SOL    HW118116   3.409   2.023  15.059 -0.3362  0.8155  0.5942
 2218SOL    HW218117   3.447   2.158  15.039  1.1043  1.9708 -0.8625
 2219SOL     OW18118   1.276   1.455   3.176  0.6812 -0.2270 -0.1494
 2219SOL    HW118119   1.315   1.541   3.165 -0.5304  0.3762  0.2271
 2219SOL    HW218120   1.224   1.447   3.096 -0.1100  0.9527  0.2510
 2220SOL     OW18121   3.820   4.647   3.672  0.2962 -0.4096  0.3683
 2220SOL    HW118122   3.726   4.632   3.670  0.1803  0.2219  0.8232
 2220SOL    HW218123   3.827   0.002   3.620 -0.4163  0.5250  1.6926
 2221SOL     OW18124   0.077   1.561   2.405  0.2393  0.7098 -0.1700
 2221SOL    HW118125   0.064   1.504   2.481 -0.7648 -0.2110 -1.0269
 2221SOL    HW218126   0.173   1.558   2.405  0.2234  0.0398  0.4858
 2222SOL     OW18127   3.539   0.937  11.171  0.0906  0.2451  0.0424
 2222SOL    HW118128   3.455   0.922  11.215  1.6616 -0.2247  2.8164
 2222SOL    HW218129   3.518   0.920  11.079  1.6563 -0.4496 -0.1830
 2223SOL     OW18130   2.910   3.593   8.442  0.3758 -0.3174 -0.1972
 2223SOL    HW118131   2.985   3.604   8.384  1.5765 -1.0664  1.2110
 2223SOL    HW218132   2.896   3.499   8.429  0.8708 -0.4205  0.0456
 2224SOL     OW18133   2.136   1.954  11.393 -0.1177 -0.5962  0.1835
 2224SOL    HW118134   2.200   1.890  11.362  0.2723 -0.6554  1.1081
 2224SOL    HW218135   2.168   1.992  11.475 -1.6662  2.1576 -0.5175
 2225SOL     OW18136   0.038   4.116   5.183 -0.8475 -0.0074  0.1380
 2225SOL    HW118137   0.006   4.136   5.095  0.3138 -1.1973 -0.5540
 2225SOL    HW218138   4.719   4.032   5.199  1.6790 -0.8947  2.3600
 2226SOL     OW18139   1.249   4.271  12.266  1.0144  0.1087  0.3153
 2226SOL    HW118140   1.310   4.339  12.238  0.9314  0.4396  0.9152
 2226SOL    HW218141   1.288   4.247  12.350 -1.6602 -1.1382  1.2069
 2227SOL     OW18142   1.689   4.465   4.994  0.0110 -0.6929 -0.1117
 2227SOL    HW118143   1.677   4.553   5.030  2.1907 -0.5645  0.2812
 2227SOL    HW218144   1.765   4.493   4.944 -0.8941 -0.9188 -1.6090
 2228SOL     OW18145   3.141   0.820   8.626  0.1173  0.0251  0.3109
 2228SOL    HW118146   3.207   0.863   8.680 -0.3441 -0.8042  1.5290
 2228SOL    HW218147   3.185   0.827   8.542  0.0535  1.8296  0.4218
 2229SOL     OW18148   2.311   2.895  17.643  0.1313 -0.3195  0.4217
 2229SOL    HW118149   2.295   2.860  17.555  0.9110  0.0104  0.1434
 2229SOL    HW218150   2.396   2.937  17.626 -1.0974  1.6782 -0.8075
 2230SOL     OW18151   0.806   3.652  10.941 -0.8206 -0.1233  0.2688
 2230SOL    HW118152   0.848   3.594  11.005  1.2773  0.3800 -0.6460
 2230SOL    HW218153   0.880   3.710  10.922 -0.6138 -0.0488  1.2878
 2231SOL     OW18154   3.401   2.221   6.318  0.0788 -0.2737  0.6983
 2231SOL    HW118155   3.481   2.238   6.268  0.5178 -1.9517  0.8176
 2231SOL    HW218156   3.423   2.262   6.402  1.3325  0.9243 -0.2091
 2232SOL     OW18157   1.850   3.246   3.695 -0.2807 -0.9230 -0.4658
 2232SOL    HW118158   1.879   3.197   3.772 -2.3296 -0.1320  0.8087
 2232SOL    HW218159   1.783   3.305   3.730  0.6353  0.0867 -0.4404
 2233SOL     OW18160   2.459   2.330   0.643 -0.0814  0.3814 -0.0595
 2233SOL    HW118161   2.554   2.337   0.634  0.1352 -1.4687  0.8223
 2233SOL    HW218162   2.433   2.421   0.660 -0.8260  0.0567  0.5250
 2234SOL     OW18163   3.387   0.267   7.867 -0.6084 -0.0798  0.1758
 2234SOL    HW118164   3.370   0.362   7.868  0.1419  0.0979 -3.4740
 2234SOL    HW218165   3.449   0.262   7.939 -0.4117 -0.7151 -0.0400
 2235SOL     OW18166   1.172   2.062   8.582 -0.1097 -0.0083  0.0036
 2235SOL    HW118167   1.221   1.985   8.610 -0.3766  0.4801  1.8258
 2235SOL    HW218168   1.241   2.120   8.549  0.4030  0.5386  2.0755
 2236SOL     OW18169   2.030   0.836   0.674 -0.4319  0.8835  0.2893
 2236SOL    HW118170   2.047   0.930   0.675  0.3950  0.7193  1.1763
 2236SOL    HW218171   1.939   0.830   0.704  0.3872 -1.2623  2.3460
 2237SOL     OW18172   3.779   0.890   3.586  0.1435 -0.0948 -0.0573
 2237SOL    HW118173   3.725   0.925   3.515 -0.7261  1.2812  1.2949
 2237SOL    HW218174   3.720   0.872   3.659  0.0085 -1.2396 -0.4476
 2238SOL     OW18175   4.194   1.850  11.290  0.2400  0.2809  0.2273
 2238SOL    HW118176   4.132   1.801  11.343 -0.8945  1.5058  0.0189
 2238SOL    HW218177   4.238   1.903  11.356  1.1176  0.6289 -0.6342
 2239SOL     OW18178   1.763   2.930   8.933 -0.1362  0.3058  0.4013
 2239SOL    HW118179   1.747   2.984   9.010 -1.0930 -0.5775  0.8017
 2239SOL    HW218180   1.674   2.900   8.918 -0.4358  2.0698 -1.4442
 2240SOL     OW18181   2.864   0.273  15.911 -0.3266 -0.0472  0.1241
 2240SOL    HW118182   2.842   0.366  15.912 -2.3614 -0.5248 -1.3119
 2240SOL    HW218183   2.878   0.258  16.005  2.4114 -2.3748 -0.6425
 2241SOL     OW18184   4.296   0.897  15.888 -0.1300  0.3793  0.5462
 2241SOL    HW118185   4.237   0.919  15.960 -3.4230 -0.6849 -1.8676
 2241SOL    HW218186   4.320   0.985  15.857 -3.1524  0.2856 -1.9544
 2242SOL     OW18187   4.690   0.904   4.956  0.1558  0.3030  0.2850
 2242SOL    HW118188   4.672   0.810   4.959 -0.6412  0.3868 -2.0235
 2242SOL    HW218189   4.633   0.933   5.027 -0.1916  1.2512 -0.3808
 2243SOL     OW18190   4.159   2.281   1.054 -0.8113 -0.1682 -0.3735
 2243SOL    HW118191   4.204   2.365   1.045 -1.3945  0.3178  1.3012
 2243SOL    HW218192   4.187   2.233   0.976  1.9952  0.8225  0.0409
 2244SOL     OW18193   4.372   0.996   1.213  0.8209  0.0268  0.1688
 2244SOL    HW118194   4.427   1.028   1.284  0.3206  0.1118  0.5221
 2244SOL    HW218195   4.412   1.036   1.136  2.0765 -2.2757 -0.3673
 2245SOL     OW18196   1.685   0.333  13.627  0.5157 -0.3296  0.1429
 2245SOL    HW118197   1.742   0.263  13.595  0.8499 -0.1050  0.2425
 2245SOL    HW218198   1.604   0.340  13.578  1.0043  1.0216 -0.4799
 2246SOL     OW18199   3.255   1.475   5.165 -0.1167  0.6862 -0.3101
 2246SOL    HW118200   3.215   1.433   5.241  0.8203 -1.1282 -0.8341
 2246SOL    HW218201   3.306   1.543   5.210 -0.6832  0.0115  1.3515
 2247SOL     OW18202   3.651   0.373   7.410 -0.0401 -0.2206  0.0781
 2247SOL    HW118203   3.667   0.288   7.369 -0.4796 -1.0035  1.5302
 2247SOL    HW218204   3.739   0.409   7.418 -1.3188  2.3456  2.5876
 2248SOL     OW18205   2.660   1.507   5.538 -0.2265 -0.5288  0.2917
 2248SOL    HW118206   2.723   1.460   5.593  0.7807  0.4866  0.0143
 2248SOL    HW218207   2.597   1.438   5.517 -1.6110  0.8184  0.0647
 2249SOL     OW18208   2.316   0.706   3.809  0.4588 -0.5759  0.4166
 2249SOL    HW118209   2.393   0.654   3.832  0.6246 -0.3391  0.4069
 2249SOL    HW218210   2.360   0.756   3.740 -2.0597 -1.2208 -1.6359
 2250SOL     OW18211   3.705   1.018   5.181  0.5677  0.7023  0.1367
 2250SOL    HW118212   3.657   1.058   5.108  0.3023 -1.2675 -0.7778
 2250SOL    HW218213   3.676   1.068   5.257  0.3982  2.3435 -1.0252
 2251SOL     OW18214   3.693   3.712   4.809 -0.3880 -0.2035 -0.1108
 2251SOL    HW118215   3.759   3.691   4.742 -0.8877 -0.0160 -0.6619
 2251SOL    HW218216   3.664   3.802   4.795 -1.4113 -0.3065  1.3451
 2252SOL     OW18217   1.420   2.716   8.061  0.2974  0.3411 -0.4847
 2252SOL    HW118218   1.339   2.742   8.105 -0.1221 -3.2130  0.7728
 2252SOL    HW218219   1.476   2.772   8.115 -0.2094  0.9460 -0.5803
 2253SOL     OW18220   0.706   3.776  15.403  0.2465  0.3232  0.7575
 2253SOL    HW118221   0.714   3.682  15.383 -0.8620  0.3713  0.0323
 2253SOL    HW218222   0.776   3.807  15.345  0.1500 -1.9431 -0.5712
 2254SOL     OW18223   4.681   1.967  12.948 -0.0178 -0.3470 -0.0476
 2254SOL    HW118224   0.051   1.950  12.956  0.3012  1.3254 -0.2784
 2254SOL    HW218225   4.644   1.880  12.962 -4.5665  1.6327  0.2264
 2255SOL     OW18226   3.748   0.166   6.422 -0.2334 -0.3387 -0.3402
 2255SOL    HW118227   3.663   0.207   6.406 -0.6892 -0.5668  1.4509
 2255SOL    HW218228   3.800   0.228   6.474 -0.1365 -2.0872  1.6703
 2256SOL     OW18229   4.264   3.084   8.422  0.1687 -0.0598 -0.1271
 2256SOL    HW118230   4.269   3.177   8.397  0.7769 -0.5008 -1.6371
 2256SOL    HW218231   4.272   3.092   8.517  0.9495 -1.5221 -0.0655
 2257SOL     OW18232   4.106   3.946   8.464 -0.0989 -0.4705 -0.0171
 2257SOL    HW118233   4.187   3.994   8.478 -0.1867 -0.0600 -0.9556
 2257SOL    HW218234   4.126   3.900   8.383 -0.5077 -0.7998  0.0672
 2258SOL     OW18235   1.330   2.161   2.525 -0.2934 -0.5009 -0.0058
 2258SOL    HW118236   1.396   2.187   2.462 -0.7706  0.9808  0.1020
 2258SOL    HW218237   1.262   2.227   2.513  0.0551  0.1439  1.5388
 2259SOL     OW18238   1.499   2.783  17.636  0.1448 -1.0517  0.4438
 2259SOL    HW118239   1.499   2.874  17.667 -2.5833 -0.4516 -1.2381
 2259SOL    HW218240   1.522   2.804  17.545  0.2761 -2.3181  0.1901
 2260SOL     OW18241   0.684   4.027   0.042  0.4339 -0.0647  0.1756
 2260SOL    HW118242   0.709   4.094   0.106  2.0777 -0.0835 -0.4691
 2260SOL    HW218243   0.745   4.059  17.675  0.7733 -2.5668 -0.7060
 2261SOL     OW18244   4.020   1.135   8.764 -0.4941  0.9370  0.1775
 2261SOL    HW118245   4.090   1.073   8.744  0.6418  1.8961  1.1367
 2261SOL    HW218246   3.948   1.081   8.733 -0.8890  0.9376  1.1016
 2262SOL     OW18247   4.539   4.651   3.592  0.0462  0.2354  0.0472
 2262SOL    HW118248   4.496   4.670   3.509  1.5314 -0.8539 -0.9735
 2262SOL    HW218249   4.630   4.680   3.589 -0.2061  0.7549 -2.8836
 2263SOL     OW18250   1.542   3.170  13.456 -0.4464 -0.5498 -0.6019
 2263SOL    HW118251   1.521   3.207  13.542 -2.0291 -0.4339 -1.0451
 2263SOL    HW218252   1.518   3.080  13.477 -1.3197  0.3130  2.1376
 2264SOL     OW18253   2.726   0.845   8.511 -0.1485 -0.3558 -0.1214
 2264SOL    HW118254   2.763   0.769   8.556 -2.1120 -0.5658  1.1239
 2264SOL    HW218255   2.691   0.809   8.429 -4.5534  0.1467  1.5638
 2265SOL     OW18256   1.021   4.226  13.895  0.0734 -0.3645 -0.4827
 2265SOL    HW118257   1.051   4.157  13.953  2.5968 -0.2149 -1.6096
 2265SOL    HW218258   1.094   4.229  13.833  0.2307 -0.7909 -0.3141
 2266SOL     OW18259   2.366   4.430   2.331 -0.1089  0.3794  0.4911
 2266SOL    HW118260   2.361   4.396   2.241 -1.0713  0.5222  0.4981
 2266SOL    HW218261   2.302   4.500   2.322 -0.0557  0.4597  0.7604
 2267SOL     OW18262   4.611   3.516   6.150 -0.3023 -0.1703  0.2408
 2267SOL    HW118263   4.677   3.482   6.089  1.1740  2.9295  0.0963
 2267SOL    HW218264   4.601   3.445   6.212 -3.7906  0.7509  0.7047
 2268SOL     OW18265   4.282   1.282   3.212  0.6664 -0.0311 -0.4655
 2268SOL    HW118266   4.333   1.202   3.201 -1.7830 -1.8409  1.6619
 2268SOL    HW218267   4.191   1.254   3.204  1.0042 -0.9148 -1.2185
 2269SOL     OW18268   4.006   3.687   3.942  0.0898  0.4810 -0.6834
 2269SOL    HW118269   3.986   3.659   3.852  0.4260  0.6142 -0.8022
 2269SOL    HW218270   3.973   3.776   3.931  1.2551  0.8431 -1.3401
 2270SOL     OW18271   1.854   2.049   5.206  0.6937 -0.1816  0.2525
 2270SOL    HW118272   1.812   1.966   5.181 -1.9147  0.7943  1.3280
 2270SOL    HW218273   1.801   2.111   5.156 -1.6528 -0.7743  1.9700
 2271SOL     OW18274   1.218   0.489   3.069 -0.9902  0.0809  0.4810
 2271SOL    HW118275   1.309   0.504   3.092 -0.7989  3.1168 -2.2944
 2271SOL    HW218276   1.237   0.422   3.004  0.2845  0.9650 -0.0512
 2272SOL     OW18277   3.854   0.588   0.776  0.1597  0.4314 -0.6193
 2272SOL    HW118278   3.896   0.555   0.697 -2.6593 -0.7556 -1.6156
 2272SOL    HW218279   3.937   0.609   0.819 -0.3635 -0.6306  0.8887
 2273SOL     OW18280   2.059   1.291  11.175  0.4634 -0.0271  0.4378
 2273SOL    HW118281   2.034   1.229  11.106  2.5068 -1.4132  0.9189
 2273SOL    HW218282   2.007   1.261  11.249  0.0944  0.7054  0.4760
 2274SOL     OW18283   1.142   0.815   5.491 -0.0864 -0.8191  0.0249
 2274SOL    HW118284   1.136   0.763   5.572 -0.0983  1.7249  1.6350
 2274SOL    HW218285   1.224   0.779   5.456 -0.3845  0.4205 -1.9332
 2275SOL     OW18286   0.804   2.139   3.357  0.4269  0.7618  0.0333
 2275SOL    HW118287   0.851   2.190   3.423 -0.1671  0.9678  0.2905
 2275SOL    HW218288   0.784   2.202   3.288 -0.1124  1.2865  0.6715
 2276SOL     OW18289   3.416   1.463  16.885  0.7904 -0.4374  0.1141
 2276SOL    HW118290   3.365   1.399  16.936  1.3163 -1.2942 -0.4234
 2276SOL    HW218291   3.403   1.429  16.796  3.5289 -4.6227  1.2714
 2277SOL     OW18292   3.989   0.435   5.618 -0.1514 -0.4817 -0.1814
 2277SOL    HW118293   4.078   0.448   5.586 -1.1262 -0.0509 -2.6357
 2277SOL    HW218294   4.013   0.356   5.667 -0.3010 -1.3720 -1.5597
 2278SOL     OW18295   3.590   2.819  11.899  0.3933 -0.4739 -0.1349
 2278SOL    HW118296   3.599   2.729  11.869 -0.1036 -0.6466  0.2356
 2278SOL    HW218297   3.679   2.841  11.929 -0.1859 -0.8842  1.8415
 2279SOL     OW18298   1.496   4.667  15.846 -0.0290 -0.1673 -0.8233
 2279SOL    HW118299   1.428   4.651  15.911 -0.3293  0.7014 -0.9278
 2279SOL    HW218300   1.488   4.586  15.795  2.0893 -0.7314 -0.2504
 2280SOL     OW18301   0.967   1.823   9.943  0.1681  0.3801 -0.1591
 2280SOL    HW118302   1.040   1.793   9.997  0.2199 -0.4437 -0.6723
 2280SOL    HW218303   0.937   1.738   9.909  0.4831  0.1099  0.2248
 2281SOL     OW18304   1.176   2.090   3.454 -0.4394  0.1755 -0.7589
 2281SOL    HW118305   1.211   2.160   3.398  0.7570  0.1783 -0.0362
 2281SOL    HW218306   1.223   2.021   3.408  1.3044  0.4405  0.6162
 2282SOL     OW18307   4.229   0.434  15.381  0.3606 -0.1959 -0.0512
 2282SOL    HW118308   4.170   0.418  15.307 -0.4438  2.0673  0.0945
 2282SOL    HW218309   4.236   0.530  15.377  0.3251 -0.2505 -1.4265
 2283SOL     OW18310   2.608   2.150  12.732 -0.2557 -0.8735 -0.4590
 2283SOL    HW118311   2.639   2.098  12.658  2.0881  0.5904 -0.4968
 2283SOL    HW218312   2.682   2.207  12.751 -1.4810  0.2942  0.7821
 2284SOL     OW18313   3.205   3.319  14.420  0.3201 -0.4405  0.2897
 2284SOL    HW118314   3.160   3.306  14.503  2.0367  2.6591  1.6864
 2284SOL    HW218315   3.280   3.366  14.455 -1.3016 -0.1090  3.2840
 2285SOL     OW18316   3.025   2.105   1.780  0.1742  0.1912  0.1603
 2285SOL    HW118317   2.931   2.117   1.771  0.4620  1.1497 -1.5245
 2285SOL    HW218318   3.062   2.186   1.745  0.6858 -0.0974  0.0295
 2286SOL     OW18319   1.928   0.026   6.987  0.3071 -0.6359 -0.6887
 2286SOL    HW118320   1.896   4.715   7.071 -1.3716  1.1346 -0.5650
 2286SOL    HW218321   1.845   0.060   6.954 -1.0459 -0.8037  2.4693
 2287SOL     OW18322   0.610   1.755  14.737  0.6085 -0.1961 -0.3731
 2287SOL    HW118323   0.660   1.796  14.667 -1.0327  0.6950 -1.0196
 2287SOL    HW218324   0.630   1.825  14.799 -2.0909 -0.5516  0.8997
 2288SOL     OW18325   2.195   2.944  15.487 -0.4281 -0.3778 -0.1663
 2288SOL    HW118326   2.142   2.864  15.496 -0.8442 -0.0163  0.5888
 2288SOL    HW218327   2.221   2.962  15.578  0.4672 -1.4497 -0.2116
 2289SOL     OW18328   0.270   4.131   5.355 -0.4660  0.4285  0.0742
 2289SOL    HW118329   0.200   4.124   5.290 -0.9283 -2.2949  0.8748
 2289SOL    HW218330   0.340   4.154   5.293 -0.0195  1.9317  1.1339
 2290SOL     OW18331   1.800   4.259   2.281  0.0450 -0.0858  0.1706
 2290SOL    HW118332   1.756   4.343   2.295  0.2315 -0.1171  0.9418
 2290SOL    HW218333   1.891   4.283   2.262 -0.5709  1.3667 -0.9422
 2291SOL     OW18334   2.075   4.303  16.110 -1.0711 -0.1356 -0.1056
 2291SOL    HW118335   2.094   4.324  16.201 -1.4514 -0.8871  0.1394
 2291SOL    HW218336   2.033   4.381  16.074 -0.6556 -0.5332 -1.4734
 2292SOL     OW18337   1.770   2.964   4.435  0.1504  0.1053 -0.2253
 2292SOL    HW118338   1.735   3.005   4.515 -0.8314 -2.9921  0.9369
 2292SOL    HW218339   1.774   3.042   4.380 -0.1862 -0.2323 -0.7199
 2293SOL     OW18340   0.839   1.268   5.108 -0.0869 -0.1589  0.4896
 2293SOL    HW118341   0.776   1.200   5.133  1.3436 -3.0940 -3.8158
 2293SOL    HW218342   0.858   1.297   5.197 -1.4731  2.3664 -0.0652
 2294SOL     OW18343   3.165   1.919   1.640 -0.4441 -0.2162 -0.1605
 2294SOL    HW118344   3.163   1.843   1.699  1.5198  0.2767  0.5370
 2294SOL    HW218345   3.117   1.977   1.699 -0.7006  0.5418 -1.1165
 2295SOL     OW18346   1.517   0.215   1.890  0.5627 -0.1138  0.4773
 2295SOL    HW118347   1.608   0.197   1.911  0.2903 -0.6139  1.2032
 2295SOL    HW218348   1.486   0.129   1.863  1.5343 -0.7023  1.2838
 2296SOL     OW18349   1.225   3.867   8.903  0.2678 -0.1539  0.6698
 2296SOL    HW118350   1.318   3.845   8.896 -0.1921 -0.9803 -3.2081
 2296SOL    HW218351   1.199   3.832   8.988  0.4480 -0.7112  0.4963
 2297SOL     OW18352   2.649   1.693   9.681  0.6417 -0.3804 -0.0257
 2297SOL    HW118353   2.568   1.643   9.673 -0.8349  2.0966 -0.6687
 2297SOL    HW218354   2.633   1.750   9.606 -2.6211 -1.0538  0.1388
 2298SOL     OW18355   0.593   2.486   4.842  0.3672  0.4796 -0.5397
 2298SOL    HW118356   0.530   2.537   4.791 -0.5606  1.9808  2.0768
 2298SOL    HW218357   0.653   2.555   4.870 -1.2344  1.9319 -0.6996
 2299SOL     OW18358   2.648   2.645   8.903  0.0004 -0.2507  0.2002
 2299SOL    HW118359   2.695   2.693   8.834 -1.1300 -0.7114 -0.9011
 2299SOL    HW218360   2.626   2.715   8.965  0.1792 -0.7248  0.7939
 2300SOL     OW18361   4.374   3.395   2.492  0.1937  0.1751 -0.1466
 2300SOL    HW118362   4.293   3.429   2.456  0.8627  1.3975 -0.4826
 2300SOL    HW218363   4.436   3.465   2.472  0.6624  0.3175  1.8661
 2301SOL     OW18364   4.152   1.631   2.140  0.4137 -0.0227  0.1431
 2301SOL    HW118365   4.203   1.578   2.079 -0.4781 -1.4740  0.6626
 2301SOL    HW218366   4.067   1.597   2.111  0.1396 -0.0544  0.9762
 2302SOL     OW18367   2.318   0.645   1.126 -0.2225  0.0392  0.1165
 2302SOL    HW118368   2.391   0.662   1.067 -0.1196  1.4724  0.6450
 2302SOL    HW218369   2.371   0.631   1.205 -2.2333 -0.1499  1.4307
 2303SOL     OW18370   2.987   4.619  13.467 -0.1090  0.2793 -0.1332
 2303SOL    HW118371   2.906   4.571  13.483  1.2722 -1.5555  1.4696
 2303SOL    HW218372   3.056   4.552  13.470 -0.2262  0.1572 -0.2050
 2304SOL     OW18373   0.487   4.289   1.782  0.1656 -0.0969  0.0431
 2304SOL    HW118374   0.404   4.276   1.736  0.5653  0.0292 -0.7284
 2304SOL    HW218375   0.541   4.311   1.706  2.7722 -1.0437  1.6108
 2305SOL     OW18376   3.841   1.151   2.095  0.1036 -0.0029  0.6269
 2305SOL    HW118377   3.886   1.071   2.067 -0.8150 -0.5351  0.6780
 2305SOL    HW218378   3.811   1.124   2.182 -1.2925  0.6116  0.3403
 2306SOL     OW18379   3.181   2.274   3.372  0.0892  0.0431 -0.2531
 2306SOL    HW118380   3.168   2.346   3.310  0.4967 -0.3985 -0.8555
 2306SOL    HW218381   3.093   2.243   3.394  0.6789  0.3393  2.5230
 2307SOL     OW18382   0.842   2.728  13.075  0.0388  0.7046  0.3895
 2307SOL    HW118383   0.917   2.773  13.113  0.6518  1.1670 -1.4046
 2307SOL    HW218384   0.791   2.804  13.045  1.6588  0.7439 -2.2840
 2308SOL     OW18385   2.622   4.403  11.510  0.7150  0.7011 -0.1545
 2308SOL    HW118386   2.599   4.399  11.417  0.8561 -1.0740 -0.1106
 2308SOL    HW218387   2.709   4.365  11.506  0.2657 -0.4100  0.4335
 2309SOL     OW18388   0.471   1.888   0.879 -0.1244  0.4781 -0.0393
 2309SOL    HW118389   0.479   1.874   0.785 -0.3687 -0.2064  0.0447
 2309SOL    HW218390   0.465   1.983   0.886 -0.8077  0.4888 -0.8118
 2310SOL     OW18391   4.443   4.612   9.345 -0.2012 -0.5003  0.2342
 2310SOL    HW118392   4.476   4.578   9.261  1.2013  0.2721  0.4643
 2310SOL    HW218393   4.525   4.644   9.384  0.1978 -1.1504 -0.0705
 2311SOL     OW18394   0.654   1.007   8.701 -0.2685 -0.2744  0.5289
 2311SOL    HW118395   0.716   1.075   8.728 -0.9578 -0.2646  2.0906
 2311SOL    HW218396   0.628   0.966   8.784 -0.1226 -0.5633  0.4314
 2312SOL     OW18397   3.624   0.685   7.659 -0.0662 -0.4650 -0.4180
 2312SOL    HW118398   3.704   0.729   7.629  0.4569  0.1722  1.9533
 2312SOL    HW218399   3.641   0.668   7.751 -2.4226  5.0818  1.0367
 2313SOL     OW18400   4.155   3.033   3.017  0.1314  0.5176  0.0311
 2313SOL    HW118401   4.063   3.007   3.014  0.0341  1.0009 -0.9126
 2313SOL    HW218402   4.150   3.112   3.071  2.3343  1.5493 -1.2504
 2314SOL     OW18403   4.372   1.731   7.918 -0.1556 -0.5223  0.6373
 2314SOL    HW118404   4.321   1.674   7.975 -1.7826  0.1899 -0.1137
 2314SOL    HW218405   4.309   1.775   7.861 -1.7314  0.5532  3.1917
 2315SOL     OW18406   1.702   0.180   5.662  0.0979 -1.0759 -0.3752
 2315SOL    HW118407   1.751   0.258   5.689 -1.0421 -1.0054  1.4802
 2315SOL    HW218408   1.674   0.137   5.742 -1.7213  1.7922  0.5456
 2316SOL     OW18409   3.248   4.648  14.655  1.0121 -0.1672 -0.1150
 2316SOL    HW118410   3.301   4.683  14.584 -1.1424  3.5117  0.0541
 2316SOL    HW218411   3.313   4.628  14.722 -1.3667 -1.2317  1.8808
 2317SOL     OW18412   3.186   0.851  13.990  0.0585  0.3528  0.3894
 2317SOL    HW118413   3.229   0.876  13.908 -0.9014 -2.5757 -1.0304
 2317SOL    HW218414   3.098   0.822  13.968  0.2536 -1.1416  1.5832
 2318SOL     OW18415   4.538   4.521   2.322  0.7995 -0.6929  0.5614
 2318SOL    HW118416   4.548   4.468   2.243 -2.3119 -0.1531 -0.1678
 2318SOL    HW218417   4.581   4.601   2.292  0.7122 -0.1550  1.8428
 2319SOL     OW18418   2.471   4.651  17.391 -0.5880 -0.4366 -0.2791
 2319SOL    HW118419   2.476   4.593  17.315 -2.5292  1.2608 -1.6978
 2319SOL    HW218420   2.413   4.595  17.443  0.6915 -3.0466 -1.6748
 2320SOL     OW18421   0.743   1.041   8.284  0.1284  0.2910  0.4453
 2320SOL    HW118422   0.812   1.049   8.350  0.0960  1.7864  0.2787
 2320SOL    HW218423   0.673   0.994   8.329  0.3389  0.1370  0.6142
 2321SOL     OW18424   1.889   0.766  15.992 -0.2956 -0.6724  0.3240
 2321SOL    HW118425   1.935   0.837  15.946  1.9160 -0.9242  2.1091
 2321SOL    HW218426   1.949   0.694  15.970 -0.3486 -0.0676 -1.8606
 2322SOL     OW18427   0.169   4.491   9.824 -0.0008 -0.3594  0.2359
 2322SOL    HW118428   0.218   4.408   9.822  0.5430 -0.0614  1.1599
 2322SOL    HW218429   0.239   4.556   9.833 -0.9887  0.7292  0.0390
 2323SOL     OW18430   0.921   0.323   5.134  0.4487  0.0701  0.1770
 2323SOL    HW118431   0.885   0.347   5.049 -0.2319  0.6540  0.6257
 2323SOL    HW218432   0.879   0.385   5.193  0.4084  0.8999 -0.7250
 2324SOL     OW18433   1.224   4.474   2.918  0.1901  0.0378  0.0110
 2324SOL    HW118434   1.198   4.467   2.826 -1.2247  0.3580  0.3822
 2324SOL    HW218435   1.210   4.387   2.956  0.2971  0.5655  1.2619
 2325SOL     OW18436   1.665   3.107   0.604 -0.5237 -0.1895 -0.1003
 2325SOL    HW118437   1.641   3.024   0.643 -1.0105  0.8925  1.9024
 2325SOL    HW218438   1.699   3.146   0.685  1.5696 -0.9437 -0.5952
 2326SOL     OW18439   1.663   0.827   2.234 -0.0667  0.3075  0.3565
 2326SOL    HW118440   1.627   0.750   2.189  1.8935 -0.0505 -0.5783
 2326SOL    HW218441   1.712   0.864   2.160  0.6977 -1.4095  0.0069
 2327SOL     OW18442   0.549   3.999  10.091 -0.2258 -0.2847  0.1464
 2327SOL    HW118443   0.580   4.030  10.176  0.1842  1.8332 -0.7701
 2327SOL    HW218444   0.507   3.919  10.122 -1.2294 -0.3844 -1.4550
 2328SOL     OW18445   3.892   0.268   1.706  0.4431 -0.2366  0.5045
 2328SOL    HW118446   3.900   0.180   1.671  0.8886 -0.0519  0.1536
 2328SOL    HW218447   3.962   0.262   1.771  2.5451 -0.0083 -1.7411
 2329SOL     OW18448   3.475   4.348  11.298 -0.2054 -0.1657  0.7060
 2329SOL    HW118449   3.474   4.344  11.202  1.6101  0.0015  0.6938
 2329SOL    HW218450   3.562   4.311  11.310  0.3469 -0.0222 -2.8500
 2330SOL     OW18451   3.609   1.876   8.680 -0.5353 -0.1701 -0.1605
 2330SOL    HW118452   3.534   1.915   8.636  0.3987  1.3132 -0.4155
 2330SOL    HW218453   3.624   1.798   8.627  0.6940  1.1376 -1.7436
 2331SOL     OW18454   2.367   2.080   1.388 -0.0433  0.1257  0.3760
 2331SOL    HW118455   2.398   2.017   1.453  0.1333 -1.1336 -0.9420
 2331SOL    HW218456   2.432   2.069   1.318 -0.5970 -1.6004  0.1371
 2332SOL     OW18457   0.581   3.095   5.313 -0.3895  0.0360  0.0437
 2332SOL    HW118458   0.647   3.124   5.376  0.2638  0.1432 -0.6912
 2332SOL    HW218459   0.527   3.047   5.377  3.9689 -2.0413  2.1452
 2333SOL     OW18460   0.922   4.667   5.919  0.1281  0.3771 -0.1585
 2333SOL    HW118461   0.965   4.627   5.995 -1.9355 -1.0807  0.2526
 2333SOL    HW218462   0.892   0.025   5.959  2.0815  1.0548 -0.1011
 2334SOL     OW18463   4.237   0.162   4.614  0.0928 -0.3000  0.7431
 2334SOL    HW118464   4.192   0.142   4.532 -0.5704 -2.2130  1.5662
 2334SOL    HW218465   4.169   0.213   4.660 -0.6468  0.3468 -1.0863
 2335SOL     OW18466   0.558   2.438   4.351 -0.4807  0.0839  0.2105
 2335SOL    HW118467   0.525   2.519   4.390 -1.9509  0.0539 -1.0028
 2335SOL    HW218468   0.556   2.378   4.426 -0.3569 -0.1152  0.0548
 2336SOL     OW18469   1.576   2.993   7.057 -0.4138  0.6019 -0.5071
 2336SOL    HW118470   1.631   3.066   7.086  0.6803  0.1932 -1.5955
 2336SOL    HW218471   1.488   3.021   7.084 -1.9990 -3.8772 -1.1537
 2337SOL     OW18472   0.405   4.643   3.722  0.3663  0.2492  0.6259
 2337SOL    HW118473   0.430   4.570   3.777 -0.4127 -1.4113 -1.2228
 2337SOL    HW218474   0.477   4.706   3.730  2.6778 -2.1132 -1.4937
 2338SOL     OW18475   0.437   1.545  12.738  0.2143  0.4783  0.1709
 2338SOL    HW118476   0.427   1.528  12.645 -0.6444 -1.9562  0.6813
 2338SOL    HW218477   0.481   1.465  12.767  2.0016  1.5764  0.4443
 2339SOL     OW18478   2.760   0.193   9.479 -0.7310 -0.3219  0.0303
 2339SOL    HW118479   2.797   0.267   9.527  1.5956 -0.5011 -1.4822
 2339SOL    HW218480   2.703   0.229   9.411 -0.0265  1.8874  0.6156
 2340SOL     OW18481   3.192   2.357   3.628 -0.3407  0.2221  0.4600
 2340SOL    HW118482   3.220   2.334   3.540 -1.0330  0.5257  0.1589
 2340SOL    HW218483   3.115   2.301   3.634 -0.3479 -0.1329 -2.9714
 2341SOL     OW18484   1.804   1.778  11.665 -0.1985 -0.2249  0.5904
 2341SOL    HW118485   1.719   1.806  11.698 -0.0442  0.9614 -0.0432
 2341SOL    HW218486   1.791   1.712  11.597  0.4501 -0.8614  1.0772
 2342SOL     OW18487   0.535   0.277   8.002  0.2478 -0.5253 -0.2135
 2342SOL    HW118488   0.453   0.229   8.015  0.5751 -1.4628 -1.5515
 2342SOL    HW218489   0.508   0.324   7.923  1.4397  0.9566  0.2743
 2343SOL     OW18490   2.613   4.598  15.997  0.3019  0.1484  0.3241
 2343SOL    HW118491   2.679   4.640  15.943  0.7872  0.2284  0.9812
 2343SOL    HW218492   2.557   4.566  15.926  0.2790 -1.1321  0.9218
 2344SOL     OW18493   2.728   0.664   5.145  0.0374 -0.1988  0.1277
 2344SOL    HW118494   2.788   0.631   5.212  2.1146 -1.0826 -2.1868
 2344SOL    HW218495   2.787   0.678   5.071 -1.3703  1.2193 -0.7171
 2345SOL     OW18496   0.553   3.252  10.947 -0.2982 -0.2691  0.0640
 2345SOL    HW118497   0.483   3.316  10.934  2.0014  2.2523  0.1363
 2345SOL    HW218498   0.595   3.254  10.861  2.0515  0.0812  1.2136
 2346SOL     OW18499   2.237   1.044   2.834 -0.2388 -0.3908 -0.4711
 2346SOL    HW118500   2.259   1.129   2.797  0.9659 -0.4610  0.0970
 2346SOL    HW218501   2.142   1.042   2.822 -0.3346  0.7182  0.1185
 2347SOL     OW18502   3.742   0.023   8.816 -0.0742 -0.1983 -0.2754
 2347SOL    HW118503   3.805   0.009   8.745  1.5885  0.2648  1.1211
 2347SOL    HW218504   3.671   4.686   8.797 -0.4934  1.0197 -2.7484
 2348SOL     OW18505   2.105   3.195   3.016  0.3851  0.2313  0.2610
 2348SOL    HW118506   2.163   3.247   3.072 -0.8970 -0.7826  2.5566
 2348SOL    HW218507   2.153   3.180   2.935 -2.5366  0.6774 -1.5192
 2349SOL     OW18508   0.111   0.428   8.965  0.0321  0.5349  0.3276
 2349SOL    HW118509   0.191   0.382   8.940 -0.6893 -0.1339 -0.7557
 2349SOL    HW218510   0.129   0.446   9.057  0.3253 -1.7451  0.7086
 2350SOL     OW18511   2.089   3.327   4.195  0.6749 -0.1073  0.4224
 2350SOL    HW118512   2.065   3.356   4.283 -0.6193 -1.4527  0.5198
 2350SOL    HW218513   2.056   3.402   4.146 -0.9452 -0.6895  0.6165
 2351SOL     OW18514   3.155   4.530  17.058 -0.1979  0.0930  0.5627
 2351SOL    HW118515   3.180   4.622  17.048  0.2113 -0.0591  0.1517
 2351SOL    HW218516   3.099   4.536  17.135 -1.4232  1.8540 -0.4555
 2352SOL     OW18517   0.694   0.644   3.764 -0.2648 -0.3338  0.2056
 2352SOL    HW118518   0.668   0.554   3.743 -2.9012  0.1622  1.3154
 2352SOL    HW218519   0.747   0.614   3.838  2.7151 -0.2498 -1.9132
 2353SOL     OW18520   0.775   3.015   3.274 -0.1783  0.5761 -0.1033
 2353SOL    HW118521   0.777   2.959   3.196 -0.0736 -0.2135  0.4695
 2353SOL    HW218522   0.711   2.963   3.321 -0.9775  0.5035 -1.2666
 2354SOL     OW18523   2.373   0.985   8.856  0.1107  1.1098 -0.9827
 2354SOL    HW118524   2.283   0.973   8.826  0.1371 -0.8674 -0.2501
 2354SOL    HW218525   2.364   1.079   8.869  1.3563  1.1371 -0.2850
 2355SOL     OW18526   2.154   0.993   8.073  0.0407 -0.4975 -0.1410
 2355SOL    HW118527   2.238   0.946   8.079 -0.9582 -2.0091  2.1781
 2355SOL    HW218528   2.090   0.932   8.111 -0.9551  0.3102 -0.5458
 2356SOL     OW18529   3.024   2.781   8.221 -0.0873 -0.5109  0.6268
 2356SOL    HW118530   3.030   2.845   8.150  1.0242 -0.4018  0.8293
 2356SOL    HW218531   2.935   2.745   8.218 -0.2941 -0.0476  1.1275
 2357SOL     OW18532   0.669   3.097  10.239 -0.1245 -0.1533  0.0685
 2357SOL    HW118533   0.667   3.017  10.292 -0.3257 -0.6657 -0.7239
 2357SOL    HW218534   0.636   3.063  10.156 -1.3912 -0.1053  0.5620
 2358SOL     OW18535   1.481   3.057  16.157  0.1135 -0.1756  0.0385
 2358SOL    HW118536   1.481   3.150  16.180 -0.8347  0.3613 -2.1440
 2358SOL    HW218537   1.523   3.046  16.072  0.9206 -1.1092  0.5542
 2359SOL     OW18538   2.410   1.567  10.128 -0.2015 -0.1157 -0.1888
 2359SOL    HW118539   2.356   1.642  10.103 -0.0495  0.4337  1.1428
 2359SOL    HW218540   2.341   1.513  10.168 -0.0174 -1.1291 -1.2275
 2360SOL     OW18541   3.421   3.267   4.863 -0.0744 -0.0535 -0.0913
 2360SOL    HW118542   3.413   3.324   4.787  1.4756 -2.3405 -1.9544
 2360SOL    HW218543   3.330   3.241   4.875 -0.5481  0.7284 -2.0909
 2361SOL     OW18544   4.061   1.068   3.602 -0.1077  0.7611  0.0651
 2361SOL    HW118545   3.987   1.008   3.611  0.1091  0.1927 -1.9432
 2361SOL    HW218546   4.018   1.154   3.593 -0.6497  0.3653 -1.0941
 2362SOL     OW18547   3.882   2.383   5.073  0.1666  0.4200  0.4623
 2362SOL    HW118548   3.905   2.462   5.122 -0.9008  1.4512 -0.7013
 2362SOL    HW218549   3.967   2.360   5.036 -1.3385 -2.8645 -0.9064
 2363SOL     OW18550   0.789   3.317   7.773  0.0654  0.4910 -0.0375
 2363SOL    HW118551   0.765   3.400   7.732  3.6938  1.7522  0.3483
 2363SOL    HW218552   0.794   3.348   7.864 -2.5428  1.4230 -0.2174
 2364SOL     OW18553   3.195   1.606   1.478 -0.0298 -0.3253  0.8627
 2364SOL    HW118554   3.157   1.694   1.483 -0.4957 -0.5140  0.6115
 2364SOL    HW218555   3.248   1.608   1.558  0.7105 -0.2304  0.3699
 2365SOL     OW18556   4.029   3.617  15.682 -0.3123  0.1902 -0.2623
 2365SOL    HW118557   4.003   3.671  15.756 -0.5925 -0.6334  0.2389
 2365SOL    HW218558   3.991   3.538  15.720  2.2215  0.0858  2.0475
 2366SOL     OW18559   0.072   1.482   2.692  0.1070 -0.7418 -0.6576
 2366SOL    HW118560   0.035   1.393   2.689 -1.3147 -0.1786  0.6713
 2366SOL    HW218561   0.157   1.463   2.731 -0.0056 -1.0103 -0.5371
 2367SOL     OW18562   0.995   1.130   4.901  0.3823 -0.0682  0.1524
 2367SOL    HW118563   0.981   1.162   4.990  1.1087  0.6617  0.0044
 2367SOL    HW218564   1.067   1.179   4.861 -0.1532  0.4486 -0.1675
 2368SOL     OW18565   1.253   4.379  13.039 -0.3940 -0.5608  0.3961
 2368SOL    HW118566   1.293   4.298  13.008 -0.3586  0.0222 -1.0746
 2368SOL    HW218567   1.333   4.428  13.056 -1.7934  1.5876  0.9124
 2369SOL     OW18568   1.109   4.408   9.593  0.3082  0.0741 -0.4824
 2369SOL    HW118569   1.036   4.356   9.558 -1.3617  1.0288  1.5711
 2369SOL    HW218570   1.059   4.473   9.643 -0.8942  0.4921 -2.2215
 2370SOL     OW18571   3.106   1.254  11.679 -0.0265  0.2777 -0.2409
 2370SOL    HW118572   3.148   1.305  11.610 -0.3100  2.3546  1.1214
 2370SOL    HW218573   3.038   1.315  11.707  0.4130  0.4040  0.5617
 2371SOL     OW18574   0.782   0.495   3.978  0.0125 -0.2107  0.2404
 2371SOL    HW118575   0.803   0.407   3.948  1.0788 -0.1566  0.8413
 2371SOL    HW218576   0.854   0.507   4.039 -0.9265  0.3289  1.2416
 2372SOL     OW18577   0.503   4.013  17.005 -0.8923 -0.0207  0.3863
 2372SOL    HW118578   0.541   4.087  16.958 -0.6991 -0.5554 -0.3008
 2372SOL    HW218579   0.422   4.039  17.049 -1.9939 -3.0849  0.1635
 2373SOL     OW18580   0.134   0.398   7.489  0.1997  0.0561 -0.0308
 2373SOL    HW118581   0.128   0.303   7.498  0.7844  0.0101 -0.1259
 2373SOL    HW218582   0.165   0.399   7.398 -2.1269 -1.1359 -0.8403
 2374SOL     OW18583   2.454   3.033  11.314 -0.2382 -0.4976 -0.4283
 2374SOL    HW118584   2.547   3.055  11.308 -0.9136  1.5260 -3.0469
 2374SOL    HW218585   2.418   3.109  11.269 -0.8704  0.3681  1.5077
 2375SOL     OW18586   2.380   3.423   7.162 -0.2924 -0.3688  0.2879
 2375SOL    HW118587   2.366   3.389   7.250  2.0549 -0.0143  0.7815
 2375SOL    HW218588   2.297   3.469   7.148 -0.5166 -1.1124 -0.8374
 2376SOL     OW18589   1.840   3.061   4.817  0.3482  0.2918  0.5842
 2376SOL    HW118590   1.906   3.123   4.786 -0.2826  0.9512  0.5604
 2376SOL    HW218591   1.882   2.976   4.801 -0.5935 -0.4980  2.2049
 2377SOL     OW18592   3.044   3.269   5.186 -0.0369  0.4398  0.0046
 2377SOL    HW118593   2.963   3.308   5.154 -2.3724 -2.9503  1.8248
 2377SOL    HW218594   3.018   3.178   5.170 -1.4443  1.0024 -0.8671
 2378SOL     OW18595   3.330   0.279  11.318  0.4301 -0.2538  0.5686
 2378SOL    HW118596   3.405   0.233  11.357  2.7649  2.3803 -0.7709
 2378SOL    HW218597   3.372   0.357  11.281 -0.6075  1.4036  2.8400
 2379SOL     OW18598   0.228   3.785   8.987  0.6086 -0.3578  0.2073
 2379SOL    HW118599   0.223   3.737   8.904  0.5283  0.1708 -0.0947
 2379SOL    HW218600   0.156   3.743   9.035  1.0169 -1.7737 -0.4053
 2380SOL     OW18601   3.815   3.230   7.657  0.2769 -0.1152 -0.4678
 2380SOL    HW118602   3.825   3.138   7.679  1.2487  0.1134  0.0423
 2380SOL    HW218603   3.859   3.280   7.726  1.4173 -1.4374 -0.2517
 2381SOL     OW18604   3.471   4.228   8.823 -0.2350 -0.5239  0.4447
 2381SOL    HW118605   3.424   4.307   8.795  0.9395  0.3223  0.9002
 2381SOL    HW218606   3.543   4.226   8.760 -0.1638  0.2220  0.5043
 2382SOL     OW18607   1.973   2.184   1.909 -0.1970 -0.2224 -0.0813
 2382SOL    HW118608   2.045   2.140   1.865 -0.2963 -0.5997  0.1334
 2382SOL    HW218609   2.007   2.186   1.999  1.1844  0.4401 -0.6222
 2383SOL     OW18610   2.532   2.097   1.705 -0.1742 -0.1006 -0.1943
 2383SOL    HW118611   2.463   2.046   1.661 -0.3659 -1.6641  1.9243
 2383SOL    HW218612   2.551   2.043   1.782 -1.5671  0.0841  0.2746
 2384SOL     OW18613   1.871   1.974  14.334  0.5033 -0.4943 -0.1197
 2384SOL    HW118614   1.814   1.974  14.412  0.9977  0.2894  0.2387
 2384SOL    HW218615   1.844   2.049  14.281 -1.7557 -1.7233 -0.7189
 2385SOL     OW18616   2.332   2.119   4.277  0.0145 -0.0978 -0.3252
 2385SOL    HW118617   2.383   2.172   4.339 -1.0186  1.0236 -0.4487
 2385SOL    HW218618   2.286   2.058   4.334 -0.8364 -0.9455 -1.9151
 2386SOL     OW18619   0.379   4.578   4.605 -0.4957 -0.5139  0.2221
 2386SOL    HW118620   0.405   4.661   4.564 -0.2938 -0.0437  1.3247
 2386SOL    HW218621   0.442   4.525   4.555 -0.9666 -1.2663  0.4193
 2387SOL     OW18622   3.754   3.100   3.818  0.6189  0.5015  0.0154
 2387SOL    HW118623   3.679   3.149   3.853 -0.0218 -1.6267  1.6810
 2387SOL    HW218624   3.777   3.045   3.894  0.5681  0.5189  0.0430
 2388SOL     OW18625   0.728   1.049   7.817 -0.0131 -0.1717 -0.1831
 2388SOL    HW118626   0.733   0.965   7.862 -1.0840 -0.2510 -0.2027
 2388SOL    HW218627   0.790   1.096   7.872 -0.0947  1.9561 -1.8866
 2389SOL     OW18628   4.058   0.605   2.819 -0.9240  0.1027 -0.0380
 2389SOL    HW118629   4.093   0.673   2.763  1.1526 -1.7554 -0.9921
 2389SOL    HW218630   4.104   0.532   2.779 -1.8464 -0.8013  0.5359
 2390SOL     OW18631   1.615   4.454   4.699  0.0982 -0.0279 -0.4277
 2390SOL    HW118632   1.626   4.456   4.794  0.4067 -0.1636 -0.4612
 2390SOL    HW218633   1.606   4.548   4.683  0.9719  0.3295  1.1146
 2391SOL     OW18634   3.751   1.291   5.893 -0.4372  0.8326 -0.0564
 2391SOL    HW118635   3.710   1.240   5.963  1.0156 -0.9398 -0.4885
 2391SOL    HW218636   3.754   1.381   5.926  2.4418  0.1038  1.6761
 2392SOL     OW18637   3.414   0.528   8.939  0.0395  0.0978  0.1939
 2392SOL    HW118638   3.459   0.476   8.873 -2.1348  0.0026 -1.2161
 2392SOL    HW218639   3.460   0.611   8.933  1.6597 -0.8061  0.1486
 2393SOL     OW18640   1.968   1.574   6.307  0.1590 -0.2467 -0.4031
 2393SOL    HW118641   1.907   1.502   6.324 -0.0292  0.4906  2.0201
 2393SOL    HW218642   2.043   1.562   6.366 -0.9968  0.2561  1.1507
 2394SOL     OW18643   1.534   3.452   7.154 -0.4835  0.1651 -0.4284
 2394SOL    HW118644   1.478   3.530   7.164 -1.1893 -0.3286 -0.4865
 2394SOL    HW218645   1.513   3.393   7.226  1.5074 -1.4855 -1.2364
 2395SOL     OW18646   2.790   2.384  15.032 -0.3237  0.2235 -0.0444
 2395SOL    HW118647   2.852   2.405  14.961 -1.2305  0.2044 -0.8394
 2395SOL    HW218648   2.764   2.474  15.051  0.8954  0.4905  0.3600
 2396SOL     OW18649   3.853   2.827   5.485 -0.3141  0.9985 -0.1911
 2396SOL    HW118650   3.805   2.903   5.453 -0.7940  1.2464  1.1156
 2396SOL    HW218651   3.904   2.871   5.554  0.8462 -0.6794  0.0152
 2397SOL     OW18652   4.090   0.597   6.506 -0.0306 -0.2484  0.0750
 2397SOL    HW118653   4.092   0.544   6.585  1.0146 -2.4565 -1.4411
 2397SOL    HW218654   4.150   0.671   6.518  1.0086 -0.7743 -1.9319
 2398SOL     OW18655   2.650   1.016   9.137  0.7731 -0.4427  0.4952
 2398SOL    HW118656   2.716   1.074   9.176 -1.6239  1.8140  1.1661
 2398SOL    HW218657   2.592   1.079   9.095 -1.3599 -2.0303  1.0965
 2399SOL     OW18658   1.915   3.740   4.663 -0.2546  0.8598 -0.0446
 2399SOL    HW118659   1.825   3.709   4.674  0.3067 -1.5315 -2.3113
 2399SOL    HW218660   1.954   3.711   4.745  1.8500  0.2103 -1.2790
 2400SOL     OW18661   1.416   2.068   1.584 -0.3749 -0.3776  0.0337
 2400SOL    HW118662   1.362   2.148   1.577 -1.1416 -0.9481 -0.6190
 2400SOL    HW218663   1.504   2.090   1.552  0.3698 -3.3054  0.0721
 2401SOL     OW18664   4.195   1.004   6.815 -0.1828 -0.2616 -0.4064
 2401SOL    HW118665   4.241   1.036   6.893  0.0092 -1.9518  0.1787
 2401SOL    HW218666   4.229   0.914   6.818 -0.7799 -0.4873 -0.3415
 2402SOL     OW18667   3.166   2.525  15.071 -0.1168  0.3435  0.0470
 2402SOL    HW118668   3.106   2.481  15.010  0.8275 -1.0042  0.0718
 2402SOL    HW218669   3.213   2.571  15.003  0.2698  0.4184  0.3685
 2403SOL     OW18670   4.454   1.716   0.259 -0.3995  0.2517  0.1643
 2403SOL    HW118671   4.512   1.732   0.333  0.1828  1.4430 -0.5455
 2403SOL    HW218672   4.511   1.747   0.189  0.4663  0.7253  1.0852
 2404SOL     OW18673   2.456   2.320   5.288  0.2176 -0.1613 -0.3750
 2404SOL    HW118674   2.500   2.395   5.247 -1.6932  1.0503 -0.1795
 2404SOL    HW218675   2.432   2.256   5.220 -3.3879 -0.6015  1.3258
 2405SOL     OW18676   0.430   1.997   8.572 -0.4050  0.2752 -0.0479
 2405SOL    HW118677   0.509   1.944   8.561  0.3144  0.6658  3.3378
 2405SOL    HW218678   0.447   2.058   8.643 -0.6212 -0.1515  0.3667
 2406SOL     OW18679   1.387   4.720   6.347 -0.4380 -0.0809  0.1210
 2406SOL    HW118680   1.344   4.696   6.429 -1.4745  1.4716  0.0362
 2406SOL    HW218681   1.375   0.090   6.350  0.0425 -0.0431  1.1810
 2407SOL     OW18682   1.824   0.642   6.084  0.1944 -0.1282 -0.0486
 2407SOL    HW118683   1.905   0.680   6.051 -0.2533 -0.2667 -1.2860
 2407SOL    HW218684   1.844   0.552   6.059 -0.3428  0.1497 -1.4809
 2408SOL     OW18685   3.083   1.115   4.574 -0.1342  0.3009 -0.0121
 2408SOL    HW118686   3.012   1.141   4.514  0.6912 -1.3068 -1.6854
 2408SOL    HW218687   3.028   1.090   4.648 -0.5566  2.5680  0.4454
 2409SOL     OW18688   3.679   4.313   5.591 -0.2105  0.8328 -0.3507
 2409SOL    HW118689   3.622   4.243   5.558 -1.0894  0.4647  1.9420
 2409SOL    HW218690   3.710   4.356   5.512  2.0782 -1.6996 -0.8499
 2410SOL     OW18691   2.331   2.878   1.094  0.1844 -0.2804  0.4493
 2410SOL    HW118692   2.277   2.957   1.098  1.6998  0.8807 -1.8460
 2410SOL    HW218693   2.267   2.814   1.064  0.1062 -0.5696  1.2377
 2411SOL     OW18694   2.578   4.588   2.027 -0.6620  0.5276  0.2929
 2411SOL    HW118695   2.631   4.508   2.035  0.2682  1.1571  0.3865
 2411SOL    HW218696   2.546   4.578   1.937  1.3692  1.0955 -0.5020
 2412SOL     OW18697   1.343   3.946  15.474 -0.4486  0.1365  0.2505
 2412SOL    HW118698   1.288   3.877  15.436  1.0981 -0.9705  0.0394
 2412SOL    HW218699   1.390   3.978  15.397  0.1197  0.7258  0.8414
 2413SOL     OW18700   1.374   2.706   6.274 -0.2712  0.6273  0.4145
 2413SOL    HW118701   1.358   2.758   6.353  0.3695  2.7701 -0.8515
 2413SOL    HW218702   1.412   2.636   6.326  1.1914  0.1707 -1.2921
 2414SOL     OW18703   0.474   0.126   7.126  0.2410 -0.4917 -0.3167
 2414SOL    HW118704   0.531   0.189   7.171 -3.3962  3.7542 -1.6057
 2414SOL    HW218705   0.403   0.115   7.189  1.1492 -1.5357  0.5242
 2415SOL     OW18706   1.186   3.145   6.857  0.0900 -0.0473  0.3575
 2415SOL    HW118707   1.213   3.096   6.780  1.0187 -0.0981  0.7104
 2415SOL    HW218708   1.175   3.072   6.919 -0.8107  0.4444  0.7678
 2416SOL     OW18709   2.981   0.188  10.258  0.4692  0.1665 -0.1605
 2416SOL    HW118710   2.889   0.205  10.238  0.3043  0.6985  1.0627
 2416SOL    HW218711   3.014   0.129  10.190 -0.0992  0.4602 -0.6896
 2417SOL     OW18712   1.509   4.008   8.683 -0.1096  0.4250 -0.0324
 2417SOL    HW118713   1.512   3.953   8.762 -0.7430 -1.7821 -1.5613
 2417SOL    HW218714   1.569   3.952   8.633  0.0947 -1.3775  2.2290
 2418SOL     OW18715   3.013   3.854   6.816  1.1363 -0.2093  0.4783
 2418SOL    HW118716   2.926   3.814   6.811  0.1627  2.0187 -0.1746
 2418SOL    HW218717   2.988   3.942   6.845  3.2086  0.5121  0.0432
 2419SOL     OW18718   2.942   3.498   0.787  0.1097 -0.2895  0.6267
 2419SOL    HW118719   2.894   3.538   0.860  0.9169  2.2052 -0.1858
 2419SOL    HW218720   2.960   3.410   0.819  2.4153 -0.2284 -0.4760
 2420SOL     OW18721   2.046   1.909   8.774 -0.5638  0.3969 -0.1489
 2420SOL    HW118722   2.096   1.941   8.849 -1.2523 -1.6392  1.1623
 2420SOL    HW218723   1.997   1.989   8.753  0.0004  0.5451 -0.9152
 2421SOL     OW18724   3.783   3.095  14.810 -0.7047 -0.2149 -0.2491
 2421SOL    HW118725   3.754   3.157  14.744 -1.5247  0.3533  0.6488
 2421SOL    HW218726   3.718   3.114  14.877 -2.4392 -3.9773 -0.8689
 2422SOL     OW18727   2.772   2.684   4.398 -0.5226  0.4085  0.4727
 2422SOL    HW118728   2.742   2.635   4.474  0.5565 -0.6559  0.2206
 2422SOL    HW218729   2.787   2.765   4.445  1.9337  0.6252 -0.7007
 2423SOL     OW18730   2.921   3.648  13.720  0.9207  0.7466  0.0232
 2423SOL    HW118731   2.892   3.583  13.783  0.5262  0.7826 -0.1201
 2423SOL    HW218732   2.906   3.731  13.767  0.2662 -0.4926  1.9877
 2424SOL     OW18733   1.944   3.800   7.509  0.1037 -0.0870  0.4043
 2424SOL    HW118734   1.954   3.718   7.556 -2.2878 -0.1004  0.9338
 2424SOL    HW218735   1.911   3.767   7.425  2.4223  0.3700 -0.6722
 2425SOL     OW18736   0.422   1.419  16.592 -0.0919  0.0865 -0.1578
 2425SOL    HW118737   0.396   1.388  16.679 -2.9896 -0.3214 -1.1728
 2425SOL    HW218738   0.512   1.407  16.620 -1.1597  0.5951  3.4886
 2426SOL     OW18739   4.273   2.687   2.328  0.0651  0.1491 -0.2658
 2426SOL    HW118740   4.199   2.633   2.302  1.3677 -1.3578 -0.8584
 2426SOL    HW218741   4.327   2.690   2.249  2.0542  1.8368  1.1521
 2427SOL     OW18742   0.956   4.372   7.512  0.1097  0.0423 -0.3112
 2427SOL    HW118743   0.883   4.311   7.523 -0.5518  0.4629 -2.3874
 2427SOL    HW218744   0.947   4.422   7.593 -3.3110  0.0935 -0.7212
 2428SOL     OW18745   1.717   3.276   1.372  0.1627 -0.1583 -0.2112
 2428SOL    HW118746   1.770   3.355   1.363 -0.6710  0.5237  0.8989
 2428SOL    HW218747   1.646   3.284   1.308 -0.1336 -2.9965 -0.2776
 2429SOL     OW18748   3.539   1.925   9.005  0.0872  0.2363  0.0680
 2429SOL    HW118749   3.569   1.940   9.095  2.0899 -0.3128 -0.5050
 2429SOL    HW218750   3.546   1.829   9.004 -0.6712  0.1985 -2.4400
 2430SOL     OW18751   1.840   2.909  10.836 -0.3861 -0.1950  0.0265
 2430SOL    HW118752   1.791   2.928  10.756  1.8848  0.4084 -1.2154
 2430SOL    HW218753   1.923   2.943  10.801  0.7253 -3.2818 -0.3873
 2431SOL     OW18754   0.698   4.484   7.730  0.0256 -0.0042 -0.0981
 2431SOL    HW118755   0.727   4.570   7.700 -1.7898  0.0406 -1.7722
 2431SOL    HW218756   0.687   4.506   7.823 -0.7313 -0.6475 -0.0371
 2432SOL     OW18757   1.297   1.875   9.903  0.2175 -0.2486  0.0930
 2432SOL    HW118758   1.347   1.862   9.823  1.7413  0.8359  0.8667
 2432SOL    HW218759   1.319   1.966   9.925  2.3507 -0.8414  0.3589
 2433SOL     OW18760   1.800   3.912  12.328 -0.4850  0.0518 -0.1344
 2433SOL    HW118761   1.818   3.853  12.401  0.2069 -1.9049 -1.8958
 2433SOL    HW218762   1.798   3.847  12.258  0.7155 -1.5085  1.2733
 2434SOL     OW18763   4.619   4.683   8.401  0.1792  0.0289 -0.3405
 2434SOL    HW118764   4.680   4.610   8.410  1.1713  0.5333 -3.1078
 2434SOL    HW218765   4.539   4.641   8.432 -0.7791  1.3089 -1.0591
 2435SOL     OW18766   0.339   2.478   5.063  0.2099 -0.2028  0.0659
 2435SOL    HW118767   0.298   2.556   5.024 -0.1125  0.0304  0.8850
 2435SOL    HW218768   0.419   2.520   5.095 -1.7209  2.6506  1.1881
 2436SOL     OW18769   3.256   1.934  16.509  0.3832  0.2668  0.8009
 2436SOL    HW118770   3.307   1.997  16.458  0.3423  0.0169  0.4442
 2436SOL    HW218771   3.316   1.859  16.508 -0.5271 -0.4634  0.0200
 2437SOL     OW18772   3.132   2.053   6.858  0.1840 -0.1886 -0.0096
 2437SOL    HW118773   3.177   1.999   6.794 -1.9935 -1.9306 -0.0556
 2437SOL    HW218774   3.202   2.071   6.921 -1.6753  0.9798  1.7280
 2438SOL     OW18775   4.261   0.854   4.549 -0.1476 -0.7016  0.0468
 2438SOL    HW118776   4.352   0.883   4.539 -1.1694  1.9364 -1.4559
 2438SOL    HW218777   4.221   0.902   4.621  1.6386 -2.0966  1.9887
 2439SOL     OW18778   0.973   3.841   7.997  0.0499  0.3254 -0.0730
 2439SOL    HW118779   1.040   3.800   7.942 -0.8303  1.5897 -2.1020
 2439SOL    HW218780   1.026   3.876   8.068 -0.6911  0.4963  0.3967
 2440SOL     OW18781   3.390   2.645  16.386  0.4505  0.3084 -0.0475
 2440SOL    HW118782   3.370   2.599  16.304  2.8331 -0.5999 -0.1252
 2440SOL    HW218783   3.314   2.702  16.398  1.0920  1.3938 -1.0921
 2441SOL     OW18784   4.432   3.651   5.996 -0.3139  0.1276 -0.3817
 2441SOL    HW118785   4.495   3.627   6.065 -0.8304  1.8533  0.6863
 2441SOL    HW218786   4.355   3.607   6.032  0.1644  0.8454  1.5405
 2442SOL     OW18787   1.723   2.761   7.058  0.5729 -0.7184  0.3852
 2442SOL    HW118788   1.711   2.707   7.136 -2.0356  1.0236  1.2169
 2442SOL    HW218789   1.642   2.812   7.058  1.7465  1.1299 -0.8197
 2443SOL     OW18790   3.516   0.960  12.335 -0.6638  0.1366 -0.6596
 2443SOL    HW118791   3.570   1.024  12.288  1.3387 -0.9373  0.1684
 2443SOL    HW218792   3.525   0.890  12.270  1.9231  1.4468 -1.6947
 2444SOL     OW18793   0.323   1.608   5.907  0.8430  0.1626 -0.4913
 2444SOL    HW118794   0.400   1.663   5.921  0.1344  1.3436 -1.1828
 2444SOL    HW218795   0.344   1.548   5.977 -0.1044  0.6962  0.2537
 2445SOL     OW18796   1.862   0.250   0.765 -0.2841  0.1047  0.0833
 2445SOL    HW118797   1.770   0.262   0.743 -0.0115  2.2319  0.1354
 2445SOL    HW218798   1.859   0.210   0.852 -1.1198  1.4870  0.6823
 2446SOL     OW18799   1.224   3.690   2.466  0.3104  0.8846  0.1447
 2446SOL    HW118800   1.251   3.656   2.551  1.5841 -0.0548 -0.6299
 2446SOL    HW218801   1.132   3.663   2.467  1.0457 -1.5773 -0.3938
 2447SOL     OW18802   0.770   3.868   5.707  0.3500 -0.0952  0.2976
 2447SOL    HW118803   0.740   3.925   5.636  0.3556 -1.5219 -0.8451
 2447SOL    HW218804   0.862   3.893   5.712  0.0474  1.1935 -0.5127
 2448SOL     OW18805   1.214   0.195   5.286 -0.1765 -0.1643 -0.2071
 2448SOL    HW118806   1.166   0.266   5.330  0.2734  0.4232 -0.6527
 2448SOL    HW218807   1.156   0.128   5.322  0.0477 -1.0516 -1.5153
 2449SOL     OW18808   3.753   0.108   7.593 -0.3546  0.2474 -0.1572
 2449SOL    HW118809   3.776   0.178   7.653 -1.5130  2.0651 -1.8463
 2449SOL    HW218810   3.657   0.105   7.602 -0.5487 -0.4549 -2.4169
 2450SOL     OW18811   3.824   2.790   6.675 -0.1795  0.4446 -0.3525
 2450SOL    HW118812   3.840   2.719   6.614 -1.1757 -0.6762  0.6954
 2450SOL    HW218813   3.799   2.748   6.757 -0.3069 -0.5701 -0.9235
 2451SOL     OW18814   2.005   4.107   8.538 -0.1785 -0.2734 -0.3116
 2451SOL    HW118815   2.028   4.149   8.621  0.3900 -2.2264  0.5281
 2451SOL    HW218816   2.058   4.028   8.537  0.1961 -0.0244 -0.0015
 2452SOL     OW18817   1.034   4.274   4.183  0.1678  0.4834 -0.4111
 2452SOL    HW118818   1.011   4.295   4.273  0.1600 -0.1328 -0.2701
 2452SOL    HW218819   1.064   4.360   4.154  0.1902  0.3660 -0.7380
 2453SOL     OW18820   3.502   2.313  13.645 -0.5120  0.0200  0.4460
 2453SOL    HW118821   3.581   2.285  13.599 -0.0075 -2.4675  2.8151
 2453SOL    HW218822   3.538   2.372  13.712 -0.4413  1.3454 -0.7395
 2454SOL     OW18823   2.442   0.742  11.916  0.6599  0.1872  0.7044
 2454SOL    HW118824   2.378   0.672  11.905  3.2065 -2.0971  0.4650
 2454SOL    HW218825   2.413   0.781  11.999  4.0176  1.9358  1.0659
 2455SOL     OW18826   2.910   3.333   9.882  0.0672 -0.4442 -0.1062
 2455SOL    HW118827   2.954   3.263   9.931  2.6140  1.9045  0.9712
 2455SOL    HW218828   2.890   3.284   9.803 -0.5055 -1.2089  0.5082
 2456SOL     OW18829   0.107   4.024   8.919 -0.2605  0.7881  0.3548
 2456SOL    HW118830   0.176   4.088   8.937 -0.0230  0.2161  1.4526
 2456SOL    HW218831   0.156   3.946   8.941 -1.6663 -0.4575 -0.9049
 2457SOL     OW18832   1.722   2.180   0.679 -0.2701 -0.5072  0.3458
 2457SOL    HW118833   1.807   2.211   0.710 -0.5401 -0.9836  1.5557
 2457SOL    HW218834   1.745   2.158   0.589 -1.2989 -1.5891  0.3537
 2458SOL     OW18835   2.409   2.396  17.640 -0.5333  0.2127  0.2189
 2458SOL    HW118836   2.429   2.369   0.031 -1.0094 -1.0756 -0.0556
 2458SOL    HW218837   2.396   2.309  17.603  0.0732  0.8521 -1.4706
 2459SOL     OW18838   0.098   4.027   6.891 -0.1431 -0.6323 -0.7885
 2459SOL    HW118839   0.020   4.050   6.942  0.1252 -2.0335  0.2506
 2459SOL    HW218840   0.089   4.086   6.816  2.4588  0.6249 -0.1055
 2460SOL     OW18841   2.029   1.733   3.261  0.6687  0.0560 -0.6880
 2460SOL    HW118842   1.982   1.776   3.190 -0.3670 -0.1316 -0.1145
 2460SOL    HW218843   1.964   1.754   3.328  0.2815 -1.2270 -0.6472
 2461SOL     OW18844   2.611   3.251   6.351 -0.0448 -0.1486  0.2697
 2461SOL    HW118845   2.535   3.229   6.297 -0.2547  2.3421 -0.4351
 2461SOL    HW218846   2.654   3.170   6.377  2.3653  0.0725 -2.9916
 2462SOL     OW18847   0.671   1.939  16.297 -0.6273 -0.2584  0.1346
 2462SOL    HW118848   0.648   2.016  16.350  0.0767  1.9282 -2.7158
 2462SOL    HW218849   0.597   1.941  16.236 -0.0753  1.7196 -0.4755
 2463SOL     OW18850   1.587   0.507   6.915  0.5431 -0.2543  0.0030
 2463SOL    HW118851   1.670   0.547   6.888  0.9793 -0.6764  0.7034
 2463SOL    HW218852   1.525   0.561   6.866  1.3164  1.2843  0.6927
 2464SOL     OW18853   2.115   2.080   0.510 -0.5394 -0.0487  0.4253
 2464SOL    HW118854   2.199   2.108   0.475 -0.5751  0.1714  0.5183
 2464SOL    HW218855   2.063   2.160   0.502 -0.7012 -0.2014 -0.0425
 2465SOL     OW18856   1.649   1.703   0.315 -0.7926 -0.2872  0.1928
 2465SOL    HW118857   1.736   1.669   0.338  0.4411  2.5276 -0.2992
 2465SOL    HW218858   1.591   1.630   0.297 -0.3335 -0.5832 -0.0897
 2466SOL     OW18859   4.251   1.675  12.762 -0.2264  0.1119 -0.8821
 2466SOL    HW118860   4.308   1.669  12.686  0.5085  0.4153 -0.3557
 2466SOL    HW218861   4.270   1.588  12.797 -0.1851  0.4549 -0.0350
 2467SOL     OW18862   4.102   1.250   8.393  0.3119 -0.0642 -0.7321
 2467SOL    HW118863   4.086   1.328   8.341 -2.1761  0.2347  0.4684
 2467SOL    HW218864   4.190   1.274   8.420  0.0694  0.6969 -0.6161
 2468SOL     OW18865   4.562   1.695   5.525 -0.0972  0.1279  0.6592
 2468SOL    HW118866   4.534   1.738   5.606  0.5422  0.0860  0.9011
 2468SOL    HW218867   4.637   1.642   5.551  0.0228  0.3139  0.6926
 2469SOL     OW18868   1.404   3.033   4.488  0.0911 -0.5683  0.3522
 2469SOL    HW118869   1.370   2.984   4.563  0.4732 -0.7178  0.4302
 2469SOL    HW218870   1.438   3.116   4.521 -0.1698 -0.0086 -0.7736
 2470SOL     OW18871   3.414   2.154  12.085 -0.2061 -0.0695 -0.2284
 2470SOL    HW118872   3.410   2.126  12.176  0.2752  0.0289 -0.1758
 2470SOL    HW218873   3.497   2.202  12.087  0.6265 -1.4902 -0.4102
 2471SOL     OW18874   0.722   4.561  12.202  0.4598  0.4235 -0.6119
 2471SOL    HW118875   0.673   4.564  12.284  0.5677  0.4951 -0.5495
 2471SOL    HW218876   0.653   4.583  12.140  0.1451  0.2421 -0.3259
 2472SOL     OW18877   0.539   0.837  13.965  0.6398  0.1991 -0.0468
 2472SOL    HW118878   0.571   0.893  14.035  0.4445 -0.4171  0.5307
 2472SOL    HW218879   0.451   0.874  13.953  0.4344 -0.4759 -0.6623
 2473SOL     OW18880   1.218   1.402   4.368 -0.5074  0.3499 -0.3286
 2473SOL    HW118881   1.230   1.307   4.366  0.1197  0.4154  0.5521
 2473SOL    HW218882   1.285   1.430   4.305  0.0102 -1.8954 -0.7846
 2474SOL     OW18883   3.627   0.979   6.727  0.1075 -0.5333 -0.2006
 2474SOL    HW118884   3.575   1.026   6.792  1.5709  2.2041 -0.9641
 2474SOL    HW218885   3.688   0.929   6.780  0.1791 -0.7444 -0.4804
 2475SOL     OW18886   1.355   2.740   8.666 -0.0474  0.5262  0.1485
 2475SOL    HW118887   1.290   2.688   8.713 -0.6285  1.7679  0.7446
 2475SOL    HW218888   1.343   2.822   8.714  4.4948  0.4427  1.4272
 2476SOL     OW18889   3.903   1.829   4.364  0.6307  0.3597 -0.1777
 2476SOL    HW118890   3.966   1.782   4.419  2.4005  1.4110 -1.2835
 2476SOL    HW218891   3.937   1.807   4.278 -0.7950  0.2583 -0.7154
 2477SOL     OW18892   4.029   1.838  12.565  0.2329 -0.5561 -0.3011
 2477SOL    HW118893   4.095   1.818  12.498  0.1961 -1.1999 -0.1497
 2477SOL    HW218894   4.035   1.932  12.551  0.9818 -0.5707 -0.1186
 2478SOL     OW18895   1.252   0.854  13.788 -0.2651  0.4369 -0.2802
 2478SOL    HW118896   1.174   0.833  13.737 -0.4937 -2.3499  1.1876
 2478SOL    HW218897   1.284   0.922  13.729 -3.5713  3.7169  1.7287
 2479SOL     OW18898   4.359   0.734   1.231 -0.1173  0.0920  0.0039
 2479SOL    HW118899   4.358   0.830   1.227 -0.6634  0.0301 -1.3173
 2479SOL    HW218900   4.378   0.713   1.322  1.6362 -1.2213 -0.6740
 2480SOL     OW18901   4.685   2.924   2.657  0.0827 -0.0926 -0.0737
 2480SOL    HW118902   4.638   2.955   2.734 -0.0881 -2.2231  0.6941
 2480SOL    HW218903   4.609   2.881   2.618  0.4747 -0.1924 -0.7304
 2481SOL     OW18904   0.003   2.975   7.297 -0.0311 -0.1046  0.2060
 2481SOL    HW118905   0.088   3.003   7.262 -0.0603  0.1089  0.3113
 2481SOL    HW218906   4.662   3.022   7.245 -0.2372 -1.8043 -1.0828
 2482SOL     OW18907   0.816   3.820   3.102 -0.1639 -0.0854  0.4052
 2482SOL    HW118908   0.806   3.843   3.009 -0.3878  0.7698  0.6468
 2482SOL    HW218909   0.737   3.766   3.115 -1.6588  2.1759  0.6010
 2483SOL     OW18910   0.712   2.987  11.068 -0.1690 -0.5254  0.5276
 2483SOL    HW118911   0.691   2.894  11.081 -2.4393  0.2093  2.1698
 2483SOL    HW218912   0.745   2.983  10.978 -3.3939 -2.1349 -0.5862
 2484SOL     OW18913   2.507   2.961   4.932  0.1241 -1.0243 -0.1101
 2484SOL    HW118914   2.598   2.962   4.959 -0.0115  0.2128  0.2955
 2484SOL    HW218915   2.511   2.900   4.859 -0.4019 -1.7725  0.4892
 2485SOL     OW18916   4.264   4.249  15.228  0.1233  0.7612 -0.5135
 2485SOL    HW118917   4.324   4.275  15.158 -0.6647  1.8422 -0.7809
 2485SOL    HW218918   4.195   4.310  15.205 -1.2130 -0.9579 -1.0651
 2486SOL     OW18919   1.437   2.957   8.973 -0.7347 -0.2344  0.3599
 2486SOL    HW118920   1.431   2.914   9.058 -1.8215  1.4540  1.1296
 2486SOL    HW218921   1.356   2.923   8.934 -1.0319 -0.4262  1.1620
 2487SOL     OW18922   0.164   2.271   8.769  0.3034 -0.4834 -0.0069
 2487SOL    HW118923   0.144   2.333   8.839 -3.5182  0.5011 -1.9939
 2487SOL    HW218924   0.211   2.328   8.707 -2.4531  2.7274  0.8085
 2488SOL     OW18925   1.673   0.256  13.033  0.4238  0.3045  0.0355
 2488SOL    HW118926   1.693   0.324  13.097 -1.2396 -1.9117  2.9312
 2488SOL    HW218927   1.692   0.306  12.954  0.1365 -1.5075 -1.1738
 2489SOL     OW18928   0.139   0.502   0.989  0.3572 -0.0280 -0.4431
 2489SOL    HW118929   0.172   0.413   0.973 -2.0243 -0.6238 -2.2219
 2489SOL    HW218930   0.055   0.474   1.026  1.1662 -0.7136  0.8942
 2490SOL     OW18931   4.623   2.953   5.205 -0.7464 -0.4447  0.2501
 2490SOL    HW118932   4.528   2.943   5.198 -0.8897  0.9192  0.2299
 2490SOL    HW218933   4.631   2.926   5.297 -2.0595 -1.8068 -0.0431
 2491SOL     OW18934   2.937   4.307   6.261  0.4758 -0.0245 -0.0990
 2491SOL    HW118935   2.961   4.342   6.347  1.0405  0.8632 -0.6170
 2491SOL    HW218936   2.919   4.216   6.284 -0.4048  0.5492  1.5067
 2492SOL     OW18937   0.292   4.267   2.732  0.6921  0.1451  0.1397
 2492SOL    HW118938   0.268   4.178   2.759  0.1346  1.0009  2.4449
 2492SOL    HW218939   0.345   4.285   2.809 -1.3636  1.4416  1.2470
 2493SOL     OW18940   1.464   4.543   3.266 -0.4287  0.0986 -0.0316
 2493SOL    HW118941   1.404   4.478   3.230  0.0690 -1.4755  1.9565
 2493SOL    HW218942   1.473   4.507   3.355  0.4357 -1.2380 -0.6651
 2494SOL     OW18943   2.258   0.320   3.652 -0.1960 -0.6147 -0.3016
 2494SOL    HW118944   2.237   0.235   3.691  1.4412 -0.9698 -0.1731
 2494SOL    HW218945   2.303   0.291   3.573 -0.2734  0.5041 -0.7467
 2495SOL     OW18946   1.901   2.374   6.220  0.0191  0.4507 -0.0212
 2495SOL    HW118947   1.969   2.343   6.279 -0.1667  2.2966  1.1891
 2495SOL    HW218948   1.960   2.407   6.153 -0.0978 -0.4970 -0.5882
 2496SOL     OW18949   4.304   1.097   4.340  0.2538 -0.4184  0.2822
 2496SOL    HW118950   4.345   1.095   4.426  0.3769  2.1331  0.2854
 2496SOL    HW218951   4.331   1.009   4.312 -0.9638 -0.5618 -0.4279
 2497SOL     OW18952   2.687   3.467  15.774 -0.0558 -0.0630  0.3952
 2497SOL    HW118953   2.606   3.489  15.728  0.9575  2.7696 -0.0601
 2497SOL    HW218954   2.700   3.555  15.810 -0.7954  1.0809 -2.1084
 2498SOL     OW18955   1.344   3.071   6.579  0.3024  0.0828 -0.0783
 2498SOL    HW118956   1.401   3.089   6.653  1.5962 -1.2134 -0.7476
 2498SOL    HW218957   1.402   3.117   6.519  2.3863 -1.6260  0.6323
 2499SOL     OW18958   4.414   4.625   0.785 -0.0392  0.4643 -0.4312
 2499SOL    HW118959   4.507   4.605   0.793 -0.8027 -3.1248 -0.6075
 2499SOL    HW218960   4.388   4.590   0.870 -1.3988  0.5239 -0.8279
 2500SOL     OW18961   3.166   1.421   9.366  0.1629 -0.1892  0.0642
 2500SOL    HW118962   3.233   1.442   9.300  0.0240 -2.7741 -0.9064
 2500SOL    HW218963   3.218   1.409   9.445 -0.2961  1.2810  0.5781
 2501SOL     OW18964   3.207   0.969   4.242 -0.4640  0.3470  0.3316
 2501SOL    HW118965   3.239   0.998   4.328 -1.0805  0.1522  0.6185
 2501SOL    HW218966   3.269   1.027   4.196  0.3229  0.4022  1.4660
 2502SOL     OW18967   2.767   1.627   6.883 -0.4488  0.0580  0.0146
 2502SOL    HW118968   2.803   1.570   6.815  0.6005  1.0206 -0.2433
 2502SOL    HW218969   2.817   1.586   6.954 -0.7329  1.8655  1.2615
 2503SOL     OW18970   1.868   3.420  17.445  0.1788  0.0819 -0.1006
 2503SOL    HW118971   1.863   3.422  17.350  0.1050 -2.1638 -0.1363
 2503SOL    HW218972   1.905   3.506  17.467 -0.2435  0.7261 -1.9387
 2504SOL     OW18973   3.365   2.229   4.746  0.2183  0.2422  0.4520
 2504SOL    HW118974   3.368   2.217   4.841 -2.5133  1.5219  0.6802
 2504SOL    HW218975   3.348   2.142   4.709  0.3865 -0.5039  2.1318
 2505SOL     OW18976   0.176   3.850   7.502 -0.6620 -0.5746  0.3435
 2505SOL    HW118977   0.164   3.885   7.590 -0.5957  1.5705 -0.5038
 2505SOL    HW218978   0.267   3.871   7.484 -0.9854 -1.1372 -1.9958
 2506SOL     OW18979   3.920   3.622  15.403  0.3327 -0.6330 -0.2913
 2506SOL    HW118980   3.947   3.711  15.384 -1.0315  0.1363  1.3389
 2506SOL    HW218981   3.945   3.621  15.496  1.1753  1.6381 -0.4993
 2507SOL     OW18982   4.268   2.845   4.920  0.6653  0.9524  0.1006
 2507SOL    HW118983   4.292   2.856   5.012 -0.5231 -1.4065  0.7098
 2507SOL    HW218984   4.174   2.835   4.936  0.1989  2.6305 -1.6132
 2508SOL     OW18985   1.099   2.561   7.314 -0.0354 -0.6506  0.2346
 2508SOL    HW118986   1.079   2.626   7.247 -0.8196 -1.1437 -0.0023
 2508SOL    HW218987   1.016   2.522   7.341 -0.8591  0.5502 -0.6016
 2509SOL     OW18988   2.510   1.040   6.587 -0.1424  0.2834 -0.0503
 2509SOL    HW118989   2.430   0.995   6.562  2.3488 -3.4639 -1.3227
 2509SOL    HW218990   2.565   0.973   6.628  0.0044  0.3713 -0.1023
 2510SOL     OW18991   0.360   0.276   3.766 -0.3397  0.1308 -0.9123
 2510SOL    HW118992   0.295   0.298   3.833 -0.0588 -0.1036 -0.5655
 2510SOL    HW218993   0.426   0.221   3.807 -2.4792 -3.2966 -2.0213
 2511SOL     OW18994   0.831   1.129  17.497  0.2635  0.1599  0.3274
 2511SOL    HW118995   0.874   1.090  17.420  2.1813  1.0971  0.9318
 2511SOL    HW218996   0.857   1.073  17.570 -0.4939  1.3734  1.5130
 2512SOL     OW18997   3.628   2.010   3.523 -0.1564 -0.2005  0.0401
 2512SOL    HW118998   3.713   1.996   3.565  0.3045  3.2832  0.2880
 2512SOL    HW218999   3.655   2.035   3.435  1.7002 -1.1520  0.3382
 2513SOL     OW19000   4.644   4.396   7.593 -0.2039 -0.1676 -0.0480
 2513SOL    HW119001   4.658   4.386   7.499  0.8231 -0.5051  0.1384
 2513SOL    HW219002   4.657   4.305   7.619 -1.4729 -0.5475 -0.7506
 2514SOL     OW19003   4.655   2.495   7.308 -0.1541 -0.1488 -0.6510
 2514SOL    HW119004   4.717   2.426   7.334  0.3135  0.1239 -1.0531
 2514SOL    HW219005   4.703   2.573   7.332  0.0008 -0.1053 -1.1166
 2515SOL     OW19006   0.506   1.089  11.456 -0.5155  0.1235 -0.1345
 2515SOL    HW119007   0.548   1.004  11.442  0.9123  0.7948  0.1164
 2515SOL    HW219008   0.539   1.135  11.378  1.2921 -0.8532  0.0531
 2516SOL     OW19009   1.900   2.446   7.303  0.0815  0.5154 -0.5715
 2516SOL    HW119010   1.827   2.407   7.350 -0.1923  0.0434 -1.3935
 2516SOL    HW219011   1.946   2.465   7.384  0.4965 -0.6534 -0.5294
 2517SOL     OW19012   2.337   0.008   3.164 -0.3239 -0.4977  0.3223
 2517SOL    HW119013   2.258   4.714   3.214 -0.9307 -1.2178 -0.9153
 2517SOL    HW219014   2.300   0.048   3.086  1.7144  0.3598 -0.2045
 2518SOL     OW19015   4.110   2.284   9.189 -0.0818  0.2256  0.4587
 2518SOL    HW119016   4.036   2.252   9.241 -0.5248  1.2822  0.4824
 2518SOL    HW219017   4.141   2.358   9.241 -0.8473 -0.7586  2.3180
 2519SOL     OW19018   3.770   1.941  12.834  0.3619  0.2750  0.2191
 2519SOL    HW119019   3.860   1.972  12.835 -0.5462  2.9462  1.1802
 2519SOL    HW219020   3.731   1.991  12.906 -1.3011  0.9269 -1.1181
 2520SOL     OW19021   4.040   3.656  13.568  0.8925  0.1854  0.1174
 2520SOL    HW119022   4.006   3.589  13.509 -0.0929  0.5398  0.2919
 2520SOL    HW219023   4.085   3.601  13.632  0.3542  0.8986  1.0964
 2521SOL     OW19024   2.448   2.478   4.329  0.4071  0.4081  0.4953
 2521SOL    HW119025   2.490   2.393   4.337  1.3472  0.9187  0.9629
 2521SOL    HW219026   2.411   2.478   4.418  0.3499 -2.8303  0.4762
 2522SOL     OW19027   3.398   1.900   8.452 -0.1206  0.0113  0.4118
 2522SOL    HW119028   3.431   1.869   8.368 -2.0810  0.9675 -0.7146
 2522SOL    HW219029   3.351   1.820   8.474 -0.2818 -0.0310 -0.0849
 2523SOL     OW19030   1.182   0.179   6.422  0.2528  0.3744 -0.3443
 2523SOL    HW119031   1.131   0.225   6.489 -0.2000 -0.0248 -0.4177
 2523SOL    HW219032   1.159   0.091   6.452  0.5768  0.9523  1.6128
 2524SOL     OW19033   2.067   4.632   1.887 -0.0124 -0.0377  0.2205
 2524SOL    HW119034   2.112   4.717   1.893 -0.2473  0.1302 -0.3459
 2524SOL    HW219035   2.055   4.618   1.981  0.1330  0.3281  0.2949
 2525SOL     OW19036   2.118   1.773   9.572 -0.1685 -0.2938 -0.5960
 2525SOL    HW119037   2.033   1.733   9.589 -0.2898  0.3903  0.4120
 2525SOL    HW219038   2.132   1.820   9.654  1.9824 -0.9897 -0.5750
 2526SOL     OW19039   2.971   1.382   8.775  0.6696 -0.5705  0.2181
 2526SOL    HW119040   2.981   1.366   8.869 -0.4659  0.3549  0.4964
 2526SOL    HW219041   2.925   1.298   8.766  0.8512 -0.8564  1.8615
 2527SOL     OW19042   0.833   0.836  10.536  0.1416  0.0951  0.1877
 2527SOL    HW119043   0.818   0.892  10.612  1.3422  1.0011 -0.2374
 2527SOL    HW219044   0.925   0.812  10.552 -0.0082 -0.4101  0.2783
 2528SOL     OW19045   1.512   1.823   4.309 -0.8560  0.6828 -0.2846
 2528SOL    HW119046   1.506   1.869   4.225 -2.0842  1.5538  0.2692
 2528SOL    HW219047   1.600   1.852   4.332  0.0068 -0.1989 -2.4771
 2529SOL     OW19048   2.529   4.128  12.921  0.0478 -0.1227  0.5863
 2529SOL    HW119049   2.592   4.057  12.936 -0.2254 -0.1228  1.7215
 2529SOL    HW219050   2.570   4.202  12.966  2.8843 -1.6219  0.5125
 2530SOL     OW19051   1.015   2.823   2.853  0.1098  0.6032 -0.3636
 2530SOL    HW119052   1.045   2.906   2.815  0.1350 -0.0884 -1.8553
 2530SOL    HW219053   1.078   2.807   2.923 -0.3781  1.5824  0.2883
 2531SOL     OW19054   1.301   2.077   4.402  0.4592  0.0595 -0.0910
 2531SOL    HW119055   1.249   2.054   4.324  2.7825 -0.8989 -1.3451
 2531SOL    HW219056   1.227   2.120   4.445 -0.0910  1.0004 -1.9702
 2532SOL     OW19057   3.478   1.146   6.900  0.6577 -0.0158  0.0708
 2532SOL    HW119058   3.545   1.165   6.966  1.1095  0.4110 -0.5169
 2532SOL    HW219059   3.425   1.082   6.949 -0.6916  1.5387  0.6404
 2533SOL     OW19060   4.707   1.010  12.949 -0.7412 -0.1323  0.1701
 2533SOL    HW119061   0.051   0.955  12.909  1.9071  1.7229  2.1273
 2533SOL    HW219062   0.036   1.066  13.005 -0.6363  0.9096 -0.9664
 2534SOL     OW19063   3.024   4.190   8.688 -1.2436  0.2054 -0.1986
 2534SOL    HW119064   2.976   4.117   8.650 -1.5846  0.4084 -0.1648
 2534SOL    HW219065   3.045   4.249   8.616 -0.2916  1.2579  0.9264
 2535SOL     OW19066   1.863   2.953  11.481  0.0828  0.1217  0.3229
 2535SOL    HW119067   1.867   2.934  11.387  0.7490  2.7967 -0.1894
 2535SOL    HW219068   1.801   2.882  11.500 -1.2985  1.0283 -0.8156
 2536SOL     OW19069   2.810   0.140  12.882  0.3717  0.9466 -0.2720
 2536SOL    HW119070   2.761   0.207  12.930 -0.2692  0.9835 -0.9774
 2536SOL    HW219071   2.900   0.169  12.896  0.4122  1.6569 -1.9242
 2537SOL     OW19072   1.131   1.113   8.366 -0.6005 -0.1392 -0.8330
 2537SOL    HW119073   1.174   1.038   8.407 -1.2266 -0.5262 -0.8813
 2537SOL    HW219074   1.054   1.119   8.423  0.1783 -1.4470  0.3638
 2538SOL     OW19075   0.266   3.528   7.116 -0.3384  0.4446  0.2650
 2538SOL    HW119076   0.297   3.612   7.084 -0.5513  1.4969  2.7815
 2538SOL    HW219077   0.282   3.538   7.210 -0.8407  0.9957  0.2933
 2539SOL     OW19078   2.343   4.643   8.121  0.2296  0.0320 -0.0126
 2539SOL    HW119079   2.339   4.710   8.053  0.5468 -0.3201 -0.3792
 2539SOL    HW219080   2.413   4.589   8.086  1.1366  0.7714  0.6708
 2540SOL     OW19081   3.274   3.886   7.702  0.7135 -0.3028 -0.0796
 2540SOL    HW119082   3.291   3.826   7.630  0.5208 -0.3058 -0.1248
 2540SOL    HW219083   3.185   3.911   7.677 -0.0759  1.0706  3.9401
 2541SOL     OW19084   3.911   0.185   5.935 -0.6854 -0.1028  0.1542
 2541SOL    HW119085   3.857   0.248   5.888 -2.1889  0.9365  3.3107
 2541SOL    HW219086   3.993   0.191   5.886 -2.1640  1.4611 -2.0774
 2542SOL     OW19087   1.882   1.433   2.098  0.3943 -0.0247  0.6367
 2542SOL    HW119088   1.904   1.371   2.029 -0.0051  0.4188  0.1099
 2542SOL    HW219089   1.801   1.405   2.140  0.4683  0.0196  0.8102
 2543SOL     OW19090   0.170   3.322  11.017  0.0640 -0.5854 -0.1573
 2543SOL    HW119091   0.213   3.392  10.967 -0.3979 -2.1744 -2.7590
 2543SOL    HW219092   0.081   3.337  10.986  0.6243 -0.8929 -1.9196
 2544SOL     OW19093   4.199   3.267   6.077  0.0160 -0.3517 -0.5221
 2544SOL    HW119094   4.156   3.300   5.998 -0.8844 -0.3812 -0.0422
 2544SOL    HW219095   4.289   3.274   6.048 -0.1705  1.0876 -0.7873
 2545SOL     OW19096   4.035   1.698   6.528  0.4285 -0.5837  0.0924
 2545SOL    HW119097   4.124   1.692   6.495  0.1819 -0.9656 -0.5045
 2545SOL    HW219098   3.994   1.627   6.479  1.9895 -1.1091 -0.4329
 2546SOL     OW19099   4.117   0.624   5.809  0.7073 -0.2124 -0.0285
 2546SOL    HW119100   4.033   0.579   5.816  0.2730  0.4607 -0.9669
 2546SOL    HW219101   4.119   0.654   5.718  1.3762  1.6354  0.5883
 2547SOL     OW19102   3.973   3.538   3.330  0.1118 -0.3823  0.0523
 2547SOL    HW119103   4.040   3.579   3.384 -0.2013  0.8464 -0.4855
 2547SOL    HW219104   4.021   3.519   3.250 -0.0312 -1.7829  0.3039
 2548SOL     OW19105   3.948   4.164  10.892  0.0735 -0.2906 -0.0505
 2548SOL    HW119106   3.970   4.147  10.800 -2.9197  1.0385 -1.0199
 2548SOL    HW219107   4.020   4.113  10.929  0.2349 -0.9048 -1.2083
 2549SOL     OW19108   2.055   4.427   4.168  0.3868 -0.3841 -0.9861
 2549SOL    HW119109   1.991   4.498   4.160  1.4499  0.4700 -2.0187
 2549SOL    HW219110   2.112   4.451   4.095  0.5416  1.0767 -0.3950
 2550SOL     OW19111   3.259   3.887   5.344 -0.4549 -0.1309  0.7492
 2550SOL    HW119112   3.192   3.843   5.396 -0.3431 -0.9460  0.2131
 2550SOL    HW219113   3.201   3.933   5.283 -1.3262 -2.4013 -0.1191
 2551SOL     OW19114   1.656   2.698   1.005 -0.4988  0.3835  0.4467
 2551SOL    HW119115   1.721   2.648   0.955  0.2775  2.3692 -0.5303
 2551SOL    HW219116   1.582   2.639   0.993 -0.6336  1.1127 -2.2378
 2552SOL     OW19117   0.046   1.988   4.770  0.2576  0.4885  0.4886
 2552SOL    HW119118   0.039   1.966   4.863 -0.3954 -0.6310  0.1753
 2552SOL    HW219119   0.018   2.079   4.764  0.2379  0.4810  0.4655
 2553SOL     OW19120   4.172   0.505   6.768  0.4481  0.2992  0.0229
 2553SOL    HW119121   4.219   0.560   6.831 -0.4919 -0.7807  1.6533
 2553SOL    HW219122   4.120   0.441   6.817 -1.5357 -0.8851 -3.6260
 2554SOL     OW19123   1.432   4.624   5.348  0.4917 -0.2490  0.4406
 2554SOL    HW119124   1.413   4.644   5.439  2.2522  2.1073  0.3081
 2554SOL    HW219125   1.468   4.536   5.363  0.0852 -0.1985  1.7184
 2555SOL     OW19126   3.319   3.518   6.321 -0.0157 -0.0611  0.3052
 2555SOL    HW119127   3.268   3.452   6.367  0.2527 -1.2105 -1.0251
 2555SOL    HW219128   3.394   3.511   6.379 -0.0974 -0.2535  0.3841
 2556SOL     OW19129   4.615   0.644   1.205 -0.1991  0.0698 -0.3056
 2556SOL    HW119130   4.542   0.704   1.217 -0.3853 -0.2029 -0.0725
 2556SOL    HW219131   4.684   0.709   1.188  0.7521 -0.4835  1.3336
 2557SOL     OW19132   2.633   0.012  16.275  0.6268 -0.0452 -0.2710
 2557SOL    HW119133   2.643   4.675  16.203 -1.4468  1.6465 -1.9915
 2557SOL    HW219134   2.593   4.686  16.346  1.0792 -0.6373 -0.4449
 2558SOL     OW19135   4.437   3.663   5.728 -0.0360 -0.4295  0.0568
 2558SOL    HW119136   4.523   3.636   5.696  0.7126  1.2649  0.6412
 2558SOL    HW219137   4.460   3.649   5.820  1.2610 -0.4568 -0.2700
 2559SOL     OW19138   0.572   0.865   4.414 -0.0956 -0.4724 -0.1004
 2559SOL    HW119139   0.530   0.807   4.477 -1.0468  0.2810 -0.0438
 2559SOL    HW219140   0.666   0.851   4.424  0.0459  1.4311  1.2337
 2560SOL     OW19141   4.126   0.299   3.136 -0.0046  0.2499 -0.0892
 2560SOL    HW119142   4.082   0.312   3.053 -1.3679 -0.4696  0.5292
 2560SOL    HW219143   4.218   0.294   3.111  0.6310 -3.6079  2.9340
 2561SOL     OW19144   4.217   0.846  10.188  0.1747  0.1867  0.7274
 2561SOL    HW119145   4.183   0.882  10.270 -0.3710  1.8494 -0.2234
 2561SOL    HW219146   4.300   0.894  10.178  0.5978 -0.3454  1.7337
 2562SOL     OW19147   1.618   0.538   7.195  0.1103  0.3162 -0.2087
 2562SOL    HW119148   1.711   0.550   7.175  0.1854 -0.8802 -0.5818
 2562SOL    HW219149   1.578   0.542   7.109 -0.2300  0.7404 -0.0273
 2563SOL     OW19150   4.228   2.968   7.195  0.5639 -0.5829  0.2924
 2563SOL    HW119151   4.149   3.011   7.229  1.2215  2.2880 -1.8659
 2563SOL    HW219152   4.241   2.906   7.268  0.6989 -2.4002 -1.2714
 2564SOL     OW19153   3.120   2.719   5.593 -0.1369  0.0149 -0.1087
 2564SOL    HW119154   3.158   2.642   5.636  1.5868  0.5662 -0.6784
 2564SOL    HW219155   3.195   2.730   5.536 -1.0029  1.7348 -0.9079
 2565SOL     OW19156   0.613   4.534   5.915 -0.4023  0.1089 -0.0838
 2565SOL    HW119157   0.647   4.585   5.989 -1.9413  1.0678 -0.0593
 2565SOL    HW219158   0.648   4.447   5.937 -1.1151 -0.1091  0.1752
 2566SOL     OW19159   0.589   4.595  13.410  0.4794  0.0791  0.0086
 2566SOL    HW119160   0.563   4.503  13.410  3.2431 -0.7130  0.3714
 2566SOL    HW219161   0.526   4.630  13.348  1.6277  0.6729 -0.8134
 2567SOL     OW19162   1.686   2.560   5.403 -0.1017  0.2674 -0.0128
 2567SOL    HW119163   1.719   2.520   5.484  0.8002 -1.5405 -1.2733
 2567SOL    HW219164   1.734   2.643   5.409  3.4423 -1.6602 -1.9242
 2568SOL     OW19165   4.572   0.422   9.154  0.1324 -0.0556  0.5498
 2568SOL    HW119166   4.632   0.417   9.080 -0.7323  0.7961 -0.2122
 2568SOL    HW219167   4.491   0.387   9.117  0.9315  1.0096 -2.2090
 2569SOL     OW19168   2.978   2.441   8.332  0.2713  0.0187  0.1549
 2569SOL    HW119169   2.946   2.389   8.258 -1.3552  1.0858  0.1099
 2569SOL    HW219170   2.898   2.478   8.370 -0.0274 -3.3436  2.9006
 2570SOL     OW19171   2.000   2.854   4.229 -0.2130 -0.4330  0.1013
 2570SOL    HW119172   1.907   2.846   4.212 -0.0159  0.3962 -1.3781
 2570SOL    HW219173   2.016   2.928   4.170  0.2051  1.6036  2.7968
 2571SOL     OW19174   2.524   4.113   7.472 -0.2940 -0.2126 -0.0289
 2571SOL    HW119175   2.466   4.176   7.428  0.1186 -0.7618 -1.3647
 2571SOL    HW219176   2.527   4.052   7.398  1.7804  0.6793 -0.6864
 2572SOL     OW19177   1.866   2.702   4.532 -0.0379  0.1879 -0.6693
 2572SOL    HW119178   1.897   2.737   4.616  0.6983 -0.6018 -0.6119
 2572SOL    HW219179   1.841   2.780   4.482 -0.2457 -0.1215 -1.0437
 2573SOL     OW19180   2.855   1.600   1.646 -0.1687 -0.5523  0.5772
 2573SOL    HW119181   2.900   1.659   1.707 -1.7482  1.4343 -0.1680
 2573SOL    HW219182   2.815   1.536   1.704 -0.2432 -0.2701  0.8397
 2574SOL     OW19183   0.666   3.776   0.798 -0.5494 -0.3131 -0.0669
 2574SOL    HW119184   0.726   3.722   0.746  0.3279  0.8650 -0.2911
 2574SOL    HW219185   0.645   3.713   0.866  0.4058  1.4669  1.8825
 2575SOL     OW19186   2.780   2.916   9.001  0.1306 -0.2331 -0.0053
 2575SOL    HW119187   2.872   2.894   9.014  0.4331 -0.2497 -2.1986
 2575SOL    HW219188   2.767   2.913   8.907  1.2584 -0.0943 -0.1596
 2576SOL     OW19189   1.057   4.529   1.607  0.3265 -0.2457  0.7231
 2576SOL    HW119190   0.979   4.541   1.661  0.0168 -2.8257  0.8476
 2576SOL    HW219191   1.083   4.621   1.598 -0.7181 -0.0590 -0.3848
 2577SOL     OW19192   3.333   1.867   6.680  0.0937  0.3796  0.2200
 2577SOL    HW119193   3.404   1.848   6.618 -0.6689  0.9886 -0.8503
 2577SOL    HW219194   3.267   1.804   6.652  1.3162 -1.5991  1.8379
 2578SOL     OW19195   1.006   3.836  10.877 -0.2624  0.3938 -0.0017
 2578SOL    HW119196   1.094   3.834  10.838 -0.2781  2.7219 -0.1418
 2578SOL    HW219197   0.971   3.921  10.849  0.8949  0.8081 -0.2214
 2579SOL     OW19198   0.818   1.366  17.200  0.4481  0.8012  0.4885
 2579SOL    HW119199   0.844   1.447  17.155  0.5281  0.8642  0.6494
 2579SOL    HW219200   0.902   1.321  17.209 -1.6500 -3.1403  0.3631
 2580SOL     OW19201   2.887   3.312   3.009  0.3838  0.2244  0.2768
 2580SOL    HW119202   2.938   3.244   3.054 -2.3961 -0.3113  2.6205
 2580SOL    HW219203   2.802   3.301   3.051 -0.0749  0.1043 -0.6851
 2581SOL     OW19204   0.212   4.684   0.855 -0.1061  0.3973 -0.2358
 2581SOL    HW119205   0.195   4.658   0.945  0.5213 -0.2861 -0.3146
 2581SOL    HW219206   0.196   4.604   0.804 -1.2686  0.2437  0.3639
 2582SOL     OW19207   3.699   4.010   2.493  0.4156 -0.5483 -0.5021
 2582SOL    HW119208   3.608   4.035   2.513  0.9204  0.3836  0.6584
 2582SOL    HW219209   3.757   4.084   2.510 -0.5081 -0.4005  2.0729
 2583SOL     OW19210   1.446   3.772   4.190 -0.0412 -0.3299  0.2304
 2583SOL    HW119211   1.520   3.731   4.235  0.8239 -0.3186 -1.1682
 2583SOL    HW219212   1.371   3.719   4.218 -2.1563  2.3579 -0.3833
 2584SOL     OW19213   3.912   0.327  10.838  0.3681  0.3313  0.0122
 2584SOL    HW119214   3.847   0.391  10.811 -0.2655 -0.8025 -1.1465
 2584SOL    HW219215   3.932   0.353  10.928 -2.5004 -2.7943  1.5533
 2585SOL     OW19216   4.211   3.531   5.829 -0.0949  0.0201  0.3011
 2585SOL    HW119217   4.261   3.514   5.908  0.6785  1.4752  0.1252
 2585SOL    HW219218   4.263   3.606   5.800  1.5194 -1.8729 -1.6007
 2586SOL     OW19219   0.559   3.040  11.332 -0.3020  0.0593  0.0073
 2586SOL    HW119220   0.511   2.960  11.314  1.1723 -0.7766 -0.1765
 2586SOL    HW219221   0.580   3.038  11.425 -0.5304  1.5231  0.0936
 2587SOL     OW19222   0.793   1.865   7.355 -0.3617  0.0071  0.1532
 2587SOL    HW119223   0.782   1.868   7.259 -2.7532  0.2370  0.4382
 2587SOL    HW219224   0.755   1.951   7.375  0.5240  0.2126  0.9599
 2588SOL     OW19225   0.911   1.823   8.476  0.1050  0.2741 -0.1824
 2588SOL    HW119226   0.931   1.867   8.393  0.2650  0.7166  0.0901
 2588SOL    HW219227   0.961   1.745   8.454  0.4494  0.0666  1.2995
 2589SOL     OW19228   2.173   3.125   1.136 -0.4777  0.3857 -0.4853
 2589SOL    HW119229   2.214   3.210   1.152 -1.7479  0.8866  0.1036
 2589SOL    HW219230   2.083   3.151   1.119 -0.6729  0.0395  0.0148
 2590SOL     OW19231   2.601   2.248   8.471 -0.0416 -0.6516 -0.2707
 2590SOL    HW119232   2.624   2.168   8.425 -0.6737 -0.8879 -0.1677
 2590SOL    HW219233   2.552   2.230   8.551  0.6694 -0.0121  0.3242
 2591SOL     OW19234   0.719   0.418  12.364 -0.4010 -0.5288  0.3662
 2591SOL    HW119235   0.736   0.508  12.336 -1.3187 -0.3382  0.4385
 2591SOL    HW219236   0.809   0.388  12.352 -0.2526  0.4681 -1.0328
 2592SOL     OW19237   2.529   2.457   7.888 -0.5421  0.2058 -0.4111
 2592SOL    HW119238   2.452   2.405   7.911 -0.3976 -0.3365 -1.1633
 2592SOL    HW219239   2.594   2.426   7.951 -1.9540 -0.3561  0.7963
 2593SOL     OW19240   0.088   2.965   3.283  0.3101 -0.3330  0.4649
 2593SOL    HW119241   4.721   2.959   3.258  0.3937  2.1703 -0.3959
 2593SOL    HW219242   0.085   3.027   3.356  1.1575  1.1686 -0.8022
 2594SOL     OW19243   2.499   1.528  12.354  0.1899 -0.2202  0.0612
 2594SOL    HW119244   2.451   1.501  12.276  1.2208  2.0968 -1.4178
 2594SOL    HW219245   2.579   1.567  12.317 -2.2680  2.0476 -2.9366
 2595SOL     OW19246   0.727   1.002   9.234 -0.2222 -0.3492 -0.5714
 2595SOL    HW119247   0.672   1.008   9.313  2.3362  1.3597  1.0666
 2595SOL    HW219248   0.777   0.929   9.271 -2.0919 -1.5010 -0.2839
 2596SOL     OW19249   0.007   4.415   7.297 -0.4266 -0.2706 -0.0156
 2596SOL    HW119250   0.041   4.381   7.214  0.2805 -1.1849  0.6596
 2596SOL    HW219251   0.088   4.432   7.346 -0.0573 -2.8548  0.2546
 2597SOL     OW19252   3.514   4.032   7.212  0.5068  0.2232  0.3441
 2597SOL    HW119253   3.467   4.032   7.295 -0.1015 -0.2205  0.0043
 2597SOL    HW219254   3.484   3.950   7.172 -1.8356  0.4607  1.6554
 2598SOL     OW19255   2.979   1.956   6.295 -0.8686  0.0570  0.6936
 2598SOL    HW119256   3.063   1.997   6.276 -0.9620  1.1689  2.6557
 2598SOL    HW219257   3.005   1.864   6.302 -1.0537 -0.0186  0.3852
 2599SOL     OW19258   0.562   3.087   4.075  0.2770 -1.0467  0.2708
 2599SOL    HW119259   0.553   3.182   4.081 -0.3401 -0.9967 -1.5041
 2599SOL    HW219260   0.482   3.069   4.026 -0.3733 -1.9685  1.6694
 2600SOL     OW19261   4.629   1.151   1.068 -0.5292  0.5729 -0.4705
 2600SOL    HW119262   4.710   1.164   1.119 -0.9610  0.1359  0.3431
 2600SOL    HW219263   4.587   1.233   1.092 -1.2177  0.4886 -1.4001
 2601SOL     OW19264   2.300   2.600   6.535 -0.0910  0.7044 -0.5237
 2601SOL    HW119265   2.263   2.512   6.538  1.8931 -0.0585  1.7351
 2601SOL    HW219266   2.341   2.607   6.622 -1.6047 -0.2807  0.2743
 2602SOL     OW19267   0.718   2.171   9.077 -0.4627  0.2190  0.3290
 2602SOL    HW119268   0.628   2.199   9.061  0.4840  2.8812 -0.3755
 2602SOL    HW219269   0.724   2.125   9.161 -3.0133 -0.5130  0.0891
 2603SOL     OW19270   2.180   4.695  12.084 -0.1074 -0.8979 -0.2460
 2603SOL    HW119271   2.246   4.640  12.127 -1.6017 -1.2611  1.5865
 2603SOL    HW219272   2.156   4.639  12.011  0.2926 -2.7100  1.0272
 2604SOL     OW19273   3.752   2.190   2.082  0.4184  0.4584 -0.2563
 2604SOL    HW119274   3.822   2.126   2.094 -0.5404 -0.5398 -0.0151
 2604SOL    HW219275   3.691   2.125   2.047  0.0383  1.3197 -1.1918
 2605SOL     OW19276   2.326   4.604  13.058  0.2148  0.2565 -0.1025
 2605SOL    HW119277   2.274   4.674  13.099  0.5756 -0.1278  1.0096
 2605SOL    HW219278   2.283   4.533  13.105 -1.2465  0.4261 -1.1885
 2606SOL     OW19279   4.092   1.982   4.977 -0.2769  0.3317 -0.5487
 2606SOL    HW119280   4.071   1.949   4.889 -1.1534  2.0598 -0.9808
 2606SOL    HW219281   4.132   1.905   5.018 -0.8340  0.1237 -0.4024
 2607SOL     OW19282   3.722   4.555   6.969  0.4924 -0.2059  0.3007
 2607SOL    HW119283   3.648   4.546   6.909 -0.0514  0.2142  0.9127
 2607SOL    HW219284   3.739   4.646   6.945 -1.4738  0.1669  0.3669
 2608SOL     OW19285   2.995   1.702   8.956  0.5222  0.1399 -0.2481
 2608SOL    HW119286   2.908   1.679   8.922  0.8372 -2.2096  0.5019
 2608SOL    HW219287   3.032   1.616   8.976 -1.9469 -0.9553 -0.3173
 2609SOL     OW19288   2.670   2.737  17.620  0.2850 -0.5178  0.0216
 2609SOL    HW119289   2.713   2.822  17.618 -1.8779  0.6301  2.8184
 2609SOL    HW219290   2.643   2.734   0.013  2.7633 -0.6715  0.7584
 2610SOL     OW19291   3.160   0.602   7.194 -0.2683  0.5163 -0.5165
 2610SOL    HW119292   3.117   0.630   7.275  1.7027  1.3798  0.2146
 2610SOL    HW219293   3.236   0.554   7.227  0.5264  2.2075  0.1008
 2611SOL     OW19294   4.018   2.871   3.809 -0.2336  0.2639 -0.0400
 2611SOL    HW119295   3.933   2.866   3.766  0.1452 -0.6363 -0.6850
 2611SOL    HW219296   4.034   2.782   3.840  0.7621  0.0437 -1.1800
 2612SOL     OW19297   0.605   3.123   7.334 -0.2164 -0.3845  0.4553
 2612SOL    HW119298   0.522   3.108   7.379 -0.7415  2.3359  0.3771
 2612SOL    HW219299   0.592   3.069   7.256  1.4958  0.1016 -0.1506
 2613SOL     OW19300   4.716   0.672   8.242  0.5572 -0.2729  0.2291
 2613SOL    HW119301   0.004   0.619   8.163  0.7145  0.6559 -0.3593
 2613SOL    HW219302   4.714   0.601   8.306 -0.5435 -0.8774 -0.4807
 2614SOL     OW19303   4.456   4.476   8.505  0.0104 -0.0581  0.3659
 2614SOL    HW119304   4.374   4.493   8.552 -0.2607 -0.5325  0.0744
 2614SOL    HW219305   4.415   4.422   8.437  0.2212 -3.1066  2.6114
 2615SOL     OW19306   0.455   3.301  11.611 -0.5994 -0.4149 -0.4137
 2615SOL    HW119307   0.388   3.337  11.552 -0.7242  0.7220  0.4326
 2615SOL    HW219308   0.468   3.213  11.575 -0.8590 -1.8668  3.0341
 2616SOL     OW19309   3.404   0.081   3.509 -0.2362  0.2289 -0.4469
 2616SOL    HW119310   3.415   0.172   3.482 -0.6423  0.9799  1.9741
 2616SOL    HW219311   3.318   0.082   3.468  0.9495  0.2928 -2.9462
 2617SOL     OW19312   0.736   3.449  15.922 -0.3441 -0.4717 -0.8716
 2617SOL    HW119313   0.715   3.440  15.829 -0.1383  1.1734 -1.0785
 2617SOL    HW219314   0.773   3.538  15.922 -0.7026 -0.3292  1.4086
 2618SOL     OW19315   1.381   3.377   7.502  0.6236 -0.3723  0.2366
 2618SOL    HW119316   1.434   3.404   7.577  0.1454 -2.0812  1.1932
 2618SOL    HW219317   1.305   3.435   7.507 -0.4308 -1.9234  2.1947
 2619SOL     OW19318   1.246   1.218   5.139 -0.2606 -0.5696  0.5126
 2619SOL    HW119319   1.259   1.125   5.161  0.4967 -0.3730  0.8810
 2619SOL    HW219320   1.224   1.256   5.223 -2.4287 -1.5332  0.4095
 2620SOL     OW19321   2.113   2.996   8.242 -0.1039 -0.3962 -0.0129
 2620SOL    HW119322   2.140   2.909   8.214  1.5401 -0.5412  2.0184
 2620SOL    HW219323   2.018   2.995   8.238 -0.0659  0.0681 -1.2862
 2621SOL     OW19324   4.308   3.025   8.075  0.9118  0.1245  0.4093
 2621SOL    HW119325   4.265   3.001   8.157  0.6207 -1.7490 -0.3101
 2621SOL    HW219326   4.355   3.106   8.095 -0.6548  0.3528  3.2320
 2622SOL     OW19327   2.305   2.939   5.266  0.0916  0.0758 -0.4732
 2622SOL    HW119328   2.312   3.034   5.275  1.7545  0.0825 -1.9203
 2622SOL    HW219329   2.385   2.905   5.307 -1.4751 -1.0858  1.5913
 2623SOL     OW19330   1.188   2.216   0.630 -0.0006 -0.0474  0.0756
 2623SOL    HW119331   1.256   2.239   0.567 -0.8658 -2.3288 -1.6995
 2623SOL    HW219332   1.237   2.246   0.706  0.7492 -0.8195 -0.1087
 2624SOL     OW19333   2.908   4.711  16.126 -0.0485  0.0247  0.4619
 2624SOL    HW119334   2.886   4.697  16.034 -1.1319 -0.2676  0.7670
 2624SOL    HW219335   2.898   0.081  16.138 -0.3598 -0.0417  0.7181
 2625SOL     OW19336   1.799   3.235  13.470  0.2399  0.7506 -0.0711
 2625SOL    HW119337   1.713   3.203  13.445  2.0090 -2.3318 -2.2450
 2625SOL    HW219338   1.780   3.325  13.494 -1.7527 -0.2941  2.2904
 2626SOL     OW19339   1.454   0.086   3.176  0.2413 -0.1760 -0.3173
 2626SOL    HW119340   1.471   4.718   3.189 -0.1310 -0.3386 -0.9495
 2626SOL    HW219341   1.475   0.093   3.083  0.6053  0.5858 -0.1821
 2627SOL     OW19342   1.646   2.080   3.695  0.2348 -0.3165 -0.1600
 2627SOL    HW119343   1.638   2.156   3.637  0.3925  0.1272  0.4010
 2627SOL    HW219344   1.554   2.086   3.722  0.5782  1.5018  0.5969
 2628SOL     OW19345   2.872   2.645   1.879 -0.5124  0.1280 -0.5966
 2628SOL    HW119346   2.827   2.725   1.852 -0.9020 -0.0866 -0.5847
 2628SOL    HW219347   2.962   2.676   1.890 -0.3386 -1.1513  1.4768
 2629SOL     OW19348   2.166   2.395  12.632  0.0045 -0.7302 -0.1373
 2629SOL    HW119349   2.139   2.433  12.716 -0.8251 -0.9288 -0.3223
 2629SOL    HW219350   2.260   2.375  12.638 -0.0505 -0.7599  0.6811
 2630SOL     OW19351   3.725   4.444   1.731  0.2120 -0.2509  0.0472
 2630SOL    HW119352   3.712   4.374   1.795 -1.6035 -0.6976 -0.7906
 2630SOL    HW219353   3.695   4.523   1.775  1.2972 -0.3339  0.9452
 2631SOL     OW19354   1.925   0.526   4.311  0.0781 -0.0244 -0.0615
 2631SOL    HW119355   1.935   0.535   4.216  2.8182 -2.2095 -0.0036
 2631SOL    HW219356   1.836   0.490   4.315  0.4137 -1.0779 -1.9937
 2632SOL     OW19357   3.709   3.204  11.131 -0.1601 -0.1309  0.5468
 2632SOL    HW119358   3.645   3.159  11.185  0.4583 -1.8148 -0.1197
 2632SOL    HW219359   3.782   3.214  11.192 -0.3152  0.2293  0.6720
 2633SOL     OW19360   4.604   0.906   5.458  0.5370 -0.1632  0.2506
 2633SOL    HW119361   4.577   0.858   5.537  1.7007 -1.0931  0.0917
 2633SOL    HW219362   4.614   0.836   5.393  2.9454 -0.8533  1.3527
 2634SOL     OW19363   0.221   2.559   1.349  0.6071 -0.2829  0.2034
 2634SOL    HW119364   0.194   2.468   1.346  0.1046 -0.1480  0.8126
 2634SOL    HW219365   0.313   2.549   1.322  0.8994  1.1211  0.6852
 2635SOL     OW19366   1.965   2.078   3.367 -0.7493  0.1388  0.0515
 2635SOL    HW119367   1.951   2.149   3.430  0.6714  0.0319  0.4863
 2635SOL    HW219368   1.937   2.130   3.292 -1.0407  1.6433  1.1978
 2636SOL     OW19369   3.751   3.688   5.142  0.3132  0.2230 -0.2519
 2636SOL    HW119370   3.722   3.667   5.231 -0.5750 -0.8599 -0.7909
 2636SOL    HW219371   3.721   3.607   5.101 -1.7072 -0.3256  2.2756
 2637SOL     OW19372   3.178   1.451  11.509 -0.2360 -0.1460  0.1994
 2637SOL    HW119373   3.251   1.513  11.515 -2.3207  2.4592 -1.0922
 2637SOL    HW219374   3.110   1.512  11.479  1.7491  0.8704 -2.2465
 2638SOL     OW19375   0.601   3.379   3.343 -0.2860 -0.4996  0.3063
 2638SOL    HW119376   0.571   3.443   3.278  1.0669  1.3286  1.4955
 2638SOL    HW219377   0.632   3.432   3.417 -1.4571 -0.0404  0.4676
 2639SOL     OW19378   2.758   2.864  15.233  0.1119  0.1689 -0.0820
 2639SOL    HW119379   2.846   2.871  15.269 -0.0380 -1.6483  0.6329
 2639SOL    HW219380   2.717   2.805  15.296 -0.0953 -0.9402 -1.2543
 2640SOL     OW19381   0.115   1.376   0.969 -0.1190  0.1828 -0.2673
 2640SOL    HW119382   0.127   1.470   0.983  0.4664  0.2494 -1.1963
 2640SOL    HW219383   0.162   1.340   1.044 -2.0589 -3.5831 -0.8643
 2641SOL     OW19384   3.503   1.445  15.547  0.2670  0.3784  0.4328
 2641SOL    HW119385   3.466   1.529  15.520 -1.4223 -0.0985  1.2750
 2641SOL    HW219386   3.537   1.412  15.464 -1.4520  0.7144 -0.4186
 2642SOL     OW19387   1.349   2.400   1.810 -0.3500  0.9338 -0.1404
 2642SOL    HW119388   1.336   2.307   1.830  0.7636  0.4878 -1.4213
 2642SOL    HW219389   1.416   2.419   1.876  0.8426 -1.7321 -0.5615
 2643SOL     OW19390   3.722   3.450   7.531  0.4941  0.0308 -0.0780
 2643SOL    HW119391   3.748   3.375   7.585 -1.7354 -1.4627 -1.0790
 2643SOL    HW219392   3.738   3.516   7.598  2.2141  1.6868 -2.1342
 2644SOL     OW19393   2.847   0.215   5.395  0.1176  0.5283 -0.0146
 2644SOL    HW119394   2.830   0.125   5.368  2.5720 -0.0185  0.2894
 2644SOL    HW219395   2.783   0.223   5.466  1.0589 -0.7503  0.9785
 2645SOL     OW19396   1.086   1.115   4.004 -0.5810 -0.1093  0.0740
 2645SOL    HW119397   0.997   1.085   3.987 -0.9540  1.1201 -0.1409
 2645SOL    HW219398   1.076   1.210   4.001 -0.1531 -0.0050  1.8044
 2646SOL     OW19399   0.158   0.438   3.587 -0.3039  0.5283  1.0406
 2646SOL    HW119400   0.172   0.439   3.682  1.0695  1.6494  0.8112
 2646SOL    HW219401   0.242   0.459   3.547 -0.7390 -0.5024 -0.3922
 2647SOL     OW19402   4.491   0.908  17.063 -0.3816  0.0404 -0.4513
 2647SOL    HW119403   4.413   0.923  17.117 -0.0343  0.2800 -0.0173
 2647SOL    HW219404   4.453   0.868  16.985 -0.4139 -0.3459 -0.2364
 2648SOL     OW19405   0.022   3.196   5.311  0.0290 -0.9516  0.0583
 2648SOL    HW119406   4.692   3.120   5.293  1.2814 -1.2277 -2.5484
 2648SOL    HW219407   4.692   3.272   5.294 -1.8245 -2.4133 -0.4673
 2649SOL     OW19408   0.986   1.258   7.083 -0.7138  0.8420 -0.1086
 2649SOL    HW119409   0.935   1.247   7.164 -0.1030  0.5929  0.2425
 2649SOL    HW219410   1.078   1.233   7.095 -1.2327 -0.4661  1.1095
 2650SOL     OW19411   4.049   0.001  15.557 -0.4445  0.5986 -0.4405
 2650SOL    HW119412   3.967   0.013  15.508 -0.1075 -1.6823 -1.5484
 2650SOL    HW219413   4.092   0.077  15.518 -2.2034  0.7713 -2.0680
 2651SOL     OW19414   1.494   4.627   7.061 -0.0307 -0.0716 -0.3104
 2651SOL    HW119415   1.436   4.702   7.070  0.9925  0.3054  3.3071
 2651SOL    HW219416   1.564   4.642   7.124 -0.3529 -0.5862  0.1760
 2652SOL     OW19417   1.059   0.319  12.104 -0.4577 -0.3242  0.1844
 2652SOL    HW119418   1.035   0.304  12.195 -2.1655  1.2794 -0.0103
 2652SOL    HW219419   1.054   0.415  12.102  2.0660 -0.1801  0.6788
 2653SOL     OW19420   3.373   2.531  16.927 -0.2233  0.6014  0.2073
 2653SOL    HW119421   3.361   2.622  16.955 -0.4391 -0.0756  2.3113
 2653SOL    HW219422   3.468   2.518  16.927 -0.2035  0.6999 -2.3262
 2654SOL     OW19423   1.044   4.085   7.415  0.1942  0.2300  0.2228
 2654SOL    HW119424   1.001   4.126   7.490  0.4421  1.0291 -0.0757
 2654SOL    HW219425   1.131   4.123   7.423  0.7665 -0.8522 -0.8051
 2655SOL     OW19426   3.800   2.322   0.549  0.4141  0.0126 -0.6180
 2655SOL    HW119427   3.755   2.358   0.472  1.0384  2.5374  0.1913
 2655SOL    HW219428   3.887   2.325   0.509 -0.0572  1.4410 -1.5463
 2656SOL     OW19429   4.656   1.456   7.722 -0.4393 -0.3607 -0.1508
 2656SOL    HW119430   4.708   1.389   7.767 -1.1276 -0.1715  0.9372
 2656SOL    HW219431   4.590   1.485   7.785  1.2592 -0.4060  1.6806
 2657SOL     OW19432   3.052   0.072   7.459  0.1157 -0.3237 -0.0104
 2657SOL    HW119433   3.012   0.147   7.504 -1.6151 -0.4687 -1.3216
 2657SOL    HW219434   3.008   4.722   7.501  0.3774 -0.2267  0.4438
 2658SOL     OW19435   0.556   4.429   4.458  0.6541  0.7863 -0.6393
 2658SOL    HW119436   0.530   4.343   4.426  0.3858  0.6944 -0.1655
 2658SOL    HW219437   0.615   4.407   4.530  0.9266 -0.9719 -1.3978
 2659SOL     OW19438   0.074   1.430   3.839  0.2487 -0.2585  0.1337
 2659SOL    HW119439   0.005   1.484   3.800 -0.3508 -0.6291  0.6806
 2659SOL    HW219440   0.128   1.413   3.761  0.7908  0.7110  0.2997
 2660SOL     OW19441   1.239   0.668   8.522  0.2422 -0.4096  0.1464
 2660SOL    HW119442   1.274   0.740   8.470 -1.3823  0.6171  0.4866
 2660SOL    HW219443   1.255   0.606   8.451  3.0378 -2.5410  2.6441
 2661SOL     OW19444   3.455   2.451   2.412 -0.2691 -0.6282  0.1619
 2661SOL    HW119445   3.475   2.377   2.355 -1.0604 -1.6201  1.1953
 2661SOL    HW219446   3.526   2.508   2.381  0.2434 -1.0409  0.5821
 2662SOL     OW19447   3.715   1.416   2.291 -0.6076 -0.5404 -0.7985
 2662SOL    HW119448   3.800   1.407   2.336 -0.6429 -1.9924 -1.0239
 2662SOL    HW219449   3.659   1.462   2.354 -0.2252 -0.5175 -0.4730
 2663SOL     OW19450   4.117   3.415   7.101 -0.2186  0.0557 -0.1273
 2663SOL    HW119451   4.169   3.448   7.028  0.3398  0.6858  0.5589
 2663SOL    HW219452   4.149   3.462   7.178  1.4737 -0.2389 -0.6539
 2664SOL     OW19453   1.520   1.324   7.102  0.3388 -0.3212 -0.6737
 2664SOL    HW119454   1.580   1.251   7.088  2.3365  1.3659 -1.0595
 2664SOL    HW219455   1.567   1.396   7.059  1.3347  0.5582  1.8442
 2665SOL     OW19456   1.764   4.353   4.207 -0.3166 -0.1442 -0.8100
 2665SOL    HW119457   1.780   4.274   4.155  0.2018  0.1711 -1.1355
 2665SOL    HW219458   1.700   4.318   4.268 -0.0172 -0.1165 -0.4770
 2666SOL     OW19459   2.319   2.393   3.673  0.3212 -0.5754  0.5715
 2666SOL    HW119460   2.395   2.357   3.627  2.9667  1.5090  3.2728
 2666SOL    HW219461   2.284   2.315   3.716  2.0880 -0.5369  2.1137
 2667SOL     OW19462   3.974   0.423   5.128  0.4033  0.6661  0.3572
 2667SOL    HW119463   4.029   0.438   5.051 -1.2643  1.7391 -0.6488
 2667SOL    HW219464   3.999   0.337   5.161  0.8541  1.2910  1.6166
 2668SOL     OW19465   4.641   0.093   4.981 -0.2940  0.1304 -0.4488
 2668SOL    HW119466   4.698   0.157   4.938 -0.5231 -0.1364 -1.1558
 2668SOL    HW219467   4.693   0.049   5.048  1.4443  2.7565 -0.0550
 2669SOL     OW19468   0.226   1.653  11.363  0.1775 -0.0191 -0.6685
 2669SOL    HW119469   0.132   1.657  11.377 -0.1227  2.7708 -3.5662
 2669SOL    HW219470   0.251   1.743  11.383  0.9148 -0.8805  2.3004
 2670SOL     OW19471   4.332   0.433   8.162  0.2605 -0.6787  0.0562
 2670SOL    HW119472   4.273   0.483   8.106 -1.8620  0.8057  3.5918
 2670SOL    HW219473   4.405   0.495   8.170 -1.5710  1.3790  1.1330
 2671SOL     OW19474   1.363   1.299   8.000 -0.0725  0.1350  0.2299
 2671SOL    HW119475   1.439   1.314   7.944  0.9450 -0.8806  1.3619
 2671SOL    HW219476   1.383   1.333   8.087 -0.2413  0.5101  0.1252
 2672SOL     OW19477   4.659   4.593   1.801 -0.1632  0.4395  0.0116
 2672SOL    HW119478   4.629   4.677   1.833 -1.2979 -0.2593  0.7934
 2672SOL    HW219479   0.007   4.559   1.853 -0.9748 -1.3430 -0.0057
 2673SOL     OW19480   2.921   3.452  16.197 -0.1450  0.1529 -0.2829
 2673SOL    HW119481   2.827   3.434  16.188 -0.3082  0.3634  0.9665
 2673SOL    HW219482   2.957   3.455  16.108  2.4611 -0.0243  0.7709
 2674SOL     OW19483   3.023   0.805   4.486  0.6176 -0.3820 -0.2657
 2674SOL    HW119484   3.004   0.815   4.393  4.5975 -1.4658 -1.2293
 2674SOL    HW219485   3.074   0.884   4.502 -0.7809  0.7562 -1.5470
 2675SOL     OW19486   0.890   1.396   5.357 -0.4922  0.2179  0.0860
 2675SOL    HW119487   0.932   1.452   5.292 -0.0650 -0.3097 -0.0916
 2675SOL    HW219488   0.947   1.420   5.430 -0.1751 -0.1688 -0.0308
 2676SOL     OW19489   2.871   0.163   8.484 -0.1052 -0.2609  0.3021
 2676SOL    HW119490   2.867   0.073   8.515 -0.6949 -0.5961 -0.7390
 2676SOL    HW219491   2.882   0.209   8.567  0.0246 -0.0049  0.1426
 2677SOL     OW19492   0.823   3.556   5.803 -0.3284 -0.3230  0.7366
 2677SOL    HW119493   0.863   3.641   5.820 -1.8891  1.0971 -2.5992
 2677SOL    HW219494   0.889   3.499   5.842  0.2643  0.3665  0.7428
 2678SOL     OW19495   3.993   2.008   2.944  0.0701  0.1032  0.1809
 2678SOL    HW119496   3.982   2.072   3.014 -1.8744 -1.0335  0.8984
 2678SOL    HW219497   4.072   2.050   2.911 -0.2972  0.7049  0.0814
 2679SOL     OW19498   2.200   1.438  10.255  0.0883  0.2065 -0.3490
 2679SOL    HW119499   2.158   1.354  10.237 -0.6497  0.5837 -0.3706
 2679SOL    HW219500   2.130   1.497  10.228 -0.5555 -0.9121 -1.1527
 2680SOL     OW19501   1.071   0.437  11.616  0.3082  0.0016 -0.0860
 2680SOL    HW119502   1.143   0.413  11.557  0.5406  0.4735 -0.0000
 2680SOL    HW219503   1.001   0.409  11.558 -0.6933  0.3948  0.9302
 2681SOL     OW19504   3.240   3.018   8.522 -0.6335 -0.5389  0.6266
 2681SOL    HW119505   3.188   3.098   8.513  2.4336  1.7845  3.3206
 2681SOL    HW219506   3.306   3.050   8.584  1.5680  0.5617 -2.2366
 2682SOL     OW19507   4.146   2.260   4.977  0.0821 -0.2012 -0.3558
 2682SOL    HW119508   4.118   2.169   4.987 -2.5923  0.8471  1.8584
 2682SOL    HW219509   4.211   2.269   5.047  0.6531  3.4852 -1.3509
 2683SOL     OW19510   2.725   1.228  17.536 -0.1755  0.0487  0.3065
 2683SOL    HW119511   2.665   1.264  17.469 -0.5699  1.7188  1.5586
 2683SOL    HW219512   2.750   1.313  17.572  1.4800  0.2642 -1.3682
 2684SOL     OW19513   0.490   2.073   3.706  0.1825  0.2385 -0.0342
 2684SOL    HW119514   0.490   2.135   3.634  3.6280  1.3470  0.9235
 2684SOL    HW219515   0.539   2.120   3.773 -3.1345  2.1603  1.0183
 2685SOL     OW19516   0.266   4.137  13.934 -0.2413 -0.2120 -0.7310
 2685SOL    HW119517   0.249   4.164  13.843 -0.8277  0.8136 -0.3177
 2685SOL    HW219518   0.359   4.159  13.942 -0.0812 -1.0694 -0.3195
 2686SOL     OW19519   1.019   3.705  16.231  0.2570  0.1168  0.1985
 2686SOL    HW119520   1.051   3.615  16.230  2.2349  0.8459 -1.8057
 2686SOL    HW219521   0.986   3.707  16.321  0.4212 -1.7464  0.2884
 2687SOL     OW19522   0.292   0.865  10.668  0.0865 -0.4151  0.2649
 2687SOL    HW119523   0.221   0.866  10.603  1.1175  0.0250 -0.8525
 2687SOL    HW219524   0.234   0.876  10.743  1.8469 -1.4308  1.7514
 2688SOL     OW19525   1.186   1.807  10.146  0.1924 -0.3234  0.4396
 2688SOL    HW119526   1.266   1.848  10.112 -0.7938 -1.2837 -3.0734
 2688SOL    HW219527   1.212   1.716  10.130  1.0539  0.0817 -0.5308
 2689SOL     OW19528   2.266   2.827  12.071 -0.7465 -0.1255 -0.2749
 2689SOL    HW119529   2.223   2.909  12.097 -0.8900 -0.1379 -0.4789
 2689SOL    HW219530   2.306   2.855  11.989 -1.0041  1.5695  0.1711
 2690SOL     OW19531   3.009   2.069   5.828 -0.0966 -0.6243 -0.3579
 2690SOL    HW119532   2.968   2.133   5.886  1.4824  0.9093 -0.9123
 2690SOL    HW219533   2.982   1.988   5.870 -2.2149  0.9925  1.4307
 2691SOL     OW19534   3.055   1.626   5.465  0.1748 -0.1554  0.4078
 2691SOL    HW119535   2.968   1.651   5.436 -0.5014  0.7020  3.1984
 2691SOL    HW219536   3.033   1.550   5.519  1.0342 -0.8756 -0.2468
 2692SOL     OW19537   1.663   1.791   2.949 -0.4157  0.1351  0.1269
 2692SOL    HW119538   1.669   1.850   2.874 -0.5598  1.0291  0.8181
 2692SOL    HW219539   1.682   1.707   2.907 -2.0823 -0.6246  0.8863
 2693SOL     OW19540   3.738   2.256   3.944 -0.4704  0.4928  0.1122
 2693SOL    HW119541   3.659   2.202   3.948 -1.5022  2.0360  0.3466
 2693SOL    HW219542   3.719   2.330   4.002 -3.6727  0.0173 -0.3620
 2694SOL     OW19543   1.889   2.801  14.786 -0.3669 -0.1063  0.0111
 2694SOL    HW119544   1.821   2.776  14.849 -0.1444 -1.7221 -0.4043
 2694SOL    HW219545   1.963   2.806  14.847  0.5319 -1.6801 -0.9649
 2695SOL     OW19546   3.179   4.343   4.974 -0.0621 -0.6828  0.2117
 2695SOL    HW119547   3.136   4.259   4.988 -0.1439 -0.6142  0.3682
 2695SOL    HW219548   3.263   4.322   5.015  0.4315 -2.2238 -1.5694
 2696SOL     OW19549   1.067   1.532   9.875  0.4633  0.2321 -0.6473
 2696SOL    HW119550   1.094   1.612   9.830 -0.5139  0.7144 -0.3815
 2696SOL    HW219551   1.017   1.496   9.802  1.6840 -0.3032 -1.2199
 2697SOL     OW19552   0.864   0.199   7.412  0.3640 -0.1115  0.3755
 2697SOL    HW119553   0.791   0.205   7.350  0.7425 -0.0697 -0.0610
 2697SOL    HW219554   0.858   0.107   7.438  0.1306  0.1043  1.0861
 2698SOL     OW19555   0.422   1.483  12.450 -0.8188  0.1478  0.5983
 2698SOL    HW119556   0.444   1.568  12.410 -1.0576  0.0345  0.2295
 2698SOL    HW219557   0.373   1.438  12.382  2.2049 -0.7243 -1.0040
 2699SOL     OW19558   4.400   4.544   5.858  0.0441 -0.5818  0.3015
 2699SOL    HW119559   4.338   4.474   5.881 -0.3019 -0.2581  0.3573
 2699SOL    HW219560   4.462   4.530   5.930  0.8212  1.3736  0.0017
 2700SOL     OW19561   2.464   0.592   1.340  0.1523  0.1736  0.2007
 2700SOL    HW119562   2.551   0.555   1.352  1.6700  2.8119 -2.7628
 2700SOL    HW219563   2.429   0.535   1.408  0.9951 -0.8397 -0.2091
 2701SOL     OW19564   0.611   4.401   3.647  0.0511 -0.8617 -0.1353
 2701SOL    HW119565   0.633   4.386   3.739  4.0624 -1.0514 -1.1372
 2701SOL    HW219566   0.669   4.475   3.631 -0.8619  0.1323  1.1524
 2702SOL     OW19567   1.716   0.799  16.547  0.0173  0.2099 -0.1797
 2702SOL    HW119568   1.704   0.800  16.452  0.0397  0.5703 -0.1783
 2702SOL    HW219569   1.656   0.871  16.567  0.2006 -0.2259  1.9529
 2703SOL     OW19570   1.086   3.035   9.643 -0.3216 -0.2696  0.4172
 2703SOL    HW119571   1.071   3.055   9.551 -0.7057  0.8852  0.7368
 2703SOL    HW219572   0.994   3.047   9.668 -0.3648  0.7393 -0.2417
 2704SOL     OW19573   0.913   1.877   5.544  0.0879 -0.1567  0.3135
 2704SOL    HW119574   0.848   1.811   5.520 -1.4660  0.5869  2.5668
 2704SOL    HW219575   0.946   1.901   5.457  2.7350 -0.7894  1.1288
 2705SOL     OW19576   1.844   3.666   7.839  0.8369  0.2995  0.4576
 2705SOL    HW119577   1.935   3.639   7.829  1.4659  2.5409  0.1277
 2705SOL    HW219578   1.868   3.757   7.853 -0.2498  0.4687  1.2326
 2706SOL     OW19579   0.200   0.200   3.197  0.4751 -0.4170 -0.5411
 2706SOL    HW119580   0.187   0.241   3.112  2.6783  1.6075  0.0937
 2706SOL    HW219581   0.123   0.237   3.239 -1.9522 -2.8055 -2.9120
 2707SOL     OW19582   3.764   4.318  11.249 -0.0966  0.5585  0.2574
 2707SOL    HW119583   3.834   4.382  11.264 -1.2662  1.7365  0.6504
 2707SOL    HW219584   3.804   4.240  11.288  1.8776  1.1259 -0.6163
 2708SOL     OW19585   1.487   2.650   0.698  0.0432 -0.1136  0.4238
 2708SOL    HW119586   1.508   2.606   0.615 -0.1843 -2.6117  1.6668
 2708SOL    HW219587   1.455   2.580   0.755  3.5068 -0.6067  1.7699
 2709SOL     OW19588   0.178   4.555   2.341  0.0945 -0.6655  0.4143
 2709SOL    HW119589   0.111   4.620   2.360  0.0695 -0.2461 -1.0550
 2709SOL    HW219590   0.181   4.554   2.245 -0.8940  1.0990  0.3660
 2710SOL     OW19591   4.326   4.596   6.482  0.5198  0.3974 -0.3692
 2710SOL    HW119592   4.359   4.578   6.394  1.6257  0.2424  0.0848
 2710SOL    HW219593   4.394   4.554   6.533  0.3834  0.0612 -0.4662
 2711SOL     OW19594   4.047   0.365   8.361  0.1139  0.3396  0.4490
 2711SOL    HW119595   4.089   0.305   8.422  0.4164 -0.3298 -0.4120
 2711SOL    HW219596   4.001   0.307   8.300  0.1942  1.3263 -0.5501
 2712SOL     OW19597   1.354   1.904   7.415 -0.1216 -0.2855  0.0588
 2712SOL    HW119598   1.389   1.819   7.442  0.2171  0.6074  2.4093
 2712SOL    HW219599   1.262   1.878   7.414  0.0146 -0.7812  0.6463
 2713SOL     OW19600   2.579   4.094   8.894  0.4515  0.1102  0.1289
 2713SOL    HW119601   2.597   4.159   8.962 -3.0783 -0.2592  1.4095
 2713SOL    HW219602   2.661   4.046   8.899  0.3715 -0.2303 -1.9212
 2714SOL     OW19603   0.927   0.439   9.562  0.2235 -0.0457  0.2160
 2714SOL    HW119604   0.993   0.381   9.600 -0.0667 -1.0538 -0.8104
 2714SOL    HW219605   0.972   0.465   9.481 -1.1011 -3.9701 -1.7638
 2715SOL     OW19606   3.874   2.970   7.790 -0.0451 -0.3710 -0.2129
 2715SOL    HW119607   3.881   2.878   7.814  0.6325  0.3564  2.4022
 2715SOL    HW219608   3.933   3.020   7.847 -2.3155  1.9916  0.0587
 2716SOL     OW19609   4.256   1.838  11.818  0.0084  0.1365  0.4289
 2716SOL    HW119610   4.190   1.905  11.837  1.3036  2.4659 -3.1591
 2716SOL    HW219611   4.208   1.777  11.762  0.3679  1.1464 -0.9892
 2717SOL     OW19612   4.073   2.480  11.833 -0.2076 -0.1252 -0.2272
 2717SOL    HW119613   4.053   2.569  11.803  0.0918 -0.4648 -1.4249
 2717SOL    HW219614   3.987   2.444  11.851 -0.9618  1.7812  0.0370
 2718SOL     OW19615   0.433   0.154   5.326 -0.5293 -0.6784 -0.1423
 2718SOL    HW119616   0.507   0.115   5.281  0.3675  0.3971  0.4031
 2718SOL    HW219617   0.363   0.116   5.273  1.0007 -1.8677 -1.3066
 2719SOL     OW19618   2.447   1.504   9.146  0.2659 -0.3606  0.7468
 2719SOL    HW119619   2.379   1.456   9.100 -0.2640 -0.5681  1.7557
 2719SOL    HW219620   2.427   1.598   9.145  0.7330 -0.2854 -1.0445
 2720SOL     OW19621   4.496   0.113   6.989 -0.0515  0.4231  0.2834
 2720SOL    HW119622   4.473   0.201   6.959 -1.8080  0.0007  0.3910
 2720SOL    HW219623   4.425   0.070   6.942  0.5302  1.3866 -1.5002
 2721SOL     OW19624   4.171   1.794  17.242 -0.0276  0.0170 -0.2579
 2721SOL    HW119625   4.261   1.802  17.271  0.3249  1.3039 -1.7087
 2721SOL    HW219626   4.167   1.702  17.214 -0.2520 -0.3320  0.9524
 2722SOL     OW19627   1.736   3.856   6.519 -0.1622 -0.9034  0.4529
 2722SOL    HW119628   1.720   3.874   6.427  2.0250 -0.4182  0.1828
 2722SOL    HW219629   1.824   3.889   6.538 -1.5968  2.7837  0.8307
 2723SOL     OW19630   3.545   2.759   3.547 -0.2237 -0.5517 -0.8737
 2723SOL    HW119631   3.493   2.735   3.623  2.0633  0.6314  1.0620
 2723SOL    HW219632   3.507   2.845   3.528  2.4020  0.9474  0.5955
 2724SOL     OW19633   4.614   2.555  10.847  0.3013  0.0976  0.8121
 2724SOL    HW119634   4.605   2.634  10.900  0.4061 -0.7767  2.1328
 2724SOL    HW219635   4.704   2.562  10.816 -0.9272  1.7620 -2.4085
 2725SOL     OW19636   0.006   0.462   8.484 -0.1434 -0.1634  0.1156
 2725SOL    HW119637   4.693   0.438   8.399  1.1665 -0.3795 -0.4017
 2725SOL    HW219638   0.025   0.372   8.510  2.5352  0.2039 -0.6055
 2726SOL     OW19639   2.928   2.185  10.716  0.7452  0.3546  0.1123
 2726SOL    HW119640   2.939   2.203  10.809 -2.6126 -0.8397  0.7680
 2726SOL    HW219641   2.876   2.263  10.695  0.7298  0.1042 -0.8089
 2727SOL     OW19642   3.683   3.773   6.209 -0.3995  0.3921  0.1920
 2727SOL    HW119643   3.754   3.742   6.153 -0.5404 -0.6783  0.6130
 2727SOL    HW219644   3.707   3.745   6.297  1.0038 -0.3163 -0.4077
 2728SOL     OW19645   3.981   4.299   8.848 -0.3227 -0.1989  0.5512
 2728SOL    HW119646   3.900   4.341   8.874 -0.9793  0.2679 -2.2760
 2728SOL    HW219647   4.027   4.306   8.932  1.3380 -0.3988 -0.3314
 2729SOL     OW19648   2.048   1.045   1.258 -0.1006 -0.1286 -0.4340
 2729SOL    HW119649   1.993   1.114   1.294  0.3670  1.0669 -1.9994
 2729SOL    HW219650   2.072   0.981   1.324  1.4311  0.3036 -0.5673
 2730SOL     OW19651   2.102   2.933   7.676  0.6128  0.0833 -0.0840
 2730SOL    HW119652   2.040   2.992   7.720  0.4867 -0.3555  0.3285
 2730SOL    HW219653   2.187   2.967   7.702  0.8676 -2.7232  2.7432
 2731SOL     OW19654   3.710   1.907   6.830 -0.2137  0.8449 -0.0992
 2731SOL    HW119655   3.625   1.894   6.872 -1.0100  1.0346 -1.6583
 2731SOL    HW219656   3.691   1.881   6.740  0.0759  0.8360 -0.1558
 2732SOL     OW19657   1.613   0.093   5.898 -0.1593 -0.2815  0.1768
 2732SOL    HW119658   1.595   0.011   5.851  0.8192 -0.2804 -0.2045
 2732SOL    HW219659   1.600   0.059   5.987  0.7146  0.1151  0.4601
 2733SOL     OW19660   3.235   1.146   9.465  0.0993 -0.3669  0.2954
 2733SOL    HW119661   3.156   1.121   9.513  0.5761  0.1158  1.3308
 2733SOL    HW219662   3.298   1.093   9.514  0.6341 -0.1572 -0.1735
 2734SOL     OW19663   4.229   4.710   2.431 -0.1683  0.0227 -1.0098
 2734SOL    HW119664   4.196   4.649   2.497 -0.6263  0.2057 -1.0694
 2734SOL    HW219665   4.191   0.069   2.460  2.3806  0.4440  1.0671
 2735SOL     OW19666   3.553   3.684  11.573  0.4075  0.3289 -0.1999
 2735SOL    HW119667   3.463   3.666  11.545  0.3715 -0.6171  0.4993
 2735SOL    HW219668   3.543   3.779  11.576  0.0096  0.2812  0.0444
 2736SOL     OW19669   0.668   3.081   7.668  0.5243  0.1777  0.2255
 2736SOL    HW119670   0.712   3.160   7.699  0.0531 -0.0757  1.5335
 2736SOL    HW219671   0.600   3.117   7.612 -1.1115 -2.3843  0.5495
 2737SOL     OW19672   3.463   0.649   8.284  0.2091 -0.0060  0.3616
 2737SOL    HW119673   3.527   0.693   8.229 -0.6687  1.0830  0.2228
 2737SOL    HW219674   3.383   0.675   8.239 -0.4529 -1.5850  0.6076
 2738SOL     OW19675   3.607   1.098   6.052 -0.4209  0.2988  0.2437
 2738SOL    HW119676   3.558   1.018   6.032  0.4950 -0.6068  1.6523
 2738SOL    HW219677   3.691   1.060   6.077 -0.7579  0.0136  0.9406
 2739SOL     OW19678   1.642   0.871   6.595  0.0245  0.1954 -0.0911
 2739SOL    HW119679   1.642   0.777   6.574  1.1307  0.1321  0.1767
 2739SOL    HW219680   1.698   0.873   6.672 -0.2524 -1.2035  0.1604
 2740SOL     OW19681   2.536   4.672   6.580  0.9628 -0.3354  0.3383
 2740SOL    HW119682   2.468   4.638   6.638 -0.6899  1.8922 -0.2991
 2740SOL    HW219683   2.610   4.688   6.639  3.0529 -2.6435 -1.6581
 2741SOL     OW19684   1.079   2.877   5.511  0.5670  0.0292  0.5522
 2741SOL    HW119685   1.113   2.815   5.575 -0.1473  0.0589  0.9577
 2741SOL    HW219686   1.163   2.898   5.470  2.0379 -3.3815  1.7928
 2742SOL     OW19687   1.046   2.653   4.759 -0.6707  0.1609  0.1029
 2742SOL    HW119688   1.056   2.560   4.778  0.7403  0.1923 -0.5057
 2742SOL    HW219689   1.066   2.654   4.666  1.9264 -2.0363  0.6606
 2743SOL     OW19690   0.306   4.682   3.146  0.0049  0.2629 -0.3383
 2743SOL    HW119691   0.272   0.038   3.185  0.8519  1.9243 -3.0264
 2743SOL    HW219692   0.337   4.723   3.066  1.4502 -0.8628 -0.3450
 2744SOL     OW19693   4.712   1.973   9.057  0.6381 -0.0632  0.3936
 2744SOL    HW119694   0.010   1.932   8.973  1.0075  1.6313 -0.3403
 2744SOL    HW219695   4.623   1.944   9.078  0.1433 -1.5216 -3.5923
 2745SOL     OW19696   2.288   1.124   6.837  0.3011 -0.0247  0.0376
 2745SOL    HW119697   2.275   1.119   6.931  2.7326  0.1832  0.4015
 2745SOL    HW219698   2.297   1.033   6.808  0.3367 -0.0749  0.2109
 2746SOL     OW19699   3.176   2.879   0.419  0.4196  0.9552 -0.1102
 2746SOL    HW119700   3.178   2.878   0.514 -0.4292  2.2214 -0.0846
 2746SOL    HW219701   3.270   2.890   0.405  0.4401  0.3377 -0.4891
 2747SOL     OW19702   4.424   3.722   1.826 -0.0055 -0.2930 -0.0540
 2747SOL    HW119703   4.477   3.791   1.786 -2.6661  1.4316 -0.6484
 2747SOL    HW219704   4.383   3.786   1.885 -1.2604 -0.9641 -0.1992
 2748SOL     OW19705   1.840   1.144   8.174 -0.1238 -0.4834  0.0375
 2748SOL    HW119706   1.865   1.145   8.081 -2.0773  2.3322 -0.4411
 2748SOL    HW219707   1.913   1.099   8.216 -0.1121  0.1356  0.6816
 2749SOL     OW19708   0.135   1.068   5.211  0.4549 -0.0677  0.4097
 2749SOL    HW119709   0.102   0.986   5.174  1.4903 -1.2568  2.1217
 2749SOL    HW219710   0.221   1.067   5.169  0.3534  0.0582  0.1974
 2750SOL     OW19711   2.931   1.440  11.740 -0.1223 -0.4659 -0.1241
 2750SOL    HW119712   2.987   1.487  11.802 -0.9381 -0.9724  0.9955
 2750SOL    HW219713   2.838   1.449  11.760  0.2965 -0.7327  1.9689
 2751SOL     OW19714   3.148   1.082   0.782  0.1830  0.2184 -0.1486
 2751SOL    HW119715   3.058   1.059   0.759  0.5433 -0.1428 -1.1919
 2751SOL    HW219716   3.148   1.178   0.777  0.8324  0.2979  1.4679
 2752SOL     OW19717   0.659   2.756   6.893  0.3841  0.1497  0.0102
 2752SOL    HW119718   0.717   2.832   6.891 -0.7246  1.0397  1.5523
 2752SOL    HW219719   0.634   2.739   6.983 -1.7353  0.4261 -0.5295
 2753SOL     OW19720   0.136   1.385  13.406  0.0882  0.2152 -0.1641
 2753SOL    HW119721   0.073   1.409  13.338  1.5892 -0.9909 -1.9782
 2753SOL    HW219722   0.225   1.389  13.370 -0.3928 -0.8909 -1.4787
 2754SOL     OW19723   2.667   1.418   2.242 -0.9996  0.1506 -0.0817
 2754SOL    HW119724   2.700   1.328   2.245  1.3593  1.0489  0.5460
 2754SOL    HW219725   2.585   1.406   2.289 -2.5686 -0.7944 -3.0056
 2755SOL     OW19726   2.559   3.508   2.288  0.4875 -0.2354  0.0881
 2755SOL    HW119727   2.529   3.488   2.199 -3.1946  1.7166  0.8578
 2755SOL    HW219728   2.647   3.475   2.303  1.2533  1.7569 -0.0192
 2756SOL     OW19729   4.141   2.133  10.916  0.4522 -0.0867 -0.1234
 2756SOL    HW119730   4.104   2.054  10.957 -0.0996 -1.0648 -2.5348
 2756SOL    HW219731   4.214   2.096  10.866  1.4926  1.3051  0.3635
 2757SOL     OW19732   2.295   0.285   9.128  0.3659 -0.0593  0.7439
 2757SOL    HW119733   2.346   0.228   9.070 -1.0857 -0.9978  0.3821
 2757SOL    HW219734   2.253   0.345   9.066 -0.6829  0.3957  1.9038
 2758SOL     OW19735   2.596   2.251  14.000  0.2989 -0.0284 -0.2531
 2758SOL    HW119736   2.651   2.222  14.073  1.3468  0.8926 -0.6729
 2758SOL    HW219737   2.529   2.183  14.000 -0.3029  0.5725  0.5957
 2759SOL     OW19738   0.992   0.037   0.370  0.8365 -0.1223  0.1935
 2759SOL    HW119739   0.946   0.016   0.289 -3.1287  3.7098  1.4780
 2759SOL    HW219740   0.947   0.118   0.393  2.1589  1.3320 -2.2898
 2760SOL     OW19741   3.467   1.817  12.474  0.3103 -0.6240 -0.0567
 2760SOL    HW119742   3.432   1.741  12.521  0.2295 -1.9471 -2.2356
 2760SOL    HW219743   3.548   1.848  12.514 -0.2542  1.8773 -0.8862
 2761SOL     OW19744   2.719   4.534   7.907 -0.0274 -0.3411 -0.3842
 2761SOL    HW119745   2.789   4.560   7.966  1.2243 -2.3768 -0.9971
 2761SOL    HW219746   2.705   4.612   7.853  0.6428 -2.6107 -3.7917
 2762SOL     OW19747   0.547   0.894   2.009 -0.5720  0.2964 -0.2488
 2762SOL    HW119748   0.515   0.894   1.919  1.1663 -1.3511 -0.8634
 2762SOL    HW219749   0.573   0.987   2.011  0.8036 -0.1004  0.1662
 2763SOL     OW19750   0.329   1.373   1.156  0.8785 -0.3374 -0.4947
 2763SOL    HW119751   0.383   1.343   1.083 -0.3895 -0.6291 -1.3058
 2763SOL    HW219752   0.399   1.395   1.218 -1.2686  1.4389  1.2912
 2764SOL     OW19753   2.488   3.572  13.777 -0.4846  0.1910  0.3132
 2764SOL    HW119754   2.504   3.490  13.730  1.4420 -1.5876  4.0196
 2764SOL    HW219755   2.425   3.607  13.715 -0.8084 -0.5253  0.2370
 2765SOL     OW19756   3.436   1.625   0.461  0.0532  0.1871  0.0887
 2765SOL    HW119757   3.497   1.631   0.387  0.0402  1.6293  0.1790
 2765SOL    HW219758   3.354   1.661   0.427 -0.1759 -0.3781  0.0585
 2766SOL     OW19759   3.456   2.601   9.093  0.0681  0.4419  0.3585
 2766SOL    HW119760   3.442   2.519   9.141 -0.8227  0.2814 -0.1687
 2766SOL    HW219761   3.540   2.629   9.129 -0.9182  1.8727  1.5245
 2767SOL     OW19762   4.155   3.445  13.706  0.2925  0.3353 -0.7043
 2767SOL    HW119763   4.229   3.409  13.754 -0.7677 -1.8483 -0.7005
 2767SOL    HW219764   4.084   3.400  13.752  1.6756 -0.7185  0.3683
 2768SOL     OW19765   2.580   2.172  15.319 -0.3340 -0.0927 -0.4485
 2768SOL    HW119766   2.562   2.152  15.227 -2.3050  0.9922 -0.2968
 2768SOL    HW219767   2.594   2.266  15.307 -1.4832  0.1441  0.1012
 2769SOL     OW19768   1.121   3.463  14.889  0.3151  0.2675  0.4148
 2769SOL    HW119769   1.188   3.505  14.942 -0.3009  1.4583  0.2378
 2769SOL    HW219770   1.161   3.466  14.802 -1.1606  1.9522 -0.1912
 2770SOL     OW19771   2.134   2.199   7.971 -0.3166 -0.5651  0.6765
 2770SOL    HW119772   2.071   2.255   7.926 -0.8053 -0.5837  1.3296
 2770SOL    HW219773   2.086   2.169   8.048  1.9133  1.0335  2.6994
 2771SOL     OW19774   0.733   4.040   4.762  0.2339 -0.4977 -0.4179
 2771SOL    HW119775   0.822   4.016   4.789  0.1993 -2.3505 -1.9433
 2771SOL    HW219776   0.690   4.033   4.847  0.8662 -0.6900 -0.1149
 2772SOL     OW19777   3.773   0.515   5.311  0.1039 -0.2174  0.3349
 2772SOL    HW119778   3.844   0.477   5.259  0.3678  0.6984  0.0343
 2772SOL    HW219779   3.698   0.481   5.262  0.4169 -2.1783  1.2045
 2773SOL     OW19780   1.849   2.677   3.615  0.6403 -0.5327  0.1580
 2773SOL    HW119781   1.810   2.620   3.682 -1.0972 -1.6781 -1.8388
 2773SOL    HW219782   1.940   2.650   3.607  0.4879 -0.5141 -1.7063
 2774SOL     OW19783   4.283   3.728   4.572 -0.2634 -0.0712  0.4358
 2774SOL    HW119784   4.324   3.737   4.486 -2.3488 -1.1230 -0.6680
 2774SOL    HW219785   4.236   3.646   4.556  0.6466 -0.3271 -0.8718
 2775SOL     OW19786   0.517   1.828  11.625  0.4107 -0.8618 -0.0008
 2775SOL    HW119787   0.583   1.863  11.685  0.2230 -1.1508  0.3742
 2775SOL    HW219788   0.576   1.829  11.550  0.2471  1.5308 -0.0954
 2776SOL     OW19789   1.337   3.028  15.554 -0.3529 -0.2786 -0.2626
 2776SOL    HW119790   1.420   3.061  15.589 -0.2934 -0.7231  0.0183
 2776SOL    HW219791   1.311   2.978  15.631  2.3106 -2.0320 -0.5085
 2777SOL     OW19792   1.672   2.144   0.061 -0.4381 -0.5373  0.1311
 2777SOL    HW119793   1.576   2.141   0.059 -0.3765 -0.6239 -2.9990
 2777SOL    HW219794   1.681   2.068   0.119  2.1122 -1.3306 -1.2995
 2778SOL     OW19795   1.234   0.807   6.339 -0.4237  0.2046  0.3004
 2778SOL    HW119796   1.166   0.821   6.272  1.1249 -0.7430 -1.4606
 2778SOL    HW219797   1.185   0.841   6.414 -1.8005 -1.0519 -0.0386
 2779SOL     OW19798   3.165   3.769   6.305 -0.3244  0.0356  0.2980
 2779SOL    HW119799   3.236   3.723   6.259 -0.3723 -0.0360  0.2960
 2779SOL    HW219800   3.213   3.793   6.384  0.5461 -1.2929  0.1778
 2780SOL     OW19801   4.640   1.513   3.127 -0.0863 -0.5824  0.0806
 2780SOL    HW119802   4.578   1.452   3.088 -0.7074 -1.2779  2.1910
 2780SOL    HW219803   4.593   1.593   3.103 -1.9420 -1.3229  1.2750
 2781SOL     OW19804   0.667   2.818   8.608  0.1260  0.0664  0.4254
 2781SOL    HW119805   0.656   2.828   8.514 -1.2190 -1.4830  0.4086
 2781SOL    HW219806   0.599   2.751   8.621  1.0384 -1.1796 -1.2061
 2782SOL     OW19807   0.180   0.268  16.528 -0.2272 -0.1824 -0.1706
 2782SOL    HW119808   0.265   0.223  16.531  0.0111  0.4528  2.3885
 2782SOL    HW219809   0.167   0.283  16.434  1.6401  0.6668 -0.2963
 2783SOL     OW19810   0.018   4.595  13.621 -0.6515 -0.3777  0.6907
 2783SOL    HW119811   4.716   4.677  13.663  2.9299  2.4665 -2.5733
 2783SOL    HW219812   0.106   4.584  13.657 -0.4208  1.7707  0.7820
 2784SOL     OW19813   0.892   1.152  16.528  0.4602 -0.2506 -0.2021
 2784SOL    HW119814   0.956   1.138  16.599  0.1700  2.1328  0.5353
 2784SOL    HW219815   0.810   1.116  16.561  0.0232  2.0464  1.2045
 2785SOL     OW19816   3.215   3.637   4.493  0.1824 -0.1047  0.4371
 2785SOL    HW119817   3.271   3.593   4.557  0.4068  0.5810  0.7045
 2785SOL    HW219818   3.131   3.595   4.513  0.7135 -0.6697  1.4758
 2786SOL     OW19819   2.306   3.876   4.199 -0.3442 -0.0451 -0.0780
 2786SOL    HW119820   2.369   3.828   4.146 -0.9577 -1.5762  0.5514
 2786SOL    HW219821   2.261   3.923   4.128  0.2328  2.0210  0.9253
 2787SOL     OW19822   3.236   1.867  15.106  0.2820 -0.7509  0.3501
 2787SOL    HW119823   3.206   1.800  15.045 -0.7988 -0.5775  0.6780
 2787SOL    HW219824   3.236   1.813  15.184 -2.2887  1.1423  1.6635
 2788SOL     OW19825   1.913   2.425   2.367 -0.2187 -0.2862  0.0544
 2788SOL    HW119826   1.969   2.440   2.290 -1.0756 -1.5806 -0.8153
 2788SOL    HW219827   1.846   2.488   2.342  0.6333  1.9958  3.5206
 2789SOL     OW19828   1.099   0.939   3.455 -0.3112  0.0315 -0.9479
 2789SOL    HW119829   1.112   0.848   3.428  1.2877  0.4909 -1.7281
 2789SOL    HW219830   1.096   0.928   3.550 -0.5908 -1.7606 -1.1703
 2790SOL     OW19831   3.788   0.634   1.917  0.1275 -0.6260  0.6532
 2790SOL    HW119832   3.880   0.642   1.894 -0.2018 -2.3597 -1.2370
 2790SOL    HW219833   3.757   0.568   1.854 -0.6848 -0.2345  0.6382
 2791SOL     OW19834   3.577   3.628   3.277 -0.2393  0.1657 -0.2651
 2791SOL    HW119835   3.482   3.632   3.270 -0.3170  0.3448  0.8806
 2791SOL    HW219836   3.591   3.534   3.266  0.3404  0.2591 -0.3345
 2792SOL     OW19837   0.695   0.562   3.042 -0.0734  0.0926 -0.3653
 2792SOL    HW119838   0.666   0.606   2.962 -1.0169  0.6105  0.2591
 2792SOL    HW219839   0.785   0.543   3.015 -0.5747  1.2036 -2.8336
 2793SOL     OW19840   3.825   2.270   0.114 -0.4284  0.2959 -0.2307
 2793SOL    HW119841   3.775   2.257   0.033  0.9771 -0.4872 -0.9750
 2793SOL    HW219842   3.849   2.362   0.104 -0.1856  0.0150 -2.3282
 2794SOL     OW19843   0.209   0.142   0.038  0.1175  0.1908  0.0920
 2794SOL    HW119844   0.305   0.149   0.034  0.3424 -2.2315  1.4722
 2794SOL    HW219845   0.183   0.208   0.102  1.1729  0.1846  0.5302
 2795SOL     OW19846   3.622   1.284   4.766  0.0254 -0.6697  0.0468
 2795SOL    HW119847   3.550   1.256   4.708 -0.9464  0.3805  0.7432
 2795SOL    HW219848   3.606   1.236   4.847 -1.0061  0.8643  0.7464
 2796SOL     OW19849   2.845   0.248   8.773 -0.6550  0.5968 -0.1187
 2796SOL    HW119850   2.936   0.262   8.800 -0.0306 -0.9206 -1.4652
 2796SOL    HW219851   2.784   0.250   8.846  1.6069 -0.1872  1.7724
 2797SOL     OW19852   1.711   2.809  15.017  0.1514  0.5951 -0.1893
 2797SOL    HW119853   1.671   2.896  15.012  0.4883  0.8686  1.9595
 2797SOL    HW219854   1.760   2.811  15.099  0.3697 -0.7372 -0.2860
 2798SOL     OW19855   3.045   2.708  17.660 -0.8298  0.0673  0.3185
 2798SOL    HW119856   3.053   2.729  17.566  0.3558 -0.7647  0.2281
 2798SOL    HW219857   3.009   2.620  17.672 -0.4320 -0.1116  0.2168
 2799SOL     OW19858   0.190   3.498  17.480 -0.0128 -0.6186 -0.1657
 2799SOL    HW119859   0.257   3.454  17.428 -1.1778 -3.5857  0.8423
 2799SOL    HW219860   0.227   3.486  17.568 -1.3059 -0.0243  0.4550
 2800SOL     OW19861   2.660   4.724  17.611 -0.5316 -0.3431  0.1596
 2800SOL    HW119862   2.584   4.702  17.557 -1.1093  1.1481  0.3647
 2800SOL    HW219863   2.622   0.035  17.691  0.7370 -0.0483  0.6230
 2801SOL     OW19864   1.839   4.232   5.083 -0.0455  0.6097  0.4978
 2801SOL    HW119865   1.860   4.255   4.993  1.5457 -1.4341  0.3814
 2801SOL    HW219866   1.824   4.320   5.118 -0.4391 -0.0824  2.0630
 2802SOL     OW19867   1.750   3.754  14.564  0.1434 -0.0250 -0.0936
 2802SOL    HW119868   1.779   3.737  14.653  0.5851  0.1800 -0.2005
 2802SOL    HW219869   1.829   3.754  14.510 -0.2238  1.9621 -0.6424
 2803SOL     OW19870   1.944   0.971  16.578 -0.2671 -0.4507 -0.2516
 2803SOL    HW119871   1.885   0.970  16.653 -0.2744 -0.5021 -0.2576
 2803SOL    HW219872   1.934   1.065  16.564  1.1606 -0.0804  1.1234
 2804SOL     OW19873   1.670   2.926   5.141  0.0670  0.1693  0.5078
 2804SOL    HW119874   1.663   3.015   5.107 -0.4908 -0.8601 -2.1121
 2804SOL    HW219875   1.700   2.951   5.228 -1.2416  1.2643  0.6558
 2805SOL     OW19876   2.684   2.683   2.098  0.2153  0.1639  0.7360
 2805SOL    HW119877   2.732   2.760   2.128  0.6384 -0.0763  0.6835
 2805SOL    HW219878   2.753   2.644   2.043 -0.4703 -0.6835  0.4727
 2806SOL     OW19879   3.049   2.532  16.281  0.0557  0.2454 -0.3668
 2806SOL    HW119880   3.070   2.625  16.295  0.7982 -0.3576  2.5755
 2806SOL    HW219881   3.004   2.536  16.197 -0.1376  1.1551 -0.2194
 2807SOL     OW19882   2.252   2.474  11.245  0.2871  0.8004 -0.2139
 2807SOL    HW119883   2.236   2.400  11.304  0.8741 -2.9139 -4.6998
 2807SOL    HW219884   2.346   2.482  11.257  0.4825 -0.7436 -0.6916
 2808SOL     OW19885   1.351   1.193   7.347  0.6845 -0.4911 -0.1236
 2808SOL    HW119886   1.293   1.230   7.414 -0.0588  0.7251 -1.4446
 2808SOL    HW219887   1.436   1.219   7.382  0.1455  0.1884  0.6999
 2809SOL     OW19888   1.697   1.916   0.179 -0.0719  0.2876  0.3573
 2809SOL    HW119889   1.672   1.837   0.227 -1.8689  1.9600  2.1445
 2809SOL    HW219890   1.706   1.875   0.093 -0.4424 -0.5091  0.6978
 2810SOL     OW19891   3.391   1.188   5.889 -0.0538 -0.1475  0.0157
 2810SOL    HW119892   3.411   1.281   5.895  1.1648 -0.5537  2.5992
 2810SOL    HW219893   3.459   1.152   5.946 -0.6251  0.6613  1.2121
 2811SOL     OW19894   0.888   4.154  15.227  0.0608 -0.0360 -0.0568
 2811SOL    HW119895   0.949   4.200  15.170 -1.6571 -0.3990 -2.1664
 2811SOL    HW219896   0.821   4.221  15.216  1.4220  1.0981 -1.3381
 2812SOL     OW19897   2.987   3.623   7.608  0.3058  0.1886 -0.2805
 2812SOL    HW119898   2.964   3.582   7.525  0.7495 -1.9449  0.6449
 2812SOL    HW219899   2.911   3.667   7.646  2.1577  0.8019  2.7499
 2813SOL     OW19900   2.171   2.106  15.579  0.7243 -0.0885  0.5670
 2813SOL    HW119901   2.129   2.027  15.614  0.8469  0.0670  1.0704
 2813SOL    HW219902   2.138   2.170  15.642  2.1520 -0.0130  1.2458
 2814SOL     OW19903   1.777   3.671   2.322  0.1242  0.2121  0.1258
 2814SOL    HW119904   1.692   3.676   2.366  0.3093 -0.0357  0.5169
 2814SOL    HW219905   1.817   3.726   2.389  1.1011  1.7057 -1.6809
 2815SOL     OW19906   0.738   2.171  15.229 -0.2334  0.1665 -0.1261
 2815SOL    HW119907   0.658   2.150  15.277 -0.9017  3.7103  0.3216
 2815SOL    HW219908   0.777   2.236  15.287 -1.9023  0.4365  0.6777
 2816SOL     OW19909   0.135   2.022   6.009 -0.2327 -0.7410 -0.2020
 2816SOL    HW119910   0.099   1.934   6.011  0.1790 -0.8795  1.5494
 2816SOL    HW219911   0.058   2.061   6.052  1.7887  0.0068  2.7495
 2817SOL     OW19912   3.769   1.483   4.611 -0.6665  0.6476 -0.3906
 2817SOL    HW119913   3.681   1.506   4.583 -1.3071 -0.6070  0.5808
 2817SOL    HW219914   3.732   1.423   4.676  2.9110  0.2291  1.2881
 2818SOL     OW19915   1.428   3.467   6.162 -0.1391 -0.1408  0.3454
 2818SOL    HW119916   1.358   3.407   6.189  1.4497 -2.2826 -0.2758
 2818SOL    HW219917   1.405   3.554   6.193 -0.6900  0.2003 -1.0285
 2819SOL     OW19918   1.653   1.026  10.486  0.5130  0.1997 -0.5819
 2819SOL    HW119919   1.609   0.946  10.457  1.1890 -0.4426  0.1867
 2819SOL    HW219920   1.716   1.041  10.416  1.1945  0.8517  0.1828
 2820SOL     OW19921   1.368   4.417   6.936  0.1021 -0.2282 -0.2147
 2820SOL    HW119922   1.363   4.345   6.999 -1.3050 -0.0730 -0.1494
 2820SOL    HW219923   1.435   4.471   6.978  1.3549  0.0046 -2.5372
 2821SOL     OW19924   0.255   0.029   8.886  0.1543 -0.5806  0.1883
 2821SOL    HW119925   0.289   4.707   8.963  2.0272 -0.6235 -0.6814
 2821SOL    HW219926   0.317   0.010   8.815 -0.3303 -1.7878  0.0920
 2822SOL     OW19927   3.259   3.760  12.499 -0.0835  0.4961  0.0754
 2822SOL    HW119928   3.353   3.750  12.511 -0.3024 -3.6255 -1.3149
 2822SOL    HW219929   3.225   3.743  12.587  1.4482 -0.4163  0.4805
 2823SOL     OW19930   0.163   0.265   2.255  0.0988  0.2001 -0.4263
 2823SOL    HW119931   0.249   0.285   2.293 -0.9534  0.7269  1.6775
 2823SOL    HW219932   0.105   0.254   2.331 -0.4497 -0.6961 -0.9817
 2824SOL     OW19933   2.602   1.895   5.967 -0.3317 -0.6425 -0.7209
 2824SOL    HW119934   2.557   1.972   6.002  4.0502  1.8432 -0.5917
 2824SOL    HW219935   2.528   1.835   5.954  0.4143 -1.3639 -1.5942
 2825SOL     OW19936   3.510   0.160   4.854 -0.0742 -0.3313 -0.3400
 2825SOL    HW119937   3.527   0.113   4.773  0.4023  0.7025 -0.8401
 2825SOL    HW219938   3.481   0.246   4.824 -0.4287  0.3679  2.0242
 2826SOL     OW19939   2.413   1.580   9.506 -0.3581 -0.2665 -0.0854
 2826SOL    HW119940   2.383   1.495   9.538  0.0751  0.4383  2.2565
 2826SOL    HW219941   2.370   1.631   9.575 -0.5941  0.5320 -0.8213
 2827SOL     OW19942   1.087   2.125  10.259 -0.0316  0.4586 -0.2983
 2827SOL    HW119943   1.085   2.032  10.235  0.8109  0.6728 -1.2360
 2827SOL    HW219944   1.002   2.120  10.301  2.0288 -1.6166  3.6006
 2828SOL     OW19945   0.560   3.778   8.931  0.2851  0.5502  0.0311
 2828SOL    HW119946   0.621   3.705   8.940  0.3925  0.7694  1.0449
 2828SOL    HW219947   0.535   3.782   9.023  1.0523  0.2924  0.2516
 2829SOL     OW19948   3.274   4.672  11.565  0.1318 -0.0784 -0.2758
 2829SOL    HW119949   3.266   4.706  11.476 -0.3601  1.7858  0.4795
 2829SOL    HW219950   3.363   4.698  11.588 -0.1018 -0.1348  0.6837
 2830SOL     OW19951   1.609   1.990   3.175 -0.4516  0.2867  0.6211
 2830SOL    HW119952   1.621   2.065   3.117 -1.3513  1.0795  1.4514
 2830SOL    HW219953   1.539   1.944   3.129  0.9278 -1.4685  0.2855
 2831SOL     OW19954   3.511   1.218  14.491  0.2309  0.4621 -0.1835
 2831SOL    HW119955   3.599   1.206  14.525 -0.8159 -0.1006  2.3121
 2831SOL    HW219956   3.471   1.146  14.539 -1.7936 -0.4903 -3.2508
 2832SOL     OW19957   2.344   1.368  17.186  0.2726  0.3710 -0.0987
 2832SOL    HW119958   2.383   1.329  17.108  0.9135 -0.1645  0.4923
 2832SOL    HW219959   2.270   1.309  17.202  1.8204 -1.9302 -1.4403
 2833SOL     OW19960   3.915   2.093   5.149 -0.3828 -0.6042 -0.0601
 2833SOL    HW119961   3.834   2.050   5.122 -1.0492  0.0016  0.9701
 2833SOL    HW219962   3.982   2.052   5.094  0.1989  1.3334 -0.7883
 2834SOL     OW19963   3.707   1.642  11.266 -0.3976 -0.1939  0.4467
 2834SOL    HW119964   3.654   1.722  11.272 -1.5619 -0.9289  0.0410
 2834SOL    HW219965   3.680   1.601  11.348 -0.4484  1.9674  1.5284
 2835SOL     OW19966   1.474   3.356  16.142 -0.8294  0.0493 -0.1892
 2835SOL    HW119967   1.424   3.411  16.082  1.7173  2.8233  0.2416
 2835SOL    HW219968   1.552   3.334  16.091  0.4880  1.8556  1.0502
 2836SOL     OW19969   2.145   0.013  15.516  0.2534  0.1302 -0.5703
 2836SOL    HW119970   2.103   4.673  15.459 -1.4480 -0.4364  1.3084
 2836SOL    HW219971   2.238   4.719  15.501  1.1226  3.0401  1.2495
 2837SOL     OW19972   4.255   4.143   4.856  0.3658  0.0707 -0.1159
 2837SOL    HW119973   4.225   4.098   4.935  1.5626  0.0988  0.3534
 2837SOL    HW219974   4.213   4.095   4.784 -1.3153  0.4887  0.5727
 2838SOL     OW19975   2.940   4.235   4.168 -0.2447  0.0222 -0.0088
 2838SOL    HW119976   2.902   4.322   4.181  0.3653  0.4059 -0.8473
 2838SOL    HW219977   3.026   4.262   4.136  0.8935 -0.1924  2.9296
 2839SOL     OW19978   4.712   4.055  10.002  0.2792 -0.0911  0.3414
 2839SOL    HW119979   0.012   4.023  10.088 -0.8238 -4.2059 -0.8846
 2839SOL    HW219980   4.701   3.970   9.960 -0.9405 -0.6344  1.7892
 2840SOL     OW19981   3.757   1.191   9.930 -0.1821  0.0184 -0.5475
 2840SOL    HW119982   3.843   1.199   9.972 -0.2705 -1.5109 -0.0558
 2840SOL    HW219983   3.699   1.160   9.999  1.3203 -1.7813 -0.0767
 2841SOL     OW19984   1.128   1.415   2.959  0.2523  0.8125  0.0262
 2841SOL    HW119985   1.040   1.443   2.933 -0.9153 -3.5527 -0.6617
 2841SOL    HW219986   1.141   1.334   2.910 -2.4277 -0.1029  0.8154
 2842SOL     OW19987   2.899   2.270   8.648  0.0561 -0.2608  0.0977
 2842SOL    HW119988   2.854   2.242   8.728 -0.9271 -3.0640 -1.4343
 2842SOL    HW219989   2.851   2.352   8.639  1.9939  1.0381  1.8033
 2843SOL     OW19990   1.939   4.492  12.632 -0.1651 -0.1763  0.4271
 2843SOL    HW119991   1.991   4.426  12.678 -0.4691 -0.8242 -0.1587
 2843SOL    HW219992   1.913   4.559  12.695 -0.7713  0.0518 -0.0622
 2844SOL     OW19993   1.815   2.654  17.553  0.1568  0.0051 -0.0864
 2844SOL    HW119994   1.727   2.689  17.551  0.9739  2.1607  2.7390
 2844SOL    HW219995   1.810   2.589  17.483  0.6843 -0.1340  0.0004
 2845SOL     OW19996   0.458   3.305   7.987 -0.2068  0.6745  0.1653
 2845SOL    HW119997   0.497   3.279   8.071 -1.4813 -0.2603  0.4751
 2845SOL    HW219998   0.480   3.397   7.994  1.3756  0.0639  3.2324
 2846SOL     OW19999   1.170   2.807  10.997 -0.2742 -0.3465 -0.4870
 2846SOL    HW120000   1.185   2.745  10.926  3.0824  0.5011 -0.5182
 2846SOL    HW220001   1.101   2.861  10.958 -2.6115 -2.8086  0.2730
 2847SOL     OW20002   0.518   2.638   5.170 -0.4362 -0.1884  0.3032
 2847SOL    HW120003   0.527   2.725   5.132 -0.0398  0.6606  2.3031
 2847SOL    HW220004   0.585   2.647   5.238 -0.8520  0.5544  0.6121
 2848SOL     OW20005   1.810   0.678   2.614 -0.1265  0.0665  0.1147
 2848SOL    HW120006   1.727   0.723   2.627 -0.6310 -0.2420 -1.9418
 2848SOL    HW220007   1.856   0.741   2.559  0.1946 -1.2442 -1.1246
 2849SOL     OW20008   0.650   3.190   8.785  0.3642  0.6673  0.3970
 2849SOL    HW120009   0.578   3.254   8.776  0.7508  0.6859 -2.3615
 2849SOL    HW220010   0.645   3.138   8.705 -1.0036 -2.0819  2.2802
 2850SOL     OW20011   4.680   4.592   0.669  0.0567 -0.0013  0.6874
 2850SOL    HW120012   0.014   4.519   0.688 -0.6648 -1.5162 -2.9679
 2850SOL    HW220013   4.716   4.662   0.725  3.2072 -0.6648 -0.5291
 2851SOL     OW20014   1.531   2.276   6.646  0.0739 -0.1755 -0.7046
 2851SOL    HW120015   1.594   2.296   6.577  1.5431 -1.0663  0.3704
 2851SOL    HW220016   1.587   2.288   6.723 -0.6421 -0.4550 -0.1349
 2852SOL     OW20017   2.250   0.717  14.293 -0.0387 -0.2055 -0.5811
 2852SOL    HW120018   2.293   0.802  14.285  0.5148 -0.4194  0.0990
 2852SOL    HW220019   2.164   0.739  14.259 -0.8285  0.3583  1.7867
 2853SOL     OW20020   1.179   3.517   3.185 -0.2184  0.1985 -0.3474
 2853SOL    HW120021   1.230   3.444   3.151 -0.1589 -0.5341  1.3187
 2853SOL    HW220022   1.097   3.479   3.154 -0.5033  1.8174 -1.5593
 2854SOL     OW20023   3.204   1.884  14.404 -0.0181  0.3049  0.4165
 2854SOL    HW120024   3.167   1.817  14.347  1.2422  2.1572 -2.5638
 2854SOL    HW220025   3.286   1.902  14.358 -1.5406 -0.2302 -2.4699
 2855SOL     OW20026   1.730   4.389   6.881 -0.0453 -0.1591  0.0346
 2855SOL    HW120027   1.734   4.475   6.840 -0.6219 -0.0765  0.1548
 2855SOL    HW220028   1.776   4.400   6.965  0.2771  0.2317 -0.1902
 2856SOL     OW20029   2.739   1.282  10.130  0.0451  0.0697  0.9009
 2856SOL    HW120030   2.807   1.349  10.132 -0.4900  0.5643  3.0524
 2856SOL    HW220031   2.793   1.208  10.103 -0.1531 -0.8793  3.1066
 2857SOL     OW20032   1.446   2.233   0.772  0.0010  0.0985  0.8035
 2857SOL    HW120033   1.522   2.194   0.729 -0.2607  1.5100 -0.9542
 2857SOL    HW220034   1.475   2.225   0.863 -0.1465 -0.9637  0.7643
 2858SOL     OW20035   0.906   0.190  17.613 -0.2840  0.5510  0.7562
 2858SOL    HW120036   0.867   0.275  17.592  1.9482  1.3719 -0.0343
 2858SOL    HW220037   0.898   0.164  17.521  1.8002 -1.5597  1.1665
 2859SOL     OW20038   3.632   3.300   3.595 -0.7884 -0.4032  0.1064
 2859SOL    HW120039   3.671   3.252   3.669  0.6112  0.5942  0.0243
 2859SOL    HW220040   3.699   3.293   3.527  0.7477  1.7554  1.3769
 2860SOL     OW20041   4.668   0.595   1.623  0.2146  0.2231  0.5849
 2860SOL    HW120042   0.029   0.633   1.601 -0.8380  0.7621 -2.5137
 2860SOL    HW220043   4.696   0.503   1.628  2.0033  0.8191  1.3154
 2861SOL     OW20044   2.406   1.236   8.237  0.3525  0.0797 -0.8483
 2861SOL    HW120045   2.328   1.265   8.188 -0.1325 -0.6643 -0.5193
 2861SOL    HW220046   2.451   1.177   8.176  0.6647 -0.2623 -0.2883
 2862SOL     OW20047   0.446   0.286  16.919 -0.3075 -0.0813  0.7082
 2862SOL    HW120048   0.485   0.369  16.946 -0.1144 -0.0941  0.4748
 2862SOL    HW220049   0.356   0.318  16.920  0.6727  2.6226  1.9993
 2863SOL     OW20050   0.300   2.426   5.607 -0.0064 -0.1600 -0.0705
 2863SOL    HW120051   0.245   2.388   5.539 -3.4283 -0.7932  2.9919
 2863SOL    HW220052   0.277   2.373   5.684 -3.5390  0.6425 -0.5632
 2864SOL     OW20053   4.288   1.033   1.962 -0.0510  0.4951 -0.4145
 2864SOL    HW120054   4.279   1.100   1.893  0.2574  0.7745 -0.1820
 2864SOL    HW220055   4.195   1.029   1.985  0.1178 -0.8540  0.0162
 2865SOL     OW20056   0.938   2.485   3.193 -0.2924  0.4761 -0.0324
 2865SOL    HW120057   0.994   2.530   3.257 -0.5054 -0.5674  0.9017
 2865SOL    HW220058   1.001   2.439   3.138 -1.3676  0.3710 -1.1745
 2866SOL     OW20059   2.394   4.480  12.105  0.3337  0.3317  0.2900
 2866SOL    HW120060   2.432   4.452  12.021 -3.6935 -0.5882 -1.2483
 2866SOL    HW220061   2.448   4.445  12.176  2.0607  1.4189 -0.4720
 2867SOL     OW20062   1.674   0.650   8.395 -0.1160  0.5146 -0.1497
 2867SOL    HW120063   1.680   0.688   8.308  0.1134  2.4235  0.6860
 2867SOL    HW220064   1.690   0.722   8.456 -1.8308  1.1187 -0.4181
 2868SOL     OW20065   4.271   0.723  12.882 -0.1842  0.4235  0.2930
 2868SOL    HW120066   4.357   0.715  12.841 -0.2846 -0.5373  0.2579
 2868SOL    HW220067   4.292   0.682  12.966  2.8967  0.3359 -0.5316
 2869SOL     OW20068   1.826   3.183   4.291 -0.1592  0.3834 -0.1779
 2869SOL    HW120069   1.869   3.265   4.316 -0.4743  1.0523 -1.8240
 2869SOL    HW220070   1.881   3.151   4.220  0.1319  0.1051  0.1741
 2870SOL     OW20071   0.039   0.854   1.362  0.0492  0.8837  0.3630
 2870SOL    HW120072   0.101   0.812   1.421 -1.5939 -0.2551  1.2708
 2870SOL    HW220073   0.068   0.813   1.281 -0.7863 -0.0072  0.5266
 2871SOL     OW20074   0.521   2.386  13.209  0.6172  0.1926 -0.6905
 2871SOL    HW120075   0.493   2.316  13.268  0.3547  0.5974 -0.3321
 2871SOL    HW220076   0.581   2.349  13.145 -0.2672  1.1732 -2.0930
 2872SOL     OW20077   4.418   4.186  16.967  0.1267  0.6574 -0.2531
 2872SOL    HW120078   4.406   4.156  16.877 -3.5541  1.8492 -0.1595
 2872SOL    HW220079   4.365   4.123  17.015 -0.3862  0.6681 -0.8116
 2873SOL     OW20080   2.579   3.746   4.566 -0.4359  0.5714 -0.2008
 2873SOL    HW120081   2.487   3.728   4.586 -0.3073  0.1174 -0.0275
 2873SOL    HW220082   2.575   3.841   4.556 -1.3653  0.4159 -1.2427
 2874SOL     OW20083   3.054   0.227  12.947 -0.9981  0.0782 -0.1535
 2874SOL    HW120084   3.056   0.207  13.041  2.2629  1.2235  0.0241
 2874SOL    HW220085   3.036   0.321  12.949  1.8111  0.5774  1.1773
 2875SOL     OW20086   4.141   1.230   1.822 -0.3950 -0.2828 -0.7491
 2875SOL    HW120087   4.055   1.267   1.842  0.0093  0.5120 -0.4733
 2875SOL    HW220088   4.139   1.215   1.728  1.3048 -1.3244 -0.6286
 2876SOL     OW20089   1.515   0.836   0.892  0.0252  0.0467  0.5250
 2876SOL    HW120090   1.482   0.755   0.853  0.8978  0.2842 -0.7083
 2876SOL    HW220091   1.450   0.860   0.958 -3.2447 -3.4477 -1.4678
 2877SOL     OW20092   1.853   1.488   3.103  0.1173  0.4801 -0.0051
 2877SOL    HW120093   1.791   1.423   3.069 -0.2955 -0.3811  2.4226
 2877SOL    HW220094   1.797   1.565   3.103  1.0510  1.1591 -1.3700
 2878SOL     OW20095   1.956   3.157   5.097 -0.1353  0.5547 -0.1838
 2878SOL    HW120096   1.884   3.113   5.052 -2.2487  2.2685  1.4628
 2878SOL    HW220097   2.009   3.078   5.090  0.4320  0.8509  0.8223
 2879SOL     OW20098   1.623   4.059   2.766 -0.3796  0.0433 -0.5022
 2879SOL    HW120099   1.700   4.066   2.709  0.2496 -2.5916  0.0500
 2879SOL    HW220100   1.671   4.066   2.848  0.0084  4.0614 -1.0606
 2880SOL     OW20101   3.469   4.019  15.548 -1.0670  0.8046 -0.4781
 2880SOL    HW120102   3.417   3.983  15.477 -0.2928 -0.0344 -0.6121
 2880SOL    HW220103   3.556   3.994  15.517 -2.4888 -7.1017  2.1158
 2881SOL     OW20104   1.254   4.318   8.239 -0.7485 -0.0273  0.0881
 2881SOL    HW120105   1.242   4.339   8.331 -1.7835 -1.6354  0.3208
 2881SOL    HW220106   1.192   4.244   8.237 -2.0719  1.1516 -2.9160
 2882SOL     OW20107   0.297   2.320   4.387 -0.0199 -0.3409 -0.3224
 2882SOL    HW120108   0.228   2.335   4.322 -0.5211  1.6282  0.6520
 2882SOL    HW220109   0.375   2.329   4.333  1.5348 -1.5329  1.7607
 2883SOL     OW20110   0.922   1.516   6.063 -0.0255 -0.0095 -0.1181
 2883SOL    HW120111   0.951   1.462   6.136  1.1972 -1.4785 -1.6774
 2883SOL    HW220112   0.827   1.508   6.076 -0.1211  1.5286  0.1346
 2884SOL     OW20113   0.985   1.952   6.896 -0.4906  0.0716 -0.5577
 2884SOL    HW120114   1.029   1.928   6.815  0.0753 -0.3948 -0.1102
 2884SOL    HW220115   1.061   1.964   6.953 -0.8364  0.8922 -0.2649
 2885SOL     OW20116   4.588   1.100   1.392 -0.1436  0.3654 -0.4961
 2885SOL    HW120117   4.640   1.167   1.347 -0.6003  1.4066  0.5100
 2885SOL    HW220118   4.644   1.023   1.379  1.4318  1.4853 -0.3973
 2886SOL     OW20119   1.113   0.592   7.673 -0.4003  0.0229 -0.1701
 2886SOL    HW120120   1.184   0.626   7.618  0.9542  0.4799  1.8541
 2886SOL    HW220121   1.129   0.498   7.663 -0.9443 -0.4149  3.1013
 2887SOL     OW20122   4.006   2.528   1.188  0.0891 -0.1655 -0.2194
 2887SOL    HW120123   4.057   2.452   1.160  1.3116  0.2380  0.9505
 2887SOL    HW220124   4.002   2.525   1.284  1.1693 -0.5706 -0.1915
 2888SOL     OW20125   2.065   4.336   2.234  0.3083 -0.7324  0.2395
 2888SOL    HW120126   2.077   4.285   2.314  0.8796  2.9575  2.5202
 2888SOL    HW220127   2.140   4.303   2.185  1.0726  1.1715  0.0928
 2889SOL     OW20128   3.661   0.792   4.312 -0.6716  0.2359  0.6305
 2889SOL    HW120129   3.566   0.798   4.317 -0.9164 -2.4487 -0.9830
 2889SOL    HW220130   3.690   0.709   4.350  2.2207  1.7711  1.8343
 2890SOL     OW20131   1.424   2.368   0.203 -0.3067 -0.3328 -0.2686
 2890SOL    HW120132   1.492   2.422   0.164  0.4413 -0.7270  0.4870
 2890SOL    HW220133   1.409   2.303   0.134 -0.7860 -0.7397  0.2161
 2891SOL     OW20134   2.718   3.243   9.300 -0.7771  0.4403 -0.6203
 2891SOL    HW120135   2.792   3.295   9.332 -1.3585  0.6155  0.4348
 2891SOL    HW220136   2.700   3.174   9.364 -0.9394  0.0894 -1.0414
 2892SOL     OW20137   0.877   2.770   8.041  0.1775 -0.5846  0.0893
 2892SOL    HW120138   0.946   2.807   8.095 -0.8174 -1.8464  2.2262
 2892SOL    HW220139   0.847   2.853   8.004  0.8995  1.1029  3.3839
 2893SOL     OW20140   2.781   1.174   8.794  0.0078 -0.0892  0.2751
 2893SOL    HW120141   2.733   1.140   8.718 -0.0259 -2.9476  1.5636
 2893SOL    HW220142   2.781   1.087   8.834 -0.3664 -0.3837 -0.3628
 2894SOL     OW20143   1.273   4.441  11.407  0.3199 -0.1479 -0.5088
 2894SOL    HW120144   1.302   4.384  11.478 -1.6289 -0.8874 -0.2872
 2894SOL    HW220145   1.178   4.428  11.398  0.6901 -1.3464 -2.7214
 2895SOL     OW20146   0.038   3.328   7.998  0.4793  0.4161  0.2384
 2895SOL    HW120147   0.053   3.300   7.908  0.3986 -1.1897  0.7363
 2895SOL    HW220148   4.667   3.321   7.991  0.3650  1.4512  0.5997
 2896SOL     OW20149   4.488   1.003   4.533  0.1294  0.3041  0.2452
 2896SOL    HW120150   4.553   1.042   4.592  0.1201  0.3759  0.2067
 2896SOL    HW220151   4.534   0.999   4.449  2.2431 -2.5085  1.5127
 2897SOL     OW20152   3.313   2.804   0.010 -0.2640 -0.0122  0.2198
 2897SOL    HW120153   3.375   2.732   0.025 -1.4915 -1.7035 -2.8707
 2897SOL    HW220154   3.230   2.760   0.029 -0.3689  1.3972  2.9576
 2898SOL     OW20155   2.093   2.627  15.158 -0.4355  0.2257 -0.0026
 2898SOL    HW120156   2.040   2.706  15.152 -2.7686 -1.5084 -2.0929
 2898SOL    HW220157   2.178   2.671  15.151 -0.4046  0.2302  0.4381
 2899SOL     OW20158   2.719   0.190  10.251  0.1701  0.0572 -0.1468
 2899SOL    HW120159   2.635   0.233  10.236 -0.2282 -0.5905  0.1978
 2899SOL    HW220160   2.732   0.217  10.342 -2.0850  1.1438 -0.1552
 2900SOL     OW20161   3.246   4.335   4.330  0.6483  0.3578  0.1616
 2900SOL    HW120162   3.252   4.253   4.281 -0.3739  1.9898 -2.6792
 2900SOL    HW220163   3.321   4.321   4.388  0.2858 -1.4816  0.1799
 2901SOL     OW20164   2.911   0.061   9.281  0.3695 -0.2367  1.0211
 2901SOL    HW120165   2.851   0.089   9.351 -1.5779  1.0247 -1.1609
 2901SOL    HW220166   2.972   0.135   9.269 -2.2825  2.0366  1.5083
 2902SOL     OW20167   0.835   0.943   5.565  0.5508  0.5547  0.7612
 2902SOL    HW120168   0.761   1.001   5.582  2.2175  2.7292  0.5478
 2902SOL    HW220169   0.796   0.855   5.558  1.1145  0.2185  1.8088
 2903SOL     OW20170   3.552   2.972   6.726  0.6631 -0.2595  0.4227
 2903SOL    HW120171   3.632   3.014   6.694 -0.4907  0.9058 -0.9010
 2903SOL    HW220172   3.535   2.907   6.657  1.3327  0.0890 -0.0753
 2904SOL     OW20173   0.153   4.708   1.118 -0.2716  0.1825 -0.2183
 2904SOL    HW120174   0.068   0.005   1.158 -0.5284 -0.6035 -0.3451
 2904SOL    HW220175   0.175   4.629   1.167 -1.2533 -1.2553 -2.0999
 2905SOL     OW20176   0.738   0.100   5.705 -0.6988  0.0539  0.3651
 2905SOL    HW120177   0.817   0.064   5.745  0.3353  0.4055 -1.3637
 2905SOL    HW220178   0.728   0.176   5.761 -2.9630  0.7246 -0.9448
 2906SOL     OW20179   3.297   3.580  11.562 -0.2330  0.2520  0.4333
 2906SOL    HW120180   3.219   3.531  11.586  0.6273 -1.2433  0.1914
 2906SOL    HW220181   3.251   3.653  11.521 -0.4999 -1.2848 -2.0217
 2907SOL     OW20182   0.283   3.533  10.868 -0.3449  0.1795 -0.2006
 2907SOL    HW120183   0.376   3.551  10.876 -0.3856  0.2320  0.1378
 2907SOL    HW220184   0.286   3.512  10.775  0.3984 -1.7312  0.2506
 2908SOL     OW20185   1.336   3.148  17.316  0.0643  0.1674 -0.3537
 2908SOL    HW120186   1.402   3.169  17.251  0.2712 -1.9934 -0.8417
 2908SOL    HW220187   1.276   3.217  17.288  0.4078  0.5861 -0.0711
 2909SOL     OW20188   0.538   2.530  10.845 -0.8630  0.0547 -0.2141
 2909SOL    HW120189   0.501   2.463  10.786 -2.6899  1.5060 -0.7163
 2909SOL    HW220190   0.565   2.591  10.777 -0.5679  1.8813  1.5586
 2910SOL     OW20191   1.545   1.913  12.038  0.2661  0.5827 -0.2465
 2910SOL    HW120192   1.537   2.007  12.057  3.1366  1.1518 -1.8900
 2910SOL    HW220193   1.636   1.892  12.017 -0.2780 -0.1592 -1.8370
 2911SOL     OW20194   4.714   0.784   1.837  0.5736 -0.7825  0.0827
 2911SOL    HW120195   4.671   0.764   1.755 -0.2505 -1.0349  0.5803
 2911SOL    HW220196   4.632   0.780   1.886  1.1109 -1.4974  0.9149
 2912SOL     OW20197   2.296   0.924  15.112 -0.2578 -0.3104  0.3940
 2912SOL    HW120198   2.365   0.988  15.131 -0.2977  0.1539 -1.0216
 2912SOL    HW220199   2.322   0.843  15.156  1.2044 -1.0950 -1.9071
 2913SOL     OW20200   0.420   3.623   2.638 -0.3152 -0.1685  0.0906
 2913SOL    HW120201   0.330   3.592   2.633 -0.6755  0.7376  1.0624
 2913SOL    HW220202   0.423   3.684   2.564  0.0282  0.4024  0.5769
 2914SOL     OW20203   2.191   0.069   3.729  0.1326  0.2785  0.0271
 2914SOL    HW120204   2.245   0.012   3.674 -2.1446  1.5497 -3.5523
 2914SOL    HW220205   2.166   0.013   3.803 -1.8638  1.3818  0.1890
 2915SOL     OW20206   3.532   1.879   0.248  0.3534  0.1093  0.3172
 2915SOL    HW120207   3.535   1.785   0.234  4.4452  0.5033 -1.4818
 2915SOL    HW220208   3.618   1.903   0.282 -1.0313  3.9906  1.1470
 2916SOL     OW20209   3.620   0.162  11.328  0.8421 -0.4832  0.4203
 2916SOL    HW120210   3.638   0.073  11.359 -1.5545 -0.7285  1.1177
 2916SOL    HW220211   3.599   0.209  11.408  2.1832 -1.3636  1.2803
 2917SOL     OW20212   0.718   1.667  16.357  0.3008  0.5480  0.3340
 2917SOL    HW120213   0.701   1.754  16.321  0.5587  2.1576  4.0640
 2917SOL    HW220214   0.784   1.635  16.297 -0.7284 -2.2026  0.6728
 2918SOL     OW20215   2.393   1.498  10.428 -0.2186  0.3225 -0.1388
 2918SOL    HW120216   2.462   1.518  10.364  1.1548  0.3721  1.3577
 2918SOL    HW220217   2.322   1.465  10.372 -0.9931 -1.3858  1.8593
 2919SOL     OW20218   2.885   1.926   7.779 -0.2608  0.0932  0.0310
 2919SOL    HW120219   2.846   2.007   7.813  0.5180  0.6648 -0.4481
 2919SOL    HW220220   2.829   1.913   7.703 -1.5441 -0.2609  1.0284
 2920SOL     OW20221   2.044   2.228   5.000  0.5319 -0.0433 -0.6879
 2920SOL    HW120222   1.996   2.278   4.934  0.3741 -0.5844 -0.9848
 2920SOL    HW220223   1.982   2.156   5.006  1.8924 -1.0718  0.9107
 2921SOL     OW20224   4.092   1.508  10.273 -0.3139  0.2837 -0.0096
 2921SOL    HW120225   4.136   1.584  10.311  0.7467 -0.6171  0.5923
 2921SOL    HW220226   4.135   1.439  10.324 -0.4060 -0.5600 -1.0829
 2922SOL     OW20227   1.406   3.653   8.729 -0.8948  0.2166  0.0368
 2922SOL    HW120228   1.430   3.731   8.780  1.6834 -1.6711  1.7231
 2922SOL    HW220229   1.429   3.685   8.642 -2.4729 -1.3348 -0.9341
 2923SOL     OW20230   3.063   3.224   2.703 -0.8020 -0.1436 -0.4070
 2923SOL    HW120231   3.066   3.220   2.799 -1.7720  2.3009 -0.2743
 2923SOL    HW220232   2.971   3.202   2.697 -0.6887 -1.4813  2.5619
 2924SOL     OW20233   1.208   2.624   5.702 -0.3924  0.0527  0.1882
 2924SOL    HW120234   1.253   2.611   5.618 -1.6394 -4.5275  0.2189
 2924SOL    HW220235   1.279   2.612   5.764 -0.1004  2.1918  0.2589
 2925SOL     OW20236   1.173   1.421   7.823  0.0404  0.6312  0.1171
 2925SOL    HW120237   1.206   1.374   7.899  0.6387 -1.1500 -1.2489
 2925SOL    HW220238   1.180   1.510   7.858 -0.3011  0.3804  0.8170
 2926SOL     OW20239   1.891   3.511   1.320 -0.4625 -0.1450  0.1721
 2926SOL    HW120240   1.877   3.605   1.308  0.3794  0.1586  1.5026
 2926SOL    HW220241   1.986   3.507   1.311 -0.3021 -0.1971  1.8343
 2927SOL     OW20242   4.497   0.240   1.004  0.1620  0.1798 -0.0096
 2927SOL    HW120243   4.556   0.266   1.074 -0.2497 -0.6161  0.6382
 2927SOL    HW220244   4.455   0.163   1.041  2.8429 -0.9842  0.6113
 2928SOL     OW20245   3.262   3.077  10.794  0.2608  0.0383 -0.3254
 2928SOL    HW120246   3.228   3.101  10.880 -0.2211  3.7955 -1.5702
 2928SOL    HW220247   3.182   3.096  10.746 -0.2821 -1.2495  0.0657
 2929SOL     OW20248   3.904   4.228  14.262 -0.2788 -0.1784 -0.2065
 2929SOL    HW120249   3.970   4.288  14.226 -0.5634 -0.1891 -0.7425
 2929SOL    HW220250   3.882   4.176  14.185 -2.3265 -0.5464  0.6431
 2930SOL     OW20251   2.689   4.460   7.531  0.0588  0.3594 -0.1470
 2930SOL    HW120252   2.706   4.387   7.591  1.1868  1.6327  1.0799
 2930SOL    HW220253   2.706   4.414   7.449 -1.9118  0.5966 -0.6827
 2931SOL     OW20254   0.667   2.313   8.452  0.6627 -0.4312  0.2647
 2931SOL    HW120255   0.693   2.227   8.420 -0.6981 -0.3170 -1.1096
 2931SOL    HW220256   0.684   2.324   8.546 -0.4114  0.8785  0.3160
 2932SOL     OW20257   0.121   3.515   6.434 -0.2747  0.2935  0.7577
 2932SOL    HW120258   0.045   3.482   6.482 -1.3971  0.3889 -0.9640
 2932SOL    HW220259   0.146   3.438   6.383  0.8369  1.6869 -0.7805
 2933SOL     OW20260   0.357   2.385   1.164 -0.3739 -0.4194  0.6898
 2933SOL    HW120261   0.275   2.349   1.196  0.3604 -1.6031  1.2369
 2933SOL    HW220262   0.331   2.459   1.108  1.4571 -0.9736 -0.9137
 2934SOL     OW20263   4.404   3.480  14.430  0.5548 -0.6038  0.0490
 2934SOL    HW120264   4.386   3.521  14.515  1.9209 -0.1875  0.1553
 2934SOL    HW220265   4.391   3.388  14.449  1.3057 -1.0035 -1.3541
 2935SOL     OW20266   4.347   1.775   9.966 -0.2387  0.0874 -0.1243
 2935SOL    HW120267   4.257   1.776   9.933 -0.4741  2.1808  0.5720
 2935SOL    HW220268   4.385   1.754   9.880 -1.1396  0.1520 -0.5428
 2936SOL     OW20269   2.053   0.881   1.001 -0.1552 -0.2905 -0.0785
 2936SOL    HW120270   2.073   0.946   1.068  0.4510  0.0195 -0.5609
 2936SOL    HW220271   2.041   0.939   0.926 -2.2475  1.1834  1.4174
 2937SOL     OW20272   1.221   3.939   5.834 -0.6262 -0.3920  0.7384
 2937SOL    HW120273   1.307   3.939   5.791 -0.8672 -1.2986  0.2641
 2937SOL    HW220274   1.188   4.023   5.803  0.6551  0.2484  1.1074
 2938SOL     OW20275   2.832   0.171   5.851  0.3004  0.1353 -0.6105
 2938SOL    HW120276   2.811   0.211   5.935 -4.0614 -2.2009 -0.5603
 2938SOL    HW220277   2.776   0.228   5.798 -1.8392 -1.9333 -0.5671
 2939SOL     OW20278   4.112   0.248   5.762  0.0109  0.2789  0.0683
 2939SOL    HW120279   4.122   0.154   5.752  1.1956  0.3049  1.0362
 2939SOL    HW220280   4.202   0.278   5.776 -0.3086  0.5358  1.5446
 2940SOL     OW20281   2.386   3.996  10.281 -0.4016  0.4558  0.5855
 2940SOL    HW120282   2.386   4.032  10.370 -1.2454  2.1789 -0.1186
 2940SOL    HW220283   2.442   3.922  10.303 -0.4021  0.2149 -0.2050
 2941SOL     OW20284   3.609   2.166  11.780  0.0212 -0.1953 -0.5178
 2941SOL    HW120285   3.677   2.220  11.739 -0.3251 -1.1183 -2.2894
 2941SOL    HW220286   3.659   2.147  11.860 -0.8440  1.8823  0.5211
 2942SOL     OW20287   0.231   2.683   6.969  0.0884  0.5503  0.6097
 2942SOL    HW120288   0.199   2.596   6.945 -0.6579  1.1802 -0.6606
 2942SOL    HW220289   0.319   2.660   6.999 -0.6689  0.1471  2.5345
 2943SOL     OW20290   3.816   3.089   6.184 -0.0948  0.2564  0.0358
 2943SOL    HW120291   3.870   3.165   6.207  3.1331 -2.0752  0.1319
 2943SOL    HW220292   3.848   3.075   6.094  0.8318  0.4116  0.3434
 2944SOL     OW20293   3.108   0.306   5.843 -0.5858  0.0565  0.1073
 2944SOL    HW120294   3.068   0.226   5.878 -0.5185 -0.2416 -0.4991
 2944SOL    HW220295   3.091   0.291   5.750 -1.4229 -0.8759  0.4114
 2945SOL     OW20296   0.989   1.167   7.955 -1.1070 -0.5834  0.0141
 2945SOL    HW120297   1.026   1.086   7.990 -0.0901  0.4369  1.3226
 2945SOL    HW220298   1.013   1.235   8.018  0.9485 -0.3802 -0.9849
 2946SOL     OW20299   3.460   1.535   5.647 -0.0184  0.6598 -0.1746
 2946SOL    HW120300   3.398   1.463   5.639  0.1029  0.4059  1.1952
 2946SOL    HW220301   3.459   1.561   5.555  0.2258  0.9900 -0.0839
 2947SOL     OW20302   1.680   2.960  10.599  0.4923  0.0846 -0.5461
 2947SOL    HW120303   1.632   2.990  10.522 -1.6066  0.9244  1.1211
 2947SOL    HW220304   1.635   3.011  10.666  0.2761 -0.7117 -0.0858
 2948SOL     OW20305   0.498   2.094  11.955  0.0423 -0.4642  0.1765
 2948SOL    HW120306   0.424   2.104  12.015  1.2812  1.1339  1.4274
 2948SOL    HW220307   0.452   2.116  11.875  0.4190  0.1279  0.1244
 2949SOL     OW20308   3.741   4.429   0.067  0.1294  0.0298  0.2481
 2949SOL    HW120309   3.820   4.428   0.121  0.7932 -1.7825 -0.7434
 2949SOL    HW220310   3.756   4.372  17.691  1.5632  0.0601  0.5072
 2950SOL     OW20311   0.889   2.367  16.587 -0.0208 -0.3215 -0.1491
 2950SOL    HW120312   0.916   2.320  16.508 -2.2224 -0.2665 -0.9186
 2950SOL    HW220313   0.976   2.376  16.626  0.3214 -0.7055 -0.8133
 2951SOL     OW20314   2.734   3.678   9.427  0.5163 -0.2455  0.0470
 2951SOL    HW120315   2.719   3.653   9.336 -0.2357 -0.6232  0.2841
 2951SOL    HW220316   2.756   3.593   9.465 -1.6888  0.7071  3.4249
 2952SOL     OW20317   0.448   2.733   7.410  0.3862 -0.6380  0.5551
 2952SOL    HW120318   0.376   2.719   7.470 -0.0701 -0.1409  0.1293
 2952SOL    HW220319   0.429   2.826   7.395  1.3862 -0.6072 -0.5529
 2953SOL     OW20320   1.793   3.261  11.439 -0.4996  0.0187 -0.7526
 2953SOL    HW120321   1.736   3.198  11.482  0.6071 -0.7743 -0.4596
 2953SOL    HW220322   1.778   3.338  11.494  0.7166  0.0590 -0.4907
 2954SOL     OW20323   2.651   4.255   5.380  0.0331 -0.3661 -0.0787
 2954SOL    HW120324   2.680   4.221   5.464  1.8833  1.6052  0.0431
 2954SOL    HW220325   2.560   4.278   5.399  0.2151 -1.4488  2.0483
 2955SOL     OW20326   0.273   2.010   6.638  0.1026  0.5742  0.2155
 2955SOL    HW120327   0.311   1.982   6.721 -1.8508  0.1404  0.9593
 2955SOL    HW220328   0.299   2.102   6.643  2.1954  0.0726 -1.2048
 2956SOL     OW20329   2.366   2.158  17.495 -0.0543  0.1211  0.5688
 2956SOL    HW120330   2.384   2.067  17.470  1.0858  0.0754  1.5617
 2956SOL    HW220331   2.329   2.125  17.577  0.2192  1.6009  1.2756
 2957SOL     OW20332   1.006   3.397   5.970  0.1489  0.0174 -0.0180
 2957SOL    HW120333   0.983   3.307   5.990  0.2099  0.1634  0.7098
 2957SOL    HW220334   0.997   3.441   6.054 -0.7388  1.2851 -0.7851
 2958SOL     OW20335   4.583   3.539  13.118  0.8636  0.2863  0.1544
 2958SOL    HW120336   4.600   3.449  13.091 -0.7403  0.3114 -0.9424
 2958SOL    HW220337   4.519   3.570  13.055 -0.3291 -1.7650  0.3754
 2959SOL     OW20338   0.042   3.300   7.668  0.1269 -0.2264 -0.3389
 2959SOL    HW120339   0.084   3.382   7.642 -1.0235  0.1768 -0.9243
 2959SOL    HW220340   4.681   3.333   7.697 -0.3694 -0.3517 -1.6525
 2960SOL     OW20341   1.097   0.814   7.033 -0.3951  0.5078 -0.1596
 2960SOL    HW120342   1.036   0.844   7.100  0.1956  0.5826  0.3417
 2960SOL    HW220343   1.085   0.720   7.043 -0.4835  0.4314 -0.9915
 2961SOL     OW20344   3.030   4.485   7.801  0.0944 -0.3131  0.1542
 2961SOL    HW120345   3.004   4.505   7.891  0.3030  0.3621  0.0660
 2961SOL    HW220346   2.987   4.545   7.740  0.8965 -1.1663 -1.2459
 2962SOL     OW20347   0.420   0.096   0.711  0.2720 -0.3930 -0.3576
 2962SOL    HW120348   0.449   0.135   0.794  0.4385 -0.2436 -0.4841
 2962SOL    HW220349   0.369   0.021   0.741  1.6055 -1.3090 -0.3880
 2963SOL     OW20350   1.668   2.436   5.660  0.0415  0.1827 -0.2284
 2963SOL    HW120351   1.699   2.482   5.738  1.0500  0.3140 -0.7013
 2963SOL    HW220352   1.725   2.359   5.659 -1.0201 -0.5587 -3.0663
 2964SOL     OW20353   2.571   3.780   5.642  0.2456  0.7232 -0.1268
 2964SOL    HW120354   2.562   3.819   5.729 -1.1470  2.7000 -1.1431
 2964SOL    HW220355   2.613   3.696   5.657  1.7748  1.0719 -2.2828
 2965SOL     OW20356   4.194   0.855   4.964 -0.4084  0.2014 -0.0842
 2965SOL    HW120357   4.227   0.825   5.048 -1.3574  2.4682  1.1191
 2965SOL    HW220358   4.101   0.833   4.969 -0.5421  1.0607  1.2043
 2966SOL     OW20359   2.294   2.935   8.467  0.3194  0.2068  0.3885
 2966SOL    HW120360   2.235   2.976   8.404 -0.7089 -0.4763  0.9045
 2966SOL    HW220361   2.241   2.875   8.520 -0.3228  0.5224  0.1087
 2967SOL     OW20362   0.148   3.822   7.167  0.0771  0.5714 -0.5232
 2967SOL    HW120363   0.172   3.888   7.231  2.2881 -1.8510  1.1399
 2967SOL    HW220364   0.097   3.757   7.216  0.0380  0.1145 -1.1641
 2968SOL     OW20365   1.785   4.655  10.606 -0.3038 -0.6743  0.4894
 2968SOL    HW120366   1.780   4.701  10.689 -1.1233 -1.2054  0.7353
 2968SOL    HW220367   1.720   4.585  10.615  0.2871 -1.0497  1.7979
 2969SOL     OW20368   1.760   0.013   7.264 -0.1350  0.2401 -0.4377
 2969SOL    HW120369   1.812   0.082   7.305 -1.8731  1.5248 -0.3818
 2969SOL    HW220370   1.683   0.020   7.321 -1.1122 -2.7132 -1.3914
 2970SOL     OW20371   1.442   3.802   6.912 -0.8513 -0.2287  0.5447
 2970SOL    HW120372   1.488   3.761   6.839  0.0285  0.2826  0.8144
 2970SOL    HW220373   1.423   3.888   6.875  0.3523 -1.4883 -2.9207
 2971SOL     OW20374   2.130   2.512  10.795  0.3395 -0.0161  0.1730
 2971SOL    HW120375   2.119   2.607  10.807  0.5288  0.0647 -0.2749
 2971SOL    HW220376   2.040   2.483  10.784 -0.1503  1.1856  1.1035
 2972SOL     OW20377   1.678   4.009   4.991  0.0637 -0.3727 -0.7683
 2972SOL    HW120378   1.678   3.978   4.900 -0.2493 -0.6008 -0.6920
 2972SOL    HW220379   1.727   4.091   4.995 -1.4024  0.3203  2.5369
 2973SOL     OW20380   0.765   2.596  11.039  0.2218 -0.5628  0.6215
 2973SOL    HW120381   0.673   2.572  11.024  0.5430 -0.4125 -1.5877
 2973SOL    HW220382   0.797   2.645  10.963 -0.4896  0.0130  0.6930
 2974SOL     OW20383   3.182   4.010   8.194 -0.3449 -0.1162  0.1289
 2974SOL    HW120384   3.133   3.928   8.198  0.1949 -0.5372 -1.7647
 2974SOL    HW220385   3.171   4.017   8.099 -0.6849 -1.4727  0.0674
 2975SOL     OW20386   3.949   0.961  14.987  0.4560 -0.7017  0.8193
 2975SOL    HW120387   3.962   0.918  14.903 -0.3420  2.8934 -1.1380
 2975SOL    HW220388   4.031   1.011  14.983 -0.9199  1.4906 -0.3185
 2976SOL     OW20389   0.828   0.414   6.987  0.3755 -0.2437  0.1301
 2976SOL    HW120390   0.769   0.489   6.995 -0.4703 -0.7183 -1.5877
 2976SOL    HW220391   0.862   0.418   6.897  2.3789 -1.8508  0.8140
 2977SOL     OW20392   2.273   0.019  10.842 -0.0356 -0.1959  0.3915
 2977SOL    HW120393   2.177   0.026  10.840  0.2674  3.7609 -0.4305
 2977SOL    HW220394   2.281   4.657  10.883  1.6597 -0.3667 -0.3089
 2978SOL     OW20395   1.532   3.772   7.464  0.5375 -0.2399 -0.3061
 2978SOL    HW120396   1.437   3.764   7.455  0.1894  0.0442  2.8943
 2978SOL    HW220397   1.531   3.867   7.451 -3.4596 -0.5316 -1.8821
 2979SOL     OW20398   1.043   3.541   6.482 -0.1076 -0.7438  0.1163
 2979SOL    HW120399   0.984   3.615   6.465 -0.2902 -0.8616  0.2433
 2979SOL    HW220400   1.019   3.488   6.406 -0.1458  1.0131 -1.1128
 2980SOL     OW20401   3.332   2.800  10.650 -0.0183  0.0916 -0.0961
 2980SOL    HW120402   3.295   2.887  10.636  0.8238  0.7541  1.8556
 2980SOL    HW220403   3.257   2.760  10.693  0.8831 -0.2728  1.1403
 2981SOL     OW20404   2.420   3.046   5.853 -0.5240 -0.1575  0.0422
 2981SOL    HW120405   2.397   2.991   5.778  0.3356 -1.0719  0.4527
 2981SOL    HW220406   2.374   2.998   5.921 -0.7495  1.4466  1.0186
 2982SOL     OW20407   3.046   4.132   4.590 -0.4307 -0.6747 -0.2709
 2982SOL    HW120408   3.033   4.059   4.652 -1.8684  0.1227  0.3580
 2982SOL    HW220409   3.073   4.083   4.512  2.0040 -0.1751  0.2562
 2983SOL     OW20410   2.681   1.693   7.456 -0.6238 -0.9722 -0.3756
 2983SOL    HW120411   2.727   1.774   7.434 -2.5349  0.1588 -0.2378
 2983SOL    HW220412   2.664   1.699   7.550  0.6765 -2.5424 -0.0485
 2984SOL     OW20413   2.817   2.393  16.646  0.4804  0.1002 -0.0291
 2984SOL    HW120414   2.861   2.476  16.665  1.7422 -0.7902  0.9381
 2984SOL    HW220415   2.741   2.407  16.703  0.9766 -0.3482  0.7420
 2985SOL     OW20416   3.260   0.788   8.163 -0.2486 -0.2671  0.4203
 2985SOL    HW120417   3.261   0.851   8.235 -1.6309 -0.3283  0.4941
 2985SOL    HW220418   3.222   0.845   8.096  1.5117  1.5899  0.9935
 2986SOL     OW20419   1.983   2.849   5.715 -0.9806 -0.3333  0.0178
 2986SOL    HW120420   2.004   2.815   5.802 -1.1545 -0.0436  0.1733
 2986SOL    HW220421   2.056   2.910   5.700 -0.2489 -0.4289  3.1945
 2987SOL     OW20422   0.017   4.128   4.246  0.0476 -0.4841  0.5488
 2987SOL    HW120423   0.058   4.207   4.210 -0.1233 -0.2673  0.8277
 2987SOL    HW220424   4.696   4.171   4.319 -1.2904 -2.8537  1.1229
 2988SOL     OW20425   1.787   1.134   3.252 -0.5752  0.0961  0.2522
 2988SOL    HW120426   1.830   1.119   3.336  1.0558  2.0067 -0.2270
 2988SOL    HW220427   1.696   1.129   3.281 -1.3850  1.8544 -2.0080
 2989SOL     OW20428   2.165   2.989   2.065  0.2432  0.1074  0.3270
 2989SOL    HW120429   2.162   3.027   2.153 -2.5113  2.7774 -0.9166
 2989SOL    HW220430   2.129   3.055   2.006 -1.8029  0.4770  1.9669
 2990SOL     OW20431   1.047   1.275  16.901 -0.0697  0.6590 -0.1332
 2990SOL    HW120432   1.100   1.350  16.874  0.7818 -0.1829 -0.8181
 2990SOL    HW220433   1.069   1.207  16.836  1.9190  0.1408  1.0775
 2991SOL     OW20434   2.526   2.855   6.459  0.3174  0.0505 -0.3224
 2991SOL    HW120435   2.526   2.782   6.396  1.2508  1.3984 -1.8824
 2991SOL    HW220436   2.596   2.897   6.410  0.7584  0.4793  0.6859
 2992SOL     OW20437   0.507   1.398   8.635  0.4482 -0.2596  0.4378
 2992SOL    HW120438   0.464   1.374   8.717 -1.4488  0.4690 -0.3363
 2992SOL    HW220439   0.512   1.493   8.638  1.9084 -0.3287 -0.0357
 2993SOL     OW20440   3.339   4.422   3.850  0.2144  0.2165 -0.1911
 2993SOL    HW120441   3.253   4.434   3.810  0.3023  2.1173  0.1573
 2993SOL    HW220442   3.329   4.500   3.905 -0.8414 -0.1962  0.1933
 2994SOL     OW20443   1.335   2.205   8.202 -0.1369  0.4463 -0.1990
 2994SOL    HW120444   1.351   2.206   8.296  0.2311 -0.0618 -0.2601
 2994SOL    HW220445   1.424   2.203   8.168  0.3644  0.7819  1.1340
 2995SOL     OW20446   2.533   3.828   9.129  0.1438 -0.1434 -0.2237
 2995SOL    HW120447   2.612   3.782   9.158  0.7234  0.8407 -0.2661
 2995SOL    HW220448   2.575   3.885   9.065 -1.4946  1.3061 -0.0141
 2996SOL     OW20449   4.520   1.026   5.798  0.5454 -0.4065 -0.0088
 2996SOL    HW120450   4.568   0.971   5.736 -0.2551 -0.2726 -0.7441
 2996SOL    HW220451   4.442   0.974   5.818  0.3841  0.1262  0.7525
 2997SOL     OW20452   1.176   3.356   7.139  0.1868 -0.5147 -0.1301
 2997SOL    HW120453   1.193   3.378   7.048 -0.9653 -0.8926 -0.4393
 2997SOL    HW220454   1.211   3.436   7.178 -0.6976 -0.5307  0.7141
 2998SOL     OW20455   4.024   3.670   6.804 -0.5916  0.4143 -0.0203
 2998SOL    HW120456   4.077   3.707   6.874 -1.1202  2.6229 -0.8049
 2998SOL    HW220457   4.036   3.732   6.732  1.1678 -1.5224 -1.4045
 2999SOL     OW20458   2.294   1.374   3.735 -0.1607  0.2864  0.0062
 2999SOL    HW120459   2.212   1.424   3.738  0.3195  1.0614  0.3622
 2999SOL    HW220460   2.295   1.333   3.822 -2.4424 -0.2964 -0.2431
 3000SOL     OW20461   3.532   4.468   3.116 -0.4718  0.0021 -0.4614
 3000SOL    HW120462   3.528   4.499   3.207  0.4602 -1.0893 -0.0502
 3000SOL    HW220463   3.442   4.444   3.098 -0.3356  0.0002 -1.1478
 3001SOL     OW20464   1.591   1.889  14.847 -0.0620 -0.7915  0.5537
 3001SOL    HW120465   1.529   1.947  14.803  0.7679  1.0944  1.8545
 3001SOL    HW220466   1.559   1.802  14.823  2.3211 -1.5876  0.2124
 3002SOL     OW20467   3.386   3.168   6.066  0.0063  0.3932  0.4704
 3002SOL    HW120468   3.475   3.196   6.088 -0.8293  0.3214  3.8347
 3002SOL    HW220469   3.348   3.256   6.066  0.4849  0.5974  0.8051
 3003SOL     OW20470   1.286   3.857   5.540  0.2131  0.0424 -0.2801
 3003SOL    HW120471   1.345   3.828   5.610 -0.4644 -0.3576  0.1235
 3003SOL    HW220472   1.343   3.920   5.496  0.3139  0.8175  0.9728
 3004SOL     OW20473   0.760   0.994   9.735  0.1310  0.3994  0.2469
 3004SOL    HW120474   0.824   1.051   9.777  0.1732 -0.0022  0.7311
 3004SOL    HW220475   0.681   1.026   9.778 -0.6094  1.6432 -2.0327
 3005SOL     OW20476   2.907   0.015   6.530 -0.0747 -0.3211 -0.2370
 3005SOL    HW120477   2.887   0.048   6.617  1.6362  0.4607 -0.1320
 3005SOL    HW220478   2.953   0.091   6.492  1.1618 -0.4817  0.9430
 3006SOL     OW20479   1.914   4.253   3.982  0.1126 -0.2267  0.1498
 3006SOL    HW120480   1.990   4.213   3.941 -0.0517  0.6183 -0.9791
 3006SOL    HW220481   1.948   4.307   4.054 -0.0714  0.7399 -0.4903
 3007SOL     OW20482   2.821   2.695   4.905  0.0126 -0.0534  0.0841
 3007SOL    HW120483   2.749   2.633   4.913 -0.6569  0.7984  0.5615
 3007SOL    HW220484   2.887   2.625   4.895 -1.7308 -1.4394 -1.7400
 3008SOL     OW20485   0.798   4.297   9.035  0.1661  0.2632  0.2147
 3008SOL    HW120486   0.802   4.212   8.991 -1.7044  1.1438 -1.6379
 3008SOL    HW220487   0.779   4.274   9.126  1.9312  3.3060  1.3568
 3009SOL     OW20488   2.831   4.053   8.210  0.4528 -0.1404  0.2417
 3009SOL    HW120489   2.896   4.121   8.228 -0.3298  1.0330 -1.4021
 3009SOL    HW220490   2.755   4.081   8.262  1.0027  1.0605  0.3875
 3010SOL     OW20491   1.917   0.560  10.162  0.1645 -0.1959 -0.1200
 3010SOL    HW120492   1.915   0.464  10.158 -0.2120 -0.2093  0.4209
 3010SOL    HW220493   1.959   0.571  10.247 -1.6854 -0.7496  0.8588
 3011SOL     OW20494   0.933   2.953   2.480  0.7880  0.7338 -0.0562
 3011SOL    HW120495   0.923   2.969   2.386  0.5286  2.7811  0.3229
 3011SOL    HW220496   0.928   2.859   2.496  2.1718  0.4146 -1.5225
 3012SOL     OW20497   1.031   3.648   4.578  0.2322 -0.1380 -0.5237
 3012SOL    HW120498   1.026   3.729   4.527 -1.1233  0.1346  0.0402
 3012SOL    HW220499   1.024   3.584   4.507 -1.5148 -1.0402  0.4642
 3013SOL     OW20500   0.477   4.176   5.177  0.1637  0.3172 -0.3145
 3013SOL    HW120501   0.550   4.115   5.184  0.2669  0.5538  0.6757
 3013SOL    HW220502   0.513   4.260   5.207 -0.0839  0.5357 -0.6320
 3014SOL     OW20503   4.082   3.247   4.248  0.5627 -0.1122 -0.4879
 3014SOL    HW120504   4.042   3.165   4.219  0.0494  0.2473 -0.7954
 3014SOL    HW220505   4.163   3.249   4.197  0.9572 -0.2909  0.1370
 3015SOL     OW20506   2.803   3.356   3.369  0.8633 -0.0074  0.3281
 3015SOL    HW120507   2.820   3.263   3.353 -1.2154 -0.0338 -1.7561
 3015SOL    HW220508   2.737   3.379   3.303 -0.7494 -1.5480  1.4223
 3016SOL     OW20509   4.387   0.314   2.503 -0.5223 -0.3422 -0.3218
 3016SOL    HW120510   4.351   0.330   2.416 -0.8162 -0.3471 -0.2027
 3016SOL    HW220511   4.440   0.236   2.485  1.6137  0.7508  1.2583
 3017SOL     OW20512   1.998   3.465  10.336 -0.4417 -0.3071 -0.5758
 3017SOL    HW120513   1.992   3.515  10.418 -1.6704 -0.7976 -0.3595
 3017SOL    HW220514   1.932   3.398  10.355 -1.0169  0.4076 -0.0300
 3018SOL     OW20515   0.334   3.198  11.197 -0.0932  0.1905 -0.2866
 3018SOL    HW120516   0.257   3.229  11.150  0.6022  0.1283 -1.4746
 3018SOL    HW220517   0.299   3.123  11.244  2.2522 -1.6907 -1.5486
 3019SOL     OW20518   3.691   3.731   2.500  0.0632 -0.4922  0.0043
 3019SOL    HW120519   3.698   3.722   2.595 -3.2077 -0.6906  0.2096
 3019SOL    HW220520   3.696   3.827   2.494  1.4889 -0.4180  2.3843
 3020SOL     OW20521   0.800   3.959  13.328  0.5237  0.1355 -0.0792
 3020SOL    HW120522   0.749   4.012  13.390 -1.6197 -1.8884 -0.1056
 3020SOL    HW220523   0.866   3.933  13.392 -2.0492 -2.4605  1.5500
 3021SOL     OW20524   2.513   3.333   6.928  0.3897 -0.0965  0.3682
 3021SOL    HW120525   2.448   3.327   6.998  0.6187  2.1752  0.7741
 3021SOL    HW220526   2.600   3.321   6.965  0.3433  1.3413  0.9648
 3022SOL     OW20527   3.240   1.720  15.329  0.3398 -0.0329 -0.0442
 3022SOL    HW120528   3.212   1.701  15.419 -0.9380 -0.5678 -0.5511
 3022SOL    HW220529   3.332   1.700  15.344  0.1936 -0.2693  0.5259
 3023SOL     OW20530   4.196   1.592   3.411 -0.2503 -0.3531 -0.2972
 3023SOL    HW120531   4.176   1.636   3.494  2.2144 -1.4657  0.8935
 3023SOL    HW220532   4.238   1.664   3.364  1.4317 -0.2421  1.3401
 3024SOL     OW20533   2.709   4.320   9.696  0.4375  0.3964  0.6174
 3024SOL    HW120534   2.755   4.266   9.761  0.8710  0.0808  0.0435
 3024SOL    HW220535   2.619   4.298   9.722  0.9260  0.2223  2.1843
 3025SOL     OW20536   0.705   1.546  13.212  0.1865  0.1013 -0.5509
 3025SOL    HW120537   0.690   1.542  13.306  2.2325 -1.1548 -0.2799
 3025SOL    HW220538   0.647   1.481  13.172  1.9750 -2.0017  0.2597
 3026SOL     OW20539   4.071   2.264  17.004 -0.2172 -0.8101  0.1311
 3026SOL    HW120540   4.076   2.248  17.098  2.8254  1.7206  0.3766
 3026SOL    HW220541   4.087   2.174  16.975  0.2107 -0.3310 -1.1032
 3027SOL     OW20542   4.608   3.627   1.464 -0.1391  0.1355  0.5457
 3027SOL    HW120543   4.583   3.558   1.525 -3.2503  0.3291 -0.5325
 3027SOL    HW220544   4.552   3.611   1.388  1.5981 -0.3592 -0.6219
 3028SOL     OW20545   1.905   0.146   8.949  0.2586 -0.1279  0.5084
 3028SOL    HW120546   1.835   0.093   8.910  1.2097 -0.0683 -1.2949
 3028SOL    HW220547   1.865   0.233   8.951  0.3636  0.0029 -2.9232
 3029SOL     OW20548   0.004   0.859   5.782 -0.0679 -0.3540  0.1650
 3029SOL    HW120549   0.002   0.763   5.781 -1.8444 -0.3178  1.4704
 3029SOL    HW220550   0.066   0.878   5.852 -1.1957  0.6527  0.8846
 3030SOL     OW20551   2.288   1.534   8.582  0.0949 -0.1322  0.1081
 3030SOL    HW120552   2.253   1.477   8.513 -1.3804  1.2334 -0.2518
 3030SOL    HW220553   2.350   1.585   8.530  2.0043 -2.8415 -0.3241
 3031SOL     OW20554   2.674   4.043   4.270  0.3546  0.1607 -0.4997
 3031SOL    HW120555   2.766   4.052   4.295 -0.7701 -0.5150  4.0720
 3031SOL    HW220556   2.633   4.044   4.357  1.3161 -0.5344 -0.0249
 3032SOL     OW20557   2.279   0.193   6.461 -0.0563  0.0005  0.1155
 3032SOL    HW120558   2.221   0.126   6.497 -1.5206  0.3491 -1.5642
 3032SOL    HW220559   2.259   0.265   6.522 -1.6008  0.1845 -0.6024
 3033SOL     OW20560   3.755   3.116   7.011  0.5481  0.2226  0.0758
 3033SOL    HW120561   3.673   3.071   6.993 -0.9547  3.1604 -0.4968
 3033SOL    HW220562   3.805   3.098   6.932 -0.0864  0.5462 -0.4006
 3034SOL     OW20563   2.426   1.557   2.784  0.5277 -0.5245 -0.0281
 3034SOL    HW120564   2.436   1.652   2.777  0.3214 -0.4535  0.6359
 3034SOL    HW220565   2.515   1.527   2.799  0.2647 -0.9462  0.6823
 3035SOL     OW20566   3.569   0.167  13.337 -0.4058 -0.0147  0.9220
 3035SOL    HW120567   3.631   0.235  13.363  1.2527 -1.5233  0.8802
 3035SOL    HW220568   3.554   0.208  13.251  2.2242  1.2079  1.0458
 3036SOL     OW20569   1.259   2.945   5.039  0.1443 -0.4560 -0.1621
 3036SOL    HW120570   1.185   3.000   5.015  0.9541  0.4862 -0.4865
 3036SOL    HW220571   1.251   2.959   5.134  0.2460 -0.9402 -0.0825
 3037SOL     OW20572   2.103   0.953   2.281  0.7188  0.3221  0.1166
 3037SOL    HW120573   2.097   0.939   2.186  4.1399 -1.1957  0.1577
 3037SOL    HW220574   2.043   0.885   2.312  0.8994 -0.0637 -0.3802
 3038SOL     OW20575   3.981   1.873   4.711 -0.1776 -0.2333  0.5268
 3038SOL    HW120576   3.915   1.862   4.780 -1.0957 -1.5939 -0.5725
 3038SOL    HW220577   3.969   1.790   4.666  1.1628  1.0288 -2.1720
 3039SOL     OW20578   4.558   2.303   1.190  0.4927 -0.2733 -0.2071
 3039SOL    HW120579   4.531   2.219   1.154 -0.0218 -0.1443 -0.1288
 3039SOL    HW220580   4.476   2.341   1.222  0.3742 -0.1741 -0.6402
 3040SOL     OW20581   1.755   3.881  13.037  0.3145 -0.3738  0.1211
 3040SOL    HW120582   1.768   3.806  12.979 -0.9908 -0.2312 -0.3581
 3040SOL    HW220583   1.705   3.835  13.104  0.6321 -0.9050 -0.0040
 3041SOL     OW20584   2.791   1.149   5.462  0.0609  0.2491  0.2498
 3041SOL    HW120585   2.833   1.188   5.385  2.0759 -0.7326  0.8652
 3041SOL    HW220586   2.789   1.221   5.525 -0.8157  1.8549 -1.6036
 3042SOL     OW20587   1.336   2.933   2.749  0.1031  0.2617 -0.7173
 3042SOL    HW120588   1.255   2.977   2.723 -1.6220 -2.0450  0.7603
 3042SOL    HW220589   1.402   2.966   2.688  2.7738 -0.8278  1.5731
 3043SOL     OW20590   4.221   3.587   2.723 -0.0046  0.0867  0.7686
 3043SOL    HW120591   4.255   3.569   2.810  0.2837  2.4085  1.1254
 3043SOL    HW220592   4.277   3.661   2.700  0.3963 -0.4779 -0.0532
 3044SOL     OW20593   2.443   4.101   5.746 -0.3107  0.2264  0.7900
 3044SOL    HW120594   2.350   4.082   5.739 -0.8751  3.8643 -2.1808
 3044SOL    HW220595   2.469   4.035   5.810  0.9070 -1.6874 -1.6553
 3045SOL     OW20596   2.001   0.307   5.428 -0.4108 -0.2423 -0.4305
 3045SOL    HW120597   1.926   0.249   5.414 -1.2870  0.9192 -0.5220
 3045SOL    HW220598   1.984   0.340   5.517 -2.3860  1.6033 -1.4773
 3046SOL     OW20599   0.992   2.450  13.162  0.2189  0.4910 -0.0093
 3046SOL    HW120600   1.025   2.383  13.102 -0.6662  0.3347 -0.3271
 3046SOL    HW220601   0.906   2.463  13.121 -0.2212  0.0127  0.7482
 3047SOL     OW20602   2.321   0.664   2.479  0.0828 -0.0292 -0.8642
 3047SOL    HW120603   2.349   0.581   2.518  0.9387  1.3223  1.4339
 3047SOL    HW220604   2.380   0.724   2.525  1.1611 -1.3950 -0.4860
 3048SOL     OW20605   2.868   1.597   0.653 -0.0152  0.1719 -0.9461
 3048SOL    HW120606   2.944   1.603   0.595  0.9735 -2.4782  0.0557
 3048SOL    HW220607   2.863   1.501   0.661 -1.3220 -0.1297 -5.1846
 3049SOL     OW20608   0.488   2.252   6.086 -0.1890  0.2014  0.3382
 3049SOL    HW120609   0.395   2.274   6.095  0.1668  2.5284 -1.6222
 3049SOL    HW220610   0.526   2.312   6.150 -1.3642  0.4515  0.8089
 3050SOL     OW20611   3.148   4.509   2.988 -0.3079 -0.1889  0.0715
 3050SOL    HW120612   3.194   4.568   3.048 -0.6305 -1.1242  1.2521
 3050SOL    HW220613   3.131   4.561   2.910  4.4668  0.7437 -0.3190
 3051SOL     OW20614   0.770   1.188   7.561 -0.0053  0.1376 -0.0907
 3051SOL    HW120615   0.763   1.239   7.642  0.9645 -0.9062  0.6717
 3051SOL    HW220616   0.729   1.104   7.582 -1.5038  0.4791 -1.7343
 3052SOL     OW20617   2.917   0.604   5.339  0.0637  0.9342 -0.1101
 3052SOL    HW120618   2.997   0.629   5.384  0.6527  0.6648 -0.9971
 3052SOL    HW220619   2.872   0.558   5.410 -0.6093 -0.1505 -1.2330
 3053SOL     OW20620   4.028   2.246  11.651  0.0698 -0.1201 -0.2715
 3053SOL    HW120621   4.051   2.244  11.558  0.5995 -0.4630 -0.1277
 3053SOL    HW220622   4.097   2.299  11.690  1.4389 -2.5308  0.5367
 3054SOL     OW20623   3.348   0.949   9.574 -0.2489 -0.0102  0.2691
 3054SOL    HW120624   3.256   0.935   9.598  0.3936 -2.3322  1.3316
 3054SOL    HW220625   3.363   0.888   9.502  1.7667 -0.9465  1.4851
 3055SOL     OW20626   3.505   2.191   3.133  0.1496  0.4339  0.2001
 3055SOL    HW120627   3.479   2.194   3.225  1.2658  1.7191  0.4776
 3055SOL    HW220628   3.426   2.179   3.081  0.9818 -1.7165 -0.5929
 3056SOL     OW20629   3.498   1.594   0.201 -0.0725  0.1278 -0.2193
 3056SOL    HW120630   3.480   1.640   0.119  1.6999 -1.2298 -1.3606
 3056SOL    HW220631   3.539   1.514   0.167  0.5741  0.9656 -1.3743
 3057SOL     OW20632   1.767   1.147   3.893 -0.5779  0.2555  0.3429
 3057SOL    HW120633   1.744   1.148   3.800 -1.7468 -0.9938  0.6283
 3057SOL    HW220634   1.677   1.130   3.918  0.3521 -1.2988  2.6596
 3058SOL     OW20635   0.997   0.305   1.025 -0.1539  0.7427 -0.0783
 3058SOL    HW120636   0.981   0.295   1.119  1.9679  2.5603  0.4829
 3058SOL    HW220637   1.070   0.244   1.015 -0.9181 -0.3832  1.1769
 3059SOL     OW20638   2.234   2.849   1.528 -0.4447  0.2297 -0.5171
 3059SOL    HW120639   2.302   2.812   1.584  0.2089 -1.3164 -2.3670
 3059SOL    HW220640   2.290   2.905   1.475  3.3658 -0.0792  3.1869
 3060SOL     OW20641   1.736   3.948   5.934 -0.4573 -0.1162 -0.6398
 3060SOL    HW120642   1.780   4.025   5.968  0.2758 -1.2827  1.0304
 3060SOL    HW220643   1.808   3.901   5.892  1.3425  0.6009  1.6738
 3061SOL     OW20644   4.686   4.693   9.514  0.1435 -0.2412 -0.0823
 3061SOL    HW120645   4.719   4.603   9.509 -0.3153 -0.3235 -1.4216
 3061SOL    HW220646   0.032   0.019   9.475 -0.8507  0.8055 -0.5053
 3062SOL     OW20647   3.780   2.673   2.915  0.5859 -0.2535 -1.0113
 3062SOL    HW120648   3.857   2.646   2.965  1.1797 -2.2046 -2.9384
 3062SOL    HW220649   3.785   2.604   2.848  2.2964  0.0909 -1.2394
 3063SOL     OW20650   0.911   3.711  11.493 -0.0644 -0.2558  0.7363
 3063SOL    HW120651   0.972   3.657  11.544 -0.4907 -0.1833  1.3149
 3063SOL    HW220652   0.977   3.767  11.452  0.3969 -2.1671 -1.1306
 3064SOL     OW20653   3.702   1.138  12.181 -0.5588  0.2232  0.3558
 3064SOL    HW120654   3.701   1.171  12.091  0.0918  0.1971  0.3405
 3064SOL    HW220655   3.774   1.187  12.220  0.5799 -2.1647  1.2623
 3065SOL     OW20656   3.457   1.552   2.771 -0.0191 -0.1084 -0.1049
 3065SOL    HW120657   3.480   1.460   2.763  0.0380 -0.1804  0.8919
 3065SOL    HW220658   3.421   1.540   2.859 -0.0613  2.8480  0.2947
 3066SOL     OW20659   3.054   0.628   0.349 -1.0343  0.3578 -0.4965
 3066SOL    HW120660   3.086   0.589   0.268  0.0164 -2.0440  1.0567
 3066SOL    HW220661   3.026   0.556   0.405 -3.2792  1.2874 -0.4427
 3067SOL     OW20662   0.085   2.694  14.059  0.3316 -0.4366  0.2364
 3067SOL    HW120663   0.065   2.711  14.151 -2.5050 -1.7942 -0.1472
 3067SOL    HW220664   0.095   2.599  14.070  0.4417 -0.0317  3.8326
 3068SOL     OW20665   0.113   1.052   2.776 -0.6293 -0.0355 -0.6151
 3068SOL    HW120666   0.042   1.040   2.839  0.3229 -0.5447  0.3578
 3068SOL    HW220667   0.075   1.108   2.708  0.0981 -0.1667 -1.1286
 3069SOL     OW20668   2.609   3.093   7.328  0.4652 -0.1694  0.5922
 3069SOL    HW120669   2.551   3.053   7.263  0.7060  0.8487 -0.2549
 3069SOL    HW220670   2.543   3.123   7.390 -0.8641 -0.9607 -0.4286
 3070SOL     OW20671   4.512   0.036   2.549  0.5428 -0.1066  0.1445
 3070SOL    HW120672   4.529   4.690   2.611 -1.5400  0.0091  0.8577
 3070SOL    HW220673   4.447   4.724   2.488  0.0650  0.0206  0.5746
 3071SOL     OW20674   3.453   1.571   4.944  0.1780 -0.2868  0.0348
 3071SOL    HW120675   3.439   1.477   4.952 -1.7872  0.0369  0.5582
 3071SOL    HW220676   3.441   1.584   4.850 -0.4934  0.1769  0.1779
 3072SOL     OW20677   1.875   1.368   2.729  0.1008  0.5437 -0.6745
 3072SOL    HW120678   1.810   1.303   2.702  0.2596 -0.6544  1.8489
 3072SOL    HW220679   1.903   1.312   2.802 -3.0246  0.1970  0.2593
 3073SOL     OW20680   3.342   3.131   2.196  0.3227 -0.4613  0.3064
 3073SOL    HW120681   3.260   3.134   2.246 -0.0299  0.5461 -0.3391
 3073SOL    HW220682   3.405   3.188   2.239 -0.8382 -1.3152  3.1921
 3074SOL     OW20683   3.572   3.624   5.352 -0.3211 -0.1902 -0.7390
 3074SOL    HW120684   3.521   3.649   5.274 -2.3113 -0.4272  0.4896
 3074SOL    HW220685   3.513   3.648   5.423  0.4573  1.5100 -0.6679
 3075SOL     OW20686   2.241   1.591   8.214  0.3099 -0.1326  0.3880
 3075SOL    HW120687   2.322   1.543   8.230  0.0666 -0.4064  0.7849
 3075SOL    HW220688   2.202   1.526   8.156  0.6587 -0.1891  0.2169
 3076SOL     OW20689   0.798   4.263   5.726 -0.2653 -0.2410  0.2139
 3076SOL    HW120690   0.865   4.325   5.755 -0.2561  0.1265 -0.6164
 3076SOL    HW220691   0.777   4.299   5.640  0.0779  0.2067  0.3172
 3077SOL     OW20692   1.556   1.886   3.529 -0.2713  0.2167  0.0625
 3077SOL    HW120693   1.635   1.851   3.489  0.0303  0.3649  0.5274
 3077SOL    HW220694   1.591   1.961   3.576  1.7216 -1.2853  0.9638
 3078SOL     OW20695   3.433   1.366   9.560  0.4395  0.2062 -0.6596
 3078SOL    HW120696   3.437   1.284   9.611  0.9827 -0.7524 -2.2435
 3078SOL    HW220697   3.479   1.342   9.480 -1.2989 -2.0774 -0.9913
 3079SOL     OW20698   1.342   1.905   3.366 -0.1924  0.0775  0.2021
 3079SOL    HW120699   1.417   1.919   3.424  0.4186  1.6419 -0.9789
 3079SOL    HW220700   1.386   1.901   3.281  0.6941 -1.4467  0.7354
 3080SOL     OW20701   4.160   2.864   3.587 -0.4108  0.0319  0.2553
 3080SOL    HW120702   4.122   2.863   3.675  2.1767  2.7766  1.3864
 3080SOL    HW220703   4.238   2.811   3.598 -0.2225  0.5609  1.5117
 3081SOL     OW20704   2.142   4.166  11.991  0.2078  0.1212 -0.1806
 3081SOL    HW120705   2.164   4.186  12.082 -1.4764  0.4528  0.1641
 3081SOL    HW220706   2.105   4.078  11.994  0.3383  0.2102  4.4987
 3082SOL     OW20707   2.418   0.185   8.717  0.6735 -0.3863 -0.1400
 3082SOL    HW120708   2.429   0.131   8.795  0.7071  2.0849  1.5662
 3082SOL    HW220709   2.328   0.216   8.732  0.4823 -1.7726  1.6821
 3083SOL     OW20710   4.424   0.923   7.465  0.4090  0.3306 -0.0362
 3083SOL    HW120711   4.345   0.869   7.469  1.4202 -1.0698  0.8510
 3083SOL    HW220712   4.460   0.917   7.376 -0.2216 -1.6426 -0.1610
 3084SOL     OW20713   2.715   3.061   3.744  0.1786 -0.4460  0.3581
 3084SOL    HW120714   2.636   3.015   3.775 -0.4315  0.6893  0.4950
 3084SOL    HW220715   2.785   3.016   3.791  0.5530  0.5426  0.7341
 3085SOL     OW20716   1.607   4.131  15.937  0.0680  0.2387 -0.4349
 3085SOL    HW120717   1.609   4.050  15.988  0.4324 -1.4097 -3.0605
 3085SOL    HW220718   1.695   4.168  15.943  0.8627 -1.3730 -1.8630
 3086SOL     OW20719   0.037   4.706   1.561 -0.4279  0.1059  0.3831
 3086SOL    HW120720   0.010   4.671   1.646 -1.2319 -3.3922 -1.2940
 3086SOL    HW220721   4.671   0.007   1.540 -0.3972 -0.1547 -0.0659
 3087SOL     OW20722   1.978   3.349   1.015 -0.6311 -0.1192  0.0302
 3087SOL    HW120723   2.047   3.407   0.982 -0.3335 -0.7736 -0.4789
 3087SOL    HW220724   1.960   3.382   1.103  0.6362 -2.6472  1.2092
 3088SOL     OW20725   1.971   4.631   2.163 -0.5099 -0.2238  0.1541
 3088SOL    HW120726   1.995   4.539   2.176 -2.1722 -0.6638  0.0763
 3088SOL    HW220727   2.047   4.665   2.212 -0.1014 -0.0002 -0.6316
 3089SOL     OW20728   2.436   2.533   3.877  0.1694  0.2627  0.1877
 3089SOL    HW120729   2.437   2.513   3.783  0.2793 -1.4644  0.5514
 3089SOL    HW220730   2.497   2.606   3.883  2.6429 -1.6951 -1.0258
 3090SOL     OW20731   4.653   2.185   8.886  0.5067  0.3027  0.6182
 3090SOL    HW120732   0.016   2.203   8.851  0.2902  1.7475  0.8347
 3090SOL    HW220733   4.682   2.125   8.954 -0.1635 -0.2908  0.3795
 3091SOL     OW20734   0.434   2.187   6.989  0.0826  0.7536 -0.0763
 3091SOL    HW120735   0.473   2.170   7.075  0.5179 -0.1801 -0.4584
 3091SOL    HW220736   0.469   2.109   6.947 -0.5225 -0.3740  1.4937
 3092SOL     OW20737   1.357   1.306   2.072  0.5581 -0.3036 -0.6331
 3092SOL    HW120738   1.366   1.303   1.977 -1.2297  1.1630 -0.8488
 3092SOL    HW220739   1.291   1.376   2.075  0.6567 -0.1776 -1.3278
 3093SOL     OW20740   4.530   1.203   5.002 -0.4228 -0.4404 -0.0181
 3093SOL    HW120741   4.532   1.215   5.097 -0.3600  1.5342 -0.2611
 3093SOL    HW220742   4.543   1.109   5.009  0.8686 -0.2626  0.0135
 3094SOL     OW20743   3.518   1.950   4.432 -0.0100 -0.4751 -0.1334
 3094SOL    HW120744   3.462   1.892   4.381 -1.6183  2.1874 -1.3598
 3094SOL    HW220745   3.532   1.891   4.506  0.4698 -0.0066  0.1514
 3095SOL     OW20746   3.047   1.937   4.257 -0.1070 -0.2176 -0.3361
 3095SOL    HW120747   3.127   1.981   4.228 -0.4938  0.0850 -0.9561
 3095SOL    HW220748   3.026   1.880   4.183 -2.8252 -1.4024  1.3129
 3096SOL     OW20749   1.002   3.592  10.190 -0.1070  0.2078  0.2036
 3096SOL    HW120750   0.966   3.551  10.269 -1.8319 -0.3050 -0.8447
 3096SOL    HW220751   0.934   3.651  10.159  0.7309  0.4645 -1.1064
 3097SOL     OW20752   4.551   4.612   5.630  0.6313  0.6648  0.6148
 3097SOL    HW120753   4.492   4.544   5.662  0.0076  0.4466 -0.9941
 3097SOL    HW220754   4.572   4.656   5.712  1.3922  2.2357 -0.4170
 3098SOL     OW20755   3.622   2.771  17.651  0.0595 -0.9119  0.0658
 3098SOL    HW120756   3.558   2.712  17.690  0.3655 -1.4132 -0.2012
 3098SOL    HW220757   3.666   2.804   0.030 -1.1067 -2.6683  1.4334
 3099SOL     OW20758   0.810   1.357   4.054 -0.4511  0.0401  1.0289
 3099SOL    HW120759   0.718   1.345   4.079 -0.5226  2.2869  1.8319
 3099SOL    HW220760   0.814   1.327   3.963 -0.3906  0.0747  1.0203
 3100SOL     OW20761   1.513   1.842   4.746 -0.5430  0.1878 -0.4500
 3100SOL    HW120762   1.468   1.768   4.705 -0.0040 -0.8470  0.8178
 3100SOL    HW220763   1.463   1.917   4.715  0.1464  1.0149  0.4835
 3101SOL     OW20764   1.653   1.872  14.518 -0.0004  0.0139  0.1791
 3101SOL    HW120765   1.623   1.792  14.562 -1.9063  1.5224  1.5970
 3101SOL    HW220766   1.591   1.878  14.445  0.0198  1.4243  0.2830
 3102SOL     OW20767   0.797   2.400  11.436 -0.2346  0.4734  0.3606
 3102SOL    HW120768   0.840   2.319  11.465 -0.0161  0.3578 -0.2818
 3102SOL    HW220769   0.719   2.364  11.394  0.1113  0.0131  0.1017
 3103SOL     OW20770   4.308   1.264   7.158  0.1531  0.2417 -0.0466
 3103SOL    HW120771   4.331   1.355   7.176 -2.5817  1.1656 -1.2998
 3103SOL    HW220772   4.335   1.227   7.242 -0.1523  2.8413  1.2088
 3104SOL     OW20773   0.865   4.535   6.502 -0.1037  0.7658  0.1590
 3104SOL    HW120774   0.830   4.585   6.576 -1.2682 -0.0614  0.1800
 3104SOL    HW220775   0.797   4.528   6.436 -1.7174  1.7593  1.6997
 3105SOL     OW20776   2.127   2.659  12.492 -0.0987  0.2210 -0.2518
 3105SOL    HW120777   2.190   2.686  12.559  1.0678 -0.8601 -0.9049
 3105SOL    HW220778   2.180   2.638  12.415  0.6977  1.6669 -0.0969
 3106SOL     OW20779   2.245   0.030   1.609  0.0439 -0.3693  1.1496
 3106SOL    HW120780   2.184   4.712   1.669  0.6925 -2.3413  0.4154
 3106SOL    HW220781   2.251   4.687   1.542  0.2355  0.7691  0.0227
 3107SOL     OW20782   1.629   1.337   6.531  0.0917 -0.2373 -0.2856
 3107SOL    HW120783   1.622   1.431   6.519  0.1366 -0.0359  1.2263
 3107SOL    HW220784   1.676   1.323   6.449 -1.4199  1.8668 -1.5041
 3108SOL     OW20785   4.390   2.996   4.331  0.0752  0.4754 -0.4503
 3108SOL    HW120786   4.438   3.051   4.269  1.0247 -0.4167 -0.5205
 3108SOL    HW220787   4.343   2.935   4.274 -1.0526  0.5485  0.3993
 3109SOL     OW20788   4.347   2.842   8.327 -0.6014  0.4139 -0.5672
 3109SOL    HW120789   4.295   2.773   8.368  1.1455  0.8664  2.4474
 3109SOL    HW220790   4.317   2.920   8.375 -1.4845 -1.2550  1.6344
 3110SOL     OW20791   0.578   1.733   2.660 -0.7441  0.5401  0.6251
 3110SOL    HW120792   0.497   1.764   2.702 -1.5318 -0.7445  0.0462
 3110SOL    HW220793   0.584   1.652   2.709 -1.0839 -1.1168 -2.0648
 3111SOL     OW20794   2.009   4.008   4.912 -0.6804 -0.0809  0.5755
 3111SOL    HW120795   2.030   4.093   4.952  1.2669 -0.3925  0.2311
 3111SOL    HW220796   2.065   4.006   4.835 -0.5481  1.8844  0.6209
 3112SOL     OW20797   2.382   1.612   5.364 -0.4677  0.1794 -0.2554
 3112SOL    HW120798   2.392   1.593   5.271  1.8148 -3.1666  0.6693
 3112SOL    HW220799   2.404   1.524   5.395  0.9756  0.3399 -0.8374
 3113SOL     OW20800   3.508   3.041  13.360  0.0144  0.1649  0.2232
 3113SOL    HW120801   3.563   3.014  13.286 -3.2809 -0.9423 -1.8503
 3113SOL    HW220802   3.580   3.051  13.422 -0.8687  0.1704  1.2527
 3114SOL     OW20803   2.647   2.452   6.637 -0.0876 -0.3640 -0.9623
 3114SOL    HW120804   2.624   2.382   6.575 -1.1171  1.1750 -2.3108
 3114SOL    HW220805   2.634   2.413   6.723  1.9632  0.9079 -0.0987
 3115SOL     OW20806   3.430   1.037   9.007 -0.6940  0.2564  0.4391
 3115SOL    HW120807   3.491   1.076   9.069  0.9662  0.7879 -1.5073
 3115SOL    HW220808   3.349   1.081   9.031 -2.3615 -2.2893 -0.4569
 3116SOL     OW20809   2.768   3.047  11.325  0.0585 -0.1801  0.0653
 3116SOL    HW120810   2.736   2.958  11.336 -2.1672  0.5364 -0.6961
 3116SOL    HW220811   2.797   3.046  11.234  1.9838  1.4026  0.6574
 3117SOL     OW20812   0.340   2.096   9.597  1.1079 -0.9810  0.1287
 3117SOL    HW120813   0.431   2.067   9.588  1.2480 -0.8652  1.1385
 3117SOL    HW220814   0.294   2.012   9.589  0.8310 -0.7845 -0.3463
 3118SOL     OW20815   0.275   0.303   8.760 -0.1380 -0.5748  0.2127
 3118SOL    HW120816   0.342   0.370   8.745 -1.6614  0.7148 -0.9146
 3118SOL    HW220817   0.305   0.229   8.707 -0.9369  0.2318 -1.3850
 3119SOL     OW20818   3.561   4.542   6.762 -0.6222 -0.8687  0.6018
 3119SOL    HW120819   3.530   4.452   6.776  0.5707 -1.4475 -0.5049
 3119SOL    HW220820   3.636   4.530   6.704 -0.0537  0.2187  1.1174
 3120SOL     OW20821   3.836   1.172   0.637  0.1604  0.1111  0.4489
 3120SOL    HW120822   3.875   1.129   0.561  1.9622 -0.5925  1.7554
 3120SOL    HW220823   3.905   1.152   0.701 -0.3806 -0.4776  0.8474
 3121SOL     OW20824   0.764   0.275   5.445 -0.1637 -0.1327 -0.3176
 3121SOL    HW120825   0.794   0.228   5.523  2.6292 -0.3302 -1.5283
 3121SOL    HW220826   0.678   0.236   5.427 -0.5010  0.3589  0.2261
 3122SOL     OW20827   0.987   1.081  15.811  0.0113 -0.0714  0.2301
 3122SOL    HW120828   0.946   1.009  15.859  1.4800 -0.4016  1.0065
 3122SOL    HW220829   1.060   1.032  15.774  0.1653  1.8578 -1.9852
 3123SOL     OW20830   4.407   2.633  11.930  0.1234  0.1927  0.0385
 3123SOL    HW120831   4.321   2.593  11.913 -0.8948  2.8287 -1.0996
 3123SOL    HW220832   4.380   2.722  11.909  1.6713  0.1664 -2.1379
 3124SOL     OW20833   2.239   3.853   6.599 -0.4154 -0.3153 -0.2376
 3124SOL    HW120834   2.275   3.841   6.687 -0.1362 -2.3459 -0.6103
 3124SOL    HW220835   2.276   3.781   6.547  1.4427  0.1711  0.4086
 3125SOL     OW20836   0.585   2.774   1.791  0.5014 -0.3645 -0.4249
 3125SOL    HW120837   0.521   2.755   1.722  0.4587 -1.4336 -0.0920
 3125SOL    HW220838   0.635   2.849   1.758  2.9213 -0.9807  1.8729
 3126SOL     OW20839   1.770   1.480   8.346  0.4802  0.3034 -0.1573
 3126SOL    HW120840   1.833   1.532   8.397  1.1387 -1.0860  0.4509
 3126SOL    HW220841   1.725   1.435   8.418  1.7119  1.2685  1.2374
 3127SOL     OW20842   4.629   1.089   6.928  0.7020  0.1272  0.1532
 3127SOL    HW120843   4.538   1.065   6.945  0.8141  1.3258  2.4621
 3127SOL    HW220844   4.633   1.091   6.833 -0.1601 -0.2583  0.1114
 3128SOL     OW20845   4.161   3.998   7.304 -0.2590 -0.3626 -0.3741
 3128SOL    HW120846   4.115   4.082   7.305  0.5206  0.0462  0.2246
 3128SOL    HW220847   4.082   3.942   7.306 -1.2295  1.0591  1.0761
 3129SOL     OW20848   1.271   1.224   9.832  0.3002  0.1091  0.0000
 3129SOL    HW120849   1.331   1.254   9.901  1.8133 -2.4245 -0.2200
 3129SOL    HW220850   1.287   1.290   9.764  0.5902 -0.8057 -0.8157
 3130SOL     OW20851   3.891   4.369   4.256 -0.1563 -0.2900  0.1794
 3130SOL    HW120852   3.862   4.309   4.325  2.2225 -2.0468 -0.3140
 3130SOL    HW220853   3.915   4.314   4.181  1.5425 -0.9963  1.2052
 3131SOL     OW20854   1.259   3.513   5.322  0.0363 -0.7093 -0.0492
 3131SOL    HW120855   1.311   3.495   5.243 -0.8024 -1.9047 -0.3287
 3131SOL    HW220856   1.269   3.429   5.367  2.2160  0.3780  1.4649
 3132SOL     OW20857   2.235   3.606   4.509  0.9962  0.3859  0.1435
 3132SOL    HW120858   2.278   3.687   4.535  0.6354  0.0529  1.7439
 3132SOL    HW220859   2.243   3.557   4.591 -0.1251  1.0512  0.6415
 3133SOL     OW20860   4.022   3.353   5.876  0.5158 -0.1510  0.0471
 3133SOL    HW120861   4.076   3.430   5.854  1.5675 -1.2545 -1.2404
 3133SOL    HW220862   3.959   3.385   5.940  0.5603 -4.4001  2.1718
 3134SOL     OW20863   2.834   2.268  12.008  0.3808  0.0275  0.4432
 3134SOL    HW120864   2.887   2.274  12.088  0.5919  0.6093  0.2562
 3134SOL    HW220865   2.827   2.360  11.983 -0.7806 -1.2665 -3.8715
 3135SOL     OW20866   4.047   2.549   2.269  0.5974 -0.1034  0.2785
 3135SOL    HW120867   3.964   2.526   2.226 -1.0674  2.1331  2.2791
 3135SOL    HW220868   4.057   2.476   2.330  0.4019 -0.5485 -0.2151
 3136SOL     OW20869   2.221   3.467   0.929 -0.2146 -0.1097  0.4744
 3136SOL    HW120870   2.315   3.478   0.945 -0.4735  0.6999  1.4261
 3136SOL    HW220871   2.201   3.555   0.897 -1.2144  0.1246  1.7613
 3137SOL     OW20872   1.476   1.052   6.738  0.0131 -0.3864  0.3477
 3137SOL    HW120873   1.564   1.082   6.717  0.6355 -0.3005  3.0215
 3137SOL    HW220874   1.417   1.095   6.676 -0.0293 -0.8532  0.0637
 3138SOL     OW20875   0.625   1.994  16.672  0.0289  0.0690 -0.3197
 3138SOL    HW120876   0.645   2.040  16.590  1.3488 -0.3247 -0.2209
 3138SOL    HW220877   0.628   1.902  16.646  0.2954 -1.1351  3.9955
 3139SOL     OW20878   3.939   4.674   8.652 -0.7029 -0.1933 -0.2622
 3139SOL    HW120879   4.034   4.683   8.638 -0.5298 -1.5588  0.0432
 3139SOL    HW220880   3.930   4.580   8.634  0.1475 -0.2044 -0.6450
 3140SOL     OW20881   3.317   0.681   4.907 -0.5398 -0.4382  0.1229
 3140SOL    HW120882   3.257   0.720   4.971  1.8105 -0.0981  2.1350
 3140SOL    HW220883   3.392   0.740   4.906 -1.2896  0.4210 -2.5083
 3141SOL     OW20884   0.641   4.074  14.751 -0.6038  0.0566 -0.3511
 3141SOL    HW120885   0.561   4.126  14.748 -0.8653 -0.2849  0.5479
 3141SOL    HW220886   0.646   4.056  14.845  0.3318  3.0125  0.1425
 3142SOL     OW20887   1.147   3.819   8.590 -0.2615  0.1794  0.6242
 3142SOL    HW120888   1.212   3.805   8.659  1.8430 -0.2758 -1.4487
 3142SOL    HW220889   1.068   3.849   8.636  0.3267  0.4924  1.4281
 3143SOL     OW20890   4.287   2.758   7.466  0.0339  0.0423  0.7551
 3143SOL    HW120891   4.340   2.790   7.539 -0.3951 -0.4042  1.2601
 3143SOL    HW220892   4.336   2.691   7.418 -0.5214  0.2147 -0.0559
 3144SOL     OW20893   0.470   4.230  15.347 -0.7202 -0.4532 -0.2876
 3144SOL    HW120894   0.390   4.183  15.369 -0.3381 -1.0319 -0.1282
 3144SOL    HW220895   0.525   4.172  15.400 -1.6962  0.7359  2.0365
 3145SOL     OW20896   3.467   1.781   3.508  0.0019  0.0377  0.3429
 3145SOL    HW120897   3.526   1.739   3.446 -0.5286 -1.1068  0.6333
 3145SOL    HW220898   3.517   1.863   3.514 -0.1567  0.0773  1.1042
 3146SOL     OW20899   3.680   2.779  15.559  0.3833  0.0355 -0.0981
 3146SOL    HW120900   3.623   2.831  15.615  0.8909 -0.8165  1.2093
 3146SOL    HW220901   3.764   2.821  15.579 -0.7264  1.8111  0.7759
 3147SOL     OW20902   3.484   3.408   3.051 -0.0961 -0.6006  0.0008
 3147SOL    HW120903   3.406   3.354   3.046  0.3205 -1.3245  1.1520
 3147SOL    HW220904   3.485   3.434   2.959  2.3410 -2.0323 -0.3768
 3148SOL     OW20905   1.411   4.368   1.750 -0.1795  0.1557 -0.4261
 3148SOL    HW120906   1.386   4.444   1.698  0.4835 -1.8732 -3.6929
 3148SOL    HW220907   1.484   4.332   1.700  0.6930  3.5163 -1.5733
 3149SOL     OW20908   1.510   3.960   3.283 -0.0601 -0.2020 -0.6099
 3149SOL    HW120909   1.529   4.013   3.361 -2.2374  3.4291 -2.5637
 3149SOL    HW220910   1.550   3.873   3.295 -0.4357 -0.3974 -0.7708
 3150SOL     OW20911   4.425   3.449   4.736 -0.1915 -0.1325 -0.5223
 3150SOL    HW120912   4.455   3.423   4.649  2.3929 -4.0226  1.5836
 3150SOL    HW220913   4.330   3.439   4.724  0.0487 -2.3485 -0.5205
 3151SOL     OW20914   3.650   4.560   6.046  0.1290  0.4867  0.3571
 3151SOL    HW120915   3.735   4.594   6.074  1.6551 -3.6736  0.6852
 3151SOL    HW220916   3.600   4.642   6.050  0.2263  0.6856 -2.3408
 3152SOL     OW20917   2.080   1.564  10.922 -0.1330 -0.2058  0.1693
 3152SOL    HW120918   1.989   1.566  10.952 -0.8508  2.1583 -2.1714
 3152SOL    HW220919   2.078   1.495  10.856 -2.3264 -0.1863  0.2102
 3153SOL     OW20920   3.856   1.796   7.035 -0.3225  0.0028 -0.3690
 3153SOL    HW120921   3.808   1.833   7.108  0.0302  0.5430 -0.4106
 3153SOL    HW220922   3.808   1.829   6.959 -0.3846  3.1762  1.0752
 3154SOL     OW20923   4.211   4.266   8.034 -0.0140  0.1460  0.3746
 3154SOL    HW120924   4.153   4.336   8.004 -1.4047 -1.9099 -1.6977
 3154SOL    HW220925   4.272   4.248   7.963 -1.8715 -0.0514 -1.1728
 3155SOL     OW20926   2.590   1.549  14.847  0.0410  0.1690  0.6454
 3155SOL    HW120927   2.664   1.609  14.842  0.5959 -0.5990 -0.3041
 3155SOL    HW220928   2.561   1.527  14.758 -2.7614 -0.2123  1.6459
 3156SOL     OW20929   0.531   2.738   0.885 -0.6142 -0.1279  0.6320
 3156SOL    HW120930   0.544   2.651   0.921  2.3710  0.9882  2.3200
 3156SOL    HW220931   0.623   2.755   0.865 -0.4822  0.4543  1.7281
 3157SOL     OW20932   2.901   1.560  10.079  0.3312  0.1023  0.3694
 3157SOL    HW120933   2.974   1.590  10.025  0.0547  0.8198  0.3987
 3157SOL    HW220934   2.827   1.578  10.021 -0.1264 -0.8550  0.6536
 3158SOL     OW20935   3.891   1.601   8.330 -0.6921  0.1877 -0.0220
 3158SOL    HW120936   3.985   1.589   8.314 -0.7516  0.9498 -0.9834
 3158SOL    HW220937   3.852   1.543   8.264 -3.1521  1.5322  0.2374
 3159SOL     OW20938   2.849   1.787   2.644 -0.4398 -0.7394  0.2727
 3159SOL    HW120939   2.806   1.748   2.720 -0.6387 -0.1703  0.4552
 3159SOL    HW220940   2.939   1.796   2.676 -0.8389  4.6045 -0.1031
 3160SOL     OW20941   1.001   3.197   9.431 -0.3578 -0.2366 -0.1359
 3160SOL    HW120942   0.919   3.188   9.383  0.0709 -0.9340 -0.7423
 3160SOL    HW220943   1.052   3.251   9.370  1.4348  1.4746  2.8607
 3161SOL     OW20944   1.103   3.040   2.689 -0.3023  0.4671  0.0453
 3161SOL    HW120945   1.063   3.037   2.602  0.5294  2.3632 -0.4000
 3161SOL    HW220946   1.095   3.132   2.714 -0.9087  0.2236  0.7616
 3162SOL     OW20947   3.523   3.155   0.803 -0.2711 -0.0122  0.4006
 3162SOL    HW120948   3.494   3.235   0.760 -0.2965  0.0442  0.5227
 3162SOL    HW220949   3.567   3.189   0.881  0.3238 -2.5161  1.1626
 3163SOL     OW20950   4.400   1.249   9.408 -0.4533 -0.4742  0.7571
 3163SOL    HW120951   4.419   1.279   9.497  1.1625  0.2513  0.1710
 3163SOL    HW220952   4.320   1.197   9.407  0.6087 -2.0696 -2.0453
 3164SOL     OW20953   3.136   1.673  15.581 -0.3805  0.3737  0.2962
 3164SOL    HW120954   3.064   1.734  15.599  1.1752  1.9597  1.0665
 3164SOL    HW220955   3.208   1.735  15.592  0.7760 -1.1207  1.0962
 3165SOL     OW20956   1.233   0.961   5.246  0.0125  0.4852  0.7789
 3165SOL    HW120957   1.238   0.868   5.227  2.6893  1.2662 -2.3176
 3165SOL    HW220958   1.155   0.975   5.299  0.2920  0.9121  1.0850
 3166SOL     OW20959   2.073   2.849   3.934  0.1823  0.3083  0.4205
 3166SOL    HW120960   2.030   2.763   3.940  0.3562  0.0201 -2.5288
 3166SOL    HW220961   2.160   2.825   3.965 -0.7872 -1.6047  1.6574
 3167SOL     OW20962   0.984   4.300  12.562 -0.4647  0.1288  0.1362
 3167SOL    HW120963   1.061   4.275  12.611 -1.4877  2.7452  3.0758
 3167SOL    HW220964   0.937   4.217  12.564 -0.2961  0.0298 -0.0537
 3168SOL     OW20965   2.896   1.032   0.649 -0.2307 -0.2962  0.0745
 3168SOL    HW120966   2.929   1.001   0.564 -1.9912 -0.4637 -0.5607
 3168SOL    HW220967   2.828   0.967   0.668  0.4445 -0.0128  3.3585
 3169SOL     OW20968   3.979   4.114   2.171  0.6214  0.3724 -0.0833
 3169SOL    HW120969   4.006   4.205   2.156 -0.5710  0.7476 -0.0405
 3169SOL    HW220970   4.022   4.085   2.251 -0.9210  1.4675  1.1616
 3170SOL     OW20971   1.075   3.337   7.715 -0.1669 -0.2827  0.1672
 3170SOL    HW120972   0.997   3.357   7.766  0.3991 -0.6594  1.1721
 3170SOL    HW220973   1.090   3.420   7.670 -0.3052 -0.7311 -0.6987
 3171SOL     OW20974   3.116   0.011   8.750  0.3662 -0.6799  0.2683
 3171SOL    HW120975   3.095   0.015   8.844  0.1435 -0.5942  0.2165
 3171SOL    HW220976   3.030   4.716   8.712 -0.2070 -1.2719  1.8190
 3172SOL     OW20977   3.060   0.734   7.496 -0.1402 -0.0085 -0.7382
 3172SOL    HW120978   3.075   0.680   7.574 -0.7804  0.5272 -0.2433
 3172SOL    HW220979   3.051   0.820   7.537  0.4212  0.3675 -1.4002
 3173SOL     OW20980   2.699   2.897   1.776 -0.5041  0.0981 -0.4219
 3173SOL    HW120981   2.767   2.902   1.708 -0.9087 -0.1677 -0.8456
 3173SOL    HW220982   2.638   2.952   1.728 -0.0374  0.6816 -0.3566
 3174SOL     OW20983   4.479   0.508   1.822  0.0149  0.4795 -0.6938
 3174SOL    HW120984   4.499   0.601   1.815 -0.7283  0.7869  1.5866
 3174SOL    HW220985   4.565   0.466   1.830  0.1958  0.8889 -0.5053
 3175SOL     OW20986   3.991   0.499   4.623  0.4779  0.1958  0.1353
 3175SOL    HW120987   4.036   0.578   4.653 -0.0992 -0.4519  2.7279
 3175SOL    HW220988   3.896   0.508   4.620  0.4031 -0.6672 -0.1764
 3176SOL     OW20989   0.226   3.320   9.060  1.0712  0.1538 -0.1026
 3176SOL    HW120990   0.137   3.350   9.042  1.2572  1.5587  1.3495
 3176SOL    HW220991   0.219   3.227   9.038 -0.6583  0.2472  0.0463
 3177SOL     OW20992   0.541   1.843   7.139 -0.1480 -1.0012 -0.2345
 3177SOL    HW120993   0.550   1.751   7.161 -3.0702 -1.4944 -1.1107
 3177SOL    HW220994   0.594   1.856   7.060  0.1121  2.1770  0.4522
 3178SOL     OW20995   4.246   1.902   8.676  0.1022 -0.1477  0.2396
 3178SOL    HW120996   4.223   1.810   8.685 -1.8067  0.4517  1.4236
 3178SOL    HW220997   4.333   1.883   8.642  1.4025  3.6292  1.3939
 3179SOL     OW20998   0.741   2.602   3.354  0.2574 -0.5797  0.3628
 3179SOL    HW120999   0.798   2.654   3.411 -0.2826  0.9045 -0.4619
 3179SOL    HW221000   0.800   2.574   3.284 -1.8017 -0.2019 -1.5416
 3180SOL     OW21001   0.562   0.701   7.920 -0.2284  0.2922 -0.0116
 3180SOL    HW121002   0.639   0.752   7.945  0.5107 -1.4742  1.3399
 3180SOL    HW221003   0.597   0.612   7.924  1.8563  1.0737 -0.9398
 3181SOL     OW21004   2.473   0.053   1.758 -0.3301  0.0207  0.0605
 3181SOL    HW121005   2.396   0.056   1.701 -2.5323 -0.1376  3.0305
 3181SOL    HW221006   2.468   4.685   1.784 -1.7957 -0.0679 -0.5686
 3182SOL     OW21007   1.394   2.859  14.986  0.5217 -0.1461 -0.4012
 3182SOL    HW121008   1.435   2.942  15.008  2.1811 -0.6891 -1.4817
 3182SOL    HW221009   1.465   2.818  14.937 -2.7017 -4.8687 -1.1571
 3183SOL     OW21010   4.392   0.814   3.468 -0.9108 -0.0084 -0.6215
 3183SOL    HW121011   4.385   0.909   3.477  1.0292  0.2713 -2.1371
 3183SOL    HW221012   4.452   0.805   3.395  0.0017  0.0972  0.1124
 3184SOL     OW21013   4.459   1.094   2.659  0.2422 -0.6495  0.4439
 3184SOL    HW121014   4.396   1.056   2.721  0.5716 -1.5032  0.2516
 3184SOL    HW221015   4.492   1.015   2.617  0.3693  0.0627 -0.7826
 3185SOL     OW21016   3.810   0.816   6.876 -0.2613  0.3225 -0.2869
 3185SOL    HW121017   3.862   0.751   6.830  2.8895 -0.2510  4.0172
 3185SOL    HW221018   3.750   0.755   6.918 -0.0589 -0.4411 -1.1261
 3186SOL     OW21019   1.565   3.619   7.722 -0.0702 -0.6012  0.4878
 3186SOL    HW121020   1.631   3.555   7.752 -0.0595  0.0695  1.8725
 3186SOL    HW221021   1.603   3.663   7.646 -1.1116 -0.9514 -0.2450
 3187SOL     OW21022   1.912   0.068  12.001 -0.0945  0.1395  0.5040
 3187SOL    HW121023   1.908   4.713  11.947  1.1984  0.7193 -0.4384
 3187SOL    HW221024   2.005   0.080  12.019  0.0746 -0.5483  0.0533
 3188SOL     OW21025   1.350   4.464   3.985 -0.1224  0.2248 -0.3747
 3188SOL    HW121026   1.281   4.401   3.962  1.3364 -1.8613  0.9316
 3188SOL    HW221027   1.404   4.413   4.046  0.5941  1.2067 -0.1898
 3189SOL     OW21028   1.711   0.527   0.666  0.6346 -0.4048 -0.3212
 3189SOL    HW121029   1.680   0.439   0.685  1.4782 -0.2901  1.5767
 3189SOL    HW221030   1.650   0.554   0.597  0.7184  2.1170  0.5716
 3190SOL     OW21031   3.190   3.908   4.446 -0.2999  0.3079 -0.1189
 3190SOL    HW121032   3.109   3.865   4.421 -1.2240  1.6702  0.5471
 3190SOL    HW221033   3.211   3.831   4.498 -2.4939 -0.8846 -0.9966
 3191SOL     OW21034   1.012   4.204   8.840 -0.6437 -0.1188 -0.0147
 3191SOL    HW121035   1.029   4.295   8.865 -0.6832 -0.3442  0.8200
 3191SOL    HW221036   1.095   4.173   8.804 -1.3113 -0.4861 -1.2462
 3192SOL     OW21037   2.701   0.479  17.051  0.1901  0.7853  0.3730
 3192SOL    HW121038   2.650   0.401  17.074  1.4852 -0.2987 -0.4810
 3192SOL    HW221039   2.671   0.526  17.129 -0.2506 -0.1076  0.7500
 3193SOL     OW21040   0.750   2.287   3.121  0.1936 -0.4487  0.5333
 3193SOL    HW121041   0.824   2.347   3.120  0.4247 -0.7247  1.0650
 3193SOL    HW221042   0.716   2.297   3.032  0.6753  0.8557  0.5047
 3194SOL     OW21043   3.305   2.114   9.811 -0.0795 -0.1226 -0.1618
 3194SOL    HW121044   3.250   2.087   9.885  0.1256 -0.5090 -0.1508
 3194SOL    HW221045   3.255   2.075   9.740  0.7650 -0.5687 -0.5031
 3195SOL     OW21046   3.651   2.436   4.155  0.5495 -0.1748  0.2529
 3195SOL    HW121047   3.645   2.350   4.197 -0.5916  0.4815  1.4547
 3195SOL    HW221048   3.574   2.483   4.188 -1.0389 -1.3008 -1.8033
 3196SOL     OW21049   0.015   1.336   6.132 -0.0907 -0.3375 -0.8034
 3196SOL    HW121050   0.005   1.251   6.089  0.8483 -1.8595  1.9768
 3196SOL    HW221051   4.721   1.398   6.063 -0.4474  0.1993 -0.2224
 3197SOL     OW21052   2.873   2.997   5.466  0.3981 -0.4070  0.1028
 3197SOL    HW121053   2.936   3.009   5.537  2.1444  0.0353 -1.5164
 3197SOL    HW221054   2.851   2.908   5.492  0.1034  0.8378  3.9699
 3198SOL     OW21055   1.840   0.633   9.134 -0.2041 -0.3206  0.1835
 3198SOL    HW121056   1.813   0.701   9.196  1.3191  0.7782 -0.3777
 3198SOL    HW221057   1.782   0.559   9.156  1.2731 -1.5811 -0.2064
 3199SOL     OW21058   2.754   4.320   0.270 -0.3517  0.8146  0.0534
 3199SOL    HW121059   2.786   4.378   0.202  1.4785  0.4998  0.6359
 3199SOL    HW221060   2.662   4.315   0.243 -0.7029  0.3872  1.3175
 3200SOL     OW21061   1.611   3.665   2.762  0.5835  0.8455  0.3799
 3200SOL    HW121062   1.585   3.688   2.673  2.1581  1.2948  0.0365
 3200SOL    HW221063   1.560   3.727   2.814 -1.9788  0.2088 -1.3588
 3201SOL     OW21064   2.474   1.132   1.974  0.0495  0.4556  0.5092
 3201SOL    HW121065   2.412   1.205   1.982  0.3650  0.8471 -0.5843
 3201SOL    HW221066   2.413   1.065   1.944  0.7053 -0.7103  1.8493
 3202SOL     OW21067   1.862   3.413  10.906  0.0128  0.1383 -0.1977
 3202SOL    HW121068   1.891   3.430  10.996 -0.0452  0.3924 -0.2251
 3202SOL    HW221069   1.933   3.354  10.883 -0.5354 -0.8731  0.7217
 3203SOL     OW21070   1.845   3.223   0.810 -0.0529  0.4682 -0.0305
 3203SOL    HW121071   1.920   3.166   0.797 -0.9391 -0.6021 -0.4878
 3203SOL    HW221072   1.880   3.266   0.887 -0.3583 -0.7245  0.7769
 3204SOL     OW21073   1.008   4.095  15.477  0.3783 -0.5943 -0.0379
 3204SOL    HW121074   0.956   4.088  15.397  1.2401 -3.5894 -0.3555
 3204SOL    HW221075   0.996   4.004  15.506  0.3506 -0.8557 -0.8696
 3205SOL     OW21076   3.928   2.359  11.001 -0.3721  0.7289 -0.1075
 3205SOL    HW121077   3.943   2.341  10.908  0.0907 -0.1798  0.1448
 3205SOL    HW221078   3.979   2.440  11.007  0.7259 -0.0972  1.5350
 3206SOL     OW21079   4.288   4.176   2.644  0.1037 -0.2728  0.2492
 3206SOL    HW121080   4.336   4.240   2.591 -0.6404 -0.5675 -0.8030
 3206SOL    HW221081   4.336   4.175   2.727 -0.7117 -1.2653  0.7085
 3207SOL     OW21082   1.353   0.789   7.795 -0.0105 -0.7062  0.1616
 3207SOL    HW121083   1.259   0.805   7.806  0.0650  1.2904 -2.1874
 3207SOL    HW221084   1.337   0.742   7.713  0.7976  1.5598 -1.2991
 3208SOL     OW21085   0.412   3.611   8.075 -0.0256 -0.6445 -0.3873
 3208SOL    HW121086   0.492   3.642   8.119 -0.8603  1.1261 -0.1326
 3208SOL    HW221087   0.386   3.682   8.016  0.5991 -2.4344 -2.7933
 3209SOL     OW21088   1.254   0.316  11.862 -0.3516  0.4784  0.3517
 3209SOL    HW121089   1.340   0.320  11.904 -0.8774 -1.5757  1.6052
 3209SOL    HW221090   1.197   0.301  11.938 -0.1252 -0.0436  0.4194
 3210SOL     OW21091   1.558   2.564   0.080 -0.6436  0.1115 -0.0191
 3210SOL    HW121092   1.526   2.635   0.025  0.2325  0.0822 -0.5678
 3210SOL    HW221093   1.595   2.619   0.149 -1.6310 -0.2697  0.8041
 3211SOL     OW21094   1.506   0.231   8.190 -0.4701  0.4843  0.0363
 3211SOL    HW121095   1.544   0.267   8.270  0.2196 -2.5774  1.1006
 3211SOL    HW221096   1.484   0.141   8.216  1.1951  0.4655  1.3718
 3212SOL     OW21097   3.136   2.183  12.477 -0.4039  0.5200 -0.0525
 3212SOL    HW121098   3.230   2.167  12.483 -0.1787  1.2312 -1.5783
 3212SOL    HW221099   3.130   2.272  12.511  0.4527  0.5448  0.0473
 3213SOL     OW21100   1.685   2.629   1.317 -0.2949  0.0577  1.3863
 3213SOL    HW121101   1.658   2.721   1.327  0.9470  0.5243  0.4548
 3213SOL    HW221102   1.631   2.609   1.241  1.1931 -0.2589  0.4028
 3214SOL     OW21103   2.199   0.973  17.586 -0.2881  0.1790  0.7044
 3214SOL    HW121104   2.239   1.054  17.556  2.7140 -2.2303 -1.7219
 3214SOL    HW221105   2.250   0.902  17.548 -1.0514 -0.5689  1.0712
 3215SOL     OW21106   1.791   1.752  11.000  0.0702  0.0931 -0.5008
 3215SOL    HW121107   1.773   1.773  11.092  1.8095 -0.7054  0.0259
 3215SOL    HW221108   1.799   1.657  11.000 -1.5806 -0.0354  0.2960
 3216SOL     OW21109   1.203   1.202   5.833  0.4389 -0.6296 -0.5356
 3216SOL    HW121110   1.289   1.160   5.836  0.2939 -0.8756  0.3092
 3216SOL    HW221111   1.157   1.155   5.764  0.5201  0.2478 -1.1925
 3217SOL     OW21112   2.842   1.455   6.699 -0.1174  0.2683 -0.4762
 3217SOL    HW121113   2.799   1.369   6.694  0.1186  0.0920  0.7205
 3217SOL    HW221114   2.892   1.457   6.617  0.5097 -1.6004 -0.1475
 3218SOL     OW21115   3.580   2.092  17.048  0.9850 -0.0860  0.5201
 3218SOL    HW121116   3.555   2.125  16.962 -2.4586 -0.3540  1.3874
 3218SOL    HW221117   3.503   2.105  17.105 -0.0505  0.3322 -0.9758
 3219SOL     OW21118   3.790   3.017   6.503  0.4371  0.5051  0.1164
 3219SOL    HW121119   3.797   2.933   6.548  0.2854 -0.4554 -1.6901
 3219SOL    HW221120   3.835   2.998   6.421 -1.8879  0.2637 -1.1091
 3220SOL     OW21121   1.597   3.747  10.598  0.4598  0.0733 -0.0223
 3220SOL    HW121122   1.541   3.713  10.528  0.8448 -3.6175  1.4372
 3220SOL    HW221123   1.593   3.676  10.662  2.3387 -1.7933 -1.9286
 3221SOL     OW21124   3.448   3.065   8.698  0.4639 -0.2458 -0.3321
 3221SOL    HW121125   3.507   3.124   8.652  0.3255 -0.0679 -0.2874
 3221SOL    HW221126   3.498   3.037   8.775 -0.3091 -1.1393 -0.1480
 3222SOL     OW21127   2.951   1.293   2.464  0.4378  0.3632 -0.2879
 3222SOL    HW121128   2.897   1.245   2.401  1.2712 -0.1844 -0.5714
 3222SOL    HW221129   2.923   1.382   2.441 -0.6184  0.3766  1.0346
 3223SOL     OW21130   0.226   2.421   4.628  0.4447  0.3163 -0.5022
 3223SOL    HW121131   0.245   2.348   4.688  0.4557 -0.4685 -1.4509
 3223SOL    HW221132   0.258   2.378   4.548 -0.9927  1.7672 -1.8539
 3224SOL     OW21133   3.503   0.875   3.481 -0.1865 -0.0759 -0.0074
 3224SOL    HW121134   3.420   0.828   3.487 -0.4432  0.0736 -2.2505
 3224SOL    HW221135   3.523   0.850   3.391  2.9984 -2.3267  1.3346
 3225SOL     OW21136   3.207   2.987   7.210 -0.6983  0.5220  0.4542
 3225SOL    HW121137   3.159   3.045   7.151 -0.5023  0.0408 -0.1761
 3225SOL    HW221138   3.244   3.055   7.266  1.4580  1.1853 -1.8119
 3226SOL     OW21139   1.360   2.408   3.815 -0.8033  0.4985  0.3401
 3226SOL    HW121140   1.431   2.434   3.873  0.9580 -0.4797 -1.3721
 3226SOL    HW221141   1.289   2.433   3.874 -0.0638  0.4140  1.2678
 3227SOL     OW21142   3.030   3.417  12.113  0.1226  0.1344  0.3410
 3227SOL    HW121143   3.059   3.494  12.163 -1.4406  1.5741 -0.9895
 3227SOL    HW221144   3.011   3.347  12.176  0.3742 -0.6624 -0.4727
 3228SOL     OW21145   1.844   2.078  16.687 -0.3707 -0.1367 -0.1154
 3228SOL    HW121146   1.782   2.033  16.744  0.6831 -0.1678  1.0069
 3228SOL    HW221147   1.802   2.082  16.601  2.7150  2.3997 -1.5230
 3229SOL     OW21148   4.630   1.217   7.361 -0.8132  0.0677  0.0511
 3229SOL    HW121149   4.609   1.255   7.446  0.7574 -1.3175  1.0453
 3229SOL    HW221150   4.674   1.291   7.319 -3.6697  1.8646  0.2908
 3230SOL     OW21151   1.693   2.463   7.746  0.5603  0.4630 -0.3952
 3230SOL    HW121152   1.691   2.556   7.726  1.2730  0.8017  1.0596
 3230SOL    HW221153   1.666   2.465   7.838  1.1821 -0.8218 -0.1774
 3231SOL     OW21154   1.662   2.216   4.691  0.7194  0.7909 -0.0354
 3231SOL    HW121155   1.625   2.184   4.609  1.2765  2.5679 -0.9903
 3231SOL    HW221156   1.624   2.304   4.695 -1.1287 -0.0081 -0.4104
 3232SOL     OW21157   3.906   0.334   4.168  0.5148  0.0043  0.2105
 3232SOL    HW121158   3.815   0.304   4.168  0.5700 -0.1379  1.4376
 3232SOL    HW221159   3.913   0.345   4.073 -3.6649 -1.5619 -0.2633
 3233SOL     OW21160   3.858   1.572   9.855 -0.1820 -0.3835 -0.4524
 3233SOL    HW121161   3.774   1.529   9.870  0.0891 -0.7277  0.0876
 3233SOL    HW221162   3.916   1.515   9.906 -0.9769  1.8718  2.9854
 3234SOL     OW21163   1.876   0.752   3.750 -0.6738 -0.1162 -0.8069
 3234SOL    HW121164   1.812   0.751   3.820 -1.1151 -0.4100 -1.2151
 3234SOL    HW221165   1.911   0.663   3.741  0.0118  0.2320 -1.6182
 3235SOL     OW21166   1.859   3.714   4.400  0.0699 -0.8802 -0.0202
 3235SOL    HW121167   1.891   3.790   4.353  0.6201  1.3483  3.9623
 3235SOL    HW221168   1.898   3.733   4.485 -0.4744  1.6730 -0.3466
 3236SOL     OW21169   4.237   0.681   7.440 -0.3814 -0.4306 -0.2962
 3236SOL    HW121170   4.145   0.680   7.468 -0.1651 -1.0690  0.3778
 3236SOL    HW221171   4.285   0.629   7.504  2.2265  0.2039 -1.7541
 3237SOL     OW21172   3.253   4.527  15.002 -0.1802 -0.1119 -0.2884
 3237SOL    HW121173   3.334   4.578  15.009 -1.6995  1.7006  4.1284
 3237SOL    HW221174   3.262   4.497  14.911 -0.9297 -1.4094  0.0620
 3238SOL     OW21175   3.988   1.627  13.751 -0.0477  0.4824  0.3739
 3238SOL    HW121176   3.947   1.663  13.830  0.4986 -0.1039  0.9313
 3238SOL    HW221177   4.067   1.589  13.791 -0.1897  1.0931  1.2461
 3239SOL     OW21178   3.171   3.757   1.501  0.6773  0.4117  0.0969
 3239SOL    HW121179   3.094   3.709   1.532  1.6922 -1.5470 -0.4572
 3239SOL    HW221180   3.233   3.743   1.572  0.0800  0.8833  0.7197
 3240SOL     OW21181   2.137   4.376   3.473  0.4987 -0.0285 -0.2051
 3240SOL    HW121182   2.060   4.348   3.524  0.9762  1.0244  1.0911
 3240SOL    HW221183   2.180   4.291   3.471  1.6169  0.5326  0.0125
 3241SOL     OW21184   3.639   1.365   6.681  0.6581  0.1549 -0.2535
 3241SOL    HW121185   3.561   1.410   6.713  0.1413  0.1246 -1.4736
 3241SOL    HW221186   3.609   1.311   6.607 -0.8519 -0.5835  0.8935
 3242SOL     OW21187   1.657   0.846   7.053  0.6332  0.2020  0.1266
 3242SOL    HW121188   1.706   0.832   7.134  1.3759  0.6975 -0.2355
 3242SOL    HW221189   1.567   0.817   7.069  0.5454  0.0132 -0.6764
 3243SOL     OW21190   4.583   2.055   6.008 -0.2534 -0.2192  0.2451
 3243SOL    HW121191   4.554   1.965   5.989  2.9485 -1.3842  0.9249
 3243SOL    HW221192   4.560   2.057   6.101 -0.2740  0.8181  0.2152
 3244SOL     OW21193   1.946   2.009  11.122 -0.3654 -0.4276 -0.3394
 3244SOL    HW121194   2.024   1.962  11.095  1.1902  0.8684  1.9129
 3244SOL    HW221195   1.885   1.938  11.140  1.1543 -1.5757  0.2511
 3245SOL     OW21196   3.105   0.027   3.670 -0.3144  0.1314 -0.0652
 3245SOL    HW121197   3.016   0.052   3.696 -0.8705 -2.1336  0.2406
 3245SOL    HW221198   3.131   0.083   3.598  0.5764 -0.5009 -0.2409
 3246SOL     OW21199   3.512   0.934  15.111  0.2053 -0.2100  0.2979
 3246SOL    HW121200   3.436   0.946  15.168  0.0785 -0.3575  0.1610
 3246SOL    HW221201   3.555   1.015  15.137  0.4674 -0.6362  1.2076
 3247SOL     OW21202   1.341   1.666   8.440  0.0912 -0.4529  0.1567
 3247SOL    HW121203   1.434   1.671   8.461  0.2782 -0.6047 -0.6709
 3247SOL    HW221204   1.336   1.762   8.435  2.5998 -0.2448  1.5068
 3248SOL     OW21205   3.151   0.638   5.459 -0.2259 -0.1095  0.2141
 3248SOL    HW121206   3.228   0.591   5.489  1.3631  2.3472  0.0069
 3248SOL    HW221207   3.163   0.725   5.498  3.1000 -0.4519 -0.0948
 3249SOL     OW21208   0.680   1.595   2.366  0.0358  0.3991  0.9271
 3249SOL    HW121209   0.588   1.603   2.341  0.3562  0.7672 -0.1315
 3249SOL    HW221210   0.710   1.667   2.311  2.8291  0.4149  2.4965
 3250SOL     OW21211   1.469   1.667   2.295  0.1162  0.4399  0.3333
 3250SOL    HW121212   1.526   1.675   2.371  2.9932  0.2044 -1.8237
 3250SOL    HW221213   1.535   1.644   2.230 -0.3004 -0.6633  0.2915
 3251SOL     OW21214   2.876   3.457   2.772 -0.1315 -0.6281 -0.0533
 3251SOL    HW121215   2.946   3.490   2.716  0.2859  0.7235  1.2470
 3251SOL    HW221216   2.916   3.414   2.847  0.2820  1.5818  1.0093
 3252SOL     OW21217   2.110   1.455   5.839  0.1282  0.0488 -0.1631
 3252SOL    HW121218   2.198   1.465   5.803  0.4849  0.0456  0.7143
 3252SOL    HW221219   2.059   1.462   5.758 -0.7946 -1.5143  0.2683
 3253SOL     OW21220   1.728   1.175  15.481  0.1219 -0.4133  0.2676
 3253SOL    HW121221   1.719   1.106  15.415 -0.9231  1.1340 -1.2029
 3253SOL    HW221222   1.759   1.129  15.559 -1.7415 -0.8893  0.7389
 3254SOL     OW21223   0.528   3.779   9.195  0.7338 -0.5523  0.2496
 3254SOL    HW121224   0.453   3.798   9.252  1.2251  1.2137  0.3157
 3254SOL    HW221225   0.595   3.757   9.260  0.7450  0.4642  0.5931
 3255SOL     OW21226   0.172   1.019   6.830 -0.5011 -0.0140 -0.2721
 3255SOL    HW121227   0.109   1.046   6.897 -0.2356 -0.5372  0.1863
 3255SOL    HW221228   0.255   1.043   6.871 -0.5618  1.6361 -1.1081
 3256SOL     OW21229   0.773   0.326   5.873  0.0598 -0.1932 -0.4799
 3256SOL    HW121230   0.691   0.370   5.897  1.0341  1.1958  0.3459
 3256SOL    HW221231   0.801   0.295   5.959 -0.6177 -0.0756 -0.2094
 3257SOL     OW21232   1.155   2.614   6.700  0.7479  0.3597  0.2950
 3257SOL    HW121233   1.194   2.564   6.771  1.7348  0.4265 -0.2036
 3257SOL    HW221234   1.098   2.675   6.746 -1.0025 -1.0795  0.0267
 3258SOL     OW21235   4.671   0.789  14.048  0.4194  0.3978 -0.5413
 3258SOL    HW121236   4.638   0.814  13.962 -0.7002  0.4092 -0.1043
 3258SOL    HW221237   4.691   0.877  14.081 -1.9125  0.5633  0.4381
 3259SOL     OW21238   4.084   2.860  12.719 -0.0075 -0.5226 -0.4489
 3259SOL    HW121239   4.063   2.943  12.760 -0.7025 -0.5716 -0.7191
 3259SOL    HW221240   4.021   2.802  12.760  0.9732 -2.4843 -1.6998
 3260SOL     OW21241   2.835   3.390   5.083  0.0862 -0.2155 -0.1236
 3260SOL    HW121242   2.814   3.447   5.009  2.0572  1.5833  0.7034
 3260SOL    HW221243   2.749   3.359   5.111  1.3198 -0.4323  3.4315
 3261SOL     OW21244   3.497   1.229   1.221  0.4093  0.2906 -0.3061
 3261SOL    HW121245   3.504   1.202   1.129  1.0306 -0.7513  0.0486
 3261SOL    HW221246   3.433   1.167   1.255  0.4347  0.1489 -0.5192
 3262SOL     OW21247   2.658   1.439   9.451  0.4708 -0.1079  0.7305
 3262SOL    HW121248   2.577   1.489   9.442  0.3682 -0.4849 -0.4404
 3262SOL    HW221249   2.662   1.421   9.545 -0.1153 -1.4351  0.4927
 3263SOL     OW21250   2.208   0.148   1.918  0.1769  0.0401 -0.2834
 3263SOL    HW121251   2.274   0.121   1.982  1.5774  1.1396 -1.2827
 3263SOL    HW221252   2.256   0.212   1.866  1.2484 -1.2291 -0.8606
 3264SOL     OW21253   0.207   0.454   5.329 -0.2241  0.0377 -0.6220
 3264SOL    HW121254   0.183   0.462   5.237  1.0475 -1.4141 -1.0754
 3264SOL    HW221255   0.283   0.399   5.311 -1.0420 -0.4442 -2.5140
 3265SOL     OW21256   3.198   4.539   8.462  0.4055 -0.2577  0.5902
 3265SOL    HW121257   3.263   4.488   8.414  1.2401  0.9311  0.4733
 3265SOL    HW221258   3.119   4.485   8.463  0.2228  0.0088  0.3657
 3266SOL     OW21259   1.791   4.423   2.619 -0.1643 -0.3634 -0.7810
 3266SOL    HW121260   1.752   4.458   2.539 -1.6514  2.8806  1.3369
 3266SOL    HW221261   1.722   4.437   2.685  0.1343 -0.0450 -0.5310
 3267SOL     OW21262   0.658   2.449  16.992  0.7674  0.4641 -0.3781
 3267SOL    HW121263   0.699   2.394  16.926 -1.0564  0.4794 -1.5498
 3267SOL    HW221264   0.717   2.524  16.993  1.0824  0.1933  0.8379
 3268SOL     OW21265   2.689   4.681   5.303 -0.1911  0.0570 -0.0729
 3268SOL    HW121266   2.752   4.656   5.235 -1.2797 -2.3461 -0.1918
 3268SOL    HW221267   2.727   4.641   5.382 -2.3172  0.0500  0.9359
 3269SOL     OW21268   0.643   3.258  16.075  0.1788 -0.0517  0.0885
 3269SOL    HW121269   0.676   3.312  16.003  0.5559  1.4272  1.3758
 3269SOL    HW221270   0.659   3.169  16.042  1.1726 -0.5199  1.8541
 3270SOL     OW21271   4.466   2.369  10.980  0.4950 -0.3439  0.4498
 3270SOL    HW121272   4.494   2.453  10.944 -0.7354  0.4199  1.2802
 3270SOL    HW221273   4.540   2.315  10.950  1.7534  0.8081  1.5007
 3271SOL     OW21274   4.544   3.776   3.689  0.5240  1.0089  0.2036
 3271SOL    HW121275   4.565   3.866   3.713  0.6209  0.8615  0.6583
 3271SOL    HW221276   4.589   3.769   3.605 -1.6674  0.4646 -0.9353
 3272SOL     OW21277   3.417   2.432   5.599  0.3206 -0.3574 -0.1830
 3272SOL    HW121278   3.362   2.444   5.677  0.2595 -1.7152 -0.0151
 3272SOL    HW221279   3.490   2.485   5.634  0.4719  0.5266 -1.8416
 3273SOL     OW21280   1.204   3.656   6.957 -0.2287  0.5707 -0.0683
 3273SOL    HW121281   1.244   3.574   6.927  0.9303  0.7421  1.0358
 3273SOL    HW221282   1.273   3.720   6.940  2.0679 -1.4848  1.5756
 3274SOL     OW21283   3.435   0.884   7.319  0.6192 -0.5297 -0.0211
 3274SOL    HW121284   3.510   0.825   7.328  1.3882  0.6447  1.2203
 3274SOL    HW221285   3.412   0.864   7.228  0.2714  0.6993 -0.2052
 3275SOL     OW21286   2.486   1.963  11.985 -0.0137 -0.0341 -0.3373
 3275SOL    HW121287   2.406   2.006  12.016  0.0239  0.4249 -0.8788
 3275SOL    HW221288   2.475   1.877  12.026 -0.0157  0.5860  0.9906
 3276SOL     OW21289   1.515   4.132   6.031  0.2996 -0.3470 -0.5888
 3276SOL    HW121290   1.572   4.081   5.974  1.4137 -1.5439  1.5982
 3276SOL    HW221291   1.570   4.155   6.106 -0.5259 -0.6884  0.1327
 3277SOL     OW21292   1.154   4.053   1.850 -0.0781  0.1923  0.5310
 3277SOL    HW121293   1.086   3.988   1.870  0.2931 -0.4521 -0.2849
 3277SOL    HW221294   1.221   3.994   1.816  1.1826  2.4595 -0.8532
 3278SOL     OW21295   2.106   2.638   7.963 -0.5244  0.4623  0.0356
 3278SOL    HW121296   2.075   2.548   7.957  0.8024 -0.1172  2.0929
 3278SOL    HW221297   2.055   2.667   7.887  0.1989 -0.0313 -0.6299
 3279SOL     OW21298   2.406   3.113   5.523 -0.2385  0.6851  0.2151
 3279SOL    HW121299   2.406   3.159   5.440 -0.2366  1.2235  0.5155
 3279SOL    HW221300   2.488   3.146   5.559  1.1859 -0.4124 -2.0510
 3280SOL     OW21301   4.050   4.541   2.602  0.1762 -0.1352  0.2668
 3280SOL    HW121302   3.989   4.592   2.656  0.6054  0.1406  0.4920
 3280SOL    HW221303   4.049   4.461   2.654 -3.5494 -0.4254 -0.2712
 3281SOL     OW21304   4.554   3.740   6.847 -0.1147  0.0378 -0.3363
 3281SOL    HW121305   4.466   3.778   6.850 -0.0345  0.0909  1.9361
 3281SOL    HW221306   4.589   3.786   6.771 -1.8187  0.9900 -0.5599
 3282SOL     OW21307   3.493   2.073   3.759 -0.0754  0.0832 -0.1476
 3282SOL    HW121308   3.432   2.010   3.794 -0.9664  1.0442  0.0284
 3282SOL    HW221309   3.528   2.031   3.680 -0.6061  1.7412 -1.2718
 3283SOL     OW21310   0.616   1.507   9.700  0.1413 -0.7310  0.1030
 3283SOL    HW121311   0.662   1.580   9.659 -0.2529 -2.5892 -3.6157
 3283SOL    HW221312   0.529   1.546   9.700  0.6358  0.3640 -1.4787
 3284SOL     OW21313   4.211   0.492   5.247 -0.2521 -0.4457 -0.0664
 3284SOL    HW121314   4.122   0.518   5.226 -0.8002 -0.9513  1.5669
 3284SOL    HW221315   4.196   0.398   5.239 -1.4529 -0.2222 -0.3947
 3285SOL     OW21316   2.944   1.490   4.762  0.5031 -0.1389  0.5893
 3285SOL    HW121317   2.855   1.511   4.791  0.5602 -2.3022  2.3609
 3285SOL    HW221318   2.957   1.549   4.687 -0.0211 -0.5420  0.1815
 3286SOL     OW21319   3.380   0.628   4.030 -0.5672  0.0199 -0.0061
 3286SOL    HW121320   3.310   0.567   4.052 -0.8591 -0.0012 -1.0043
 3286SOL    HW221321   3.385   0.635   3.934  0.3139  2.6448  0.2135
 3287SOL     OW21322   0.323   3.492   1.027  0.1258 -0.2040 -0.3305
 3287SOL    HW121323   0.290   3.573   1.068  0.8853  0.1019 -0.3201
 3287SOL    HW221324   0.288   3.419   1.077 -0.9609  1.9549  2.1041
 3288SOL     OW21325   1.913   3.449   8.817 -0.6364 -0.2369 -1.1711
 3288SOL    HW121326   1.823   3.425   8.793 -0.8457 -0.6489 -0.0184
 3288SOL    HW221327   1.903   3.543   8.826 -0.9144 -0.6553  2.9185
 3289SOL     OW21328   1.083   2.159   2.062  0.3219  0.1247 -0.0901
 3289SOL    HW121329   1.154   2.205   2.106  1.0116 -0.5989 -0.4492
 3289SOL    HW221330   1.081   2.198   1.975  0.8238 -1.3254 -0.7511
 3290SOL     OW21331   3.286   0.852  11.223 -0.5893  0.1230 -0.1365
 3290SOL    HW121332   3.239   0.880  11.145  0.9274 -1.3226 -1.5559
 3290SOL    HW221333   3.273   0.758  11.211 -0.4060  0.1076 -0.2097
 3291SOL     OW21334   2.160   1.692   2.948  0.4375  0.1966  0.1642
 3291SOL    HW121335   2.143   1.700   2.854 -0.6339 -0.3858  0.3100
 3291SOL    HW221336   2.079   1.717   2.993  0.7351  0.2470  0.6772
 3292SOL     OW21337   3.067   4.106   7.111  0.1238  0.5717  0.0894
 3292SOL    HW121338   3.018   4.031   7.079  0.3626  0.4823 -0.0711
 3292SOL    HW221339   3.090   4.133   7.022 -0.0233  1.0102  0.1821
 3293SOL     OW21340   3.333   4.088   4.252 -0.1991 -0.0261 -0.7156
 3293SOL    HW121341   3.316   4.051   4.338 -0.5433  1.3997 -0.1832
 3293SOL    HW221342   3.294   4.022   4.194 -1.3269 -0.0170  0.0515
 3294SOL     OW21343   3.899   1.699   7.940  0.1092 -0.0340 -0.2050
 3294SOL    HW121344   3.905   1.784   7.985 -0.4522 -0.2718  0.3164
 3294SOL    HW221345   3.811   1.696   7.904  0.6585 -1.1925 -1.4462
 3295SOL     OW21346   0.032   4.357   5.784 -0.2045  0.1104  0.3116
 3295SOL    HW121347   4.676   4.323   5.747 -0.5863  1.1742  0.1589
 3295SOL    HW221348   0.082   4.286   5.825  0.6884 -0.4999 -1.8540
 3296SOL     OW21349   3.869   2.223  15.842 -0.6494  0.2958 -0.0972
 3296SOL    HW121350   3.879   2.232  15.937  0.5568 -1.1447 -0.1033
 3296SOL    HW221351   3.942   2.164  15.823 -1.4937 -0.9353  0.5069
 3297SOL     OW21352   1.264   4.303   2.451  0.4920 -0.0832 -0.3437
 3297SOL    HW121353   1.196   4.263   2.396  1.3930 -1.6542 -0.3069
 3297SOL    HW221354   1.325   4.234   2.475 -0.4227 -2.0335 -3.7214
 3298SOL     OW21355   3.121   2.393  17.219 -0.3687  0.4564 -0.1303
 3298SOL    HW121356   3.119   2.317  17.161 -0.3877 -1.3654  2.2776
 3298SOL    HW221357   3.028   2.414  17.226 -0.3833  1.0815 -2.1298
 3299SOL     OW21358   0.243   4.086   4.529  0.8057 -0.5001  0.4956
 3299SOL    HW121359   0.161   4.126   4.500  0.7479  0.2597  1.7244
 3299SOL    HW221360   0.226   3.992   4.542  1.0680 -0.3462  1.8872
 3300SOL     OW21361   1.090   2.067   4.227 -0.1395  0.2774  0.8012
 3300SOL    HW121362   1.019   2.032   4.281 -0.7881  1.0262  0.4243
 3300SOL    HW221363   1.072   2.160   4.214  0.4451  0.4452  1.1741
 3301SOL     OW21364   3.668   1.222  10.561  0.6885 -0.4215  0.6442
 3301SOL    HW121365   3.750   1.234  10.608  0.2447 -0.2567  1.3819
 3301SOL    HW221366   3.604   1.209  10.631 -0.0049 -0.1567  0.0663
 3302SOL     OW21367   3.858   4.524  16.666 -0.3738 -0.1910  0.7520
 3302SOL    HW121368   3.944   4.501  16.632 -1.5253  0.5041 -2.6484
 3302SOL    HW221369   3.881   4.546  16.757  0.5131 -0.1802  0.5274
 3303SOL     OW21370   1.576   0.866   4.460 -0.2537 -0.4349  0.4466
 3303SOL    HW121371   1.671   0.867   4.454 -0.2272  2.2833  0.9662
 3303SOL    HW221372   1.579   0.961   4.471  2.4699 -0.4538 -0.2357
 3304SOL     OW21373   3.624   2.029   5.939 -0.3061 -0.2204  0.3099
 3304SOL    HW121374   3.692   2.095   5.952  0.7990 -1.0572 -1.2860
 3304SOL    HW221375   3.545   2.065   5.981  1.0804  2.1672  0.8678
 3305SOL     OW21376   0.372   0.764   9.088 -0.7686  0.0494 -0.0869
 3305SOL    HW121377   0.422   0.707   9.030  0.5348 -0.6014  1.6653
 3305SOL    HW221378   0.388   0.731   9.176  0.9793  1.7064  0.2162
 3306SOL     OW21379   1.136   1.323  10.337  0.1784 -0.3284  0.1856
 3306SOL    HW121380   1.077   1.353  10.268  0.3894 -0.5384 -0.0834
 3306SOL    HW221381   1.071   1.304  10.405 -1.3718 -1.0488 -1.5135
 3307SOL     OW21382   1.876   2.140  10.874  0.1492 -0.0731 -0.1048
 3307SOL    HW121383   1.811   2.077  10.841  1.2089 -0.2734 -1.7872
 3307SOL    HW221384   1.910   2.092  10.949 -0.0179 -1.0722 -0.6769
 3308SOL     OW21385   2.870   2.280  12.739  0.0824 -0.2550 -0.4919
 3308SOL    HW121386   2.927   2.306  12.666  1.6468  1.7316  1.4209
 3308SOL    HW221387   2.882   2.347  12.806 -2.6405  0.7948 -1.0345
 3309SOL     OW21388   1.874   4.609  11.788 -0.1030  0.3871  0.5691
 3309SOL    HW121389   1.873   4.515  11.771 -0.5936  0.4843  0.0286
 3309SOL    HW221390   1.895   4.638  11.699 -1.4506 -0.3628  0.0079
 3310SOL     OW21391   2.605   0.627  17.243  0.2477  0.4816 -0.1239
 3310SOL    HW121392   2.558   0.590  17.317 -1.5231  0.1903 -1.4004
 3310SOL    HW221393   2.579   0.718  17.252  0.5848  0.4264  1.3260
 3311SOL     OW21394   3.191   1.928   0.564 -0.0171 -0.1103 -0.5255
 3311SOL    HW121395   3.206   1.869   0.638  0.5263  1.6866  0.7817
 3311SOL    HW221396   3.242   1.893   0.491 -0.5571 -1.6597 -0.1745
 3312SOL     OW21397   1.345   3.770   2.242  0.3876 -0.4154  0.1598
 3312SOL    HW121398   1.304   3.734   2.321  0.2462 -0.4639  0.0643
 3312SOL    HW221399   1.274   3.777   2.179 -0.1930  0.2915  0.9024
 3313SOL     OW21400   2.089   2.553   3.618  0.0747 -0.2699  0.3367
 3313SOL    HW121401   2.182   2.530   3.613  0.4091  0.9543  0.8578
 3313SOL    HW221402   2.073   2.550   3.712  1.6663 -0.3203  0.6137
 3314SOL     OW21403   1.438   1.482   0.272 -0.1867 -0.0614  0.2840
 3314SOL    HW121404   1.381   1.411   0.241 -0.5111 -0.7577  2.4338
 3314SOL    HW221405   1.377   1.555   0.269 -0.0308  0.0676  0.2898
 3315SOL     OW21406   3.122   3.270  13.004 -0.2118 -0.3402 -0.0571
 3315SOL    HW121407   3.147   3.181  13.031 -0.9077  0.0601  1.8865
 3315SOL    HW221408   3.208   3.311  13.011 -0.5779  0.1971  1.2814
 3316SOL     OW21409   4.356   0.158   3.081 -0.1422 -0.3576 -0.1469
 3316SOL    HW121410   4.448   0.132   3.088  0.3048  1.0834 -0.7136
 3316SOL    HW221411   4.340   0.153   2.986 -2.2937  0.8542  0.1674
 3317SOL     OW21412   1.509   4.677   8.263  0.1383 -0.3810  0.1574
 3317SOL    HW121413   1.495   4.590   8.226  1.0622 -0.6362  0.4056
 3317SOL    HW221414   1.603   4.674   8.280  0.2492 -0.4466 -0.4395
 3318SOL     OW21415   2.456   4.379   5.768 -0.3823  0.0400 -0.4303
 3318SOL    HW121416   2.477   4.289   5.744  1.4081  0.1837  0.6117
 3318SOL    HW221417   2.513   4.391   5.844 -0.1288 -3.8841  0.0204
 3319SOL     OW21418   4.274   0.320   4.232 -0.1439  0.2835  0.3828
 3319SOL    HW121419   4.227   0.335   4.315 -0.7103  1.5015 -0.1640
 3319SOL    HW221420   4.212   0.266   4.183  1.8564 -1.2749 -0.3865
 3320SOL     OW21421   1.009   0.748   5.245 -0.7092  0.1166 -0.4352
 3320SOL    HW121422   1.038   0.778   5.331 -0.6776 -0.5757 -0.2060
 3320SOL    HW221423   0.976   0.661   5.266  0.1751 -0.1352 -0.0820
 3321SOL     OW21424   4.580   3.916   4.187  0.8212  0.3905 -0.4023
 3321SOL    HW121425   4.529   3.979   4.137  0.8005 -0.1381 -1.0486
 3321SOL    HW221426   4.646   3.977   4.219  1.3743 -0.1532 -0.4945
 3322SOL     OW21427   3.245   4.412   2.554  0.0263 -0.3356  0.2840
 3322SOL    HW121428   3.162   4.455   2.572  0.1867  0.3540 -0.5949
 3322SOL    HW221429   3.293   4.490   2.524 -0.5111 -0.2815 -0.4469
 3323SOL     OW21430   1.316   0.211   1.007 -0.0605  0.1290 -0.4204
 3323SOL    HW121431   1.348   0.286   1.057 -0.5513 -0.0269  0.1245
 3323SOL    HW221432   1.399   0.175   0.974 -0.7212 -1.8490  0.0418
 3324SOL     OW21433   0.316   4.574   5.827 -0.6157  0.2901 -0.0780
 3324SOL    HW121434   0.401   4.605   5.857 -1.0912 -0.5463  2.1220
 3324SOL    HW221435   0.329   4.480   5.820  0.8126  0.6869 -3.0528
 3325SOL     OW21436   0.269   4.118   3.952 -0.0353 -0.0916  0.0832
 3325SOL    HW121437   0.324   4.160   3.886 -0.0743 -0.0015  0.1079
 3325SOL    HW221438   0.296   4.164   4.032 -3.2593 -1.1491  1.7880
 3326SOL     OW21439   2.099   0.999   8.788 -0.2777  0.0167  0.6249
 3326SOL    HW121440   2.041   1.066   8.825  0.5919  0.3649  1.3628
 3326SOL    HW221441   2.063   0.981   8.701 -1.5106 -1.1551  1.3795
 3327SOL     OW21442   0.826   1.695   2.572 -0.4488 -0.0664  0.3162
 3327SOL    HW121443   0.798   1.669   2.484 -2.1461  0.6308  0.6460
 3327SOL    HW221444   0.745   1.735   2.603 -0.2633  0.9210 -0.4528
 3328SOL     OW21445   2.565   0.250   7.250  0.5891 -0.2088 -0.3471
 3328SOL    HW121446   2.601   0.301   7.178  0.4553  1.0911  0.4976
 3328SOL    HW221447   2.577   0.322   7.312 -0.1249  0.0069 -0.4527
 3329SOL     OW21448   4.274   4.683   9.624  0.6707  0.3139  0.4439
 3329SOL    HW121449   4.340   4.670   9.555 -0.2060  0.4294 -0.4104
 3329SOL    HW221450   4.246   4.591   9.622 -1.6653  1.0289  0.1709
 3330SOL     OW21451   0.476   4.658   9.060 -0.0478 -0.0991  0.3438
 3330SOL    HW121452   0.489   0.028   9.060 -0.4424 -0.0451 -1.3512
 3330SOL    HW221453   0.522   4.631   9.140 -0.9611  0.0236  0.8972
 3331SOL     OW21454   1.150   4.243   3.066 -0.6038 -0.1573  0.4026
 3331SOL    HW121455   1.165   4.150   3.082  1.6608  0.1864  0.2673
 3331SOL    HW221456   1.065   4.227   3.025  0.3411 -1.1065 -1.1933
 3332SOL     OW21457   2.718   3.007   6.971  0.8033  0.6151 -0.1998
 3332SOL    HW121458   2.634   3.046   6.946  0.0795 -1.4089 -0.9695
 3332SOL    HW221459   2.694   2.916   6.950 -0.4887  1.1743 -1.2093
 3333SOL     OW21460   1.253   4.648   7.322  0.2478 -0.5553  0.0807
 3333SOL    HW121461   1.309   4.673   7.249  0.3779  0.9003  0.6822
 3333SOL    HW221462   1.180   4.707   7.303  1.1483  1.1432  1.9618
 3334SOL     OW21463   4.071   2.006   7.700 -0.3319  0.4535  0.4240
 3334SOL    HW121464   3.979   1.994   7.726 -0.2799  0.8772  0.8121
 3334SOL    HW221465   4.110   2.041   7.780  0.7825  0.7640 -0.2617
 3335SOL     OW21466   3.622   0.395   5.104  0.2983 -0.5366 -0.0513
 3335SOL    HW121467   3.645   0.423   5.015  0.8022  1.6147  0.7590
 3335SOL    HW221468   3.527   0.385   5.111  0.3591 -1.7398 -0.8272
 3336SOL     OW21469   2.785   4.000   6.051  0.3752 -0.0308 -0.5107
 3336SOL    HW121470   2.833   4.015   6.132  1.6897  1.8825 -1.6317
 3336SOL    HW221471   2.838   3.932   6.009 -1.1277 -1.4046 -0.1782
 3337SOL     OW21472   0.128   3.159   5.567  0.5455  0.4975  0.0117
 3337SOL    HW121473   0.160   3.249   5.562 -1.2153  1.1339  0.0519
 3337SOL    HW221474   0.093   3.137   5.481 -1.7847 -1.7496  1.5238
 3338SOL     OW21475   1.038   1.034  16.717  0.8119 -0.4057  0.2181
 3338SOL    HW121476   1.130   1.030  16.690  0.6454  0.0664 -0.4383
 3338SOL    HW221477   1.006   0.944  16.718  2.1629 -0.8811  0.3617
 3339SOL     OW21478   4.075   4.441  16.513 -0.0615 -0.3235  0.4010
 3339SOL    HW121479   4.169   4.448  16.498  0.0972 -1.1659  0.9886
 3339SOL    HW221480   4.048   4.395  16.433  0.6025 -1.8405  1.0488
 3340SOL     OW21481   3.049   1.175   4.031 -0.3157  0.6279 -0.1786
 3340SOL    HW121482   3.137   1.155   3.999  0.1345  0.3415  1.2478
 3340SOL    HW221483   3.060   1.168   4.126 -1.8054 -1.3469 -0.1641
 3341SOL     OW21484   1.448   2.395   2.851 -0.4746 -0.2868  0.1092
 3341SOL    HW121485   1.376   2.457   2.851 -0.9586 -0.8491 -0.3260
 3341SOL    HW221486   1.500   2.432   2.780  0.1014 -0.3429  0.4923
 3342SOL     OW21487   1.908   3.364   5.793  0.3892  0.4554 -1.1652
 3342SOL    HW121488   1.927   3.399   5.706 -1.0131 -1.5788 -2.3049
 3342SOL    HW221489   1.934   3.274   5.774  0.3981 -0.3926  3.0230
 3343SOL     OW21490   0.413   3.933  13.732 -0.1461  0.3188  0.0008
 3343SOL    HW121491   0.484   3.995  13.710  1.4882 -1.7618 -0.6113
 3343SOL    HW221492   0.353   3.951  13.660 -1.2597 -1.7513  0.4214
 3344SOL     OW21493   2.620   2.374  11.467  0.1996 -0.0447  0.6095
 3344SOL    HW121494   2.678   2.449  11.459 -1.2555  0.9872 -0.2486
 3344SOL    HW221495   2.553   2.419  11.518  0.5610 -0.3409  1.3478
 3345SOL     OW21496   4.700   1.449  11.193 -0.2960 -0.5707 -0.0480
 3345SOL    HW121497   0.003   1.540  11.204 -1.0988 -0.4002  0.4691
 3345SOL    HW221498   4.690   1.433  11.099  2.3054  2.3856 -0.8518
 3346SOL     OW21499   4.276   3.917   2.838  0.1610  0.0462  0.2562
 3346SOL    HW121500   4.294   3.853   2.769  3.8923  1.2496  0.0769
 3346SOL    HW221501   4.184   3.904   2.860  0.4301 -0.2562  1.1917
 3347SOL     OW21502   3.759   3.851   8.404  0.1634 -0.5909 -0.2682
 3347SOL    HW121503   3.666   3.839   8.423  0.3502  1.3543  1.8651
 3347SOL    HW221504   3.772   3.792   8.329  1.4978 -0.4333 -0.1760
 3348SOL     OW21505   2.067   4.499   3.150  0.3969 -0.2258  0.0324
 3348SOL    HW121506   2.064   4.591   3.177 -1.3152 -0.9123  2.1490
 3348SOL    HW221507   2.057   4.454   3.234 -1.7092 -1.7899 -1.0508
 3349SOL     OW21508   4.424   0.531  17.214 -0.2103 -0.0365 -0.2621
 3349SOL    HW121509   4.386   0.508  17.129 -1.0662  3.3267 -0.7749
 3349SOL    HW221510   4.514   0.537  17.180  0.9832  1.4353  3.1420
 3350SOL     OW21511   0.984   1.419   4.887 -0.1742 -0.0236 -0.2136
 3350SOL    HW121512   0.947   1.357   4.950  0.7183  1.2356  1.5498
 3350SOL    HW221513   0.955   1.386   4.802 -1.9267  2.4832 -0.5556
 3351SOL     OW21514   3.694   4.609   8.173  0.0781  0.1659 -0.5298
 3351SOL    HW121515   3.695   4.637   8.265  1.9953  1.6336 -0.9984
 3351SOL    HW221516   3.722   4.686   8.123  0.9372 -0.7903 -1.5067
 3352SOL     OW21517   2.046   3.175  14.946 -0.1150  0.4720 -0.0792
 3352SOL    HW121518   2.056   3.088  14.908  1.6982  0.5844  0.1323
 3352SOL    HW221519   2.059   3.160  15.039  2.4048  3.0087 -0.0331
 3353SOL     OW21520   0.354   0.187   1.139 -0.8755 -0.4013 -0.5940
 3353SOL    HW121521   0.374   0.240   1.062  3.7832 -0.6505  0.4342
 3353SOL    HW221522   0.288   0.122   1.115 -0.2836 -1.4370  0.5858
 3354SOL     OW21523   0.200   0.109  10.272  0.4545 -0.0800  0.1726
 3354SOL    HW121524   0.262   0.170  10.231  0.3388 -1.7240 -2.4690
 3354SOL    HW221525   0.247   0.027  10.284 -0.8616 -1.0479 -1.2119
 3355SOL     OW21526   1.323   1.242   9.347  0.3387 -0.3622 -0.0654
 3355SOL    HW121527   1.301   1.184   9.274 -1.0251 -1.7838  1.4676
 3355SOL    HW221528   1.393   1.194   9.390 -0.4354  0.1510  1.7738
 3356SOL     OW21529   0.554   4.608   2.579 -0.2277  0.5065  0.0404
 3356SOL    HW121530   0.515   4.544   2.638 -1.1479 -0.8614 -2.0462
 3356SOL    HW221531   0.582   4.676   2.641 -0.8850 -0.9334  1.9169
 3357SOL     OW21532   1.962   0.495   5.094 -0.4592  0.1628 -0.0574
 3357SOL    HW121533   1.954   0.572   5.038 -3.7616  0.9050  1.4396
 3357SOL    HW221534   1.996   0.526   5.178  0.6769 -1.9954  0.2997
 3358SOL     OW21535   3.382   1.310   5.001 -0.2424 -0.1294  0.2941
 3358SOL    HW121536   3.353   1.363   5.076 -0.7451 -0.4187  0.3085
 3358SOL    HW221537   3.299   1.307   4.952  1.1578  0.0069 -2.0915
 3359SOL     OW21538   1.504   1.107   8.476  0.2916 -0.5132  0.2169
 3359SOL    HW121539   1.489   1.099   8.570 -1.4157 -2.3549 -0.2127
 3359SOL    HW221540   1.489   1.197   8.447  0.0641 -0.7362 -0.3735
 3360SOL     OW21541   4.566   3.760   7.982  0.0543 -0.2751 -0.1049
 3360SOL    HW121542   4.539   3.807   8.061  0.8578  1.0526 -0.6167
 3360SOL    HW221543   4.508   3.684   7.975  0.1452 -0.3575  0.0280
 3361SOL     OW21544   3.648   2.133   8.825 -0.0845 -0.2040  0.2592
 3361SOL    HW121545   3.625   2.067   8.759 -0.2109  0.2866 -0.1862
 3361SOL    HW221546   3.625   2.098   8.911  1.5212 -1.0180  0.3701
 3362SOL     OW21547   4.180   3.587   4.106  0.9391 -0.1433 -0.6195
 3362SOL    HW121548   4.126   3.640   4.046 -0.6867 -0.6634  0.3804
 3362SOL    HW221549   4.268   3.597   4.070  0.1760  0.1544 -2.3940
 3363SOL     OW21550   4.626   4.516  15.781  0.6313 -0.2239  0.0497
 3363SOL    HW121551   4.577   4.598  15.781 -0.7684 -1.0365 -0.2437
 3363SOL    HW221552   4.695   4.538  15.843  0.2429 -1.7783  1.0638
 3364SOL     OW21553   0.673   2.001   2.130  0.3389 -0.2830  0.2095
 3364SOL    HW121554   0.617   1.940   2.177 -0.0464 -0.7986 -0.9170
 3364SOL    HW221555   0.756   1.959   2.155 -0.5761 -0.7555  2.4914
 3365SOL     OW21556   3.369   1.782   6.341 -0.2893 -0.0068 -0.3464
 3365SOL    HW121557   3.462   1.787   6.318  0.3770  0.9956  2.5332
 3365SOL    HW221558   3.354   1.689   6.361 -2.5446 -0.1113 -2.5815
 3366SOL     OW21559   1.927   1.138   3.482 -0.2410 -0.3809 -0.1152
 3366SOL    HW121560   1.969   1.066   3.530 -1.7165 -0.3785  1.2119
 3366SOL    HW221561   1.855   1.160   3.542  0.5865 -0.9354  1.0841
 3367SOL     OW21562   3.899   1.327   6.707 -0.1436  0.7097 -0.2358
 3367SOL    HW121563   3.935   1.415   6.714 -0.5632  0.7769  1.1439
 3367SOL    HW221564   3.808   1.357   6.710 -0.1212  0.7243  0.3993
 3368SOL     OW21565   0.548   1.022   9.455 -0.9051  0.2538  0.8525
 3368SOL    HW121566   0.593   1.097   9.496  1.3062  0.4813 -1.9823
 3368SOL    HW221567   0.491   1.075   9.400  0.6117  1.3942  0.3555
 3369SOL     OW21568   3.286   3.849   8.710  0.1738  0.5202 -0.1072
 3369SOL    HW121569   3.381   3.854   8.723  0.1276  1.9853 -0.3387
 3369SOL    HW221570   3.259   3.919   8.769 -0.2007  0.6396 -0.4253
 3370SOL     OW21571   0.176   0.511   6.138  0.1341 -0.0313  0.0189
 3370SOL    HW121572   0.230   0.561   6.076 -1.2592  1.4067 -0.0536
 3370SOL    HW221573   0.176   0.567   6.215  1.0750 -0.6577  0.4647
 3371SOL     OW21574   4.226   1.852   1.949  0.2289 -0.4449  0.2179
 3371SOL    HW121575   4.301   1.862   1.890  0.6858 -0.0029  0.8878
 3371SOL    HW221576   4.225   1.756   1.956 -0.3896 -0.4702 -0.2165
 3372SOL     OW21577   3.411   0.450   6.500  0.2691  0.0395 -0.5561
 3372SOL    HW121578   3.395   0.381   6.436 -0.4031  1.3093 -1.7472
 3372SOL    HW221579   3.503   0.471   6.480  0.5918 -0.4476  0.3904
 3373SOL     OW21580   4.025   4.670   7.812 -0.3404 -0.0089  0.1107
 3373SOL    HW121581   4.036   0.033   7.775 -1.2981  1.7837  4.0770
 3373SOL    HW221582   3.985   4.632   7.734 -2.7014 -1.5988  2.0884
 3374SOL     OW21583   4.423   1.774   6.952  0.2358  0.1715 -0.4772
 3374SOL    HW121584   4.515   1.752   6.971  1.0563  1.9890 -2.4141
 3374SOL    HW221585   4.374   1.742   7.028 -0.7260  0.4640 -0.9870
 3375SOL     OW21586   1.031   0.791  16.350 -0.6293 -0.0838 -0.4909
 3375SOL    HW121587   0.958   0.849  16.371  1.3939  1.8467  1.2577
 3375SOL    HW221588   1.061   0.814  16.262 -1.0670 -1.4634 -1.0056
 3376SOL     OW21589   4.553   3.342   6.362  0.1913  0.2714 -0.1505
 3376SOL    HW121590   4.616   3.270   6.354  2.2950  2.0525  0.4288
 3376SOL    HW221591   4.557   3.364   6.455  0.7017  1.4354 -0.4531
 3377SOL     OW21592   0.858   2.152  11.566 -0.3631 -0.1483 -0.3297
 3377SOL    HW121593   0.776   2.107  11.585 -0.2767 -1.5100 -3.1844
 3377SOL    HW221594   0.885   2.172  11.655 -0.5516  1.0808 -0.5496
 3378SOL     OW21595   0.382   3.287   9.794  0.2412 -0.4983  0.4311
 3378SOL    HW121596   0.329   3.364   9.776  0.9008 -0.6514 -2.0891
 3378SOL    HW221597   0.466   3.320   9.826 -0.5209  1.9258 -0.1102
 3379SOL     OW21598   2.797   0.984   6.437 -0.4123  0.3955 -0.1846
 3379SOL    HW121599   2.746   1.010   6.360 -0.6108  0.4618 -0.0310
 3379SOL    HW221600   2.758   0.899   6.459  2.6359 -1.3512 -1.5686
 3380SOL     OW21601   4.468   3.926   6.370  0.2737  0.2782 -0.0886
 3380SOL    HW121602   4.544   3.868   6.366  0.2311  0.3281 -1.7937
 3380SOL    HW221603   4.426   3.911   6.285 -2.0159 -0.0292  1.1014
 3381SOL     OW21604   1.700   2.922   3.658  0.0165  0.1035  0.2534
 3381SOL    HW121605   1.748   2.858   3.605 -1.7344 -0.9555 -0.0763
 3381SOL    HW221606   1.652   2.982   3.601  1.0813 -0.8731 -1.6920
 3382SOL     OW21607   1.113   2.239   4.524  0.1909  0.1666 -0.2280
 3382SOL    HW121608   1.029   2.198   4.542  0.1417  1.2510  2.0785
 3382SOL    HW221609   1.127   2.309   4.589  1.3291 -2.2546  2.1316
 3383SOL     OW21610   1.829   1.807   4.539 -0.2689  0.1381  0.6068
 3383SOL    HW121611   1.822   1.864   4.615  1.9033  0.9736  0.1726
 3383SOL    HW221612   1.787   1.859   4.471  0.6504 -0.9491 -0.7938
 3384SOL     OW21613   3.912   2.693  11.760  0.2115  0.3331 -0.0269
 3384SOL    HW121614   3.903   2.701  11.665  2.2896  1.7348 -0.1020
 3384SOL    HW221615   3.825   2.655  11.772  0.3147 -0.2407 -1.0174
 3385SOL     OW21616   2.085   3.951   0.542  0.1787 -0.0437  0.4306
 3385SOL    HW121617   2.114   4.036   0.575  0.0052 -0.7600  2.4549
 3385SOL    HW221618   2.028   3.973   0.469 -0.8317  0.1463  1.2723
 3386SOL     OW21619   4.655   1.956  13.688 -0.2762  0.6377  0.0219
 3386SOL    HW121620   4.643   2.047  13.661 -0.5482  0.3181 -0.9277
 3386SOL    HW221621   4.659   1.921  13.599 -0.7163 -0.3395  0.3775
 3387SOL     OW21622   3.422   2.213   7.974 -0.0344  0.1155  0.2042
 3387SOL    HW121623   3.473   2.221   8.055 -1.8738  2.8467  1.0877
 3387SOL    HW221624   3.344   2.267   7.981  0.0767  0.1554  1.1500
 3388SOL     OW21625   0.300   4.429   0.039  0.4142  0.2802  0.3125
 3388SOL    HW121626   0.270   4.345   0.004  3.3415 -0.5772 -0.1086
 3388SOL    HW221627   0.380   4.410   0.088 -1.1842 -0.6544  2.5766
 3389SOL     OW21628   4.686   2.753   7.874 -0.5265  0.4868 -0.2348
 3389SOL    HW121629   4.650   2.834   7.910  0.2294  1.2383 -1.1786
 3389SOL    HW221630   0.040   2.792   7.835 -1.0360 -0.2274 -1.9574
 3390SOL     OW21631   1.738   1.217   6.752  0.2790  0.4895 -0.0761
 3390SOL    HW121632   1.707   1.263   6.674 -0.4718 -2.2324 -1.3597
 3390SOL    HW221633   1.805   1.283   6.773 -0.6310  1.8005 -1.3261
 3391SOL     OW21634   1.797   0.065   1.531 -0.0160 -0.0029  0.2317
 3391SOL    HW121635   1.718   0.113   1.557 -0.9303 -1.7454  0.6059
 3391SOL    HW221636   1.853   0.142   1.523  1.6454 -0.9647  2.5649
 3392SOL     OW21637   1.446   3.380  13.937 -0.2772 -0.1894 -0.5019
 3392SOL    HW121638   1.459   3.454  13.996 -1.6330  0.3323 -0.8489
 3392SOL    HW221639   1.459   3.310  14.001  1.4409  1.1340  0.6194
 3393SOL     OW21640   3.634   2.257   3.609 -0.2315 -0.9056  0.4693
 3393SOL    HW121641   3.600   2.233   3.523 -0.2726 -0.2110  0.2897
 3393SOL    HW221642   3.588   2.202   3.672 -1.2534 -1.1841 -0.5147
 3394SOL     OW21643   2.466   2.415  15.149  0.4995  0.4320  0.6512
 3394SOL    HW121644   2.371   2.408  15.137  0.6030  1.5642 -0.8498
 3394SOL    HW221645   2.495   2.385  15.063 -2.9486 -1.1881  0.0190
 3395SOL     OW21646   3.029   1.962   8.644 -0.0852 -0.7432  0.2880
 3395SOL    HW121647   3.111   2.012   8.636 -0.5461 -0.0198  0.1224
 3395SOL    HW221648   3.004   1.981   8.554 -2.6219  0.4481  1.2678
 3396SOL     OW21649   3.026   0.542   4.226 -0.1837 -0.0430  0.2693
 3396SOL    HW121650   3.002   0.628   4.192 -2.7098 -0.7158  0.3544
 3396SOL    HW221651   2.945   0.510   4.267 -2.0701  1.8342 -2.0347
 3397SOL     OW21652   3.207   1.220   7.163  0.6577 -0.1961  0.3516
 3397SOL    HW121653   3.257   1.298   7.136  3.1479 -1.9517 -0.0531
 3397SOL    HW221654   3.242   1.199   7.249  1.2649 -0.9882 -0.0909
 3398SOL     OW21655   0.276   3.964   9.201  0.0390 -0.5721  0.2434
 3398SOL    HW121656   0.358   4.003   9.172 -2.6621  2.5231 -3.2233
 3398SOL    HW221657   0.269   3.900   9.131 -1.9582 -0.1582  0.0647
 3399SOL     OW21658   1.243   4.486   4.973  0.3165 -0.6182 -0.3877
 3399SOL    HW121659   1.301   4.557   4.998 -1.0178  1.0367 -1.9736
 3399SOL    HW221660   1.309   4.420   4.957  1.4206 -0.7842  4.7502
 3400SOL     OW21661   2.957   0.415   2.906 -0.2558 -0.3676  0.3608
 3400SOL    HW121662   2.940   0.459   2.989  0.0128 -0.8957  0.6989
 3400SOL    HW221663   2.919   0.469   2.837  0.3287 -0.5040 -0.0646
 3401SOL     OW21664   4.537   2.753   8.151  0.0156 -0.7067 -0.0894
 3401SOL    HW121665   4.564   2.843   8.135  0.3439 -0.9948 -1.1251
 3401SOL    HW221666   4.476   2.767   8.224  0.2714  2.1055 -0.4357
 3402SOL     OW21667   4.636   0.189   7.711 -0.4336 -0.5528  0.2958
 3402SOL    HW121668   4.654   0.172   7.619  1.4279  0.7368  0.4287
 3402SOL    HW221669   4.670   0.109   7.751  0.3190 -0.8902 -1.0301
 3403SOL     OW21670   2.476   1.721   8.436  0.4136  0.3601 -0.0255
 3403SOL    HW121671   2.530   1.664   8.490  0.5712  0.4878 -0.0468
 3403SOL    HW221672   2.480   1.665   8.359  0.7778  0.5533 -0.1448
 3404SOL     OW21673   3.527   0.265   7.139  0.0341  0.4186 -0.5848
 3404SOL    HW121674   3.558   0.189   7.190  1.7249  1.9044  0.6242
 3404SOL    HW221675   3.462   0.232   7.077  1.2701 -2.2526 -0.4609
 3405SOL     OW21676   4.142   3.732   7.066 -0.0442  0.0133 -0.3273
 3405SOL    HW121677   4.159   3.819   7.030 -0.5759 -0.0911 -0.8240
 3405SOL    HW221678   4.224   3.685   7.050 -0.1378  0.1305 -1.1190
 3406SOL     OW21679   0.112   1.393   7.176  0.2344  0.3404  0.6797
 3406SOL    HW121680   0.050   1.466   7.167 -1.5895 -1.2921  0.1866
 3406SOL    HW221681   0.143   1.387   7.086  0.2932 -0.1974  0.7394
 3407SOL     OW21682   3.145   1.914  16.752  0.0921 -0.3208  0.1060
 3407SOL    HW121683   3.175   1.906  16.662 -2.2808 -1.2419 -0.6079
 3407SOL    HW221684   3.049   1.909  16.747  0.0306 -0.3384  1.1754
 3408SOL     OW21685   0.847   0.854   7.455  0.5592 -0.4018  0.5384
 3408SOL    HW121686   0.876   0.785   7.395 -1.8731  0.1663 -1.2745
 3408SOL    HW221687   0.760   0.879   7.427  1.1347  1.8629  0.7582
 3409SOL     OW21688   3.536   3.269   3.296 -0.4314 -0.6380  0.0568
 3409SOL    HW121689   3.551   3.297   3.205  0.0742 -3.1664 -0.6668
 3409SOL    HW221690   3.621   3.285   3.336  0.2123 -2.4146 -0.5672
 3410SOL     OW21691   2.224   3.720   0.797 -0.2205  0.0169  0.0429
 3410SOL    HW121692   2.148   3.775   0.777 -0.2831  0.5199  1.6644
 3410SOL    HW221693   2.254   3.697   0.709  0.3605  1.6601 -0.1990
 3411SOL     OW21694   0.540   2.949   5.951  0.3511  0.1565 -0.1811
 3411SOL    HW121695   0.588   2.875   5.988 -0.4056 -0.1128  0.2466
 3411SOL    HW221696   0.551   2.938   5.856  1.6857  0.3296 -0.0394
 3412SOL     OW21697   3.212   4.521  16.007 -0.0802  0.0442 -0.2303
 3412SOL    HW121698   3.178   4.575  15.936 -1.5913 -1.3293 -0.5462
 3412SOL    HW221699   3.260   4.459  15.952  1.5512  1.5690 -0.5172
 3413SOL     OW21700   0.651   4.117   9.877 -0.2685  0.3188  0.0642
 3413SOL    HW121701   0.629   4.059   9.949 -0.6222 -0.3345 -0.5722
 3413SOL    HW221702   0.603   4.199   9.893 -1.4647 -0.1064 -1.2993
 3414SOL     OW21703   0.502   3.848   3.447 -0.6942  0.4608  0.2350
 3414SOL    HW121704   0.459   3.821   3.366 -1.9182 -1.3230  1.4656
 3414SOL    HW221705   0.464   3.934   3.467 -1.9325  0.0292 -0.2547
 3415SOL     OW21706   3.673   0.628   3.646 -0.0767 -0.9135 -0.4616
 3415SOL    HW121707   3.600   0.683   3.617  1.6616  1.5286 -0.2697
 3415SOL    HW221708   3.724   0.691   3.697 -0.6778 -2.1386  1.6497
 3416SOL     OW21709   2.018   2.955  12.562 -0.5956 -0.3325  0.4420
 3416SOL    HW121710   2.007   3.018  12.491  0.5840 -0.8186 -0.1761
 3416SOL    HW221711   2.057   2.874  12.529 -0.4332 -0.1873  0.2845
 3417SOL     OW21712   0.787   3.861   4.282 -0.2756 -0.1190  0.1724
 3417SOL    HW121713   0.731   3.799   4.329 -0.6803  0.2427  0.1695
 3417SOL    HW221714   0.807   3.925   4.350  2.7711 -1.6980  0.7535
 3418SOL     OW21715   2.028   3.180   4.670 -0.0205 -0.4413 -0.3829
 3418SOL    HW121716   2.043   3.113   4.603  0.0613  0.1748 -0.9802
 3418SOL    HW221717   2.116   3.216   4.684 -0.8781  2.3977 -2.2045
 3419SOL     OW21718   4.228   4.605   8.687 -0.5915  0.4371 -0.2707
 3419SOL    HW121719   4.244   4.577   8.777 -2.0303 -2.3661 -0.8965
 3419SOL    HW221720   4.298   4.668   8.668  3.2220 -2.6265  3.4151
 3420SOL     OW21721   1.214   1.877   8.096  0.3068 -0.4519  0.1237
 3420SOL    HW121722   1.161   1.940   8.048  0.4499  1.4895  2.4777
 3420SOL    HW221723   1.293   1.873   8.042  0.6612  1.3006  0.5017
 3421SOL     OW21724   0.406   1.916   3.903  0.1379  0.1570  0.5781
 3421SOL    HW121725   0.406   1.994   3.847 -2.2749 -0.1033  0.2331
 3421SOL    HW221726   0.331   1.871   3.864 -0.0671  1.3499 -0.4009
 3422SOL     OW21727   0.989   2.713   8.773 -0.1357  0.0569  0.3263
 3422SOL    HW121728   0.945   2.759   8.702  0.9181 -1.7277 -1.4526
 3422SOL    HW221729   0.918   2.666   8.817  0.6156 -1.9215 -0.5652
 3423SOL     OW21730   0.931   2.938  10.878  0.2511  0.1040  0.1602
 3423SOL    HW121731   0.888   3.002  10.822 -0.2065  0.4323  0.9014
 3423SOL    HW221732   0.880   2.861  10.853 -0.4590  0.0805  1.7539
 3424SOL     OW21733   2.032   0.117   4.823  0.1594 -0.3716 -0.2655
 3424SOL    HW121734   2.062   0.184   4.886  0.4362 -0.6010 -0.1515
 3424SOL    HW221735   2.064   0.160   4.744 -0.6869 -1.3365 -1.1245
 3425SOL     OW21736   1.418   4.302   4.172 -0.2831  0.2938 -0.3179
 3425SOL    HW121737   1.450   4.341   4.253 -0.9075  1.4956 -0.6635
 3425SOL    HW221738   1.357   4.237   4.207  1.0982 -0.0860  1.3912
 3426SOL     OW21739   1.355   0.833   3.246  0.4733 -0.2254 -0.1058
 3426SOL    HW121740   1.329   0.792   3.329 -0.1929 -0.1462 -0.2778
 3426SOL    HW221741   1.353   0.751   3.196 -0.9452 -0.4733  0.3634
 3427SOL     OW21742   2.744   4.064   7.675  0.8436  0.6221  0.2053
 3427SOL    HW121743   2.685   4.063   7.751 -0.5680  4.0563 -0.8414
 3427SOL    HW221744   2.761   4.158   7.682  0.4240  0.7674 -0.6482
 3428SOL     OW21745   1.161   0.654   4.681 -0.2423  0.7627 -0.5012
 3428SOL    HW121746   1.235   0.606   4.718 -0.2716  0.4017 -0.9126
 3428SOL    HW221747   1.154   0.732   4.735  1.1569 -0.3215  1.2392
 3429SOL     OW21748   3.471   1.518   8.293 -0.2457 -0.1456 -0.0632
 3429SOL    HW121749   3.425   1.494   8.373  0.1123 -0.9201 -0.0906
 3429SOL    HW221750   3.398   1.565   8.253  1.5364  2.5963 -0.0907
 3430SOL     OW21751   1.448   4.379  16.057 -0.1753  0.4898  0.4085
 3430SOL    HW121752   1.396   4.460  16.048 -2.1413 -0.5318  2.6275
 3430SOL    HW221753   1.521   4.407  16.112 -2.6894  1.1170  3.4274
 3431SOL     OW21754   2.984   1.998  13.388 -0.2503 -0.0772  0.7187
 3431SOL    HW121755   2.913   1.981  13.326  0.2792  0.3732 -0.0046
 3431SOL    HW221756   2.941   2.043  13.462 -1.4863  2.1509 -1.3449
 3432SOL     OW21757   2.345   0.755   8.084 -0.0185  0.2541 -0.4090
 3432SOL    HW121758   2.278   0.695   8.053  1.7665 -0.9583 -1.8827
 3432SOL    HW221759   2.416   0.743   8.020  0.0305 -1.5394 -0.0185
 3433SOL     OW21760   4.170   3.224   2.349  0.3326  0.1792  0.1539
 3433SOL    HW121761   4.138   3.313   2.332  0.8560  0.1475 -1.0419
 3433SOL    HW221762   4.265   3.235   2.355  0.5472 -0.6933 -1.5456
 3434SOL     OW21763   3.561   2.913   8.889 -0.7934  0.3809 -0.0144
 3434SOL    HW121764   3.634   2.892   8.947 -0.1622 -0.8629 -1.2481
 3434SOL    HW221765   3.498   2.843   8.904  1.7228 -1.8052  0.3452
 3435SOL     OW21766   1.347   2.232   0.423  0.0680 -0.2498  0.1949
 3435SOL    HW121767   1.355   2.286   0.344 -0.9126 -0.4419 -0.0372
 3435SOL    HW221768   1.406   2.158   0.411  2.0830  1.5274 -0.9273
 3436SOL     OW21769   1.917   3.703   7.248  0.0853  0.7597 -0.0871
 3436SOL    HW121770   1.893   3.646   7.176  1.3865  0.7994 -0.5635
 3436SOL    HW221771   1.854   3.773   7.233  2.1281  2.6872  0.1637
 3437SOL     OW21772   1.530   3.056  14.628 -0.3201  0.6575  0.3352
 3437SOL    HW121773   1.616   3.097  14.632 -0.4246  1.0859 -1.5307
 3437SOL    HW221774   1.548   2.963  14.638 -2.2133  0.1556 -0.8374
 3438SOL     OW21775   3.203   3.039  16.234  0.3594 -0.3000  0.2556
 3438SOL    HW121776   3.208   3.079  16.320  1.7107  0.6392 -0.2597
 3438SOL    HW221777   3.126   3.082  16.195  1.7990  2.3530  0.3668
 3439SOL     OW21778   1.291   1.889   6.281  0.2679  0.1041  0.7784
 3439SOL    HW121779   1.363   1.826   6.281 -1.0913 -1.4667 -1.1651
 3439SOL    HW221780   1.234   1.839   6.222  0.5832  2.4156 -1.4698
 3440SOL     OW21781   3.909   1.604   7.661 -0.3254  0.1891 -0.3176
 3440SOL    HW121782   3.817   1.600   7.686 -0.0840 -0.2480  0.5221
 3440SOL    HW221783   3.947   1.657   7.731  0.7946  0.3230 -1.0252
 3441SOL     OW21784   4.366   0.508   7.850 -0.0926  0.0927  0.7988
 3441SOL    HW121785   4.436   0.456   7.890 -0.6076 -2.4548 -1.6347
 3441SOL    HW221786   4.414   0.574   7.800  0.9095 -2.3467 -1.4527
 3442SOL     OW21787   4.483   4.276  15.751 -0.2861  0.4212 -0.2443
 3442SOL    HW121788   4.404   4.327  15.731 -0.5076  0.2182  0.1013
 3442SOL    HW221789   4.546   4.346  15.764 -0.9457  0.6948  1.4501
 3443SOL     OW21790   3.517   2.572   0.419 -0.1166 -0.0110 -0.3179
 3443SOL    HW121791   3.530   2.502   0.482 -0.6567  0.2391  0.0683
 3443SOL    HW221792   3.472   2.633   0.476  0.1960 -1.0495  1.0435
 3444SOL     OW21793   3.986   2.988   5.657 -0.1001 -0.0450 -0.6060
 3444SOL    HW121794   3.948   3.073   5.633  0.2183 -0.7264 -3.5261
 3444SOL    HW221795   4.079   3.006   5.642  0.3553 -1.0103  1.0705
 3445SOL     OW21796   1.435   3.309   7.868  0.7833 -0.1143 -0.0654
 3445SOL    HW121797   1.525   3.303   7.836  0.7968 -1.4010  0.2259
 3445SOL    HW221798   1.406   3.218   7.868  0.4696 -0.0138  0.5419
 3446SOL     OW21799   1.019   4.344  11.435 -0.0847 -0.0492  0.3495
 3446SOL    HW121800   0.956   4.307  11.497 -0.9566  1.1775  0.1885
 3446SOL    HW221801   1.040   4.269  11.378  1.6431 -0.0340  0.9659
 3447SOL     OW21802   4.113   2.569  12.541 -0.4029 -0.4026  0.5168
 3447SOL    HW121803   4.174   2.629  12.583 -0.2571  0.5351 -1.0553
 3447SOL    HW221804   4.034   2.621  12.527 -0.6089 -0.3365  1.9912
 3448SOL     OW21805   1.698   3.588   5.900 -0.4366  0.1014 -0.0551
 3448SOL    HW121806   1.745   3.622   5.976  1.1838 -1.8287 -0.1828
 3448SOL    HW221807   1.754   3.510   5.893 -0.2350  0.2909 -0.5648
 3449SOL     OW21808   3.787   1.332   5.248 -0.1235  0.5847  0.0111
 3449SOL    HW121809   3.737   1.324   5.330  1.7530 -0.4947  1.0374
 3449SOL    HW221810   3.766   1.420   5.218  0.3493  0.3739 -0.9118
 3450SOL     OW21811   0.873   4.568   4.543 -0.2952  0.5228 -0.1765
 3450SOL    HW121812   0.801   4.621   4.576 -0.7067  0.2527 -0.6527
 3450SOL    HW221813   0.933   4.563   4.618 -1.5117  1.4193  0.8445
 3451SOL     OW21814   1.378   3.336   2.691  0.5000 -0.2819  0.0630
 3451SOL    HW121815   1.448   3.271   2.704 -1.3782 -1.6652  3.2357
 3451SOL    HW221816   1.401   3.346   2.599 -0.3662 -0.3535 -0.1628
 3452SOL     OW21817   2.690   1.815   1.573  0.1663  0.0428 -0.1496
 3452SOL    HW121818   2.679   1.810   1.668 -0.6634 -0.8715 -0.2974
 3452SOL    HW221819   2.748   1.738   1.573  0.8943  0.5912 -0.7764
 3453SOL     OW21820   3.642   3.984  17.492 -0.4492 -0.0697 -0.2352
 3453SOL    HW121821   3.710   4.034  17.538  1.0539  0.4398 -2.9715
 3453SOL    HW221822   3.576   4.049  17.467 -1.5483 -0.4672  1.6738
 3454SOL     OW21823   0.461   1.222   7.238  0.3248 -0.4188 -0.5996
 3454SOL    HW121824   0.554   1.201   7.236  0.7767  1.6420 -1.0048
 3454SOL    HW221825   0.465   1.314   7.213  0.4618  0.1314  1.3874
 3455SOL     OW21826   3.649   3.114   5.885  0.3901 -0.2582 -0.0680
 3455SOL    HW121827   3.599   3.066   5.819 -1.0806  1.2226 -0.0238
 3455SOL    HW221828   3.646   3.046   5.952 -0.5252  0.6731  0.8233
 3456SOL     OW21829   2.791   3.680  10.290 -0.7026  0.0009 -0.0633
 3456SOL    HW121830   2.851   3.627  10.237 -1.0431  0.1914 -0.6386
 3456SOL    HW221831   2.816   3.652  10.378  1.0822 -0.5986 -0.7420
 3457SOL     OW21832   1.406   1.744   5.563  0.0618  0.2871  1.1142
 3457SOL    HW121833   1.419   1.651   5.546  2.4781  0.7717  0.3894
 3457SOL    HW221834   1.310   1.741   5.563  0.1303 -1.0975  4.5598
 3458SOL     OW21835   3.340   3.364  10.761  0.4279  0.2927 -0.4149
 3458SOL    HW121836   3.431   3.380  10.737  0.4126  1.6263  0.4080
 3458SOL    HW221837   3.345   3.280  10.807 -2.0098  0.0726 -0.5569
 3459SOL     OW21838   2.391   3.771   3.284 -0.1891 -0.1696 -0.0085
 3459SOL    HW121839   2.351   3.857   3.269  1.2430  0.7611  1.4545
 3459SOL    HW221840   2.316   3.721   3.253 -1.3003  1.5511 -0.1241
 3460SOL     OW21841   4.394   0.099  10.857  0.5294 -0.0884 -0.0888
 3460SOL    HW121842   4.408   0.103  10.762 -1.5289  2.5986 -0.2732
 3460SOL    HW221843   4.299   0.111  10.863  0.8100  1.9870 -0.0564
 3461SOL     OW21844   1.250   0.919  11.852  0.0266 -0.2174  0.2604
 3461SOL    HW121845   1.158   0.942  11.836  0.8011  1.7460 -1.3922
 3461SOL    HW221846   1.252   0.826  11.875 -0.9931 -0.4022 -0.3613
 3462SOL     OW21847   3.137   1.156   7.803  0.2552  0.1649  0.0884
 3462SOL    HW121848   3.208   1.186   7.859 -0.2163 -1.2953  1.4643
 3462SOL    HW221849   3.140   1.231   7.743  1.0119  1.0154  1.1878
 3463SOL     OW21850   4.244   3.281  12.861  0.1865  0.0472  0.0442
 3463SOL    HW121851   4.221   3.360  12.813 -0.4246  0.1071  0.4388
 3463SOL    HW221852   4.329   3.256  12.824  0.5262 -0.9887  1.5085
 3464SOL     OW21853   4.036   2.527   0.036 -0.7532 -0.1412  0.3052
 3464SOL    HW121854   3.987   2.575   0.102 -0.6941  0.9722 -0.4521
 3464SOL    HW221855   4.081   2.599  17.690 -0.8119 -1.7095 -2.2100
 3465SOL     OW21856   1.522   2.770   2.159 -0.6548  0.3326 -0.2536
 3465SOL    HW121857   1.522   2.734   2.071 -1.3571 -0.5740  0.1142
 3465SOL    HW221858   1.467   2.846   2.147 -0.8284  0.1692 -0.4897
 3466SOL     OW21859   2.800   2.302  16.381  0.4256  0.0125  0.4098
 3466SOL    HW121860   2.790   2.323  16.474 -0.1409  2.2321 -0.1549
 3466SOL    HW221861   2.894   2.287  16.377  0.0317 -3.1867  2.6153
 3467SOL     OW21862   0.121   4.260   7.085  0.1525 -0.8727  0.2137
 3467SOL    HW121863   0.154   4.179   7.047 -0.2694 -1.5560  1.3124
 3467SOL    HW221864   0.118   4.314   7.006 -0.2399 -0.3155  0.6111
 3468SOL     OW21865   4.436   0.712   1.474 -0.2008 -0.2503  0.5109
 3468SOL    HW121866   4.528   0.686   1.474 -1.0953 -3.4395  1.3641
 3468SOL    HW221867   4.409   0.670   1.556  2.1096 -0.4265  1.1901
 3469SOL     OW21868   2.906   1.161   6.611  0.4601 -0.6240  0.5115
 3469SOL    HW121869   2.839   1.128   6.671 -0.9871  1.0928 -0.1407
 3469SOL    HW221870   2.880   1.123   6.527  0.5213  0.4839 -0.0018
 3470SOL     OW21871   2.538   3.110   2.588  0.7600 -0.0599 -0.7753
 3470SOL    HW121872   2.487   3.108   2.507 -1.4361  3.5944  0.5620
 3470SOL    HW221873   2.471   3.079   2.648  0.8132  1.2734 -0.0444
 3471SOL     OW21874   3.961   2.029   0.700  0.0418 -0.5620 -0.8099
 3471SOL    HW121875   4.029   2.084   0.661  1.2195 -1.1838  0.3520
 3471SOL    HW221876   3.983   1.946   0.660  0.3282 -0.8168 -0.1289
 3472SOL     OW21877   2.670   0.646   3.319  0.2471  0.3720  0.0023
 3472SOL    HW121878   2.666   0.723   3.263 -3.0333 -1.5796 -2.4761
 3472SOL    HW221879   2.632   0.579   3.262 -0.9826  0.5421  0.6282
 3473SOL     OW21880   0.023   2.115  17.121 -0.6877  0.2369 -0.0584
 3473SOL    HW121881   0.093   2.159  17.074  0.7705  2.0442  3.7511
 3473SOL    HW221882   4.674   2.173  17.104 -1.1876 -0.4365 -0.1960
 3474SOL     OW21883   3.012   1.628   9.527 -0.1341  0.2518 -0.1311
 3474SOL    HW121884   2.964   1.711   9.529  0.9612  0.8437  1.2618
 3474SOL    HW221885   3.100   1.651   9.498  1.0596 -0.0138  3.2466
 3475SOL     OW21886   0.029   4.624  10.885 -0.4378 -0.2463 -0.2931
 3475SOL    HW121887   4.700   4.655  10.812 -0.4055 -0.6455 -0.4864
 3475SOL    HW221888   0.036   4.530  10.868 -0.1659 -0.2073 -0.4018
 3476SOL     OW21889   1.097   1.442   9.521  0.6829  0.2529 -0.1144
 3476SOL    HW121890   1.166   1.404   9.576  0.4886 -0.7772 -0.5879
 3476SOL    HW221891   1.150   1.514   9.487 -0.5640  1.1210 -0.1973
 3477SOL     OW21892   3.024   1.430   7.974 -0.4444  0.0147 -0.2857
 3477SOL    HW121893   3.004   1.487   7.899  0.9005  2.8239  1.4750
 3477SOL    HW221894   3.021   1.491   8.048  1.1958  0.5528 -0.6705
 3478SOL     OW21895   0.140   2.419   2.672 -0.3258  0.9056 -0.5288
 3478SOL    HW121896   0.052   2.440   2.704 -1.1874 -3.4767  0.0702
 3478SOL    HW221897   0.146   2.492   2.611 -0.0359  0.0580 -1.4970
 3479SOL     OW21898   2.991   3.779   5.438 -0.5485  0.2056 -0.3149
 3479SOL    HW121899   2.979   3.687   5.412 -2.7142  0.7828 -1.3690
 3479SOL    HW221900   2.902   3.813   5.428 -0.3618  0.4939 -0.9705
 3480SOL     OW21901   3.219   2.389   8.014 -0.1924  0.1945 -0.3256
 3480SOL    HW121902   3.191   2.480   8.002 -0.4265 -0.2210 -2.8988
 3480SOL    HW221903   3.130   2.358   8.031  0.0905 -0.7118 -0.5229
 3481SOL     OW21904   4.350   3.753   1.077  0.1299 -0.1500 -0.0278
 3481SOL    HW121905   4.265   3.713   1.063 -0.9755  2.7436 -1.6634
 3481SOL    HW221906   4.335   3.832   1.024 -2.0885 -0.0506  0.7455
 3482SOL     OW21907   0.527   0.578   4.300  0.4444 -0.3107 -0.0586
 3482SOL    HW121908   0.483   0.612   4.377  0.9684  0.5321 -0.1272
 3482SOL    HW221909   0.598   0.535   4.347  0.0086 -2.2113 -1.1232
 3483SOL     OW21910   0.047   2.790   5.909 -0.5955  0.4449  0.4310
 3483SOL    HW121911   0.142   2.778   5.904 -0.4204  1.9939 -0.1466
 3483SOL    HW221912   0.025   2.715   5.854  0.5554  0.4835 -0.0755
 3484SOL     OW21913   0.900   2.081   6.146  0.1854 -0.2027  0.1015
 3484SOL    HW121914   0.981   2.107   6.190 -0.2998  1.5524 -0.0551
 3484SOL    HW221915   0.881   1.993   6.179  2.2268 -0.9341 -0.6694
 3485SOL     OW21916   0.808   0.211   3.458 -0.0727 -0.4514 -0.0459
 3485SOL    HW121917   0.723   0.248   3.481 -0.2622 -0.6023 -0.4923
 3485SOL    HW221918   0.827   0.251   3.373 -0.0892 -2.0099 -0.7982
 3486SOL     OW21919   3.157   0.324  16.132 -0.1361  0.3213  0.3220
 3486SOL    HW121920   3.067   0.307  16.158 -0.5763  0.5345 -1.0771
 3486SOL    HW221921   3.193   0.275  16.206 -1.9428  0.5747  1.3699
 3487SOL     OW21922   2.088   2.728  11.364 -0.1487  0.6362  0.0874
 3487SOL    HW121923   2.106   2.656  11.303 -0.5234 -1.0999  2.0275
 3487SOL    HW221924   2.179   2.755  11.370  0.0577  0.3807 -1.8626
 3488SOL     OW21925   2.003   2.767   7.079 -0.3776 -0.4562 -0.1324
 3488SOL    HW121926   1.917   2.727   7.067 -0.2661 -0.3604 -1.3199
 3488SOL    HW221927   1.982   2.841   7.137 -1.2907 -0.0655 -0.9420
 3489SOL     OW21928   0.905   3.662   3.772 -0.2760  0.4856  0.0923
 3489SOL    HW121929   0.883   3.718   3.698 -0.5385 -1.0143 -0.9521
 3489SOL    HW221930   0.877   3.707   3.852 -0.9148 -2.0966  1.3335
 3490SOL     OW21931   3.349   3.910  11.787  0.1060 -0.3766 -0.0009
 3490SOL    HW121932   3.384   3.857  11.860  0.0923 -1.8793 -1.0829
 3490SOL    HW221933   3.257   3.884  11.787  0.5785 -2.0528  0.4559
 3491SOL     OW21934   1.677   2.757  11.583  0.8610  0.0332  0.4905
 3491SOL    HW121935   1.644   2.674  11.549 -1.2261  0.8918  0.3811
 3491SOL    HW221936   1.726   2.729  11.660  2.7780  0.7721 -0.4775
 3492SOL     OW21937   1.513   4.198   8.266  0.6269 -1.1500  0.1707
 3492SOL    HW121938   1.536   4.203   8.359  0.9754 -2.1112  0.1328
 3492SOL    HW221939   1.433   4.251   8.258  1.7076  0.0534 -2.5541
 3493SOL     OW21940   3.221   3.605   2.913  0.0616  0.4508 -0.3025
 3493SOL    HW121941   3.163   3.568   2.980  1.9870 -1.8538  0.0906
 3493SOL    HW221942   3.261   3.673   2.967 -0.5133 -0.5514  1.4157
 3494SOL     OW21943   3.040   0.574   8.332  0.7289  0.2756 -0.0610
 3494SOL    HW121944   3.110   0.601   8.272 -0.7482 -0.5985 -2.1994
 3494SOL    HW221945   3.073   0.603   8.417 -1.1634  2.2301  0.0122
 3495SOL     OW21946   0.993   0.491   8.033 -0.7003 -0.1617 -0.1380
 3495SOL    HW121947   1.012   0.582   8.010 -1.9318  0.2624  0.5525
 3495SOL    HW221948   0.900   0.486   8.010 -1.2912 -0.4585  2.3503
 3496SOL     OW21949   2.912   1.822   1.820 -0.1513 -0.1836  0.0363
 3496SOL    HW121950   2.907   1.783   1.907 -3.3155  0.7001  0.2433
 3496SOL    HW221951   2.972   1.892   1.846  1.4373 -0.3621 -3.1271
 3497SOL     OW21952   3.812   0.055   6.158 -0.2175  0.0591  0.1888
 3497SOL    HW121953   3.866   0.096   6.091  2.5359  0.0767  2.3888
 3497SOL    HW221954   3.806   0.119   6.229 -0.7992  2.5373 -2.1076
 3498SOL     OW21955   4.397   4.227   4.635  0.2474  0.0527  0.5751
 3498SOL    HW121956   4.470   4.169   4.616  1.5776  1.4104  1.4797
 3498SOL    HW221957   4.378   4.221   4.729  1.4461  2.6657  0.9906
 3499SOL     OW21958   1.881   1.074  13.655 -0.2388  0.5200 -0.1322
 3499SOL    HW121959   1.909   0.995  13.702 -0.1868 -0.1570 -1.2975
 3499SOL    HW221960   1.929   1.064  13.573 -0.7787 -0.2517 -0.3540
 3500SOL     OW21961   1.656   3.801   8.517  0.2924 -0.8646 -0.0546
 3500SOL    HW121962   1.749   3.790   8.501  0.3470 -0.1565 -0.2536
 3500SOL    HW221963   1.621   3.763   8.436 -2.0658 -1.1016  1.0681
 3501SOL     OW21964   4.414   3.995   5.322  0.3749  0.1187  0.4016
 3501SOL    HW121965   4.437   4.086   5.301 -2.7491  1.2016  1.6462
 3501SOL    HW221966   4.333   4.004   5.372 -0.4958 -1.4300 -0.7160
 3502SOL     OW21967   1.412   4.549  10.748 -0.3625  0.8471  0.1343
 3502SOL    HW121968   1.488   4.516  10.701 -0.8429 -1.5861  1.0770
 3502SOL    HW221969   1.340   4.495  10.715  1.1553 -2.1961  1.8817
 3503SOL     OW21970   3.882   1.513   5.000 -0.6066 -0.6450  0.3446
 3503SOL    HW121971   3.810   1.564   4.963  0.6908  0.7389 -0.2662
 3503SOL    HW221972   3.905   1.556   5.082 -0.5689  2.2539 -1.2091
 3504SOL     OW21973   2.717   3.774   7.717 -0.2684 -0.0990  0.1380
 3504SOL    HW121974   2.710   3.867   7.738 -1.1875 -0.3988  1.1559
 3504SOL    HW221975   2.621   3.765   7.717 -0.0522 -2.3589  1.5640
 3505SOL     OW21976   0.750   3.920  15.891  0.2700 -0.6391 -0.1846
 3505SOL    HW121977   0.732   3.881  15.805 -1.1307 -0.8383  0.1988
 3505SOL    HW221978   0.659   3.946  15.909  1.0002  1.8116  0.0397
 3506SOL     OW21979   1.457   2.228  17.041 -0.1863 -0.3230  0.2085
 3506SOL    HW121980   1.414   2.305  17.076 -1.6263 -0.3962 -1.4400
 3506SOL    HW221981   1.392   2.158  17.031  0.5212 -0.6713 -1.9749
 3507SOL     OW21982   3.961   0.757   7.529 -0.3966  0.1603 -0.2748
 3507SOL    HW121983   3.936   0.814   7.456 -0.7227  0.0214 -0.2706
 3507SOL    HW221984   3.998   0.827   7.583  0.2194 -1.0692  0.9086
 3508SOL     OW21985   2.822   3.282   2.102 -0.4319 -0.0347 -0.0777
 3508SOL    HW121986   2.747   3.224   2.116  0.1084 -0.1584  2.2502
 3508SOL    HW221987   2.841   3.309   2.192 -0.7221  0.9205 -0.2968
 3509SOL     OW21988   3.151   1.051   2.487  0.2386  0.4295 -0.2143
 3509SOL    HW121989   3.236   1.012   2.508  0.2224 -1.1943 -3.2729
 3509SOL    HW221990   3.101   1.015   2.561 -1.5958  1.5519 -0.9028
 3510SOL     OW21991   3.966   2.267   1.450 -0.2219 -0.2150  0.2150
 3510SOL    HW121992   3.974   2.221   1.366 -0.2349  1.2055 -0.5562
 3510SOL    HW221993   3.918   2.210   1.510 -0.1265 -3.0175 -2.3625
 3511SOL     OW21994   4.017   2.608   5.985  0.8263 -0.1724  0.2361
 3511SOL    HW121995   4.001   2.701   5.973 -0.2550 -0.6199 -1.8496
 3511SOL    HW221996   4.008   2.581   5.894 -0.4252  0.2535  0.2350
 3512SOL     OW21997   0.410   3.070   2.409 -0.3427 -1.2001 -0.2696
 3512SOL    HW121998   0.483   3.060   2.470 -1.3057 -1.8041  0.7770
 3512SOL    HW221999   0.444   3.139   2.353 -0.1185 -1.4767 -0.4731
 3513SOL     OW22000   1.643   0.514  16.585  0.4041  0.0774  0.2470
 3513SOL    HW122001   1.575   0.506  16.519 -0.2541 -0.3805  0.9760
 3513SOL    HW222002   1.686   0.597  16.562 -0.5729  1.0806  2.0158
 3514SOL     OW22003   0.125   3.029   6.987  0.3400 -0.1286  0.2510
 3514SOL    HW122004   0.141   2.981   6.906  0.8641  0.0202  0.2665
 3514SOL    HW222005   0.072   3.099   6.949 -0.5826 -0.4157  1.0111
 3515SOL     OW22006   2.958   0.996   8.303 -0.1684  0.2561 -0.3576
 3515SOL    HW122007   3.032   0.936   8.314 -1.1382 -1.1337 -1.2818
 3515SOL    HW222008   2.944   1.024   8.393  0.9341  0.4685 -0.2627
 3516SOL     OW22009   3.429   2.002  14.293  0.3314  0.1178  0.1797
 3516SOL    HW122010   3.373   2.041  14.225  0.0226 -1.4110 -0.4372
 3516SOL    HW222011   3.488   2.077  14.298  1.6890 -0.8709 -0.9106
 3517SOL     OW22012   3.227   3.543   7.598 -0.4237 -0.6294 -0.0548
 3517SOL    HW122013   3.145   3.590   7.608  0.0407  0.3196 -0.7631
 3517SOL    HW222014   3.258   3.589   7.520  2.9947 -0.5392  1.3616
 3518SOL     OW22015   3.984   1.117   5.545  0.2840  0.1347  0.3884
 3518SOL    HW122016   4.077   1.106   5.562 -0.2680 -1.5023  2.2688
 3518SOL    HW222017   3.960   1.030   5.514  0.6611 -0.3112  1.3620
 3519SOL     OW22018   0.140   1.452   7.974  0.3801 -0.2872 -0.0150
 3519SOL    HW122019   0.050   1.481   7.987  0.0315 -1.2839 -0.1667
 3519SOL    HW222020   0.180   1.485   8.054  0.0254 -0.3157  0.1756
 3520SOL     OW22021   4.657   3.150  14.412 -0.7553  0.4904  0.4766
 3520SOL    HW122022   4.613   3.083  14.360 -0.6433 -0.0018  1.0211
 3520SOL    HW222023   4.580   3.174  14.464 -0.1079  1.6041  0.9433
 3521SOL     OW22024   0.994   1.178   6.535 -0.4145  0.1491  0.1544
 3521SOL    HW122025   1.062   1.230   6.491 -0.9977  0.4406 -0.4080
 3521SOL    HW222026   0.952   1.258   6.569  0.7900  0.6275  0.5225
 3522SOL     OW22027   0.623   0.866   6.620  0.3775 -0.4947 -0.0795
 3522SOL    HW122028   0.573   0.948   6.625  1.3531  0.1360 -0.6524
 3522SOL    HW222029   0.619   0.843   6.712  0.0290 -0.3349 -0.0523
 3523SOL     OW22030   4.121   0.468   7.730 -0.1925  0.5989 -0.0937
 3523SOL    HW122031   4.212   0.457   7.757 -0.7496 -2.8394  0.3333
 3523SOL    HW222032   4.104   0.554   7.770  1.0317  1.4714 -1.4111
 3524SOL     OW22033   4.107   4.087   1.899  0.5979  0.5489 -0.4699
 3524SOL    HW122034   4.057   4.103   1.979 -1.1824 -1.7257 -1.1046
 3524SOL    HW222035   4.066   4.018   1.846 -2.0979  2.7052 -1.1682
 3525SOL     OW22036   2.260   3.800   8.007 -0.0647  0.4436  0.2422
 3525SOL    HW122037   2.289   3.797   8.098  0.6150 -1.0473 -0.0258
 3525SOL    HW222038   2.223   3.888   8.004  0.7931  0.8208  0.7970
 3526SOL     OW22039   4.508   3.588   1.226  0.1706 -0.6003  0.0371
 3526SOL    HW122040   4.451   3.617   1.154 -0.9832  0.0979  1.2362
 3526SOL    HW222041   4.554   3.516   1.182 -0.6046 -1.4412  0.5957
 3527SOL     OW22042   1.106   2.066   7.940 -0.1552 -0.5740 -0.0508
 3527SOL    HW122043   1.142   2.112   7.864 -0.0880 -2.7093 -1.3063
 3527SOL    HW222044   1.077   2.140   7.993 -1.5597 -1.6161  0.6475
 3528SOL     OW22045   1.280   1.272   0.165 -0.1219  0.0421  0.2565
 3528SOL    HW122046   1.324   1.191   0.193 -0.3332  0.6689  2.3821
 3528SOL    HW222047   1.270   1.251   0.072 -0.5553 -1.4349  0.6362
 3529SOL     OW22048   2.270   4.557   3.943 -0.0488 -0.2324  0.0701
 3529SOL    HW122049   2.354   4.577   3.902 -0.5172 -1.1395 -1.3441
 3529SOL    HW222050   2.276   4.595   4.030  1.8434  3.4299 -1.6711
 3530SOL     OW22051   2.091   4.464  14.020  0.2724 -0.4308 -0.1169
 3530SOL    HW122052   2.035   4.452  14.097  1.7023  1.4043  1.2296
 3530SOL    HW222053   2.163   4.512  14.062 -0.7670  1.1074 -0.0775
 3531SOL     OW22054   3.597   3.829   8.982 -0.4253  0.5523  0.0185
 3531SOL    HW122055   3.606   3.879   9.063  1.0851 -0.7646  0.6704
 3531SOL    HW222056   3.559   3.748   9.018  1.5581 -0.7851 -0.8830
 3532SOL     OW22057   0.360   1.643   0.899 -0.0797  0.5516 -0.7086
 3532SOL    HW122058   0.274   1.679   0.921 -0.5515 -0.1664 -1.4013
 3532SOL    HW222059   0.403   1.728   0.886  0.8176  0.4023  1.2685
 3533SOL     OW22060   1.050   4.596  14.827  0.0391  0.2307 -0.6753
 3533SOL    HW122061   1.068   4.584  14.734 -0.8002 -4.4177 -0.2747
 3533SOL    HW222062   0.960   4.562  14.830  0.4083 -0.7384 -0.3815
 3534SOL     OW22063   0.265   2.897   7.157  0.2330  0.1169 -0.0358
 3534SOL    HW122064   0.224   2.952   7.089 -0.3066 -0.1599  0.0699
 3534SOL    HW222065   0.249   2.809   7.124 -1.4594  0.2091  0.5570
 3535SOL     OW22066   2.836   2.236   5.963  0.0388 -0.4470  0.1574
 3535SOL    HW122067   2.761   2.263   5.910 -0.2184  1.1921  1.3402
 3535SOL    HW222068   2.849   2.313   6.020  0.5764  0.6043 -1.3901
 3536SOL     OW22069   0.835   0.031  13.880  0.3173  0.2673 -0.2578
 3536SOL    HW122070   0.819   0.003  13.790 -2.5174 -0.9284  0.6171
 3536SOL    HW222071   0.931   0.032  13.885  0.2474 -0.9613  1.1888
 3537SOL     OW22072   1.270   2.419   6.040  0.4965 -0.4149 -0.2182
 3537SOL    HW122073   1.210   2.387   5.973 -0.3918 -2.1247  1.3907
 3537SOL    HW222074   1.244   2.511   6.042  1.3744 -0.1668 -0.2085
 3538SOL     OW22075   3.320   2.075  11.758  0.1700  0.0565  0.0255
 3538SOL    HW122076   3.273   2.114  11.831 -0.2405  0.9117 -0.7079
 3538SOL    HW222077   3.407   2.114  11.772  0.7851 -0.7011 -1.6891
 3539SOL     OW22078   2.382   2.424   6.253  0.2035  0.2457 -0.4931
 3539SOL    HW122079   2.394   2.507   6.300 -0.0042  0.3416 -0.6100
 3539SOL    HW222080   2.404   2.453   6.164 -0.4817  1.0660 -0.3953
 3540SOL     OW22081   0.619   1.620   4.071  0.2768  0.4357 -0.1760
 3540SOL    HW122082   0.534   1.650   4.104  0.1742 -0.2696  0.2048
 3540SOL    HW222083   0.599   1.527   4.068  0.2953  0.4787 -1.9035
 3541SOL     OW22084   1.187   0.990   6.851  0.4940 -0.5341  0.8584
 3541SOL    HW122085   1.148   0.932   6.917 -0.8866  1.7551  2.0598
 3541SOL    HW222086   1.214   1.063   6.907  3.6389 -0.3672 -0.9080
 3542SOL     OW22087   3.103   2.807   5.194  0.6296  0.6111  0.3421
 3542SOL    HW122088   3.172   2.787   5.256  0.3670  2.8109  1.3501
 3542SOL    HW222089   3.103   2.724   5.146  0.8526 -0.0035  1.3889
 3543SOL     OW22090   4.679   0.923   8.197  0.1964  0.0724  0.3196
 3543SOL    HW122091   0.036   0.965   8.223  0.0905  0.0583  0.6731
 3543SOL    HW222092   4.708   0.839   8.231  0.7343  0.9181  1.9249
 3544SOL     OW22093   2.509   0.669   6.721  0.3871 -0.5161 -0.2431
 3544SOL    HW122094   2.470   0.656   6.635  0.4096  0.0743 -0.3390
 3544SOL    HW222095   2.601   0.688   6.706  1.0717 -1.8181  2.2257
 3545SOL     OW22096   3.630   1.289   0.329 -0.7287  0.4965 -0.7306
 3545SOL    HW122097   3.624   1.327   0.242 -0.7563  1.0075 -0.5028
 3545SOL    HW222098   3.686   1.347   0.380 -0.8685  1.3552 -1.5450
 3546SOL     OW22099   0.835   4.467   3.347 -0.2684 -0.4172  0.3413
 3546SOL    HW122100   0.886   4.466   3.428  2.4975  0.6869 -1.3917
 3546SOL    HW222101   0.847   4.555   3.312 -4.0335 -0.7395 -1.7858
 3547SOL     OW22102   4.304   3.999   4.084  0.2182  0.4686 -0.5656
 3547SOL    HW122103   4.287   4.066   4.018 -0.7877 -2.2129 -3.0341
 3547SOL    HW222104   4.333   3.928   4.027 -1.9657 -0.2251 -0.8074
 3548SOL     OW22105   1.068   3.808  14.209  0.4020  0.5032 -0.1603
 3548SOL    HW122106   1.065   3.761  14.292 -1.3935 -0.1874 -0.6191
 3548SOL    HW222107   0.996   3.767  14.162  0.0258 -1.3186  1.9923
 3549SOL     OW22108   4.379   3.018  15.074  0.0899 -0.6895  0.0151
 3549SOL    HW122109   4.342   2.933  15.096 -2.8542  0.3592 -0.9628
 3549SOL    HW222110   4.303   3.068  15.044  0.0301  0.4733  2.1299
 3550SOL     OW22111   1.221   4.258  15.450  0.2642 -0.3224 -0.2157
 3550SOL    HW122112   1.242   4.223  15.363 -2.8960 -1.3117 -0.5847
 3550SOL    HW222113   1.135   4.219  15.464  0.1415 -0.1736 -0.5364
 3551SOL     OW22114   1.313   3.528   7.722  0.0370  0.0476  0.0477
 3551SOL    HW122115   1.392   3.580   7.723  1.9240 -2.7477 -3.0401
 3551SOL    HW222116   1.336   3.470   7.795 -0.2511 -0.2855 -0.1209
 3552SOL     OW22117   4.716   3.295   7.115  0.0733  0.1494  0.4826
 3552SOL    HW122118   4.701   3.315   7.022  0.6946 -0.3528  0.2735
 3552SOL    HW222119   4.651   3.226   7.125  0.9534 -0.4955  1.6987
 3553SOL     OW22120   4.177   1.718   0.214  0.1702 -0.4713  0.2602
 3553SOL    HW122121   4.271   1.734   0.207  0.0783 -0.1613 -0.2823
 3553SOL    HW222122   4.165   1.758   0.300  2.0213 -0.4223  0.4987
 3554SOL     OW22123   3.713   1.969   8.193 -0.1716 -0.1962  0.1210
 3554SOL    HW122124   3.808   1.962   8.192 -0.1307  0.6128 -1.5066
 3554SOL    HW222125   3.702   2.063   8.180  1.5213 -0.1473 -0.8696
 3555SOL     OW22126   4.599   3.172   3.554 -0.2218 -0.4950 -0.1792
 3555SOL    HW122127   4.587   3.102   3.617 -3.8331 -1.3031 -1.7714
 3555SOL    HW222128   4.694   3.166   3.544 -0.5177 -2.7578 -1.6130
 3556SOL     OW22129   2.590   1.668   7.980  0.0370  0.1117  0.2015
 3556SOL    HW122130   2.500   1.641   7.960  1.1630 -4.3231  1.2158
 3556SOL    HW222131   2.614   1.702   7.894  1.8548 -1.8927 -0.0685
 3557SOL     OW22132   0.986   1.867   8.235  0.2862 -0.0058  0.1050
 3557SOL    HW122133   0.956   1.782   8.201 -1.0782  1.3690 -2.2088
 3557SOL    HW222134   1.077   1.852   8.211  0.4567 -0.0847  0.8086
 3558SOL     OW22135   2.206   1.809   1.331  0.4179  0.3710 -0.1871
 3558SOL    HW122136   2.165   1.800   1.417 -1.4223 -1.6594 -1.2653
 3558SOL    HW222137   2.300   1.818   1.347  0.0809 -0.1525  2.0971
 3559SOL     OW22138   2.037   0.630   1.119 -0.4795 -0.5026 -0.5406
 3559SOL    HW122139   2.025   0.724   1.103 -0.3441 -0.3487  0.2831
 3559SOL    HW222140   2.132   0.641   1.129 -0.8261  0.8129  1.4019
 3560SOL     OW22141   0.569   4.154   0.964  0.1615 -0.1986  0.2995
 3560SOL    HW122142   0.555   4.104   1.045 -0.1778  0.5494  0.7126
 3560SOL    HW222143   0.608   4.235   0.998 -0.9944 -0.5257  2.4250
 3561SOL     OW22144   2.068   3.290  11.898  0.7787  0.1778  0.9770
 3561SOL    HW122145   2.016   3.325  11.825 -0.2264 -0.4551  1.3953
 3561SOL    HW222146   2.034   3.201  11.894 -0.2883  0.6588 -0.8702
 3562SOL     OW22147   1.858   2.333   4.830 -0.2402  0.4105 -0.6106
 3562SOL    HW122148   1.794   2.399   4.854  1.7579  1.8722  0.7400
 3562SOL    HW222149   1.810   2.270   4.776 -0.8904  0.6812 -0.3437
 3563SOL     OW22150   2.821   3.734  12.171  0.1153 -0.2697 -0.0023
 3563SOL    HW122151   2.803   3.803  12.236  2.3137 -0.0498  0.3688
 3563SOL    HW222152   2.876   3.676  12.222 -0.9632 -1.3575 -0.0647
 3564SOL     OW22153   2.044   4.655   7.622 -0.0244 -0.0656  0.3405
 3564SOL    HW122154   2.095   4.643   7.702 -0.6473  2.6216  1.1629
 3564SOL    HW222155   1.974   4.592   7.639  0.0001  0.3155  1.9543
 3565SOL     OW22156   0.788   3.221   6.735  0.1812  0.2193 -0.2530
 3565SOL    HW122157   0.872   3.261   6.709  1.8466 -1.3149  2.7861
 3565SOL    HW222158   0.790   3.140   6.684  1.7019  0.2786 -0.3078
 3566SOL     OW22159   3.422   1.845   2.774 -0.0795 -0.6111 -0.5943
 3566SOL    HW122160   3.435   1.757   2.811  1.1858  0.0210  0.4887
 3566SOL    HW222161   3.497   1.848   2.714  1.2360 -2.2754  0.9251
 3567SOL     OW22162   3.445   2.413   5.919  0.1386  0.0118  0.4548
 3567SOL    HW122163   3.537   2.393   5.900  0.2780  0.3428  0.7778
 3567SOL    HW222164   3.464   2.480   5.985 -1.2682  0.2828  0.5904
 3568SOL     OW22165   4.324   2.896   5.185 -0.1761 -0.3940 -0.0034
 3568SOL    HW122166   4.274   2.855   5.255  0.4781  0.6396  1.0721
 3568SOL    HW222167   4.264   2.970   5.184 -1.4910 -1.4459  0.8021
 3569SOL     OW22168   2.597   4.404   9.435  0.2204  0.3911  0.1253
 3569SOL    HW122169   2.616   4.407   9.529 -0.0562  0.4129  0.1805
 3569SOL    HW222170   2.609   4.310   9.424  1.1273  0.5934 -0.5830
 3570SOL     OW22171   0.708   1.322   8.461 -0.5937 -0.2369 -0.0551
 3570SOL    HW122172   0.637   1.295   8.520 -0.5013  0.3315  0.3194
 3570SOL    HW222173   0.710   1.418   8.464 -1.2351 -0.2455  0.5336
 3571SOL     OW22174   3.247   3.230  17.178  0.0457 -0.3442  0.2386
 3571SOL    HW122175   3.181   3.189  17.123 -2.5344  2.0748  1.5339
 3571SOL    HW222176   3.324   3.216  17.124 -0.7091 -0.4560 -0.7906
 3572SOL     OW22177   3.289   1.467   7.043  0.2630  0.1731 -0.4553
 3572SOL    HW122178   3.377   1.498   7.062 -0.5986  3.7788 -2.2623
 3572SOL    HW222179   3.237   1.534   7.089 -1.1745 -0.8671 -0.5779
 3573SOL     OW22180   2.539   0.681   6.362  0.6050 -0.1895 -0.3528
 3573SOL    HW122181   2.466   0.734   6.331 -2.2984 -2.4511  2.6495
 3573SOL    HW222182   2.492   0.632   6.429  0.8074 -2.3421 -1.7714
 3574SOL     OW22183   0.798   4.564  17.492  0.1084 -0.0238  0.0782
 3574SOL    HW122184   0.749   4.495  17.537  0.5186 -0.4593 -0.1479
 3574SOL    HW222185   0.738   4.592  17.424  1.1524  0.1159 -0.7900
 3575SOL     OW22186   0.190   0.158   4.624  0.1784  0.0999  0.0288
 3575SOL    HW122187   0.208   0.095   4.693  1.7055  0.4003 -0.0942
 3575SOL    HW222188   0.104   0.140   4.586 -0.3994  2.3529  0.2631
 3576SOL     OW22189   3.698   1.463   8.968 -0.0689 -0.3408 -0.7300
 3576SOL    HW122190   3.745   1.517   8.904  2.2286 -0.0738  1.1681
 3576SOL    HW222191   3.771   1.402   8.979  0.9301  0.8379 -0.7941
 3577SOL     OW22192   4.117   0.965  11.395  0.0539  0.7661  0.7749
 3577SOL    HW122193   4.192   0.910  11.416  0.4899  2.1442  2.8461
 3577SOL    HW222194   4.160   1.014  11.324 -0.7956  0.0981 -0.2042
 3578SOL     OW22195   0.718   1.061  10.676  0.0724 -0.2760  0.5098
 3578SOL    HW122196   0.685   1.060  10.586 -0.0562 -0.2494  0.5577
 3578SOL    HW222197   0.636   1.052  10.723 -0.2050 -2.6025 -0.4213
 3579SOL     OW22198   1.453   0.264   6.690 -0.3160  0.0856  0.5439
 3579SOL    HW122199   1.452   0.286   6.596 -1.7772 -2.6625 -0.0893
 3579SOL    HW222200   1.544   0.238   6.703  0.4848  2.1846 -0.7267
 3580SOL     OW22201   3.690   2.033   2.919  0.3195  0.1388 -0.5763
 3580SOL    HW122202   3.786   2.025   2.920  0.3201  0.2594  2.3738
 3580SOL    HW222203   3.673   2.019   2.826  0.3015 -0.8750 -0.4200
 3581SOL     OW22204   0.571   3.545   0.920  0.6525  0.7044 -0.5551
 3581SOL    HW122205   0.574   3.574   1.011  0.8192  0.8861 -0.6184
 3581SOL    HW222206   0.487   3.500   0.926  0.8690  0.7887  3.0138
 3582SOL     OW22207   0.771   3.473  17.455 -0.4338  0.0406 -0.1268
 3582SOL    HW122208   0.729   3.424  17.525 -0.9786  0.1581 -0.3694
 3582SOL    HW222209   0.786   3.402  17.391 -0.0412  0.1977 -0.2119
 3583SOL     OW22210   3.012   4.301   3.091  0.5978  0.1541 -1.0204
 3583SOL    HW122211   3.040   4.392   3.077  0.3061  0.5594  0.8644
 3583SOL    HW222212   3.091   4.267   3.133  1.1533  0.9874 -1.3913
 3584SOL     OW22213   0.760   4.252  11.293  0.0239  0.1715 -0.3597
 3584SOL    HW122214   0.704   4.180  11.262 -0.1181 -0.5725  1.6610
 3584SOL    HW222215   0.847   4.213  11.300  0.0578  0.6831  1.9315
 3585SOL     OW22216   2.186   3.004  14.477 -0.1292  0.3106  0.1614
 3585SOL    HW122217   2.151   2.920  14.508  2.1287 -0.1186  1.5129
 3585SOL    HW222218   2.240   2.985  14.400 -1.4923 -0.0865 -0.6962
 3586SOL     OW22219   1.378   1.221   0.674  0.4661  0.3381 -0.0504
 3586SOL    HW122220   1.325   1.193   0.749  1.8383 -0.1898  0.7243
 3586SOL    HW222221   1.425   1.292   0.717  0.9902 -0.7612  1.1910
 3587SOL     OW22222   3.907   2.206   9.358  0.0683 -0.2360 -0.2220
 3587SOL    HW122223   3.867   2.273   9.413  2.6091 -0.3712  1.8349
 3587SOL    HW222224   3.880   2.126   9.402  3.0242 -0.9627  0.2575
 3588SOL     OW22225   2.602   1.938  11.306  0.3716 -0.0887  0.5507
 3588SOL    HW122226   2.660   1.963  11.234 -0.2707 -0.4178 -0.0751
 3588SOL    HW222227   2.657   1.871  11.347  0.1747 -0.2978  0.4764
 3589SOL     OW22228   3.143   1.489  13.494  0.1755  0.2605  0.6838
 3589SOL    HW122229   3.070   1.530  13.542 -1.5966 -0.3826 -1.4652
 3589SOL    HW222230   3.212   1.477  13.559  0.9953  0.5692 -0.1168
 3590SOL     OW22231   4.435   2.313  13.443 -0.2352 -0.2706  0.0489
 3590SOL    HW122232   4.371   2.382  13.461 -1.5206 -1.3154 -0.5246
 3590SOL    HW222233   4.481   2.344  13.366 -0.7701 -0.8063 -0.4835
 3591SOL     OW22234   0.996   0.809   6.202 -0.0017  0.4730  0.0373
 3591SOL    HW122235   0.963   0.822   6.113 -1.0843 -0.9048  0.2272
 3591SOL    HW222236   0.931   0.862   6.247 -1.1182 -1.6452  0.9189
 3592SOL     OW22237   3.904   1.880   3.390  0.4993  0.0882  0.3254
 3592SOL    HW122238   3.920   1.908   3.480 -1.5873  0.4546  0.5994
 3592SOL    HW222239   3.899   1.962   3.341 -0.4162 -0.7836 -1.0342
 3593SOL     OW22240   2.215   4.495   6.077 -0.4979 -0.0640  0.4380
 3593SOL    HW122241   2.234   4.432   6.146 -1.7817  1.1532  1.8857
 3593SOL    HW222242   2.223   4.576   6.128  1.4669  0.9287 -1.4377
 3594SOL     OW22243   0.366   1.654   5.345  0.4284  0.1254  0.4404
 3594SOL    HW122244   0.418   1.608   5.411 -0.8626 -0.6297  0.9350
 3594SOL    HW222245   0.312   1.584   5.309 -1.1823  0.6035  1.9581
 3595SOL     OW22246   1.743   2.959   5.850 -0.1647  0.3403 -0.4232
 3595SOL    HW122247   1.663   2.930   5.807  0.1730 -0.5418 -0.4749
 3595SOL    HW222248   1.812   2.927   5.792 -0.1292  0.8582 -0.6653
 3596SOL     OW22249   2.119   0.254   5.046 -0.7351 -0.5024  0.4120
 3596SOL    HW122250   2.079   0.336   5.075 -2.4690 -1.4231  0.6385
 3596SOL    HW222251   2.059   0.196   5.092 -0.7911 -1.6443 -1.0879
 3597SOL     OW22252   2.059   1.183   5.851  0.0468 -0.3409  0.2198
 3597SOL    HW122253   2.083   1.276   5.853  1.5736 -0.7073 -0.4473
 3597SOL    HW222254   2.073   1.164   5.758  0.4511 -0.5310  0.3206
 3598SOL     OW22255   0.353   2.258   2.586  0.3960  0.4972  0.1572
 3598SOL    HW122256   0.304   2.339   2.603  0.1460  0.4473 -0.3186
 3598SOL    HW222257   0.337   2.246   2.493 -1.0622 -0.3315  0.5163
 3599SOL     OW22258   4.508   4.114   2.847  0.0988 -0.0196 -0.4077
 3599SOL    HW122259   4.479   4.023   2.836 -1.2731  0.5327 -1.3843
 3599SOL    HW222260   4.577   4.126   2.782 -0.5354 -3.0167 -1.6583
 3600SOL     OW22261   3.723   3.329   6.528 -0.8133  0.7302 -0.1188
 3600SOL    HW122262   3.800   3.273   6.520  0.0282  1.6115  1.9138
 3600SOL    HW222263   3.750   3.376   6.607  0.2290  0.4661 -0.3124
 3601SOL     OW22264   2.899   1.922   5.224  0.1612 -0.3149 -0.5429
 3601SOL    HW122265   2.865   1.847   5.275  0.6158 -0.1496  0.0068
 3601SOL    HW222266   2.975   1.937   5.281 -2.3377 -1.1525  3.0250
 3602SOL     OW22267   2.393   3.999  12.074  0.8878 -0.2843 -0.3129
 3602SOL    HW122268   2.428   3.989  11.985  3.3896 -0.1511  0.6630
 3602SOL    HW222269   2.321   4.061  12.058 -0.2510 -1.5954 -0.2431
 3603SOL     OW22270   0.171   2.305   6.708 -0.4973  0.3619  0.5562
 3603SOL    HW122271   0.079   2.301   6.681 -1.1803  3.2102  2.4238
 3603SOL    HW222272   0.166   2.350   6.793 -3.2592 -2.7347  2.0502
 3604SOL     OW22273   2.766   4.446  13.542 -0.8129  0.2546  0.2187
 3604SOL    HW122274   2.697   4.379  13.546 -0.8940  0.2763 -0.6204
 3604SOL    HW222275   2.745   4.489  13.624 -3.0425 -0.3695 -0.0179
 3605SOL     OW22276   2.042   4.116  15.309 -0.3658 -0.0441  0.1659
 3605SOL    HW122277   1.975   4.067  15.357 -1.0765  1.2151  0.4442
 3605SOL    HW222278   2.075   4.178  15.373  0.3538  0.7259 -0.9589
 3606SOL     OW22279   2.087   1.921   8.500 -0.0405  0.2935 -0.4682
 3606SOL    HW122280   2.180   1.921   8.479 -0.2345  1.3553 -1.3390
 3606SOL    HW222281   2.087   1.917   8.596 -0.0856  2.1169 -0.3951
 3607SOL     OW22282   3.053   2.636  12.274  0.2963 -0.0455  0.5525
 3607SOL    HW122283   3.108   2.654  12.350  0.6196 -0.4246  0.4070
 3607SOL    HW222284   3.026   2.725  12.250  1.4891  0.9219  2.7543
 3608SOL     OW22285   0.387   0.653   4.539  0.0739 -0.4442 -0.1049
 3608SOL    HW122286   0.364   0.561   4.552  0.4359 -0.7272 -1.4523
 3608SOL    HW222287   0.383   0.684   4.629 -2.9154 -1.6763  0.1640
 3609SOL     OW22288   2.581   4.509   5.988  0.0581  0.1581  0.1089
 3609SOL    HW122289   2.563   4.602   6.002  1.0754  0.3996 -0.1787
 3609SOL    HW222290   2.642   4.486   6.057  1.9917  0.5940 -1.4671
 3610SOL     OW22291   2.539   4.291  11.778 -0.1075 -0.3480 -0.6449
 3610SOL    HW122292   2.542   4.340  11.860 -2.3063 -2.0649  0.4446
 3610SOL    HW222293   2.604   4.343  11.730 -0.6551 -1.2786 -2.3845
 3611SOL     OW22294   1.304   0.743  14.455  0.0819  0.3680  0.0911
 3611SOL    HW122295   1.328   0.835  14.447 -0.4298  0.2843 -2.2437
 3611SOL    HW222296   1.236   0.733  14.388  0.9710 -1.0175 -0.5927
 3612SOL     OW22297   4.253   2.305   4.249  0.3473  0.2312 -0.0613
 3612SOL    HW122298   4.306   2.353   4.185  0.0257  0.9951  0.2486
 3612SOL    HW222299   4.313   2.256   4.305  0.8374 -1.4876 -2.0631
 3613SOL     OW22300   2.533   3.042   9.019 -0.0148  0.1963  0.3359
 3613SOL    HW122301   2.524   3.065   9.112  1.6324  0.5846  0.3917
 3613SOL    HW222302   2.614   2.991   9.021  0.2108  0.4747 -1.6270
 3614SOL     OW22303   4.342   3.513   7.984  0.3946  0.2098  0.2698
 3614SOL    HW122304   4.294   3.487   8.063  0.4537  2.6425  1.1136
 3614SOL    HW222305   4.274   3.562   7.938 -0.3336 -1.1739 -0.1378
 3615SOL     OW22306   0.123   4.430   7.837 -0.6533 -0.6595 -0.6107
 3615SOL    HW122307   0.183   4.357   7.820 -0.1194 -0.2021 -0.6842
 3615SOL    HW222308   0.145   4.463   7.924  1.1499  1.9210 -2.0327
 3616SOL     OW22309   2.801   0.066   2.442  0.2611  0.0145 -0.6319
 3616SOL    HW122310   2.849   0.111   2.372  2.2703 -0.1979  0.5930
 3616SOL    HW222311   2.843   0.108   2.517  0.7196  0.7044 -1.2723
 3617SOL     OW22312   2.077   0.525  17.394  0.1858  0.1718  0.1452
 3617SOL    HW122313   2.124   0.576  17.328 -0.1212  2.2291  1.5112
 3617SOL    HW222314   2.093   0.437  17.361 -0.1014  0.6964 -1.3750
 3618SOL     OW22315   1.641   4.291   1.657 -0.4699 -0.1798 -0.1739
 3618SOL    HW122316   1.643   4.290   1.562  0.3974  0.3343 -0.1560
 3618SOL    HW222317   1.713   4.351   1.677 -1.1988  1.0013 -1.1092
 3619SOL     OW22318   4.719   4.038  16.564  0.0001  0.0414  0.1079
 3619SOL    HW122319   4.701   3.959  16.513 -0.4607 -0.7123  1.4390
 3619SOL    HW222320   0.090   4.033  16.570  0.1855  3.3820 -0.1154
 3620SOL     OW22321   2.726   3.877  10.634 -0.2483 -0.5066 -0.1170
 3620SOL    HW122322   2.669   3.950  10.657 -1.3650 -1.2570 -0.4423
 3620SOL    HW222323   2.813   3.914  10.642 -0.4335  0.0093 -0.5499
 3621SOL     OW22324   1.594   0.968   4.153 -0.1285 -0.1986 -0.0279
 3621SOL    HW122325   1.519   1.027   4.156 -0.8599 -1.2071  1.5241
 3621SOL    HW222326   1.577   0.919   4.234  0.9998 -0.0684  0.2946
 3622SOL     OW22327   0.459   4.106   4.181 -0.2251 -0.1169 -0.0897
 3622SOL    HW122328   0.471   4.023   4.135  1.5828 -0.4583  1.0087
 3622SOL    HW222329   0.549   4.136   4.179 -0.5370  0.7754 -0.6881
 3623SOL     OW22330   3.711   3.669   7.047 -0.2936 -0.3790  0.1028
 3623SOL    HW122331   3.760   3.594   7.082 -2.2394 -1.9705 -0.5464
 3623SOL    HW222332   3.706   3.725   7.124 -2.7660  1.3655 -1.3228
 3624SOL     OW22333   1.300   1.556   9.085 -0.5454 -0.0047 -0.2722
 3624SOL    HW122334   1.286   1.482   9.143 -0.2624  0.7667  0.7943
 3624SOL    HW222335   1.345   1.620   9.141 -1.5403 -0.0528  0.5736
 3625SOL     OW22336   0.354   1.300   8.196  0.2512  0.8493 -0.8312
 3625SOL    HW122337   0.415   1.248   8.144  0.1056 -0.2341  0.0812
 3625SOL    HW222338   0.372   1.278   8.287 -0.3781 -0.3166 -0.9862
 3626SOL     OW22339   4.081   0.101   7.136  0.1343 -0.2094  0.6055
 3626SOL    HW122340   4.144   0.037   7.166  1.9281  1.2471 -0.0193
 3626SOL    HW222341   4.028   0.100   7.215 -0.3891  1.7586  0.2973
 3627SOL     OW22342   1.100   4.080   4.687 -0.4592  0.1150 -0.5708
 3627SOL    HW122343   1.057   4.030   4.756  2.6151  1.5075  2.3617
 3627SOL    HW222344   1.065   4.167   4.705  0.1511  0.5827 -1.5818
 3628SOL     OW22345   0.591   0.826  11.432 -0.0783 -0.1848  0.6803
 3628SOL    HW122346   0.665   0.765  11.437 -0.2452 -0.5203 -0.7737
 3628SOL    HW222347   0.520   0.783  11.480  1.7017 -1.9250  1.7859
 3629SOL     OW22348   1.855   2.769   7.453  0.2417 -0.1340 -0.8618
 3629SOL    HW122349   1.880   2.830   7.384  0.6462 -1.2823 -1.7352
 3629SOL    HW222350   1.835   2.825   7.528 -1.3445  0.2923 -1.6114
 3630SOL     OW22351   1.277   4.410  13.481  0.1875  0.2505 -0.0168
 3630SOL    HW122352   1.328   4.459  13.545  2.7674 -0.8407 -1.2620
 3630SOL    HW222353   1.347   4.385  13.422 -1.8362  0.5750 -2.5406
 3631SOL     OW22354   0.757   2.660  11.491 -0.6859 -0.4234 -0.1703
 3631SOL    HW122355   0.805   2.699  11.419 -0.8295  0.1509  0.0491
 3631SOL    HW222356   0.775   2.567  11.476 -2.0006 -0.0330 -4.0400
 3632SOL     OW22357   4.132   1.380   9.629  0.2658  0.1548  0.1735
 3632SOL    HW122358   4.128   1.305   9.688  1.2686 -1.9082 -2.3822
 3632SOL    HW222359   4.221   1.409   9.650  0.8825  0.4511 -2.8876
 3633SOL     OW22360   4.660   3.558   7.160 -0.2854 -0.2702 -0.0679
 3633SOL    HW122361   4.660   3.625   7.230 -2.3501 -0.8300  0.4809
 3633SOL    HW222362   4.690   3.477   7.201  1.2757 -0.0250 -0.7391
 3634SOL     OW22363   0.835   0.711   9.095 -0.1459 -0.3237  0.7551
 3634SOL    HW122364   0.912   0.671   9.054 -1.2102  0.4823 -2.0014
 3634SOL    HW222365   0.855   0.686   9.185  3.0911  0.2640  0.2177
 3635SOL     OW22366   2.036   4.244   8.213 -0.1565 -0.2957 -0.6393
 3635SOL    HW122367   2.096   4.264   8.285  0.3582  0.5182 -1.2882
 3635SOL    HW222368   2.002   4.333   8.208  3.6061  1.2615  2.0906
 3636SOL     OW22369   1.297   0.132   4.510  0.0344  0.2331  0.2522
 3636SOL    HW122370   1.232   0.203   4.509 -0.7606 -0.5094 -0.3412
 3636SOL    HW222371   1.337   0.143   4.597  0.3845 -1.8847  0.3639
 3637SOL     OW22372   1.925   2.212  10.580 -0.2095 -0.0990  0.1364
 3637SOL    HW122373   1.950   2.154  10.652  0.6383  1.2736  0.9545
 3637SOL    HW222374   1.947   2.299  10.614 -3.4814  0.1228  1.7487
 3638SOL     OW22375   0.281   0.143   2.031  0.1698 -0.0310  0.7139
 3638SOL    HW122376   0.273   0.055   2.066  0.4171  0.0988  1.0937
 3638SOL    HW222377   0.240   0.189   2.104 -1.5711  0.7426 -0.7606
 3639SOL     OW22378   2.393   4.230   3.184 -0.2027  0.3667 -0.4717
 3639SOL    HW122379   2.376   4.278   3.103 -0.6125  2.1270  0.6582
 3639SOL    HW222380   2.456   4.288   3.227 -0.1203 -0.5696  0.6908
 3640SOL     OW22381   0.734   3.907   8.533 -0.1891  1.0131  0.3267
 3640SOL    HW122382   0.793   3.855   8.587  1.4560  2.0153 -0.5294
 3640SOL    HW222383   0.721   3.853   8.455  2.3519  2.5203 -1.1322
 3641SOL     OW22384   0.558   1.456   7.640  0.0683 -0.0711  0.1161
 3641SOL    HW122385   0.622   1.389   7.664 -1.0415 -1.7984 -1.6915
 3641SOL    HW222386   0.500   1.441   7.715  0.7737  1.2614  0.9394
 3642SOL     OW22387   0.138   4.472  15.061  0.0674 -0.4973  0.2657
 3642SOL    HW122388   0.176   4.387  15.081  1.2340  0.5776  2.6357
 3642SOL    HW222389   0.057   4.466  15.113 -0.4389 -1.0984 -0.5919
 3643SOL     OW22390   4.174   0.889   0.092 -0.7038 -0.0619  0.3417
 3643SOL    HW122391   4.269   0.889   0.102 -0.9232 -0.5505  2.3891
 3643SOL    HW222392   4.146   0.913   0.180 -2.5672 -0.4121 -0.1547
 3644SOL     OW22393   3.434   3.930  11.525  0.0589  0.0618 -0.0142
 3644SOL    HW122394   3.421   3.956  11.616 -2.1894  0.8240 -0.5462
 3644SOL    HW222395   3.357   3.973  11.487  2.0407  2.2683 -1.5089
 3645SOL     OW22396   2.719   4.054   2.519 -0.0756  0.4285  0.1822
 3645SOL    HW122397   2.686   4.140   2.546 -2.3822 -0.7260  1.0336
 3645SOL    HW222398   2.752   4.082   2.434 -0.1562  1.2795  0.4317
 3646SOL     OW22399   1.545   1.276   1.858  0.1489 -0.6771  0.4284
 3646SOL    HW122400   1.582   1.188   1.870  2.3148  0.4085  1.8158
 3646SOL    HW222401   1.586   1.301   1.774 -1.4783 -1.1565 -0.5083
 3647SOL     OW22402   0.654   4.249   3.364 -0.5301 -0.2789  0.0817
 3647SOL    HW122403   0.714   4.321   3.384 -2.2359  0.4827  2.5071
 3647SOL    HW222404   0.720   4.190   3.327  0.5375  0.7276  0.3692
 3648SOL     OW22405   2.788   1.970   0.007  0.0673  0.2018  0.1746
 3648SOL    HW122406   2.817   2.058  17.682 -2.3256  0.8675 -0.2450
 3648SOL    HW222407   2.721   1.950  17.642 -0.9031  1.4995  0.7758
 3649SOL     OW22408   2.960   0.251   7.673  0.2420 -0.0592 -0.2823
 3649SOL    HW122409   3.032   0.264   7.735 -0.3117  1.8711 -0.0238
 3649SOL    HW222410   2.899   0.206   7.730 -0.6532  0.7026 -0.6445
 3650SOL     OW22411   1.087   2.054  12.788  0.0427  0.6435  0.4855
 3650SOL    HW122412   1.116   1.964  12.804  0.5541  0.9386  1.2579
 3650SOL    HW222413   1.127   2.065  12.702  0.1402 -1.5630  0.2405
 3651SOL     OW22414   2.878   2.094  17.395 -0.0904 -0.1724  0.0518
 3651SOL    HW122415   2.854   2.158  17.462  1.8243  0.0957  0.4828
 3651SOL    HW222416   2.799   2.039  17.406 -0.9913  0.8103 -1.5676
 3652SOL     OW22417   1.621   0.324   8.725 -0.5993 -0.1408 -0.9171
 3652SOL    HW122418   1.663   0.240   8.743  0.1911  0.3925 -0.2091
 3652SOL    HW222419   1.545   0.329   8.782 -0.5883 -0.4820 -0.8734
 3653SOL     OW22420   4.239   3.576   8.249  0.5233 -0.1467  0.4572
 3653SOL    HW122421   4.277   3.663   8.258  1.1108 -0.4259  0.6546
 3653SOL    HW222422   4.156   3.583   8.297 -0.7893  1.8833 -2.0829
 3654SOL     OW22423   0.825   3.583   8.777 -0.6449  0.0608 -0.1996
 3654SOL    HW122424   0.910   3.545   8.798 -1.8124 -2.3563  0.0687
 3654SOL    HW222425   0.776   3.546   8.850 -1.9890  0.8666 -0.7071
 3655SOL     OW22426   0.591   2.088  11.597  0.4933  0.0288 -0.0948
 3655SOL    HW122427   0.543   2.039  11.531 -0.9438  1.9758 -0.4958
 3655SOL    HW222428   0.526   2.117  11.661 -0.5143  1.9948 -2.0107
 3656SOL     OW22429   2.051   4.499   0.380  0.1190 -0.3873 -0.6377
 3656SOL    HW122430   2.067   4.526   0.471 -1.7108 -1.5661  0.0167
 3656SOL    HW222431   1.956   4.490   0.380  0.2288 -1.4256 -2.2626
 3657SOL     OW22432   4.442   1.756   4.969 -0.1049  0.2677  0.0637
 3657SOL    HW122433   4.348   1.737   4.970 -0.6328  2.8996 -0.0706
 3657SOL    HW222434   4.464   1.781   5.058  1.3793 -0.6730 -0.0382
 3658SOL     OW22435   3.101   2.231  14.448 -0.3762 -0.6454  0.0223
 3658SOL    HW122436   3.078   2.263  14.535 -1.0546 -1.0843  0.0027
 3658SOL    HW222437   3.178   2.286  14.437 -1.0922  0.1605 -1.0239
 3659SOL     OW22438   2.363   1.507   4.548  0.1742  0.3387  0.7118
 3659SOL    HW122439   2.294   1.540   4.605 -2.0130 -2.1880 -0.4982
 3659SOL    HW222440   2.440   1.526   4.603  0.0971  2.3812  0.1003
 3660SOL     OW22441   3.884   0.834   5.498  0.1384 -0.6136 -0.2535
 3660SOL    HW122442   3.813   0.882   5.540  0.9985 -0.6368  1.2431
 3660SOL    HW222443   3.835   0.753   5.484 -0.3067 -0.3389 -0.2875
 3661SOL     OW22444   1.804   1.723   5.281  0.2448 -0.0124  0.2190
 3661SOL    HW122445   1.790   1.760   5.368  1.0005 -1.2936  0.8886
 3661SOL    HW222446   1.893   1.689   5.291  0.1683 -0.2413  0.1444
 3662SOL     OW22447   1.047   2.566   5.399  0.2186  0.2510  0.5136
 3662SOL    HW122448   0.980   2.577   5.331  0.7179 -3.8569 -0.6404
 3662SOL    HW222449   1.117   2.625   5.372 -0.3140  0.7440  0.2126
 3663SOL     OW22450   4.448   2.837  16.641 -0.0166 -0.2367 -0.0519
 3663SOL    HW122451   4.469   2.874  16.555  0.2364  2.7876  1.3163
 3663SOL    HW222452   4.384   2.770  16.617  0.4179  0.4936 -3.2407
 3664SOL     OW22453   1.104   3.357   8.441  0.3172 -0.0810  0.1541
 3664SOL    HW122454   1.126   3.270   8.472 -1.1931 -0.9407 -1.1208
 3664SOL    HW222455   1.151   3.409   8.505  0.9516  0.0067 -0.3907
 3665SOL     OW22456   2.690   3.138   4.542  0.3102 -0.0967 -0.1500
 3665SOL    HW122457   2.622   3.133   4.475 -0.1663  1.5520  0.2158
 3665SOL    HW222458   2.645   3.212   4.583 -1.4994 -0.5780 -1.3005
 3666SOL     OW22459   3.642   2.467  11.258  0.2547 -0.9712  0.2376
 3666SOL    HW122460   3.647   2.507  11.172  1.5948 -0.2210  0.6700
 3666SOL    HW222461   3.593   2.539  11.298 -1.0718 -1.0287 -1.2731
 3667SOL     OW22462   0.447   1.807   9.345 -0.3929  0.1968  0.4091
 3667SOL    HW122463   0.514   1.739   9.334 -1.2977 -0.6721  0.2399
 3667SOL    HW222464   0.476   1.850   9.425 -1.2255 -1.3540  1.5491
 3668SOL     OW22465   4.373   4.266  12.717 -0.6441 -0.2821  0.6440
 3668SOL    HW122466   4.354   4.355  12.748 -0.8258  0.1889 -0.8541
 3668SOL    HW222467   4.438   4.240  12.783  1.3663  1.1671 -0.7892
 3669SOL     OW22468   1.738   2.603   4.075 -0.5725  0.0399 -0.0140
 3669SOL    HW122469   1.813   2.594   4.134 -0.3426 -1.3765 -0.5376
 3669SOL    HW222470   1.733   2.699   4.076 -1.5835 -0.0172  0.9097
 3670SOL     OW22471   2.425   0.499   3.252  0.1249  0.0993  1.3029
 3670SOL    HW122472   2.381   0.584   3.258 -1.4383 -0.5881 -0.3426
 3670SOL    HW222473   2.446   0.504   3.159 -3.3575 -0.2492  0.4802
 3671SOL     OW22474   4.563   2.451   2.092  0.3401 -0.3979 -0.4413
 3671SOL    HW122475   4.533   2.371   2.048  0.6281 -0.0635 -1.2571
 3671SOL    HW222476   4.641   2.417   2.136  0.9699 -0.9922 -2.0059
 3672SOL     OW22477   0.590   2.195   3.926 -0.1221  1.3832 -0.1777
 3672SOL    HW122478   0.655   2.134   3.960 -0.3704  0.3809 -1.5077
 3672SOL    HW222479   0.585   2.255   4.001 -1.1097  1.8652 -0.6335
 3673SOL     OW22480   0.664   3.249   1.514 -0.6003  0.1912 -0.0504
 3673SOL    HW122481   0.705   3.332   1.539 -0.8584 -0.1553  1.5600
 3673SOL    HW222482   0.600   3.244   1.586  0.3320 -0.2266  0.7496
 3674SOL     OW22483   0.277   1.228   7.621  0.3854  0.2757  0.5117
 3674SOL    HW122484   0.259   1.225   7.527 -1.1865  0.3781  0.8087
 3674SOL    HW222485   0.197   1.189   7.657  0.2791 -0.3076 -0.3799
 3675SOL     OW22486   1.678   4.485   2.375  0.3048 -0.0421 -0.1164
 3675SOL    HW122487   1.736   4.559   2.391 -1.0883  0.8676  0.7588
 3675SOL    HW222488   1.591   4.521   2.394 -0.1063 -0.3111 -1.4605
 3676SOL     OW22489   0.323   4.289  11.712 -0.1633 -0.4440 -0.1234
 3676SOL    HW122490   0.309   4.383  11.713 -0.5902 -0.5080 -0.0985
 3676SOL    HW222491   0.232   4.261  11.719 -0.5872  0.7291 -0.9957
 3677SOL     OW22492   4.097   3.781   0.501  0.1832  0.2229  0.2285
 3677SOL    HW122493   4.026   3.837   0.532 -0.7700 -0.8199 -0.0529
 3677SOL    HW222494   4.163   3.789   0.570  3.2966  1.7983 -2.9052
 3678SOL     OW22495   2.940   2.392   7.907 -0.8311  0.3793  0.1875
 3678SOL    HW122496   3.015   2.363   7.855 -0.6295  0.9106  0.1794
 3678SOL    HW222497   2.927   2.482   7.879  0.4624  0.4162 -0.3085
 3679SOL     OW22498   2.763   4.629  12.132  0.5353  0.3003 -0.2687
 3679SOL    HW122499   2.807   4.710  12.108 -1.5013  0.9581 -1.7792
 3679SOL    HW222500   2.698   4.663  12.193 -0.0084  0.8359 -1.1590
 3680SOL     OW22501   0.190   1.016   8.256  0.0785  0.1387 -0.8966
 3680SOL    HW122502   0.245   1.087   8.222  1.7113 -0.3125  0.7560
 3680SOL    HW222503   0.254   0.944   8.260 -1.5561 -1.4232 -3.2535
 3681SOL     OW22504   0.241   4.420  11.971 -0.4924  0.6635  0.2079
 3681SOL    HW122505   0.258   4.474  11.894 -0.6009  0.8978  0.3480
 3681SOL    HW222506   0.273   4.477  12.041  0.9652  1.0286 -0.7593
 3682SOL     OW22507   1.080   4.140   8.097 -0.1584  0.5636 -0.1511
 3682SOL    HW122508   1.018   4.108   8.163 -0.4114 -0.2435 -0.7797
 3682SOL    HW222509   1.031   4.218   8.071 -0.9447  0.3596  0.7161
 3683SOL     OW22510   0.361   2.246   9.109  0.3553 -0.0217  0.0735
 3683SOL    HW122511   0.306   2.293   9.047  0.9577 -0.8821 -1.1166
 3683SOL    HW222512   0.289   2.205   9.158 -0.0381  0.4249 -0.1339
 3684SOL     OW22513   2.456   4.270   8.301  0.3281 -0.4703 -0.0554
 3684SOL    HW122514   2.380   4.275   8.360 -0.6172 -3.3159 -0.9839
 3684SOL    HW222515   2.430   4.336   8.236  1.0817 -0.6174 -0.5054
 3685SOL     OW22516   3.610   1.375   0.068 -0.0870  0.3755  0.1041
 3685SOL    HW122517   3.693   1.385   0.021  0.9186 -0.2207  1.7948
 3685SOL    HW222518   3.557   1.388  17.688 -2.1530 -2.1187  1.1088
 3686SOL     OW22519   1.563   2.755  17.320 -0.2867 -0.0801 -0.6157
 3686SOL    HW122520   1.634   2.698  17.290 -1.3796 -1.3358 -0.8154
 3686SOL    HW222521   1.594   2.844  17.304 -0.4679  0.2184  0.6687
 3687SOL     OW22522   0.023   1.665   9.481  0.3829  0.0897  0.2248
 3687SOL    HW122523   4.708   1.591   9.435 -1.8986  1.5684 -0.2403
 3687SOL    HW222524   0.046   1.622   9.563  1.8438  0.1415 -0.1631
 3688SOL     OW22525   0.492   1.416   2.095  0.0846 -0.8223  0.1467
 3688SOL    HW122526   0.476   1.473   2.020 -2.7943  1.0987  2.1772
 3688SOL    HW222527   0.454   1.472   2.164 -2.2319 -0.5315 -1.3484
 3689SOL     OW22528   3.446   3.598  15.889  0.3421 -0.1345  0.1263
 3689SOL    HW122529   3.534   3.624  15.860  0.4314  1.3255  1.6685
 3689SOL    HW222530   3.399   3.669  15.845 -0.7103 -1.0499 -0.1962
 3690SOL     OW22531   4.447   4.554   2.767 -0.6470  0.2930  0.7847
 3690SOL    HW122532   4.397   4.551   2.848 -2.4678 -0.7112 -0.3672
 3690SOL    HW222533   4.536   4.548   2.801  0.0972 -0.4142 -1.2828
 3691SOL     OW22534   4.131   0.063   0.020 -0.0683  0.0571  0.7922
 3691SOL    HW122535   4.045   0.063   0.063 -0.3302  0.8091  0.2669
 3691SOL    HW222536   4.115   0.082  17.626 -1.1309 -0.0716  0.9522
 3692SOL     OW22537   1.994   2.381   0.501 -0.4085  0.3106 -0.0247
 3692SOL    HW122538   2.006   2.392   0.407 -0.6980 -0.1231 -0.1162
 3692SOL    HW222539   2.069   2.425   0.539 -0.2907 -0.1221  0.2496
 3693SOL     OW22540   2.408   2.113  11.143  0.1007  0.3676  0.1846
 3693SOL    HW122541   2.501   2.093  11.148 -0.7046 -3.4633  0.0395
 3693SOL    HW222542   2.387   2.134  11.234  1.2709  0.2015  0.4919
 3694SOL     OW22543   0.312   3.223   3.149  0.2600  0.8759  0.0316
 3694SOL    HW122544   0.356   3.243   3.066 -0.2071  0.5243 -0.2990
 3694SOL    HW222545   0.226   3.253   3.119 -0.3619 -0.6312  0.3256
 3695SOL     OW22546   3.693   0.622   8.530 -0.2564 -0.1224 -0.1091
 3695SOL    HW122547   3.669   0.539   8.488  0.0713 -1.2836  2.0077
 3695SOL    HW222548   3.603   0.651   8.545  0.2197  0.3007  1.9366
 3696SOL     OW22549   2.545   2.987   8.325 -0.0585  0.1383 -0.7491
 3696SOL    HW122550   2.539   2.943   8.241  0.1346  2.2918 -1.8828
 3696SOL    HW222551   2.484   2.934   8.377 -0.3027  0.6883 -0.4667
 3697SOL     OW22552   4.165   4.285   3.406 -0.2885  0.1583  0.3388
 3697SOL    HW122553   4.086   4.271   3.458 -0.1000 -1.1107  0.2760
 3697SOL    HW222554   4.137   4.343   3.335 -0.3047 -1.6624 -1.1297
 3698SOL     OW22555   0.411   0.327   1.379  0.6839 -0.0555 -0.9266
 3698SOL    HW122556   0.482   0.263   1.383 -0.4375 -1.3028 -1.1265
 3698SOL    HW222557   0.377   0.320   1.290 -0.2836 -2.2234 -0.3941
 3699SOL     OW22558   1.245   0.249   7.486  0.8205  0.1384  0.2833
 3699SOL    HW122559   1.214   0.222   7.400  2.7003  1.5519 -0.8416
 3699SOL    HW222560   1.335   0.274   7.467  0.7433  0.3673  0.2135
 3700SOL     OW22561   0.709   2.432  16.302 -0.4145 -0.5152 -0.7747
 3700SOL    HW122562   0.615   2.418  16.290 -0.5710 -0.1834  0.0735
 3700SOL    HW222563   0.734   2.439  16.210  1.9146 -3.3929 -0.3503
 3701SOL     OW22564   2.721   3.589   4.928 -0.0696  0.1808  0.2875
 3701SOL    HW122565   2.661   3.595   5.003  0.2026  0.3893  0.4843
 3701SOL    HW222566   2.749   3.680   4.927  0.1230  0.0810 -2.2516
 3702SOL     OW22567   1.781   0.944   6.829  0.0929  0.3261 -0.7796
 3702SOL    HW122568   1.727   0.902   6.895  0.7407 -2.2553 -1.8835
 3702SOL    HW222569   1.742   1.031   6.832 -0.4876 -0.0749  2.6356
 3703SOL     OW22570   0.544   2.399   2.252 -0.4011 -0.6507  0.4368
 3703SOL    HW122571   0.501   2.484   2.248 -1.2326 -1.0844  0.2861
 3703SOL    HW222572   0.465   2.345   2.247 -0.6405 -0.0522 -2.2938
 3704SOL     OW22573   1.573   1.080   0.027  0.0085 -0.0124 -0.0369
 3704SOL    HW122574   1.510   1.062   0.097 -0.2858 -0.8468 -0.5124
 3704SOL    HW222575   1.522   1.127  17.661  0.4261 -0.3740 -0.6152
 3705SOL     OW22576   1.522   0.791   7.983 -0.1293  0.6725 -0.9629
 3705SOL    HW122577   1.448   0.785   7.922 -0.6129 -3.3661 -0.0019
 3705SOL    HW222578   1.486   0.850   8.049 -1.1757 -0.1810 -0.7627
 3706SOL     OW22579   1.904   4.645   8.668  0.7463 -0.7182 -0.0507
 3706SOL    HW122580   1.924   4.602   8.752 -0.0228 -0.9951 -0.0154
 3706SOL    HW222581   1.962   4.598   8.608  0.8422 -0.8597  0.1532
 3707SOL     OW22582   1.947   2.286   6.655 -0.2078 -0.2281 -0.8606
 3707SOL    HW122583   2.005   2.211   6.654  0.3958  0.2395 -0.7932
 3707SOL    HW222584   2.001   2.352   6.699  0.8057 -2.4693  1.2318
 3708SOL     OW22585   0.102   3.943  15.273  0.1598  0.0223  0.2603
 3708SOL    HW122586   0.155   3.864  15.265  0.8241  0.2830  2.0553
 3708SOL    HW222587   0.161   3.994  15.329  0.5002  0.4827 -0.5069
 3709SOL     OW22588   0.405   4.172   8.405 -0.3706  0.3732  0.8395
 3709SOL    HW122589   0.484   4.216   8.374 -1.3962  1.4865 -0.1792
 3709SOL    HW222590   0.416   4.077   8.401  0.9133  0.5905 -0.8445
 3710SOL     OW22591   1.155   1.360   6.400 -0.4356 -0.1661  0.3063
 3710SOL    HW122592   1.234   1.327   6.442 -1.4380 -1.8995  0.8532
 3710SOL    HW222593   1.174   1.450   6.373 -0.7405 -1.0878 -2.9547
 3711SOL     OW22594   2.197   0.589   2.227 -0.8831 -0.2707 -0.0848
 3711SOL    HW122595   2.229   0.623   2.311  1.2836 -0.5253 -0.8084
 3711SOL    HW222596   2.108   0.562   2.251 -0.2663  0.0797  2.6061
 3712SOL     OW22597   0.845   3.408   7.349 -0.0688 -0.0540 -0.1534
 3712SOL    HW122598   0.758   3.391   7.313  0.0302 -0.2648 -0.2929
 3712SOL    HW222599   0.869   3.459   7.272  0.8139  0.8601  0.7314
 3713SOL     OW22600   1.058   1.037  14.505 -0.3770 -0.9928 -0.0939
 3713SOL    HW122601   1.153   1.032  14.490 -0.1206  1.7503  0.4681
 3713SOL    HW222602   1.066   0.981  14.582 -0.9188 -2.2552 -0.9644
 3714SOL     OW22603   4.114   3.089   5.089 -0.1346 -0.5178  0.2743
 3714SOL    HW122604   4.085   3.177   5.064  0.2561 -0.4932 -0.0795
 3714SOL    HW222605   4.048   3.039   5.041  0.7880  0.2420 -1.8085
 3715SOL     OW22606   0.770   1.396   2.144  0.3847 -0.9391  0.1732
 3715SOL    HW122607   0.811   1.469   2.097 -1.0422 -0.3849 -0.1965
 3715SOL    HW222608   0.688   1.439   2.168  1.5151  0.0307  2.2857
 3716SOL     OW22609   4.706   1.525   9.137 -0.3225 -0.3007  0.1062
 3716SOL    HW122610   0.075   1.546   9.149 -0.1299  0.0691 -1.9304
 3716SOL    HW222611   4.690   1.499   9.227  0.2072  0.1984  0.3474
 3717SOL     OW22612   3.293   0.090   4.610  0.3229 -0.3397 -0.4563
 3717SOL    HW122613   3.367   0.032   4.631  0.2568 -0.0998  0.4540
 3717SOL    HW222614   3.257   0.044   4.535 -0.0394 -1.0675  0.1587
 3718SOL     OW22615   3.322   0.186   9.523 -0.1195 -0.1948  0.4241
 3718SOL    HW122616   3.293   0.098   9.499  0.1003 -0.1218 -0.0955
 3718SOL    HW222617   3.256   0.238   9.477 -0.0643 -2.2418 -1.9598
 3719SOL     OW22618   3.015   3.184   5.669 -0.5534 -0.3994 -0.7472
 3719SOL    HW122619   2.956   3.259   5.661  0.8396  0.6453 -1.0505
 3719SOL    HW222620   2.977   3.139   5.745 -2.9111  3.4198  0.2984
 3720SOL     OW22621   2.497   3.776   9.505  0.0409 -0.6998 -0.7130
 3720SOL    HW122622   2.579   3.767   9.456  0.2409  0.8542 -0.6626
 3720SOL    HW222623   2.538   3.807   9.586  0.1263 -0.4194 -0.8615
 3721SOL     OW22624   2.608   1.034   6.229 -1.1571 -0.2580 -0.1190
 3721SOL    HW122625   2.578   1.121   6.203  1.7195  0.8845  0.3820
 3721SOL    HW222626   2.529   0.986   6.251 -3.1761  0.7055 -5.4199
 3722SOL     OW22627   0.986   1.500   3.528 -0.0557  0.7068  0.1756
 3722SOL    HW122628   1.036   1.557   3.469 -0.9615  0.0240 -1.2624
 3722SOL    HW222629   1.021   1.535   3.610 -0.3482  1.2775  0.0541
 3723SOL     OW22630   1.361   1.810   3.820  0.0480  0.4452 -0.6005
 3723SOL    HW122631   1.393   1.894   3.789 -1.2016  0.4091 -2.0029
 3723SOL    HW222632   1.278   1.815   3.773  0.3119 -0.2401 -1.1383
 3724SOL     OW22633   2.080   2.668   3.289 -0.2285 -0.1223 -0.5411
 3724SOL    HW122634   2.082   2.579   3.324 -0.7627  1.0892  2.6189
 3724SOL    HW222635   1.992   2.701   3.307 -0.2244 -0.7221  0.5668
 3725SOL     OW22636   0.540   1.687   3.628 -0.2028  0.7103 -0.3607
 3725SOL    HW122637   0.589   1.750   3.681  0.1413  0.9350 -0.9533
 3725SOL    HW222638   0.485   1.747   3.578  1.5104  1.6909 -1.0659
 3726SOL     OW22639   2.878   2.919   3.053 -0.1804 -0.5315 -0.0215
 3726SOL    HW122640   2.932   2.856   3.005 -0.8659 -1.5096  0.4924
 3726SOL    HW222641   2.806   2.928   2.991 -0.9201 -1.0792  0.7703
 3727SOL     OW22642   0.169   0.236   0.899 -0.4912 -0.2455  0.8778
 3727SOL    HW122643   0.205   0.147   0.895  1.7987  0.7493 -0.5617
 3727SOL    HW222644   0.107   0.234   0.827  1.5437 -0.4824 -0.8599
 3728SOL     OW22645   3.760   2.904   4.021  0.5473  0.0488  0.5027
 3728SOL    HW122646   3.721   2.826   3.981  0.3129 -0.6826  2.1953
 3728SOL    HW222647   3.691   2.923   4.084  0.6659 -0.0283  0.6546
 3729SOL     OW22648   1.006   4.636   7.963 -0.6348 -0.2577 -0.6282
 3729SOL    HW122649   1.039   4.621   8.051 -1.2829 -0.0058 -0.3396
 3729SOL    HW222650   1.008   0.007   7.955 -0.7197 -0.3243 -1.4536
 3730SOL     OW22651   0.271   1.871   5.471 -0.1774  0.4697  0.2022
 3730SOL    HW122652   0.317   1.798   5.430 -1.8308  0.2956 -1.3513
 3730SOL    HW222653   0.349   1.923   5.489  1.0814 -1.0662 -0.9581
 3731SOL     OW22654   3.898   1.011   2.971 -0.5470 -0.1260 -0.2979
 3731SOL    HW122655   3.867   0.983   3.057  2.2010 -1.3740  0.2914
 3731SOL    HW222656   3.970   0.950   2.955 -1.5663 -0.6916 -2.6038
 3732SOL     OW22657   4.005   0.637  15.567 -0.6465  0.5422 -0.7493
 3732SOL    HW122658   4.077   0.690  15.535 -1.2017  1.5843 -0.2918
 3732SOL    HW222659   4.021   0.656  15.660  0.7559  2.4954 -1.3827
 3733SOL     OW22660   3.054   2.522  10.597 -0.4943  0.2663 -0.2102
 3733SOL    HW122661   3.105   2.592  10.638  1.6099 -2.5722  2.0261
 3733SOL    HW222662   3.053   2.560  10.509 -2.1900  1.0720  0.1713
 3734SOL     OW22663   1.827   4.436   7.120 -0.6247 -0.1514 -0.6460
 3734SOL    HW122664   1.780   4.363   7.159  0.3448 -0.6653 -0.4447
 3734SOL    HW222665   1.836   4.489   7.199  0.3341 -1.8211  0.3589
 3735SOL     OW22666   0.381   3.488   0.006 -0.6816  0.6433 -0.0912
 3735SOL    HW122667   0.441   3.507  17.633 -1.0115  2.4098  0.1004
 3735SOL    HW222668   0.433   3.523   0.078 -0.6890  0.3008  0.0822
 3736SOL     OW22669   0.368   0.321   0.504 -0.2976 -0.1736 -0.0715
 3736SOL    HW122670   0.370   0.231   0.534 -0.0138 -0.7631 -1.8647
 3736SOL    HW222671   0.353   0.362   0.589  1.4639  1.2430 -0.4200
 3737SOL     OW22672   4.539   3.246   8.757  0.2474  0.0519  0.0618
 3737SOL    HW122673   4.530   3.311   8.687 -0.0719  1.6209  1.5445
 3737SOL    HW222674   4.469   3.183   8.740  0.9105 -0.9947  1.2899
 3738SOL     OW22675   3.226   4.514   4.745  0.3333 -0.1397 -0.3732
 3738SOL    HW122676   3.280   4.569   4.802 -0.1890 -1.2749  1.2254
 3738SOL    HW222677   3.201   4.446   4.808 -0.5810  1.4688  0.9945
 3739SOL     OW22678   1.910   4.532   6.007  0.1240 -0.8292 -0.0223
 3739SOL    HW122679   2.006   4.535   6.010  0.1172 -2.3521  2.1908
 3739SOL    HW222680   1.876   4.594   6.072  0.2241 -1.0458  0.2372
 3740SOL     OW22681   1.914   4.389  13.506  0.4399 -0.5347 -0.2173
 3740SOL    HW122682   1.850   4.342  13.452  1.7987 -2.0720 -0.5168
 3740SOL    HW222683   1.860   4.462  13.534  1.5170  0.0107  0.4337
 3741SOL     OW22684   2.801   1.633   2.039  0.0873  0.2460 -0.2467
 3741SOL    HW122685   2.769   1.585   1.962  1.2823  1.3783 -1.4541
 3741SOL    HW222686   2.791   1.559   2.099 -0.6409 -0.2394 -0.9640
 3742SOL     OW22687   3.934   4.341   8.290  0.1817  0.1413 -0.0178
 3742SOL    HW122688   3.920   4.259   8.244 -1.6346 -0.2782  1.3071
 3742SOL    HW222689   3.959   4.391   8.212  3.1536 -0.6877  0.3903
 3743SOL     OW22690   1.822   2.449   5.152 -0.1010  0.3999  0.5295
 3743SOL    HW122691   1.766   2.484   5.222  2.5236  0.2646  2.6987
 3743SOL    HW222692   1.843   2.525   5.099  1.8188 -0.5155 -0.0197
 3744SOL     OW22693   2.013   4.195   9.660  0.1537  0.0702  0.0723
 3744SOL    HW122694   1.950   4.131   9.628 -0.0726 -0.6057  1.8679
 3744SOL    HW222695   1.998   4.185   9.754  1.1450  2.8278  0.5513
 3745SOL     OW22696   1.597   1.461   5.528  0.6504  0.0180 -0.1376
 3745SOL    HW122697   1.645   1.474   5.610 -2.2517 -1.4143  1.7681
 3745SOL    HW222698   1.665   1.503   5.476  0.5917  1.5507  1.0329
 3746SOL     OW22699   3.077   2.737  17.368 -0.4508  0.4348  0.3837
 3746SOL    HW122700   3.041   2.706  17.284  0.1913 -0.5010  0.4466
 3746SOL    HW222701   3.136   2.670  17.403 -0.4957 -0.1014 -0.5588
 3747SOL     OW22702   0.631   0.246  12.164 -0.1830 -0.8230 -0.1692
 3747SOL    HW122703   0.709   0.190  12.171 -1.0767 -1.9377  0.7350
 3747SOL    HW222704   0.646   0.317  12.226 -1.0732  1.3865 -2.4955
 3748SOL     OW22705   3.941   2.903   5.952 -0.0411 -0.4173  0.0839
 3748SOL    HW122706   4.015   2.918   6.010 -0.9553 -0.2985  1.2144
 3748SOL    HW222707   3.977   2.943   5.873 -0.7665 -2.0614 -1.0773
 3749SOL     OW22708   0.010   2.668   5.544  0.4868 -0.0415 -0.1012
 3749SOL    HW122709   0.070   2.610   5.591  0.2508  0.4138  0.7685
 3749SOL    HW222710   4.705   2.618   5.468  0.6274 -1.1139  0.5378
 3750SOL     OW22711   0.402   1.686   8.641  0.0824 -0.2801  0.2223
 3750SOL    HW122712   0.435   1.728   8.720  1.8574  0.7848 -1.0922
 3750SOL    HW222713   0.330   1.743   8.614 -0.1065  0.8714  3.0903
 3751SOL     OW22714   1.597   0.355   8.406 -0.3751 -0.2776 -0.3325
 3751SOL    HW122715   1.609   0.450   8.416 -0.6922 -0.2655 -0.0669
 3751SOL    HW222716   1.558   0.335   8.491 -0.9778  0.2425 -0.4811
 3752SOL     OW22717   0.865   2.519   6.819  0.0530 -0.4471  0.4286
 3752SOL    HW122718   0.833   2.609   6.829 -1.7296 -1.0904  0.5481
 3752SOL    HW222719   0.909   2.531   6.735  0.4264  2.0862  0.9783
 3753SOL     OW22720   2.480   2.466  14.310 -0.2664  0.2597 -0.0448
 3753SOL    HW122721   2.422   2.532  14.349 -1.4504 -1.2750  0.8253
 3753SOL    HW222722   2.558   2.516  14.287  0.4214  0.0267  1.7501
 3754SOL     OW22723   3.585   1.941   2.363 -0.0082 -0.0035 -0.1748
 3754SOL    HW122724   3.593   1.857   2.408 -1.5097  0.4693  0.9900
 3754SOL    HW222725   3.494   1.937   2.332 -0.5484  2.2944  1.0874
 3755SOL     OW22726   0.203   3.092   7.636  0.3054 -0.0454  0.6172
 3755SOL    HW122727   0.287   3.135   7.652  0.5519 -0.1781 -0.3448
 3755SOL    HW222728   0.137   3.161   7.645 -1.2533 -1.4258 -0.0289
 3756SOL     OW22729   4.606   1.728   7.289  0.3817 -0.3890 -0.7809
 3756SOL    HW122730   4.699   1.741   7.272  0.6763 -2.3564 -0.6317
 3756SOL    HW222731   4.607   1.641   7.330 -2.5251  1.2370  2.7484
 3757SOL     OW22732   0.209   3.563   5.864  0.5313 -0.0662 -0.1928
 3757SOL    HW122733   0.264   3.552   5.786 -0.7198 -0.3735 -1.0403
 3757SOL    HW222734   0.151   3.635   5.841  0.1883 -0.4471 -0.5441
 3758SOL     OW22735   1.683   1.687   2.119 -0.0502  0.4776  0.0491
 3758SOL    HW122736   1.660   1.779   2.107  1.2739  0.9925  1.5331
 3758SOL    HW222737   1.676   1.644   2.033 -1.7485 -3.2848  2.0605
 3759SOL     OW22738   1.843   1.183   4.754 -0.0544  0.0521 -0.2207
 3759SOL    HW122739   1.908   1.248   4.730  1.3338 -1.6303 -1.0609
 3759SOL    HW222740   1.895   1.103   4.757 -1.1205 -0.5183  2.5769
 3760SOL     OW22741   0.248   4.676   6.702 -0.4803 -0.6239 -0.2562
 3760SOL    HW122742   0.342   4.692   6.707 -0.9800  1.8366  1.0168
 3760SOL    HW222743   0.242   4.581   6.696  0.0590 -0.6954  0.3445
 3761SOL     OW22744   2.324   0.881   2.021 -0.1341  0.4940  0.6784
 3761SOL    HW122745   2.338   0.889   2.115 -0.1105 -1.4205  0.8450
 3761SOL    HW222746   2.232   0.901   2.003  0.7073  0.9278 -3.1374
 3762SOL     OW22747   1.490   4.542   5.822 -0.4839 -0.0948 -0.1900
 3762SOL    HW122748   1.557   4.474   5.820 -0.9186 -0.5483  0.7019
 3762SOL    HW222749   1.448   4.520   5.905  0.6431 -1.6002 -0.0292
 3763SOL     OW22750   4.646   2.264   6.631  0.1261  0.2937 -0.0669
 3763SOL    HW122751   4.569   2.299   6.586 -0.1091 -1.6627 -1.1880
 3763SOL    HW222752   4.597   2.208   6.690 -1.5035 -1.8352 -3.4457
 3764SOL     OW22753   1.571   3.181   8.276  0.7688 -0.0738 -0.3293
 3764SOL    HW122754   1.533   3.253   8.226 -0.1922 -1.1374 -1.1090
 3764SOL    HW222755   1.587   3.216   8.364  0.5120 -0.9845  0.0835
 3765SOL     OW22756   2.361   1.248  11.539  0.4525 -0.2634 -0.1970
 3765SOL    HW122757   2.338   1.284  11.625  1.6819  0.2682 -0.0874
 3765SOL    HW222758   2.418   1.310  11.494 -0.0986  1.2989  1.3019
 3766SOL     OW22759   2.750   2.027  10.587 -0.1159 -0.5172 -0.0589
 3766SOL    HW122760   2.676   2.075  10.625 -1.8824  1.2875 -5.8335
 3766SOL    HW222761   2.829   2.070  10.620  0.6096 -1.1768 -0.9671
 3767SOL     OW22762   1.702   4.346  10.899 -0.0351 -0.4658 -0.5905
 3767SOL    HW122763   1.775   4.311  10.950  0.3026 -1.0942 -1.5014
 3767SOL    HW222764   1.641   4.355  10.973  0.6607 -0.7882  0.0226
 3768SOL     OW22765   2.346   1.649  16.254 -0.6138 -0.3180 -0.0757
 3768SOL    HW122766   2.397   1.609  16.184 -1.1142 -1.6864  0.3300
 3768SOL    HW222767   2.414   1.693  16.304 -0.6020 -2.0715  1.4412
 3769SOL     OW22768   4.647   1.290   4.521  0.4446  0.1351  0.2947
 3769SOL    HW122769   4.659   1.373   4.476  0.4634 -1.0027 -1.7999
 3769SOL    HW222770   4.712   1.235   4.478 -0.2622  0.9400 -1.8067
 3770SOL     OW22771   3.164   0.320  11.082 -0.2066 -0.4267 -0.4422
 3770SOL    HW122772   3.072   0.293  11.084  0.6684 -3.4678 -0.4832
 3770SOL    HW222773   3.185   0.300  11.173 -2.2248  0.0761  0.1470
 3771SOL     OW22774   3.981   0.584  11.920 -0.7035  0.2856 -0.7519
 3771SOL    HW122775   3.951   0.667  11.883  0.1405  0.7874 -0.2982
 3771SOL    HW222776   3.899   0.545  11.950 -0.7566 -0.0550 -1.3468
 3772SOL     OW22777   3.596   1.117   6.508  0.0009  0.3473  0.3455
 3772SOL    HW122778   3.610   1.067   6.589  1.2475  0.9518  0.4998
 3772SOL    HW222779   3.532   1.062   6.463  1.5789 -0.4748 -0.8856
 3773SOL     OW22780   3.394   3.822   4.754 -0.1819 -0.1341  0.4122
 3773SOL    HW122781   3.423   3.897   4.703 -1.3161  1.0717  1.5255
 3773SOL    HW222782   3.335   3.856   4.821 -1.2062  0.6392 -0.8893
 3774SOL     OW22783   2.591   2.075   2.720 -0.6904  0.1524 -0.0887
 3774SOL    HW122784   2.572   2.136   2.792  1.5193  1.4600 -0.6215
 3774SOL    HW222785   2.686   2.064   2.720 -0.8169 -0.8782 -1.2115
 3775SOL     OW22786   1.577   2.191   8.062 -0.1254  0.2515  0.0034
 3775SOL    HW122787   1.612   2.102   8.055  1.9651  0.9920  1.0942
 3775SOL    HW222788   1.622   2.247   7.998  1.3043  1.1115  1.7473
 3776SOL     OW22789   0.301   3.718  11.271  0.2027 -0.0317  0.3382
 3776SOL    HW122790   0.311   3.776  11.195  0.1314  1.7791  1.7316
 3776SOL    HW222791   0.314   3.781  11.341  0.0255 -1.5378  1.7218
 3777SOL     OW22792   4.585   2.263   3.085 -0.0778 -0.4915  0.5993
 3777SOL    HW122793   4.581   2.351   3.048  2.6746 -1.5977 -2.4069
 3777SOL    HW222794   4.657   2.233   3.029 -0.5241 -1.1131  0.3559
 3778SOL     OW22795   0.982   2.594   7.056  0.0267  0.5035  0.3792
 3778SOL    HW122796   0.931   2.663   7.014 -0.0980  1.2103  1.6877
 3778SOL    HW222797   1.006   2.529   6.989  0.2127 -1.4187  2.3031
 3779SOL     OW22798   3.638   1.421   0.977  0.1423 -0.2714 -0.3249
 3779SOL    HW122799   3.608   1.332   0.958 -2.2530  0.4470  0.0617
 3779SOL    HW222800   3.614   1.412   1.069  0.0084 -0.1231 -0.3456
 3780SOL     OW22801   0.407   3.278   7.711 -0.8654  0.6991  0.3382
 3780SOL    HW122802   0.415   3.291   7.805  4.5728 -1.9897  0.2135
 3780SOL    HW222803   0.440   3.360   7.674 -1.1748  0.9992  0.7277
 3781SOL     OW22804   3.924   0.126   7.364 -0.1599 -0.2064  0.5249
 3781SOL    HW122805   3.864   0.122   7.438  0.9445 -2.5143  1.3307
 3781SOL    HW222806   3.973   0.205   7.386 -0.1229 -0.1832  0.3585
 3782SOL     OW22807   3.470   2.516   6.790  0.2022 -0.1081 -0.1832
 3782SOL    HW122808   3.524   2.582   6.835 -1.0748 -1.1620  2.8996
 3782SOL    HW222809   3.499   2.436   6.834  1.8542  0.2803 -0.5522
 3783SOL     OW22810   1.742   0.981  13.029  0.0498 -0.0812  0.1832
 3783SOL    HW122811   1.813   1.037  12.998 -0.6485  1.6275  1.7075
 3783SOL    HW222812   1.732   0.934  12.946  1.0210  0.2328 -0.1142
 3784SOL     OW22813   3.017   3.129   3.128 -0.2566 -0.1092  0.0339
 3784SOL    HW122814   3.082   3.072   3.169 -0.0130  1.2611  1.5666
 3784SOL    HW222815   2.959   3.059   3.099 -0.4441 -0.8888  2.2850
 3785SOL     OW22816   1.546   3.026   2.570  0.3384 -0.2084  0.2111
 3785SOL    HW122817   1.573   3.099   2.625  0.4516  0.3733 -0.6104
 3785SOL    HW222818   1.583   3.068   2.492 -1.8415  2.8463  0.8093
 3786SOL     OW22819   1.679   1.275   3.041  0.0415 -0.7138  0.3778
 3786SOL    HW122820   1.734   1.199   3.060 -1.0414 -1.5538  0.1633
 3786SOL    HW222821   1.605   1.252   3.097  0.2228  1.0490  1.3429
 3787SOL     OW22822   0.642   3.099  13.340  0.8248  0.1143  0.2846
 3787SOL    HW122823   0.612   3.050  13.264  0.9429  0.7799 -0.1854
 3787SOL    HW222824   0.578   3.170  13.347  0.6381  0.0814 -1.1159
 3788SOL     OW22825   2.818   2.362   1.249 -0.2666  0.0504  0.0231
 3788SOL    HW122826   2.728   2.366   1.281 -0.2867  0.4989 -0.0928
 3788SOL    HW222827   2.879   2.373   1.322 -1.1232  3.1953  0.2499
 3789SOL     OW22828   2.534   4.264  14.660 -0.2052 -0.4534  0.9286
 3789SOL    HW122829   2.559   4.179  14.625 -1.4164  0.0784 -1.2416
 3789SOL    HW222830   2.530   4.298  14.570 -1.0092 -3.2877 -0.1217
 3790SOL     OW22831   0.878   0.692  14.648  0.5533  0.1334 -0.3895
 3790SOL    HW122832   0.874   0.686  14.552 -0.9677  0.6767 -0.3610
 3790SOL    HW222833   0.929   0.772  14.662 -1.5528  1.6874 -1.4407
 3791SOL     OW22834   1.991   4.287   3.695 -0.2152  0.4294  0.2082
 3791SOL    HW122835   1.911   4.321   3.736 -2.0389 -1.2425 -1.9442
 3791SOL    HW222836   1.961   4.199   3.673 -2.2981  1.2590 -0.2595
 3792SOL     OW22837   3.903   1.242  16.522  0.3270  0.2473  0.0310
 3792SOL    HW122838   3.937   1.306  16.585 -1.2692  0.5596  0.5718
 3792SOL    HW222839   3.878   1.300  16.450 -3.5991 -0.8105  0.5102
 3793SOL     OW22840   0.291   1.151   2.500 -0.3999  0.0493 -0.1673
 3793SOL    HW122841   0.259   1.187   2.417 -1.4218 -1.5327 -0.4666
 3793SOL    HW222842   0.291   1.232   2.551 -3.5817  0.3674 -0.6675
 3794SOL     OW22843   2.844   2.049   1.459  0.4456 -0.4530 -0.2268
 3794SOL    HW122844   2.764   2.005   1.488  1.7734 -0.4852  3.4314
 3794SOL    HW222845   2.857   2.122   1.520  1.2562  0.0315 -0.9751
 3795SOL     OW22846   2.451   0.797   9.906  0.2262 -0.3454 -0.0531
 3795SOL    HW122847   2.417   0.811   9.817 -0.8481  0.2277  0.4455
 3795SOL    HW222848   2.449   0.879   9.955  2.6975 -1.5576  2.0556
 3796SOL     OW22849   1.324   2.214   6.868  0.9004 -0.0133  0.1862
 3796SOL    HW122850   1.304   2.307   6.868 -0.8757 -0.4177  1.8042
 3796SOL    HW222851   1.313   2.201   6.773  1.6123 -0.4131  0.1519
 3797SOL     OW22852   3.110   0.631   6.779 -0.0109  0.2780 -0.3157
 3797SOL    HW122853   3.099   0.694   6.850 -1.6840 -0.4460  0.0673
 3797SOL    HW222854   3.148   0.693   6.717 -2.8356  1.4156 -0.8751
 3798SOL     OW22855   3.144   4.641   5.808  0.0359 -0.0959 -0.3113
 3798SOL    HW122856   3.049   4.633   5.798  0.0602  1.7314 -1.9068
 3798SOL    HW222857   3.172   4.596   5.728  2.5878 -1.5930  1.4196
 3799SOL     OW22858   3.200   4.407   8.091 -0.4868 -0.1715 -0.6798
 3799SOL    HW122859   3.285   4.449   8.099 -0.2166 -0.7638 -0.4606
 3799SOL    HW222860   3.165   4.460   8.020  0.8809  1.9773  0.2566
 3800SOL     OW22861   0.266   2.455   3.736  0.1971 -0.6097 -0.1775
 3800SOL    HW122862   0.217   2.497   3.666  1.1724  1.8943  0.6528
 3800SOL    HW222863   0.357   2.458   3.706  1.2398 -0.6686  2.9992
 3801SOL     OW22864   1.128   3.564  11.605  0.4427 -0.5504  0.2385
 3801SOL    HW122865   1.168   3.641  11.645 -2.2560  0.9233  0.1286
 3801SOL    HW222866   1.161   3.492  11.658 -0.0016 -0.4525  0.6481
 3802SOL     OW22867   3.043   3.385  15.926 -0.3424 -0.0758 -0.0200
 3802SOL    HW122868   3.005   3.323  15.864 -1.2618  0.7130 -0.2280
 3802SOL    HW222869   3.062   3.460  15.869 -2.3761  2.7456  3.0784
 3803SOL     OW22870   3.078   3.347   7.307  0.6070  0.0819  0.1757
 3803SOL    HW122871   3.161   3.301   7.302  1.6240  1.8527  0.5933
 3803SOL    HW222872   3.027   3.302   7.375  0.1431 -1.1706 -0.9960
 3804SOL     OW22873   0.017   0.796   6.992  0.0312 -0.1657 -0.2282
 3804SOL    HW122874   4.722   0.886   6.965 -1.9777  0.2109  2.3863
 3804SOL    HW222875   0.090   0.776   6.933 -0.4869  2.0496 -1.6195
 3805SOL     OW22876   3.021   0.542  12.862 -0.1848  0.3046 -0.0266
 3805SOL    HW122877   3.061   0.563  12.778  1.1925 -0.3737  0.4528
 3805SOL    HW222878   2.926   0.548  12.852  0.1730 -2.0321 -5.1661
 3806SOL     OW22879   2.172   0.642   0.825  0.6977 -0.0685 -0.0963
 3806SOL    HW122880   2.111   0.702   0.783  1.2963  2.4786  2.6493
 3806SOL    HW222881   2.147   0.653   0.917 -0.0236  1.7527 -0.5085
 3807SOL     OW22882   0.761   0.406  17.531  0.3575 -0.5838  0.0242
 3807SOL    HW122883   0.743   0.457  17.452  0.3393  0.7030  0.8620
 3807SOL    HW222884   0.712   0.447  17.602  1.7464  1.8863 -0.4651
 3808SOL     OW22885   2.462   2.880   2.274  0.3147  0.5354  0.3636
 3808SOL    HW122886   2.522   2.817   2.316  0.5161  0.7048  0.3294
 3808SOL    HW222887   2.452   2.833   2.191 -0.1222  0.4491  0.4701
 3809SOL     OW22888   3.832   1.631   5.274  0.1936 -0.4872 -0.2949
 3809SOL    HW122889   3.775   1.689   5.224  0.5684  0.2169  0.1024
 3809SOL    HW222890   3.838   1.677   5.357 -1.2017 -0.8618  0.0088
 3810SOL     OW22891   2.869   2.271   2.550 -0.4896 -0.0871 -0.8440
 3810SOL    HW122892   2.852   2.241   2.640  1.8570  0.2730 -0.2900
 3810SOL    HW222893   2.956   2.232   2.540 -0.9577 -1.3477 -0.0092
 3811SOL     OW22894   3.507   2.320   9.192 -0.3402 -0.2018 -0.3653
 3811SOL    HW122895   3.526   2.356   9.278 -1.0080 -0.5152 -0.0844
 3811SOL    HW222896   3.586   2.270   9.173  0.4352  1.3791 -1.2905
 3812SOL     OW22897   1.840   4.252   8.909  0.1671  0.0618 -0.3116
 3812SOL    HW122898   1.879   4.174   8.948 -1.1803 -0.2804  0.3762
 3812SOL    HW222899   1.755   4.224   8.873  0.8042 -1.6721 -0.4793
 3813SOL     OW22900   2.186   2.055   1.180  0.5107 -0.0633 -0.0678
 3813SOL    HW122901   2.226   2.082   1.263 -0.6571  0.4958  0.3078
 3813SOL    HW222902   2.155   1.970   1.211  3.0337 -0.7444  0.6133
 3814SOL     OW22903   4.556   2.870  16.901  0.7422  0.8917  0.4974
 3814SOL    HW122904   4.520   2.851  16.815  0.6221 -0.5475  0.8625
 3814SOL    HW222905   4.478   2.887  16.954 -0.2348  0.8186 -0.9293
 3815SOL     OW22906   0.658   3.700   0.446 -0.1080 -0.4269  0.1359
 3815SOL    HW122907   0.734   3.729   0.396  0.2674 -1.3205  0.1947
 3815SOL    HW222908   0.699   3.631   0.499 -0.7723  0.5098  1.8768
 3816SOL     OW22909   4.273   4.405   5.182  0.5698 -0.1702  0.0610
 3816SOL    HW122910   4.283   4.312   5.163 -1.6877 -0.5182  0.5354
 3816SOL    HW222911   4.178   4.413   5.194  0.4155  0.1907 -1.3795
 3817SOL     OW22912   3.859   4.123   9.194 -0.7679  0.5695  0.1812
 3817SOL    HW122913   3.797   4.133   9.266 -0.0480 -0.2713  0.9168
 3817SOL    HW222914   3.791   4.144   9.130 -0.9738 -0.0677  0.1913
 3818SOL     OW22915   3.847   0.912   7.340  0.0029 -0.0327  0.5871
 3818SOL    HW122916   3.873   1.002   7.361  1.8953 -0.9037  1.8995
 3818SOL    HW222917   3.857   0.922   7.245  1.9335  0.5843  0.8403
 3819SOL     OW22918   3.182   0.804   9.320  0.0343  0.0516  0.2901
 3819SOL    HW122919   3.275   0.816   9.303 -0.2283  0.9079 -0.5490
 3819SOL    HW222920   3.143   0.888   9.295  0.7638  0.2482 -0.1715
 3820SOL     OW22921   0.528   4.615   1.763 -0.3188 -0.2685  0.3406
 3820SOL    HW122922   0.474   4.542   1.792  1.2560 -1.4185  0.3268
 3820SOL    HW222923   0.468   4.689   1.776  0.3774  0.1381  1.2088
 3821SOL     OW22924   2.623   2.240   4.708  0.2542  0.2588  0.8216
 3821SOL    HW122925   2.702   2.218   4.659 -1.7021  0.4407 -2.4139
 3821SOL    HW222926   2.646   2.196   4.790 -0.0416 -1.3813  0.0107
 3822SOL     OW22927   1.669   0.007   4.707 -0.1021  0.7549 -0.0746
 3822SOL    HW122928   1.592   0.063   4.717 -0.1493  0.3610  1.7208
 3822SOL    HW222929   1.716   0.058   4.642 -1.1931  2.4970  0.5035
 3823SOL     OW22930   3.489   0.972   2.490 -0.0344  0.0285  0.0815
 3823SOL    HW122931   3.428   0.997   2.559  1.9135  2.2089  1.0047
 3823SOL    HW222932   3.530   0.889   2.514  0.8783  0.6016  0.5137
 3824SOL     OW22933   1.986   4.182   7.028 -0.1814  0.1008  0.1718
 3824SOL    HW122934   1.926   4.108   7.035  1.2465 -0.8884  2.0935
 3824SOL    HW222935   1.956   4.215   6.944  0.9470  1.5972  0.3627
 3825SOL     OW22936   2.742   1.766  10.593  0.2335  0.1929  0.3840
 3825SOL    HW122937   2.781   1.781  10.506 -0.1495  0.6603  0.2931
 3825SOL    HW222938   2.725   1.855  10.624 -0.9577  0.2337 -0.3989
 3826SOL     OW22939   1.397   2.388   4.282  0.0322 -0.1578  0.1696
 3826SOL    HW122940   1.455   2.317   4.255  2.1642  2.1011 -1.2171
 3826SOL    HW222941   1.319   2.334   4.273  0.9451 -1.1411 -1.8589
 3827SOL     OW22942   2.971   3.605  11.692  0.3330  0.0868 -0.2647
 3827SOL    HW122943   2.883   3.644  11.700 -0.0156 -1.1460  2.0242
 3827SOL    HW222944   2.967   3.532  11.753 -1.9242 -0.2638 -0.8394
 3828SOL     OW22945   1.683   1.868   3.861 -0.1264 -0.4412 -0.1399
 3828SOL    HW122946   1.651   1.934   3.799  1.2874 -1.8926 -2.4396
 3828SOL    HW222947   1.772   1.896   3.883 -0.1795 -0.0239 -0.4409
 3829SOL     OW22948   2.674   3.757   6.539 -0.5571  0.0993  0.0877
 3829SOL    HW122949   2.761   3.726   6.514 -0.3193  1.4373 -0.7379
 3829SOL    HW222950   2.656   3.707   6.619 -0.1165  0.1660  0.2305
 3830SOL     OW22951   4.239   0.452   5.521  0.4768  0.2821  0.4889
 3830SOL    HW122952   4.232   0.545   5.538 -0.0977  0.8119 -2.5907
 3830SOL    HW222953   4.232   0.458   5.426 -2.3625 -0.5797  0.6504
 3831SOL     OW22954   3.566   0.294   6.682  0.5288  0.0277  0.1257
 3831SOL    HW122955   3.544   0.227   6.617 -1.5987 -0.5101  1.4027
 3831SOL    HW222956   3.492   0.355   6.689 -0.5648 -1.4466  1.2583
 3832SOL     OW22957   0.273   0.608  13.666  0.2860  0.3923 -0.4089
 3832SOL    HW122958   0.290   0.521  13.701  1.5059  0.7275 -0.1346
 3832SOL    HW222959   0.212   0.632  13.735  0.1162 -3.2317  0.6724
 3833SOL     OW22960   2.819   1.469  17.051  0.1867 -1.0317  0.2416
 3833SOL    HW122961   2.767   1.389  17.048  1.2984 -1.6273 -2.5933
 3833SOL    HW222962   2.866   1.441  17.130  0.3342 -1.9005 -0.1518
 3834SOL     OW22963   3.343   1.259  10.507 -0.5781  0.9363  0.2535
 3834SOL    HW122964   3.394   1.332  10.543 -0.2740  1.7148 -1.7561
 3834SOL    HW222965   3.289   1.224  10.578  0.1686  1.3301  1.0171
 3835SOL     OW22966   3.270   0.578   7.863 -0.1040  0.3142  0.0922
 3835SOL    HW122967   3.194   0.535   7.904  1.1149  0.7321  2.8414
 3835SOL    HW222968   3.240   0.595   7.774 -0.6585 -1.0844  0.0063
 3836SOL     OW22969   2.293   1.423   7.281  0.3828 -0.3817 -0.2089
 3836SOL    HW122970   2.388   1.424   7.293  0.3391  1.5254  0.0299
 3836SOL    HW222971   2.285   1.499   7.224  1.8193 -0.3583 -0.3754
 3837SOL     OW22972   2.618   3.292  14.064 -0.3291  0.1169  0.4234
 3837SOL    HW122973   2.615   3.209  14.111  2.7855 -1.1644 -1.6994
 3837SOL    HW222974   2.535   3.291  14.017 -0.9358 -0.5154  1.4967
 3838SOL     OW22975   2.042   1.319   6.468  0.2123  0.2871 -0.3040
 3838SOL    HW122976   2.070   1.411   6.468  2.2652 -0.3378  1.7168
 3838SOL    HW222977   2.067   1.299   6.559  0.5630  1.1230 -0.2180
 3839SOL     OW22978   1.321   0.599   8.262 -0.9859  0.2739 -0.4104
 3839SOL    HW122979   1.413   0.595   8.235  0.0001  0.7926  2.8343
 3839SOL    HW222980   1.277   0.566   8.184 -1.5672  0.6157 -0.2260
 3840SOL     OW22981   2.354   1.358   3.462  0.2060 -0.3900 -0.6487
 3840SOL    HW122982   2.291   1.292   3.433 -0.0812  0.4613 -1.9692
 3840SOL    HW222983   2.337   1.354   3.556 -0.6671  0.4367 -0.7678
 3841SOL     OW22984   3.577   2.915  15.311  0.2456 -0.0003 -0.1798
 3841SOL    HW122985   3.618   2.991  15.351  0.1457 -0.3823  0.6562
 3841SOL    HW222986   3.620   2.851  15.368 -0.5576  0.6018  1.1112
 3842SOL     OW22987   4.479   2.606   6.558 -0.3457 -0.3090  0.1464
 3842SOL    HW122988   4.439   2.603   6.471 -1.0768  1.8435  0.4241
 3842SOL    HW222989   4.424   2.536   6.593 -0.4649 -0.7703 -0.9522
 3843SOL     OW22990   2.991   1.210   6.280 -0.1131 -0.0766 -0.3425
 3843SOL    HW122991   2.986   1.147   6.209 -2.4009 -1.6926  1.2459
 3843SOL    HW222992   3.070   1.180   6.326  0.0614 -0.0915 -0.6541
 3844SOL     OW22993   2.599   3.034   5.224 -0.4321  0.1424 -0.4407
 3844SOL    HW122994   2.676   2.977   5.221 -1.5114 -1.4033  0.9604
 3844SOL    HW222995   2.560   3.028   5.137  1.7567  0.2345 -1.4369
 3845SOL     OW22996   4.192   0.222   3.774  0.4719 -0.4252  0.1427
 3845SOL    HW122997   4.263   0.162   3.796 -0.1362 -1.4160 -0.5863
 3845SOL    HW222998   4.238   0.271   3.706 -0.5198 -0.8141 -0.8043
 3846SOL     OW22999   2.842   3.894   7.997  1.0449 -0.6008 -0.6115
 3846SOL    HW123000   2.857   3.968   8.055  0.7033 -0.4285 -0.7387
 3846SOL    HW223001   2.770   3.937   7.951 -0.3804 -3.2235 -0.8263
 3847SOL     OW23002   0.158   2.505   3.440 -0.3568  0.3396  0.3604
 3847SOL    HW123003   0.118   2.419   3.428 -2.5208  1.2748  0.8087
 3847SOL    HW223004   0.189   2.518   3.351 -1.3072 -1.5425 -0.2361
 3848SOL     OW23005   3.550   0.648  15.323 -0.0658 -0.4036 -0.0764
 3848SOL    HW123006   3.558   0.743  15.317 -1.1723 -0.4434 -2.2235
 3848SOL    HW223007   3.633   0.627  15.366 -0.2988  0.2324  0.6869
 3849SOL     OW23008   2.995   2.586  16.687 -0.4587  0.5209 -0.2040
 3849SOL    HW123009   3.083   2.555  16.663 -0.8961 -0.5323 -0.4601
 3849SOL    HW223010   2.997   2.575  16.782  1.8277  1.8891 -0.0918
 3850SOL     OW23011   1.460   4.252  12.482  0.8768  0.1369 -0.2555
 3850SOL    HW123012   1.541   4.303  12.481 -0.4082  2.1414 -1.4455
 3850SOL    HW223013   1.447   4.254  12.577 -2.2099  3.2142 -0.7361
 3851SOL     OW23014   1.063   2.058   2.918 -0.1133 -0.2952 -0.4498
 3851SOL    HW123015   1.012   2.080   2.840 -1.4289 -0.4517  0.3689
 3851SOL    HW223016   1.057   1.964   2.907  1.4359 -0.4181 -0.3642
 3852SOL     OW23017   0.654   3.486  15.639  0.5111 -0.2128 -0.4620
 3852SOL    HW123018   0.666   3.416  15.574 -0.6859  0.8296 -1.7850
 3852SOL    HW223019   0.570   3.466  15.681  0.9715  0.0485  0.6008
 3853SOL     OW23020   4.270   1.913  13.027  0.6354  0.2665 -0.2436
 3853SOL    HW123021   4.236   1.997  12.996  0.3106  0.4202  0.5306
 3853SOL    HW223022   4.192   1.866  13.055  2.9967 -3.1302  0.6308
 3854SOL     OW23023   0.578   3.368   6.827  0.3725  0.4497  0.2631
 3854SOL    HW123024   0.574   3.313   6.905 -2.1614 -1.1651 -1.0047
 3854SOL    HW223025   0.645   3.320   6.780 -0.4642  0.5342 -1.0246
 3855SOL     OW23026   3.471   4.628   6.365 -0.1921  0.6512 -0.1990
 3855SOL    HW123027   3.451   4.537   6.345 -0.9656  1.0642 -1.2848
 3855SOL    HW223028   3.517   4.645   6.282 -0.9780 -1.4749 -1.0578
 3856SOL     OW23029   1.113   3.729   5.273  0.0969 -0.1481 -0.0480
 3856SOL    HW123030   1.171   3.658   5.302  0.0652  0.0008  0.3803
 3856SOL    HW223031   1.182   3.785   5.237 -0.8532  0.3886 -1.0165
 3857SOL     OW23032   4.552   4.152   8.383 -0.2750 -0.0872 -0.1653
 3857SOL    HW123033   4.645   4.175   8.385  0.0418 -1.4087  0.3422
 3857SOL    HW223034   4.519   4.236   8.351  1.9722  1.9099  2.8290
 3858SOL     OW23035   0.605   3.168   1.783  0.1325  0.1464  0.2169
 3858SOL    HW123036   0.662   3.093   1.766  1.5168  1.2617 -0.0510
 3858SOL    HW223037   0.668   3.226   1.826  0.3716  0.3859 -0.4559
 3859SOL     OW23038   0.493   2.241   3.217  1.0320  0.5370 -0.2781
 3859SOL    HW123039   0.585   2.265   3.202  1.3123  0.9582  1.9948
 3859SOL    HW223040   0.468   2.241   3.125  2.4763  0.6456 -0.6769
 3860SOL     OW23041   2.354   1.998   2.966  0.1712  0.7205  0.2199
 3860SOL    HW123042   2.350   2.093   2.981  0.5218  0.3616  2.5381
 3860SOL    HW223043   2.303   1.974   3.044  0.9768 -0.7958  0.2769
 3861SOL     OW23044   4.210   2.362  14.806 -0.9197  0.4249 -0.9207
 3861SOL    HW123045   4.295   2.396  14.779 -0.1000  1.1162  2.4913
 3861SOL    HW223046   4.160   2.431  14.763 -2.0913  1.7538  2.5469
 3862SOL     OW23047   0.704   3.202   3.626  0.5667  0.5691 -0.5392
 3862SOL    HW123048   0.657   3.257   3.564  0.0935  0.8052  0.0322
 3862SOL    HW223049   0.708   3.118   3.581  2.3043  1.6742 -2.4908
 3863SOL     OW23050   2.208   1.257  12.593 -0.1111 -0.0559  0.1488
 3863SOL    HW123051   2.162   1.260  12.677 -1.7552 -0.5340 -0.7301
 3863SOL    HW223052   2.242   1.168  12.595 -1.1998 -0.4915 -1.0368
 3864SOL     OW23053   1.247   3.791   4.653  0.2438  0.0287 -0.0084
 3864SOL    HW123054   1.156   3.763   4.642  0.0617  0.9841 -0.9119
 3864SOL    HW223055   1.247   3.826   4.742 -0.9035 -0.1771  0.0720
 3865SOL     OW23056   4.334   3.235  11.508 -0.0045 -0.3051  0.4411
 3865SOL    HW123057   4.356   3.271  11.594  1.9312 -0.1706 -0.1029
 3865SOL    HW223058   4.254   3.286  11.494  1.6178  2.4783  1.3093
 3866SOL     OW23059   1.289   1.133   4.404 -0.4345  0.2683  0.3915
 3866SOL    HW123060   1.291   1.063   4.469 -1.1506  0.5150  0.6815
 3866SOL    HW223061   1.316   1.090   4.323 -3.6800 -0.2058 -0.4462
 3867SOL     OW23062   2.441   2.196   8.701  0.3312  0.1000  0.0288
 3867SOL    HW123063   2.496   2.162   8.772 -0.1533 -2.9399 -1.0748
 3867SOL    HW223064   2.436   2.287   8.731 -0.8810 -0.1538  0.5753
 3868SOL     OW23065   3.090   0.550   5.936  0.1616  0.3125  0.1469
 3868SOL    HW123066   3.174   0.572   5.895 -0.5589  1.5914 -0.6106
 3868SOL    HW223067   3.092   0.460   5.903 -0.8649 -0.2924  1.7477
 3869SOL     OW23068   3.534   1.154   9.701  0.0171 -0.5949 -0.6606
 3869SOL    HW123069   3.520   1.061   9.719  0.8290 -0.7841 -1.0332
 3869SOL    HW223070   3.619   1.168   9.741  0.2703 -2.5076 -0.5394
 3870SOL     OW23071   0.354   2.654   6.651  0.0206  0.3054  0.0686
 3870SOL    HW123072   0.401   2.735   6.665  0.0216  0.4872 -1.0331
 3870SOL    HW223073   0.266   2.686   6.630  0.1338 -0.2093 -1.1600
 3871SOL     OW23074   3.176   2.921   9.143  0.4815 -0.0615  0.1290
 3871SOL    HW123075   3.263   2.919   9.182  0.9847 -0.7594 -1.0077
 3871SOL    HW223076   3.200   2.895   9.054  0.6641  2.2867 -0.5254
 3872SOL     OW23077   0.883   1.133   6.096  0.5380 -0.0927  0.0815
 3872SOL    HW123078   0.943   1.079   6.043 -0.8211 -0.0149 -1.5127
 3872SOL    HW223079   0.806   1.112   6.043  0.1578  2.2802 -0.3092
 3873SOL     OW23080   2.953   2.072  12.297  0.2572  0.4096  0.3677
 3873SOL    HW123081   3.000   1.990  12.281  1.5729  1.0681  0.8803
 3873SOL    HW223082   2.998   2.114  12.370  1.0517 -0.5008  0.3986
 3874SOL     OW23083   1.730   1.793   3.337 -0.7232 -0.4006  0.4058
 3874SOL    HW123084   1.705   1.854   3.267 -0.5530 -0.3085  0.4251
 3874SOL    HW223085   1.692   1.710   3.307  1.0589 -1.6671  1.6456
 3875SOL     OW23086   0.699   2.717   2.515 -0.3303  0.0103  0.1030
 3875SOL    HW123087   0.719   2.635   2.471  1.5463  0.3268  0.3928
 3875SOL    HW223088   0.607   2.694   2.529  0.3978 -3.1389 -0.3597
 3876SOL     OW23089   3.470   2.685  13.514 -0.2971  0.1709 -0.0841
 3876SOL    HW123090   3.454   2.607  13.462 -1.6473 -0.3312  1.0739
 3876SOL    HW223091   3.564   2.677  13.529 -0.1874 -0.9631 -1.4077
 3877SOL     OW23092   4.228   4.650   1.761  0.2875  0.7784 -0.0632
 3877SOL    HW123093   4.298   4.595   1.795  1.2598  0.0728 -3.2044
 3877SOL    HW223094   4.160   4.641   1.828 -0.3635 -1.1384 -0.9861
 3878SOL     OW23095   0.565   2.400   6.346  0.5738  0.2146 -0.5129
 3878SOL    HW123096   0.640   2.378   6.401 -1.2283  1.3176  2.3832
 3878SOL    HW223097   0.497   2.366   6.406  0.6304 -1.1357 -1.2188
 3879SOL     OW23098   2.670   1.325   9.695 -0.1818 -0.5262  0.1413
 3879SOL    HW123099   2.755   1.368   9.708 -0.9365  1.1820 -0.4451
 3879SOL    HW223100   2.611   1.366   9.759  0.0170  1.7507 -1.1104
 3880SOL     OW23101   3.997   2.463   5.443  0.5510 -0.1670  0.1815
 3880SOL    HW123102   3.941   2.424   5.376  1.6613 -0.4750 -0.5649
 3880SOL    HW223103   3.942   2.525   5.490 -1.2292 -1.1228 -0.6660
 3881SOL     OW23104   1.697   2.212   1.789  0.3669  0.6705 -0.2538
 3881SOL    HW123105   1.636   2.263   1.842 -1.2939 -0.0611 -1.4349
 3881SOL    HW223106   1.767   2.192   1.851 -1.2430 -0.4864  1.1762
 3882SOL     OW23107   3.635   2.670   3.947 -0.1951 -0.0467 -0.1682
 3882SOL    HW123108   3.653   2.620   3.867  0.5932 -1.4869  0.9115
 3882SOL    HW223109   3.646   2.596   4.007 -0.0827  0.0259 -0.1009
 3883SOL     OW23110   3.146   3.397  16.351  0.0458  0.6618 -0.0956
 3883SOL    HW123111   3.128   3.308  16.381 -0.9223  0.9983  0.3447
 3883SOL    HW223112   3.071   3.426  16.299 -0.8012  0.1966  0.8566
 3884SOL     OW23113   1.836   3.249   5.441 -0.1416 -0.0118  0.0053
 3884SOL    HW123114   1.801   3.161   5.425  0.8196 -0.8310  2.3912
 3884SOL    HW223115   1.761   3.308   5.443 -0.5207 -0.5252  0.9148
 3885SOL     OW23116   0.751   1.593   8.425  0.4928  0.0638  0.1883
 3885SOL    HW123117   0.762   1.663   8.490  2.5982 -0.2664  0.1910
 3885SOL    HW223118   0.680   1.634   8.376  0.1953 -0.7143 -0.0209
 3886SOL     OW23119   0.400   0.200  11.064  0.0686 -0.4469 -0.4534
 3886SOL    HW123120   0.363   0.270  11.011  0.9956  0.3483 -0.0492
 3886SOL    HW223121   0.452   0.245  11.130 -0.6970  1.7732 -1.3709
 3887SOL     OW23122   2.370   2.744  14.170 -0.0000 -0.6956  0.2333
 3887SOL    HW123123   2.349   2.709  14.257  2.2690  0.6504  1.3210
 3887SOL    HW223124   2.293   2.710  14.125 -0.1662 -3.0959  2.2788
 3888SOL     OW23125   3.170   2.652   4.678  0.3188  0.0050 -0.4639
 3888SOL    HW123126   3.235   2.583   4.681 -1.2816 -1.5156 -0.5343
 3888SOL    HW223127   3.096   2.609   4.634 -0.6981  0.6595  0.6249
 3889SOL     OW23128   4.088   3.665   7.553 -0.1637  0.1430  0.0434
 3889SOL    HW123129   4.017   3.717   7.591  0.1811 -2.0741  3.7421
 3889SOL    HW223130   4.073   3.686   7.461  0.6114 -0.4306 -0.2182
 3890SOL     OW23131   0.124   0.756   1.127 -0.3269 -0.4002  0.5647
 3890SOL    HW123132   0.212   0.794   1.120 -0.5529 -0.6986 -3.9092
 3890SOL    HW223133   0.133   0.687   1.061 -2.9224  1.5158 -1.7703
 3891SOL     OW23134   3.277   0.167  15.905  0.0253 -0.1736 -0.4027
 3891SOL    HW123135   3.372   0.161  15.910  0.0580  0.0805 -0.7155
 3891SOL    HW223136   3.247   0.077  15.914 -0.2972 -0.1574 -1.3312
 3892SOL     OW23137   2.054   0.404   3.423  0.0130 -0.3735  0.5289
 3892SOL    HW123138   2.115   0.379   3.353  1.0965 -0.6115  1.5646
 3892SOL    HW223139   2.108   0.475   3.457  0.6676 -0.4223 -0.3990
 3893SOL     OW23140   4.535   4.386   3.709  0.0456  0.0440 -0.0934
 3893SOL    HW123141   4.512   4.473   3.675 -3.0841 -1.0767 -0.8268
 3893SOL    HW223142   4.557   4.333   3.632  0.3235 -0.7568  0.5412
 3894SOL     OW23143   1.820   4.255   7.450  0.1928 -0.0534  0.1844
 3894SOL    HW123144   1.905   4.253   7.407  0.2120 -0.1494  0.2267
 3894SOL    HW223145   1.831   4.331   7.507 -1.2741  0.6884 -0.5212
 3895SOL     OW23146   4.403   2.045   6.599 -0.0277  0.3583 -0.0315
 3895SOL    HW123147   4.462   2.034   6.673  1.4625  1.0777 -1.1208
 3895SOL    HW223148   4.333   1.984   6.624 -0.2802  0.4241 -0.5705
 3896SOL     OW23149   3.177   0.555   1.976 -0.0547 -0.2842  0.0754
 3896SOL    HW123150   3.147   0.606   1.901  0.4080 -1.9456 -1.2439
 3896SOL    HW223151   3.224   0.620   2.027 -0.9192 -0.3794  1.0001
 3897SOL     OW23152   0.652   0.616   7.091  0.2369  0.4804  0.7853
 3897SOL    HW123153   0.653   0.642   7.183  2.3867 -0.6139  1.0696
 3897SOL    HW223154   0.614   0.696   7.055  0.9355  1.2159  1.6949
 3898SOL     OW23155   0.647   2.265   2.609  0.0243 -0.3848  0.4760
 3898SOL    HW123156   0.667   2.217   2.689 -0.9387 -0.2242  0.8131
 3898SOL    HW223157   0.552   2.253   2.605  0.5561 -3.9623 -1.4169
 3899SOL     OW23158   4.634   2.221  13.591  0.3199  0.3278  0.4261
 3899SOL    HW123159   4.565   2.254  13.533  1.6593  1.8995 -0.2382
 3899SOL    HW223160   4.643   2.293  13.653 -0.1582  1.5009 -0.8771
 3900SOL     OW23161   4.023   1.313   7.136  0.6274 -0.4253  0.3173
 3900SOL    HW123162   4.007   1.251   7.065 -1.8591  0.7535 -0.1875
 3900SOL    HW223163   4.118   1.316   7.139  0.6128  1.2453 -0.5958
 3901SOL     OW23164   4.533   2.249  14.371 -0.1064  0.1669 -0.0792
 3901SOL    HW123165   4.587   2.272  14.447 -2.6185  0.8934  1.4817
 3901SOL    HW223166   4.512   2.156  14.377  0.8870 -0.0404  0.2186
 3902SOL     OW23167   4.092   4.551   3.895  0.3581 -0.0507 -0.0130
 3902SOL    HW123168   4.176   4.508   3.912  0.1912  0.6402  2.5402
 3902SOL    HW223169   4.078   4.585   3.983 -0.3933  1.1472 -0.6031
 3903SOL     OW23170   4.071   3.951   3.092 -0.3632  0.6742  0.4314
 3903SOL    HW123171   4.029   3.937   3.007  1.1126  0.9916 -0.3502
 3903SOL    HW223172   4.017   3.893   3.145 -0.5897  0.1157 -0.4128
 3904SOL     OW23173   3.908   3.166  10.429 -0.1961 -0.6005 -0.5375
 3904SOL    HW123174   3.862   3.234  10.381  0.4946  1.1483  1.2519
 3904SOL    HW223175   3.924   3.202  10.516  1.3571 -2.0813 -0.2102
 3905SOL     OW23176   0.854   0.069   5.142 -1.1603 -0.0436 -0.2768
 3905SOL    HW123177   0.815   0.078   5.055  0.0624  0.0241 -0.8178
 3905SOL    HW223178   0.895   0.155   5.156 -2.1126  0.2818  0.5170
 3906SOL     OW23179   1.916   3.510   5.058 -0.5620  0.1872  0.5712
 3906SOL    HW123180   1.824   3.483   5.059 -0.7311  0.5512 -4.2188
 3906SOL    HW223181   1.911   3.566   4.981  0.7548  1.2545  1.2556
 3907SOL     OW23182   3.059   1.277   6.009  0.0136 -0.0259 -0.4399
 3907SOL    HW123183   3.066   1.295   6.103 -0.2366  0.7088 -0.5580
 3907SOL    HW223184   3.140   1.230   5.988 -0.9438 -0.7835 -2.4638
 3908SOL     OW23185   4.389   1.526   7.189 -0.5088  0.3544 -0.1441
 3908SOL    HW123186   4.445   1.511   7.114 -1.8416  0.3407 -1.1393
 3908SOL    HW223187   4.403   1.620   7.204 -1.4429  0.7774 -1.8619
 3909SOL     OW23188   3.307   2.139   5.305  0.1372 -0.1395  0.2499
 3909SOL    HW123189   3.229   2.194   5.315  1.5339  2.0589 -1.0067
 3909SOL    HW223190   3.362   2.154   5.382  0.5293  2.0368 -0.4604
 3910SOL     OW23191   0.013   1.886  13.443 -0.0883 -0.0737  0.3354
 3910SOL    HW123192   0.086   1.944  13.423 -0.1780 -0.3493 -0.7997
 3910SOL    HW223193   4.710   1.854  13.357  0.2992  2.0172 -0.5595
 3911SOL     OW23194   3.313   0.012   7.417 -0.4894  0.8797  0.2565
 3911SOL    HW123195   3.316   4.676   7.491  0.9337 -1.4539 -1.7109
 3911SOL    HW223196   3.240   0.067   7.448 -1.0461  1.1743 -1.6134
 3912SOL     OW23197   2.821   3.089   8.312  0.8547  0.8144 -0.7047
 3912SOL    HW123198   2.733   3.056   8.330  1.0662  0.1680 -0.8528
 3912SOL    HW223199   2.872   3.028   8.366  0.0118 -0.3303 -1.2023
 3913SOL     OW23200   2.824   3.458   6.995  0.4135 -0.1027  0.1329
 3913SOL    HW123201   2.913   3.430   6.976  0.2001  0.3627 -1.5686
 3913SOL    HW223202   2.798   3.384   7.049  3.9452 -1.7462 -0.4507
 3914SOL     OW23203   1.398   1.477  13.064  0.9900  0.0043  0.7284
 3914SOL    HW123204   1.452   1.415  13.014 -0.5209 -0.8435  0.1557
 3914SOL    HW223205   1.442   1.548  13.018 -0.5551  0.9254  0.6815
 3915SOL     OW23206   0.814   4.015   7.885  1.2001  0.3604 -0.1695
 3915SOL    HW123207   0.818   4.080   7.954 -0.5814  0.8582 -0.5329
 3915SOL    HW223208   0.877   3.954   7.923  0.3754  0.9476  2.1651
 3916SOL     OW23209   1.339   3.996   7.655  0.6926  0.3262 -0.2123
 3916SOL    HW123210   1.426   4.028   7.630 -0.5253  2.6562 -1.4775
 3916SOL    HW223211   1.342   4.008   7.749  1.2763  1.9074 -0.4403
 3917SOL     OW23212   1.730   3.783   5.550  0.0037  0.3355  0.0606
 3917SOL    HW123213   1.817   3.796   5.514  0.5237 -0.9983  0.8338
 3917SOL    HW223214   1.732   3.696   5.589  0.9184  0.7846  1.0218
 3918SOL     OW23215   4.468   2.640   2.706 -0.4042  0.0095  0.4972
 3918SOL    HW123216   4.396   2.586   2.675 -1.4332  0.5951  1.8916
 3918SOL    HW223217   4.477   2.712   2.644  0.1691  0.5475  1.2032
 3919SOL     OW23218   1.058   1.201   4.612  0.1261 -0.5611 -0.1631
 3919SOL    HW123219   1.109   1.209   4.531  0.6871 -1.2543  0.1299
 3919SOL    HW223220   1.039   1.295   4.615 -0.2720 -0.7111  1.7026
 3920SOL     OW23221   3.236   3.076   1.946  0.0002  0.2286  0.4350
 3920SOL    HW123222   3.295   3.110   2.013  0.6171  0.4739 -0.2389
 3920SOL    HW223223   3.166   3.141   1.957 -0.5325 -0.7901  3.1796
 3921SOL     OW23224   0.398   3.125   4.686 -0.0161 -0.2181 -0.6143
 3921SOL    HW123225   0.313   3.092   4.656 -0.0619 -0.6495 -0.0081
 3921SOL    HW223226   0.439   3.044   4.717 -0.2552 -0.2015 -0.2580
 3922SOL     OW23227   4.655   4.689   4.208 -0.1952  0.0840  0.2602
 3922SOL    HW123228   4.590   4.678   4.139 -0.8830 -1.0512  1.1026
 3922SOL    HW223229   4.722   0.010   4.157  1.3859 -0.4547  1.8620
 3923SOL     OW23230   2.505   2.525   7.389 -0.2089  0.1974 -0.1299
 3923SOL    HW123231   2.438   2.514   7.457 -0.3633  1.5224 -0.0796
 3923SOL    HW223232   2.575   2.471   7.427 -1.1118  1.1914  2.9290
 3924SOL     OW23233   1.062   3.798   4.362 -0.0543  0.3900  1.1059
 3924SOL    HW123234   0.986   3.833   4.314  0.0548  1.3079  1.6160
 3924SOL    HW223235   1.105   3.735   4.304 -2.2845 -1.7773  1.7739
 3925SOL     OW23236   0.423   0.379  16.170 -0.5102  0.2593 -0.1729
 3925SOL    HW123237   0.343   0.372  16.223 -0.6587 -0.1518 -0.4533
 3925SOL    HW223238   0.434   0.288  16.146 -0.6731 -0.2531  1.6449
 3926SOL     OW23239   1.756   3.377   3.056 -0.6889 -0.0377  0.2774
 3926SOL    HW123240   1.760   3.386   2.961  1.2538  1.3514  0.5045
 3926SOL    HW223241   1.691   3.312   3.082 -1.7140  0.9801  0.2548
 3927SOL     OW23242   3.645   0.280  16.827  0.9327  0.2188  0.1085
 3927SOL    HW123243   3.666   0.264  16.919  0.7262 -0.0911  0.1021
 3927SOL    HW223244   3.736   0.283  16.799  1.1992  0.1898  0.9473
 3928SOL     OW23245   3.158   1.468   1.224 -0.2676 -0.0483  0.6822
 3928SOL    HW123246   3.166   1.511   1.309 -0.8225  0.2228  0.5928
 3928SOL    HW223247   3.149   1.380   1.261  0.1603 -0.2219  0.3815
 3929SOL     OW23248   2.765   0.426  10.099  0.0677  0.5517 -0.7491
 3929SOL    HW123249   2.722   0.498  10.053 -1.8980  0.7474  1.4220
 3929SOL    HW223250   2.689   0.404  10.153 -0.7059 -1.2497 -2.6006
 3930SOL     OW23251   1.762   4.050  16.235 -0.2903 -0.3830  0.2589
 3930SOL    HW123252   1.750   4.014  16.323  1.1033 -2.2975 -0.3489
 3930SOL    HW223253   1.681   4.027  16.190  0.4063  1.6005 -2.0037
 3931SOL     OW23254   2.162   3.960   7.541 -0.1109  0.2265 -0.0080
 3931SOL    HW123255   2.077   3.918   7.526  0.8325 -1.5050 -0.5197
 3931SOL    HW223256   2.209   3.921   7.467 -1.9394  1.5596 -1.9002
 3932SOL     OW23257   2.963   1.140   7.381  0.5163  0.1507 -0.0104
 3932SOL    HW123258   3.006   1.107   7.301  1.3354  0.4448  0.3128
 3932SOL    HW223259   2.879   1.096   7.368 -0.3592  1.7551  0.3063
 3933SOL     OW23260   1.923   0.381   6.009  0.2967  0.2633  0.1240
 3933SOL    HW123261   1.897   0.314   6.072  1.2716  0.1691  0.4245
 3933SOL    HW223262   2.017   0.368   6.002  0.4902  1.4118  0.4733
 3934SOL     OW23263   4.557   3.497   5.415 -0.5430  0.2881 -0.8167
 3934SOL    HW123264   4.584   3.492   5.323  1.5025  2.8590 -0.3627
 3934SOL    HW223265   4.462   3.493   5.405 -0.3845 -2.2383 -1.1364
 3935SOL     OW23266   1.126   0.823  16.105 -0.1346 -0.5056  0.5290
 3935SOL    HW123267   1.100   0.805  16.015  4.1850 -1.6421 -0.5124
 3935SOL    HW223268   1.209   0.865  16.080 -0.3456 -2.1302 -2.9256
 3936SOL     OW23269   0.723   1.691   5.471  0.4416 -0.2953  0.1058
 3936SOL    HW123270   0.682   1.730   5.394  4.8552  1.3438 -1.4097
 3936SOL    HW223271   0.655   1.717   5.532 -1.0757 -2.6539 -0.5889
 3937SOL     OW23272   0.493   2.396   7.950  0.2656 -0.0574  0.2515
 3937SOL    HW123273   0.490   2.491   7.944  0.3816 -0.0843 -0.2897
 3937SOL    HW223274   0.574   2.379   7.901  0.3022  1.3879 -0.2078
 3938SOL     OW23275   0.726   3.066  14.233  0.2701 -0.3535  0.4603
 3938SOL    HW123276   0.753   3.115  14.155 -0.5309 -1.8191 -0.7419
 3938SOL    HW223277   0.766   2.979  14.226 -1.1825 -1.0554  0.9089
 3939SOL     OW23278   3.950   0.518   8.618  0.6843  0.0466 -0.3459
 3939SOL    HW123279   3.988   0.570   8.546  1.0885 -0.1179 -0.2516
 3939SOL    HW223280   3.855   0.527   8.618  0.7425  0.7352 -1.6988
 3940SOL     OW23281   2.236   0.836   0.151 -0.4888  0.5919 -0.0333
 3940SOL    HW123282   2.287   0.907   0.191  0.3301  0.8093 -1.4592
 3940SOL    HW223283   2.221   0.881   0.069  2.5331  2.3087  0.3248
 3941SOL     OW23284   1.047   4.368  13.336  0.4492 -0.0350 -0.2146
 3941SOL    HW123285   1.072   4.289  13.288 -3.3451 -1.8836  0.8722
 3941SOL    HW223286   1.135   4.376  13.374 -0.1737 -0.0033  1.1807
 3942SOL     OW23287   4.509   3.269   7.577 -0.3776 -0.0500  0.6297
 3942SOL    HW123288   4.424   3.227   7.565 -0.6504  0.6924  0.0182
 3942SOL    HW223289   4.573   3.204   7.546 -0.7403  0.4547 -1.1991
 3943SOL     OW23290   3.617   4.663   5.492  0.3034 -0.2142 -0.1704
 3943SOL    HW123291   3.665   4.607   5.430 -0.2223  0.1680 -0.9296
 3943SOL    HW223292   3.534   4.617   5.491 -0.3139  0.9057 -0.6317
 3944SOL     OW23293   3.460   1.600   8.734  0.4601  0.2781  0.3556
 3944SOL    HW123294   3.424   1.525   8.688  1.6006 -1.5799  2.4619
 3944SOL    HW223295   3.524   1.627   8.668 -0.4230 -1.6478 -1.2601
 3945SOL     OW23296   1.420   3.154   4.835 -0.1800 -0.7157 -0.6423
 3945SOL    HW123297   1.350   3.211   4.865  0.4378  0.3997 -1.3280
 3945SOL    HW223298   1.364   3.083   4.804  0.3812 -1.2908 -0.3410
 3946SOL     OW23299   1.225   4.086   8.739 -0.5258 -0.3373 -0.3262
 3946SOL    HW123300   1.290   4.044   8.682  1.1720 -0.2283  1.5441
 3946SOL    HW223301   1.207   4.014   8.799 -0.9177 -1.1598 -1.4387
 3947SOL     OW23302   1.841   1.839   6.292  0.4705 -0.4691  0.0809
 3947SOL    HW123303   1.881   1.752   6.288  2.4404  0.3492  1.9252
 3947SOL    HW223304   1.919   1.889   6.316  1.1358 -0.3509 -2.3179
 3948SOL     OW23305   4.016   3.675   5.188 -0.2151  0.6270  0.0302
 3948SOL    HW123306   3.921   3.670   5.181 -0.3002  1.0289  0.9133
 3948SOL    HW223307   4.044   3.688   5.098  1.0322 -0.9722  0.1901
 3949SOL     OW23308   0.356   3.511  10.585  0.3155 -0.3992  0.2203
 3949SOL    HW123309   0.449   3.491  10.568 -0.0620 -3.0065  1.1759
 3949SOL    HW223310   0.314   3.454  10.520  0.9753 -0.3711 -0.2294
 3950SOL     OW23311   3.175   0.769   6.097 -0.1592 -0.1137  0.3077
 3950SOL    HW123312   3.242   0.719   6.145  0.6707  0.3192 -0.4048
 3950SOL    HW223313   3.130   0.700   6.048  1.7192 -1.2938  0.2404
 3951SOL     OW23314   2.182   3.956   1.396  0.2846 -0.6506 -0.8866
 3951SOL    HW123315   2.164   4.026   1.458 -4.2597 -3.4117  0.8406
 3951SOL    HW223316   2.277   3.961   1.388  0.1508  2.6968 -0.3964
 3952SOL     OW23317   0.813   3.038  10.675  0.3912  0.5248  0.1277
 3952SOL    HW123318   0.790   2.948  10.651  3.5041 -0.3590  0.4552
 3952SOL    HW223319   0.908   3.044  10.671  0.4512  1.3383  2.4364
 3953SOL     OW23320   1.276   2.403   7.184 -0.2463 -0.3444 -0.5613
 3953SOL    HW123321   1.228   2.454   7.249 -0.5575 -1.8284  0.3704
 3953SOL    HW223322   1.359   2.400   7.232  0.4476 -0.5646 -1.7687
 3954SOL     OW23323   3.982   2.065   3.933  0.4061  0.0742 -0.1984
 3954SOL    HW123324   3.889   2.088   3.931  0.7891  1.7703  1.7908
 3954SOL    HW223325   4.010   2.122   4.005  1.0219 -1.1665  0.5356
 3955SOL     OW23326   1.587   3.924   5.340 -1.0108 -0.4741  0.2010
 3955SOL    HW123327   1.630   3.865   5.403 -0.8836 -0.1439  0.4240
 3955SOL    HW223328   1.591   4.004   5.392 -0.3723  1.0109 -2.1297
 3956SOL     OW23329   4.599   4.077   6.061  0.2239  0.3974 -0.0984
 3956SOL    HW123330   4.586   4.166   6.094 -0.1217  0.0582  0.6665
 3956SOL    HW223331   4.524   4.027   6.093  0.3038  2.2380  2.9340
 3957SOL     OW23332   2.794   1.740   5.412  0.0638 -0.1514 -0.0411
 3957SOL    HW123333   2.775   1.811   5.474 -1.2236 -1.0776  0.6105
 3957SOL    HW223334   2.714   1.688   5.415 -0.4931  0.7790  1.2607
 3958SOL     OW23335   0.222   2.908  16.615 -0.4525  0.1875 -0.1307
 3958SOL    HW123336   0.223   2.922  16.520  0.9138 -1.9449 -0.4265
 3958SOL    HW223337   0.278   2.830  16.618  1.5186  1.5365 -2.2549
 3959SOL     OW23338   3.978   4.721   4.471 -0.0418 -0.4170  1.0396
 3959SOL    HW123339   3.915   4.693   4.405  1.2749 -0.4055 -0.2039
 3959SOL    HW223340   4.028   4.643   4.497 -1.1477 -1.0004  1.4100
 3960SOL     OW23341   2.971   1.117  17.638 -0.2758 -0.6112 -0.7054
 3960SOL    HW123342   2.984   1.194  17.582 -0.8183  0.7029  0.9889
 3960SOL    HW223343   2.876   1.123  17.651 -0.0771  1.4710 -0.1922
 3961SOL     OW23344   3.819   4.190   9.624 -0.3451  0.2345 -0.5106
 3961SOL    HW123345   3.909   4.193   9.591 -0.3865  2.2931 -0.4421
 3961SOL    HW223346   3.768   4.207   9.544  3.0150 -0.0688 -2.7197
 3962SOL     OW23347   1.553   0.077   7.727  0.8677  0.5724 -0.0554
 3962SOL    HW123348   1.492   0.052   7.796  0.2534  0.6170 -0.5835
 3962SOL    HW223349   1.602   4.719   7.717 -3.4642 -2.1801  1.8010
 3963SOL     OW23350   0.547   1.573   9.251 -0.2051  0.1899  0.3550
 3963SOL    HW123351   0.555   1.505   9.317  1.7301 -1.0207 -1.1330
 3963SOL    HW223352   0.626   1.558   9.199 -1.4406 -1.3144 -1.0998
 3964SOL     OW23353   0.391   4.401   1.484 -0.5477  0.3659 -0.2664
 3964SOL    HW123354   0.339   4.410   1.404 -1.2108  0.3285  0.1586
 3964SOL    HW223355   0.341   4.338   1.535 -1.9000  0.8742 -0.9358
 3965SOL     OW23356   0.387   4.040   5.737 -0.0700  0.1311  0.3887
 3965SOL    HW123357   0.386   4.132   5.712 -0.7178 -0.0404 -0.2223
 3965SOL    HW223358   0.299   4.023   5.704  0.2647 -1.7243  0.4510
 3966SOL     OW23359   4.074   4.409   7.211 -0.0853  0.2460  0.1792
 3966SOL    HW123360   3.999   4.468   7.208 -0.5270 -0.3886 -1.1019
 3966SOL    HW223361   4.026   4.332   7.241  0.0682  0.3032  0.5744
 3967SOL     OW23362   0.546   0.291   8.957 -0.4008 -0.0200  0.0384
 3967SOL    HW123363   0.586   0.232   8.894  1.2838 -0.6489  1.6936
 3967SOL    HW223364   0.518   0.363   8.901 -0.9268  0.4970  0.9625
 3968SOL     OW23365   2.969   1.634   4.539  0.1877 -0.4230 -0.0643
 3968SOL    HW123366   3.015   1.718   4.536  0.2903 -0.5156 -1.4186
 3968SOL    HW223367   2.928   1.634   4.452 -0.1216 -2.2002  0.0700
 3969SOL     OW23368   0.037   3.171   6.322 -0.0658 -0.0101  0.5482
 3969SOL    HW123369   0.128   3.175   6.294 -0.3407 -0.2008 -0.3548
 3969SOL    HW223370   0.047   3.156   6.416 -1.6221 -1.4210  0.4931
 3970SOL     OW23371   0.676   2.109   7.657 -0.2598 -0.3718  0.0096
 3970SOL    HW123372   0.695   2.121   7.564  0.0780  1.1018  0.2768
 3970SOL    HW223373   0.731   2.033   7.677  0.7839 -0.2106 -2.3258
 3971SOL     OW23374   4.404   1.146   5.331  0.5877 -0.3254  0.2449
 3971SOL    HW123375   4.371   1.232   5.359  2.1753  0.1405  0.6876
 3971SOL    HW223376   4.356   1.134   5.249  0.1628  1.4429  0.2335
 3972SOL     OW23377   3.404   4.354   7.263  0.2425 -0.1512  0.4013
 3972SOL    HW123378   3.334   4.404   7.223  1.1169  1.7220  1.2190
 3972SOL    HW223379   3.361   4.292   7.323  4.4506 -1.8576  1.7107
 3973SOL     OW23380   2.618   1.311   4.502 -0.2201  0.2771 -0.7546
 3973SOL    HW123381   2.602   1.405   4.501 -2.3149 -0.0693 -0.9910
 3973SOL    HW223382   2.537   1.273   4.466 -0.6956  0.2017  0.4068
 3974SOL     OW23383   1.712   3.319  15.993 -0.0954  0.1746 -0.0693
 3974SOL    HW123384   1.757   3.371  15.925 -0.0983 -1.4796 -1.3447
 3974SOL    HW223385   1.735   3.229  15.971 -3.5429 -1.1631  1.8998
 3975SOL     OW23386   3.557   2.226   8.235  0.4241  0.4545  0.3688
 3975SOL    HW123387   3.487   2.291   8.243  1.3400  1.5739 -0.8296
 3975SOL    HW223388   3.584   2.217   8.326 -0.1944 -0.8065  0.4314
 3976SOL     OW23389   2.661   1.210  17.052  0.4642 -0.2886  0.0152
 3976SOL    HW123390   2.632   1.142  16.992  0.0386 -0.6247  0.6096
 3976SOL    HW223391   2.714   1.157  17.112  1.4751 -0.1722 -0.7599
 3977SOL     OW23392   4.252   1.767   1.268 -0.8006 -0.5538 -0.2872
 3977SOL    HW123393   4.267   1.861   1.260 -0.5808 -0.4847  0.9040
 3977SOL    HW223394   4.161   1.765   1.297 -0.4370 -3.0222  0.7218
 3978SOL     OW23395   2.160   1.381   9.873  0.6708 -0.1984 -0.0220
 3978SOL    HW123396   2.099   1.377   9.799  1.4071  0.1282 -0.6420
 3978SOL    HW223397   2.179   1.289   9.888  2.0176  0.1693  0.5789
 3979SOL     OW23398   0.757   3.143   8.523  0.6889  0.2034  0.5886
 3979SOL    HW123399   0.774   3.109   8.435  0.3615  1.6455 -0.0455
 3979SOL    HW223400   0.721   3.230   8.502  0.4788  0.4292  1.9335
 3980SOL     OW23401   2.374   3.377   4.190  0.3451  0.1016 -0.1254
 3980SOL    HW123402   2.282   3.356   4.206  0.7606 -0.7078  1.2595
 3980SOL    HW223403   2.372   3.471   4.173  1.1325  0.4292  1.6195
 3981SOL     OW23404   0.169   1.828   9.321  0.5876  0.5564 -0.0751
 3981SOL    HW123405   0.261   1.810   9.343 -0.5272 -0.9907  3.3570
 3981SOL    HW223406   0.115   1.764   9.368 -1.5862  2.3458 -0.1987
 3982SOL     OW23407   3.325   3.555  16.127 -0.2305 -0.0331  0.2089
 3982SOL    HW123408   3.242   3.593  16.101  0.1753  0.6386 -0.0987
 3982SOL    HW223409   3.373   3.561  16.044 -2.5724 -3.3009 -1.4052
 3983SOL     OW23410   3.264   0.105   8.535  0.1458  0.3715 -0.0694
 3983SOL    HW123411   3.197   0.066   8.591 -0.7761 -1.9871 -2.7992
 3983SOL    HW223412   3.286   0.034   8.475  0.1773  2.4735 -2.5508
 3984SOL     OW23413   4.638   2.799   8.470  0.2941  0.8099 -0.3137
 3984SOL    HW123414   4.550   2.833   8.454  1.5930  4.5724  0.4760
 3984SOL    HW223415   4.688   2.880   8.472  1.1478  0.2715  0.2858
 3985SOL     OW23416   4.446   4.455  11.895  0.3554  0.2809 -0.3570
 3985SOL    HW123417   4.416   4.483  11.809  0.1884 -2.9832 -1.3736
 3985SOL    HW223418   4.384   4.481  11.963 -0.4839 -1.5594 -0.4163
 3986SOL     OW23419   1.586   1.162   4.525  0.0830  0.9305  0.1582
 3986SOL    HW123420   1.656   1.175   4.590  0.1166  1.5640 -0.0129
 3986SOL    HW223421   1.611   1.213   4.448 -1.5557  3.3388  1.2264
 3987SOL     OW23422   4.269   1.194  14.428  0.0418  0.3483  0.6515
 3987SOL    HW123423   4.207   1.231  14.366  1.0130 -1.5380 -1.4719
 3987SOL    HW223424   4.239   1.106  14.451  0.1395 -0.1863 -1.3169
 3988SOL     OW23425   0.991   2.308   6.416 -0.0735 -0.5445  0.7115
 3988SOL    HW123426   1.077   2.329   6.452  0.4207 -0.5889 -0.4390
 3988SOL    HW223427   1.009   2.265   6.332 -0.2991 -0.5981  0.6899
 3989SOL     OW23428   3.158   3.321   8.235  0.2460  0.1648 -0.1047
 3989SOL    HW123429   3.251   3.343   8.249 -0.1835  0.0661  2.9401
 3989SOL    HW223430   3.126   3.342   8.323  2.0325  2.3732  0.0402
 3990SOL     OW23431   1.891   1.558   0.278 -0.1274 -0.0010 -0.0890
 3990SOL    HW123432   1.971   1.595   0.240 -1.7657  3.0737 -0.5889
 3990SOL    HW223433   1.919   1.472   0.308  1.7473 -0.3420 -2.9251
 3991SOL     OW23434   2.402   2.936  15.324 -0.0156 -0.0342 -0.7181
 3991SOL    HW123435   2.469   2.882  15.366 -2.0851 -1.2739  0.9710
 3991SOL    HW223436   2.331   2.928  15.387  1.3657 -1.1455  0.7013
 3992SOL     OW23437   0.457   0.721   5.992  0.5194 -0.3078 -0.1166
 3992SOL    HW123438   0.465   0.779   6.068  0.4765  1.4639 -1.4813
 3992SOL    HW223439   0.418   0.772   5.922  2.9591  0.5106 -0.8666
 3993SOL     OW23440   1.159   1.279   5.421 -0.1524 -0.3698 -0.9929
 3993SOL    HW123441   1.131   1.189   5.438 -1.4383  0.4919  1.5033
 3993SOL    HW223442   1.168   1.321   5.507 -0.6185  0.4256 -1.3316
 3994SOL     OW23443   0.336   3.882  11.471  0.6312  0.3965  0.8764
 3994SOL    HW123444   0.316   3.969  11.505 -0.8933  0.2704  0.3129
 3994SOL    HW223445   0.418   3.873  11.519  2.7270  2.9494 -2.2722
 3995SOL     OW23446   1.854   2.977   8.191  0.2490  0.1055 -0.7964
 3995SOL    HW123447   1.774   2.973   8.139  0.2003  2.7255 -0.9446
 3995SOL    HW223448   1.827   3.026   8.269  0.7369  0.8129 -1.0663
 3996SOL     OW23449   2.580   4.013   7.881  0.1255  0.6188  0.1787
 3996SOL    HW123450   2.496   4.013   7.834 -0.1697  2.2671  0.7312
 3996SOL    HW223451   2.536   4.010   7.966 -0.6620  1.0954 -0.2151
 3997SOL     OW23452   0.545   3.699   2.308  0.0760  0.3250 -0.6241
 3997SOL    HW123453   0.460   3.711   2.266 -0.7720 -1.8868  0.4538
 3997SOL    HW223454   0.581   3.787   2.304 -0.3374  0.5326  0.1839
 3998SOL     OW23455   3.142   4.691   2.769  0.3278 -0.2302  0.1107
 3998SOL    HW123456   3.101   0.046   2.736 -0.9650 -0.3063  1.5184
 3998SOL    HW223457   3.215   4.696   2.707 -0.7187  1.5779 -0.9699
 3999SOL     OW23458   3.798   4.589   4.860  0.5542  0.4621 -0.4666
 3999SOL    HW123459   3.751   4.535   4.797 -3.0786  0.9617  1.8488
 3999SOL    HW223460   3.819   4.527   4.930  1.4635 -0.4337 -1.5174
 4000SOL     OW23461   1.661   3.987   2.414  0.2461 -0.3466 -0.3202
 4000SOL    HW123462   1.711   3.953   2.340  1.8580  0.1698  0.5362
 4000SOL    HW223463   1.732   4.040   2.452  0.7645  0.2007 -2.0712
 4001SOL     OW23464   3.149   0.056   2.315  0.1959  0.3704 -0.0897
 4001SOL    HW123465   3.079   0.118   2.296  0.1920 -0.0329 -1.3836
 4001SOL    HW223466   3.117   4.690   2.305 -2.1069  0.8528  2.9311
 4002SOL     OW23467   3.366   4.295  12.930 -0.5207 -0.3829 -0.1703
 4002SOL    HW123468   3.410   4.261  12.852 -0.8196  0.7834 -0.8375
 4002SOL    HW223469   3.274   4.283  12.908 -0.3772 -1.7588 -0.0638
 4003SOL     OW23470   4.673   0.055  12.478  0.3684 -0.0262 -0.3284
 4003SOL    HW123471   4.602   0.114  12.452 -0.7919 -1.0504  0.5365
 4003SOL    HW223472   4.674   0.006  12.396  1.9708 -0.6561  0.0667
 4004SOL     OW23473   3.581   3.749   7.437  0.0829  0.3255 -0.2766
 4004SOL    HW123474   3.638   3.731   7.511  0.2730  0.3129 -0.4274
 4004SOL    HW223475   3.625   3.702   7.366 -0.5207 -3.2655  1.7023
 4005SOL     OW23476   0.922   2.554   8.398 -0.0092 -0.5496  0.0288
 4005SOL    HW123477   0.854   2.549   8.331 -0.7345  2.0098  0.5820
 4005SOL    HW223478   0.879   2.568   8.482  0.0465  0.4166 -0.1056
 4006SOL     OW23479   3.474   1.738  16.593  0.1257 -0.1835 -0.5200
 4006SOL    HW123480   3.442   1.751  16.682 -0.5523  2.8512 -1.1791
 4006SOL    HW223481   3.568   1.743  16.612 -0.1819  1.4177  0.6027
 4007SOL     OW23482   0.134   2.011  10.821 -0.2627  0.5718  0.2005
 4007SOL    HW123483   0.114   1.943  10.886  0.6173  0.5870  0.4799
 4007SOL    HW223484   0.223   2.037  10.845  0.9386 -3.2291 -0.0895
 4008SOL     OW23485   1.522   0.457   7.818  0.5681 -0.5742  0.0672
 4008SOL    HW123486   1.601   0.414   7.785  1.8312 -0.0319  2.4161
 4008SOL    HW223487   1.460   0.384   7.811  1.5689 -0.9590 -4.5589
 4009SOL     OW23488   2.300   4.342  14.205 -0.0520  0.2344  0.5924
 4009SOL    HW123489   2.244   4.331  14.282  0.3129 -1.1896  0.6452
 4009SOL    HW223490   2.379   4.368  14.254  0.9439 -1.7297  0.0052
 4010SOL     OW23491   0.541   4.049  15.560 -0.0100  0.0268 -0.3674
 4010SOL    HW123492   0.473   4.086  15.616  0.0788 -4.1443  2.5166
 4010SOL    HW223493   0.615   4.107  15.579 -0.0784  0.8294 -2.5833
 4011SOL     OW23494   4.368   2.062   8.939 -0.1352  0.0906  0.3024
 4011SOL    HW123495   4.403   2.024   9.019  2.4822 -2.0947 -1.8713
 4011SOL    HW223496   4.367   1.988   8.878  1.0220  1.8470 -1.8515
 4012SOL     OW23497   2.072   4.002   8.080 -0.1399 -0.3313  0.0122
 4012SOL    HW123498   2.072   4.097   8.088  1.0408 -0.3611  0.3238
 4012SOL    HW223499   2.033   3.990   8.167  1.0022  1.1216  0.7066
 4013SOL     OW23500   1.337   3.268  14.989  0.0390  0.0038 -0.2648
 4013SOL    HW123501   1.322   3.358  15.019 -1.0640 -0.7315  1.3658
 4013SOL    HW223502   1.260   3.261  14.934 -0.9247 -1.8090  1.3257
 4014SOL     OW23503   3.252   3.631   2.067 -0.0916  0.1121 -0.4036
 4014SOL    HW123504   3.303   3.596   2.140 -2.1603  0.4020  1.1694
 4014SOL    HW223505   3.167   3.612   2.108  0.6676 -0.3322  0.9632
 4015SOL     OW23506   2.373   0.876   6.272 -0.3769  0.3367 -0.1464
 4015SOL    HW123507   2.302   0.896   6.211 -0.0145  2.9114  0.3035
 4015SOL    HW223508   2.323   0.886   6.353 -0.2818 -3.3952  0.4053
 4016SOL     OW23509   1.096   1.171  11.606 -0.1283 -0.2687 -0.4112
 4016SOL    HW123510   1.101   1.225  11.686  0.5948  1.1099 -1.3789
 4016SOL    HW223511   1.044   1.104  11.650  2.8996 -0.6808  2.5474
 4017SOL     OW23512   3.117   3.636   2.341  0.4537 -0.3282 -0.8221
 4017SOL    HW123513   3.030   3.664   2.313  1.4362  3.4803 -0.0780
 4017SOL    HW223514   3.124   3.659   2.434 -1.7753  0.8694 -0.9499
 4018SOL     OW23515   3.215   4.545   7.226 -0.0078  0.1815 -0.3385
 4018SOL    HW123516   3.178   4.620   7.179  0.2864  1.4745  1.4857
 4018SOL    HW223517   3.273   4.588   7.289  0.4653 -1.2238  0.1785
 4019SOL     OW23518   1.171   4.368   8.491 -0.1796 -0.0708  0.0893
 4019SOL    HW123519   1.080   4.395   8.502 -0.6089 -1.5440  0.1875
 4019SOL    HW223520   1.216   4.437   8.540  0.1597  0.3047 -0.7594
 4020SOL     OW23521   1.917   2.836   2.088  0.6589 -0.2486 -0.3709
 4020SOL    HW123522   1.903   2.901   2.156 -0.6993 -0.4327 -0.4877
 4020SOL    HW223523   1.992   2.874   2.041 -0.0057  0.0150 -1.2076
 4021SOL     OW23524   3.858   0.474   3.255  0.1495 -0.1888  0.1966
 4021SOL    HW123525   3.903   0.398   3.219  1.0199  0.0964  0.6770
 4021SOL    HW223526   3.797   0.435   3.317 -1.7241 -0.0045 -1.5414
 4022SOL     OW23527   1.537   3.239   1.158 -0.2325  0.1629  0.3132
 4022SOL    HW123528   1.493   3.183   1.095 -0.6563  0.8361  0.0174
 4022SOL    HW223529   1.576   3.304   1.100  1.1544  1.0249  2.1947
 4023SOL     OW23530   3.030   4.659   6.941 -0.3156 -0.2328 -1.0041
 4023SOL    HW123531   3.049   4.721   6.870  0.9990 -0.8512 -1.1913
 4023SOL    HW223532   3.018   4.721   7.014  1.2755 -0.5009 -0.5042
 4024SOL     OW23533   0.588   2.383  12.060 -0.1488 -0.0486 -0.1632
 4024SOL    HW123534   0.656   2.425  12.009 -0.2735 -0.1182 -0.3866
 4024SOL    HW223535   0.601   2.289  12.046  0.5721  0.4173 -2.5731
 4025SOL     OW23536   0.189   1.776   7.349 -0.6746 -0.0495  0.3784
 4025SOL    HW123537   0.222   1.731   7.272 -1.1098 -0.3044  0.3438
 4025SOL    HW223538   0.269   1.762   7.400 -1.0324 -1.7315  0.4707
 4026SOL     OW23539   3.054   2.847   7.447  0.2310  0.4269  0.4668
 4026SOL    HW123540   3.111   2.884   7.380  0.2996  0.0143  0.3001
 4026SOL    HW223541   2.965   2.876   7.427 -0.0307 -1.4364 -1.0408
 4027SOL     OW23542   1.146   3.092   0.071  0.7495 -0.3137  0.4609
 4027SOL    HW123543   1.210   3.103   0.141 -0.0351  0.0760  1.1088
 4027SOL    HW223544   1.204   3.067  17.698  0.2675 -2.0327  0.6592
 4028SOL     OW23545   3.335   4.555   1.948  0.1901  0.6358  0.0493
 4028SOL    HW123546   3.283   4.636   1.940 -1.1977 -0.3556 -1.0081
 4028SOL    HW223547   3.387   4.548   1.868 -0.8299 -0.6095 -0.5140
 4029SOL     OW23548   2.666   0.736   7.513 -0.0985 -0.1340  0.0203
 4029SOL    HW123549   2.687   0.828   7.498  0.0929 -0.1152  0.4126
 4029SOL    HW223550   2.710   0.717   7.596  1.3644  1.0907 -0.4896
 4030SOL     OW23551   0.951   1.455   7.366  0.1530  0.0889  0.0783
 4030SOL    HW123552   0.987   1.505   7.293  0.5541 -0.1829  0.0919
 4030SOL    HW223553   0.985   1.508   7.439  2.0135 -1.2067  0.1584
 4031SOL     OW23554   3.209   1.456  10.707  0.6805 -0.2341 -0.1462
 4031SOL    HW123555   3.276   1.473  10.642 -1.7350 -0.3727 -2.6811
 4031SOL    HW223556   3.149   1.529  10.691 -3.7917 -4.0561 -1.0061
 4032SOL     OW23557   2.441   1.248   9.313  0.2231 -0.4276  0.1081
 4032SOL    HW123558   2.372   1.272   9.376 -0.6819 -0.4101 -0.8930
 4032SOL    HW223559   2.460   1.332   9.271  0.8561 -0.1868  0.8786
 4033SOL     OW23560   1.612   1.118  11.086 -0.0832  0.2041  0.2971
 4033SOL    HW123561   1.543   1.111  11.020  0.9567  1.4957 -0.9250
 4033SOL    HW223562   1.627   1.212  11.079 -0.8271  0.3601  0.6932
 4034SOL     OW23563   1.996   3.728   4.917 -1.1357 -0.1604 -0.5946
 4034SOL    HW123564   1.953   3.813   4.924 -1.5311 -0.5498  1.6924
 4034SOL    HW223565   2.071   3.741   4.976 -0.6873  0.6914 -1.3445
 4035SOL     OW23566   3.031   2.513  16.932  0.0606  0.4380 -0.5375
 4035SOL    HW123567   3.011   2.424  16.962 -0.7899  0.5755 -0.7025
 4035SOL    HW223568   3.103   2.535  16.991  0.0789 -0.8972 -0.0563
 4036SOL     OW23569   0.796   0.681   5.002  0.2998  0.4129  0.1948
 4036SOL    HW123570   0.796   0.769   4.965  2.3154  1.7706  3.3991
 4036SOL    HW223571   0.881   0.684   5.047 -0.7093 -0.1278  2.0990
 4037SOL     OW23572   0.665   0.042   9.380  0.0530  0.1511 -0.3882
 4037SOL    HW123573   0.689   0.028   9.471 -2.6492 -1.8323  0.0354
 4037SOL    HW223574   0.596   0.108   9.383  0.4269  0.5380 -0.2991
 4038SOL     OW23575   0.936   0.305   9.060  0.6141  0.6097 -0.1807
 4038SOL    HW123576   0.854   0.342   9.092 -0.3874 -1.2235 -0.6596
 4038SOL    HW223577   1.000   0.360   9.105  1.3512  0.7422 -1.4022
 4039SOL     OW23578   0.857   1.828   8.744  0.3919  0.0352 -0.0639
 4039SOL    HW123579   0.904   1.798   8.666 -1.1557 -1.1179 -0.5612
 4039SOL    HW223580   0.819   1.745   8.772 -1.4570  1.0592  0.5367
 4040SOL     OW23581   0.016   2.641   6.570 -0.0090  0.1035 -0.1611
 4040SOL    HW123582   4.645   2.636   6.583  0.0760  0.4690  0.6054
 4040SOL    HW223583   0.046   2.557   6.604  0.4773 -0.8100 -2.8113
 4041SOL     OW23584   1.666   2.161   8.609  0.5000  0.6011 -0.3347
 4041SOL    HW123585   1.628   2.149   8.697  0.1646  1.3425 -0.3817
 4041SOL    HW223586   1.761   2.159   8.621  0.6509 -0.7534 -1.7666
 4042SOL     OW23587   3.165   1.314   5.365 -0.0197  0.0210 -0.2894
 4042SOL    HW123588   3.203   1.227   5.356 -1.3789 -0.4760 -1.0509
 4042SOL    HW223589   3.076   1.291   5.339  0.0610  1.4723 -1.8598
 4043SOL     OW23590   3.761   1.067  11.247 -0.0207 -0.7003  0.7392
 4043SOL    HW123591   3.676   1.022  11.248 -1.6377  2.2455 -1.7158
 4043SOL    HW223592   3.815   0.994  11.218  0.8241  0.6636 -1.0854
 4044SOL     OW23593   1.092   0.232   9.343  0.0698  0.4183 -0.2665
 4044SOL    HW123594   1.104   0.161   9.280  1.4022  0.3352  0.0846
 4044SOL    HW223595   1.112   0.308   9.289  1.9589 -0.0328 -0.1918
 4045SOL     OW23596   2.419   1.973  16.646 -0.3301  0.0667  0.0363
 4045SOL    HW123597   2.505   2.015  16.659  0.5145 -1.7374  0.2061
 4045SOL    HW223598   2.381   2.027  16.577  1.3469  3.1143  1.4453
 4046SOL     OW23599   0.485   0.031   4.429  0.0468 -0.3527 -0.0122
 4046SOL    HW123600   0.542   0.057   4.355  0.6242 -0.8499  0.2595
 4046SOL    HW223601   0.445   0.118   4.430  0.8884  0.0393  0.1500
 4047SOL     OW23602   3.812   4.372   5.012  0.5198 -0.0930  0.0538
 4047SOL    HW123603   3.902   4.347   5.036 -0.2332 -2.7649  0.0038
 4047SOL    HW223604   3.769   4.287   5.006  0.9578 -0.2998 -0.2250
 4048SOL     OW23605   1.825   3.007   3.001  0.6887  0.1776 -0.1687
 4048SOL    HW123606   1.883   3.076   3.035  0.7878  0.3900 -0.7778
 4048SOL    HW223607   1.775   2.976   3.077  0.5051  1.3415  0.1879
 4049SOL     OW23608   2.413   2.267   1.025  0.3235 -0.1706 -0.0860
 4049SOL    HW123609   2.420   2.244   0.933 -1.1565 -0.9610  0.0005
 4049SOL    HW223610   2.420   2.180   1.066  1.0760  0.0346  0.2145
 4050SOL     OW23611   4.485   2.386   8.952  0.5900  0.0374  0.2079
 4050SOL    HW123612   4.547   2.314   8.944  0.2984 -0.2004  0.0968
 4050SOL    HW223613   4.479   2.416   8.862  1.8853  0.7935  0.3680
 4051SOL     OW23614   0.160   2.172  13.111  0.0313  0.2739 -0.2660
 4051SOL    HW123615   0.136   2.169  13.203 -0.8698  1.5264 -0.4485
 4051SOL    HW223616   0.189   2.081  13.107  0.8254  0.4517  1.4352
 4052SOL     OW23617   4.254   1.902   8.230  0.5020  0.2541 -0.0664
 4052SOL    HW123618   4.305   1.834   8.185 -1.1884 -1.2670  0.3080
 4052SOL    HW223619   4.327   1.940   8.279  1.5466  1.0079 -2.1738
 4053SOL     OW23620   2.540   3.364   9.628 -0.2805  0.1753  0.1951
 4053SOL    HW123621   2.546   3.274   9.596  0.1970  0.5528 -0.7613
 4053SOL    HW223622   2.627   3.403   9.620  0.0146 -0.6146 -0.5127
 4054SOL     OW23623   2.885   3.837  15.817  0.1550  0.5214  0.0161
 4054SOL    HW123624   2.834   3.847  15.737  0.1461  0.9326  0.0731
 4054SOL    HW223625   2.819   3.858  15.883 -1.2454  0.0521 -1.2472
 4055SOL     OW23626   4.581   2.066   2.444 -0.2666  0.0005 -0.2502
 4055SOL    HW123627   4.506   2.008   2.431  0.0198  0.0327 -2.0307
 4055SOL    HW223628   4.632   1.989   2.466 -0.4029  0.0385  0.1946
 4056SOL     OW23629   0.211   3.816  12.802 -0.4204  0.0482 -0.0808
 4056SOL    HW123630   0.288   3.867  12.826 -0.9034 -0.0809  1.7479
 4056SOL    HW223631   0.195   3.761  12.879 -0.0878  0.7124  0.4631
 4057SOL     OW23632   0.131   1.646  14.952  0.2498 -0.1287 -0.6065
 4057SOL    HW123633   0.079   1.604  15.021 -1.3347  3.4074  0.3120
 4057SOL    HW223634   0.169   1.570  14.908 -2.4323 -2.4893  1.1463
 4058SOL     OW23635   4.085   3.085   8.844  0.4093 -1.2071  0.4622
 4058SOL    HW123636   4.045   3.122   8.922  0.1242  1.3626 -0.8948
 4058SOL    HW223637   4.024   3.019   8.811  0.6715 -0.7070 -1.0025
 4059SOL     OW23638   2.523   4.451  14.422  0.1466 -0.2186 -0.4617
 4059SOL    HW123639   2.506   4.512  14.350  0.9734 -0.5614 -0.9570
 4059SOL    HW223640   2.609   4.478  14.456 -1.0136 -1.2646  3.2905
 4060SOL     OW23641   4.344   3.068   8.704 -0.1102  0.0855 -0.4496
 4060SOL    HW123642   4.351   2.973   8.694  0.9413  0.2657 -1.4265
 4060SOL    HW223643   4.278   3.065   8.773  0.6050  0.1333  0.2418
 4061SOL     OW23644   3.415   2.495   4.695 -0.0388  0.2675 -0.2695
 4061SOL    HW123645   3.476   2.507   4.768 -1.3434 -0.0771  0.8862
 4061SOL    HW223646   3.385   2.404   4.704  0.7616 -0.0202 -0.5195
 4062SOL     OW23647   0.470   4.703   1.263 -0.0138  0.2266  0.1963
 4062SOL    HW123648   0.408   0.043   1.227 -0.5494 -0.7526 -0.6400
 4062SOL    HW223649   0.396   4.647   1.288  0.8801 -0.4140  1.3589
 4063SOL     OW23650   0.509   4.297   8.150 -1.0611  0.5279  0.3559
 4063SOL    HW123651   0.596   4.335   8.158 -0.7554 -0.0851 -0.0575
 4063SOL    HW223652   0.456   4.368   8.185 -1.8406  0.0812  0.0782
 4064SOL     OW23653   0.197   1.826   8.001  0.5107  0.1656  0.0650
 4064SOL    HW123654   0.151   1.775   8.068 -0.4689 -2.0184 -2.3198
 4064SOL    HW223655   0.239   1.751   7.961 -0.8833  0.7906 -2.5305
 4065SOL     OW23656   1.985   2.218  15.777  0.0600  0.8202 -0.0591
 4065SOL    HW123657   1.918   2.156  15.805 -0.0079  0.1602 -1.6625
 4065SOL    HW223658   1.935   2.299  15.788 -0.8384  0.1982  0.4646
 4066SOL     OW23659   3.694   2.270   9.891  0.1524  0.0032 -0.7201
 4066SOL    HW123660   3.651   2.301   9.811 -1.3649  0.3385  0.2235
 4066SOL    HW223661   3.621   2.219   9.927 -0.0612 -1.1193 -2.7750
 4067SOL     OW23662   2.983   0.800   4.189 -0.1231  0.0082 -0.3243
 4067SOL    HW123663   3.066   0.846   4.193  0.8288 -1.5610 -1.7185
 4067SOL    HW223664   2.951   0.844   4.110 -1.1491 -2.1276 -1.1225
 4068SOL     OW23665   1.708   3.618  12.459  0.1756 -0.0740 -0.0641
 4068SOL    HW123666   1.641   3.675  12.420 -0.0363 -0.5907 -0.4527
 4068SOL    HW223667   1.773   3.678  12.496 -0.1740 -0.3416  0.9877
 4069SOL     OW23668   2.650   2.738  15.692  0.0165  0.4078 -0.0658
 4069SOL    HW123669   2.613   2.771  15.773 -1.0482 -0.4790 -0.1925
 4069SOL    HW223670   2.738   2.776  15.685  0.0176  0.7821  2.0600
 4070SOL     OW23671   0.831   1.818   6.235 -0.7134 -0.5735  0.9824
 4070SOL    HW123672   0.754   1.793   6.286 -0.9100 -0.6458  0.6534
 4070SOL    HW223673   0.871   1.733   6.217 -0.5220 -0.0760 -1.0464
 4071SOL     OW23674   2.951   4.575  15.348  0.5854  0.2871 -0.5011
 4071SOL    HW123675   2.857   4.593  15.339  0.3088 -0.7883  0.1388
 4071SOL    HW223676   2.957   4.500  15.289 -2.7956 -1.5244  1.4335
 4072SOL     OW23677   1.411   1.642   4.570  0.1577 -0.3504 -0.2650
 4072SOL    HW123678   1.495   1.597   4.578  0.3667  0.0306 -0.3375
 4072SOL    HW223679   1.434   1.710   4.507  0.7964 -0.9492 -0.6800
 4073SOL     OW23680   4.617   3.378  17.574  0.5668  0.2127 -0.1393
 4073SOL    HW123681   4.711   3.387  17.564  0.9140 -2.1030  0.9629
 4073SOL    HW223682   4.599   3.341  17.661  0.3703 -4.3487 -2.1018
 4074SOL     OW23683   2.699   4.460   4.483  0.6121  0.2361  0.7542
 4074SOL    HW123684   2.660   4.445   4.569  0.4873  1.2913  0.8790
 4074SOL    HW223685   2.776   4.404   4.489 -1.0593 -2.1206  0.0666
 4075SOL     OW23686   4.034   2.889   7.394  0.0262  0.4797  0.4013
 4075SOL    HW123687   4.098   2.822   7.371 -1.1504 -1.3414  2.3797
 4075SOL    HW223688   4.053   2.881   7.488  0.7053 -1.0185  0.1334
 4076SOL     OW23689   0.858   0.524   7.657  0.2347 -0.0474  0.9720
 4076SOL    HW123690   0.953   0.539   7.665  0.0272  1.6006  0.1465
 4076SOL    HW223691   0.846   0.431   7.638 -0.3188 -0.1006  1.5811
 4077SOL     OW23692   4.300   3.188   4.828  0.4003 -0.7409 -0.4788
 4077SOL    HW123693   4.315   3.147   4.743 -0.1421 -1.4177 -0.2511
 4077SOL    HW223694   4.205   3.182   4.838  0.2978 -0.1966 -1.1542
 4078SOL     OW23695   0.227   2.747  16.078 -0.0958  0.1312  0.2916
 4078SOL    HW123696   0.316   2.774  16.101  0.1629 -0.6034  0.1457
 4078SOL    HW223697   0.245   2.655  16.096  2.3571  0.4611 -0.5015
 4079SOL     OW23698   3.266   3.306   4.600  0.1666  0.2737 -0.4986
 4079SOL    HW123699   3.186   3.326   4.649  0.7796  0.0030  0.6082
 4079SOL    HW223700   3.326   3.376   4.626 -0.9218  0.8938  0.3312
 4080SOL     OW23701   1.148   0.101   1.630 -0.0911  0.0367  0.0566
 4080SOL    HW123702   1.098   0.145   1.561 -1.0784 -1.8262 -0.4093
 4080SOL    HW223703   1.133   0.171   1.694  3.6086 -0.0330  1.0095
 4081SOL     OW23704   1.397   2.686   1.232 -0.4221  0.2323 -0.1848
 4081SOL    HW123705   1.344   2.675   1.311 -0.2626  2.6850  0.2648
 4081SOL    HW223706   1.394   2.781   1.218 -1.1436  0.3154  0.5105
 4082SOL     OW23707   0.884   4.057   0.899 -0.1314  0.7095 -0.2369
 4082SOL    HW123708   0.928   3.973   0.916 -1.8417 -0.3810 -1.1244
 4082SOL    HW223709   0.875   4.083   0.990  1.3010  1.0955 -0.2130
 4083SOL     OW23710   3.237   2.884   7.953 -0.4961  0.1865 -0.6228
 4083SOL    HW123711   3.249   2.907   8.045 -0.1412  0.4993 -0.7469
 4083SOL    HW223712   3.226   2.965   7.902 -1.6494 -0.4347 -1.3475
 4084SOL     OW23713   3.483   1.504   7.393 -0.3236 -0.3730  0.6085
 4084SOL    HW123714   3.572   1.535   7.411 -0.2341 -1.3190  1.7861
 4084SOL    HW223715   3.500   1.430   7.335 -2.9950 -0.1191 -0.5007
 4085SOL     OW23716   4.582   1.343   8.196 -0.8391  0.3504 -0.4440
 4085SOL    HW123717   4.571   1.398   8.119  1.0087  2.9312  1.1356
 4085SOL    HW223718   4.582   1.410   8.264  1.3051  0.2154 -0.3301
 4086SOL     OW23719   1.258   3.946  16.309 -0.5366  0.0066  0.2019
 4086SOL    HW123720   1.312   3.875  16.273 -0.2267  0.7814 -0.8769
 4086SOL    HW223721   1.171   3.921  16.279 -1.0633 -1.6791  3.2050
 4087SOL     OW23722   4.256   0.609   4.705  0.0859  0.2765  0.0186
 4087SOL    HW123723   4.306   0.691   4.704  1.6188 -0.6717 -0.3881
 4087SOL    HW223724   4.297   0.575   4.625  1.2306 -1.6220  1.4339
 4088SOL     OW23725   2.705   2.321   0.501 -0.0492 -0.0082  0.2321
 4088SOL    HW123726   2.649   2.364   0.437 -0.5711 -0.8336  0.1339
 4088SOL    HW223727   2.754   2.264   0.441 -0.1121  0.3723 -0.1781
 4089SOL     OW23728   4.010   3.329  12.637  0.6318  0.3407  0.4761
 4089SOL    HW123729   3.943   3.396  12.646  0.4472  0.3892 -1.3081
 4089SOL    HW223730   4.089   3.382  12.638 -2.2157  4.4788  4.8626
 4090SOL     OW23731   4.718   2.227  10.928 -0.0839 -0.7197  0.2117
 4090SOL    HW123732   0.073   2.278  10.939 -0.5529 -0.0478  0.4683
 4090SOL    HW223733   0.044   2.149  10.904  0.0387 -1.1235  1.7679
 4091SOL     OW23734   2.271   4.268   7.066  0.2699 -0.5023 -0.5609
 4091SOL    HW123735   2.267   4.267   6.970 -0.2451  2.6584 -0.5778
 4091SOL    HW223736   2.196   4.212   7.085  0.4369 -0.6903 -0.4510
 4092SOL     OW23737   2.503   4.422   8.064 -0.2440  0.6698  0.1071
 4092SOL    HW123738   2.481   4.342   8.015  0.3872  1.1523 -0.9667
 4092SOL    HW223739   2.585   4.444   8.020  0.5771  1.6896  2.1677
 4093SOL     OW23740   1.696   3.566   8.032 -0.2848 -0.2999 -0.5749
 4093SOL    HW123741   1.729   3.591   7.945  1.3909 -4.4704 -1.1449
 4093SOL    HW223742   1.721   3.474   8.025 -0.2106 -0.2576 -0.8879
 4094SOL     OW23743   4.222   1.139   5.110 -0.4937 -0.2074 -0.4973
 4094SOL    HW123744   4.171   1.066   5.075 -0.4177 -1.1465  1.3601
 4094SOL    HW223745   4.176   1.210   5.065  3.1219  2.2263 -0.4376
 4095SOL     OW23746   1.060   1.481   4.574  0.3082  0.0998  0.6380
 4095SOL    HW123747   1.112   1.488   4.494  0.0621  1.2622  0.5794
 4095SOL    HW223748   1.010   1.563   4.578  0.1886  0.1447 -1.6775
 4096SOL     OW23749   3.769   0.542  10.006 -0.4712 -0.7377 -0.1683
 4096SOL    HW123750   3.852   0.583  10.031 -0.8363  0.9197 -1.6027
 4096SOL    HW223751   3.750   0.492  10.085  0.4577 -0.9215 -0.0543
 4097SOL     OW23752   4.639   1.427   9.386  0.1743  0.0928  0.2141
 4097SOL    HW123753   4.551   1.390   9.388 -0.3910  1.4804  0.7873
 4097SOL    HW223754   4.678   1.343   9.411  1.4334  0.8894  0.9522
 4098SOL     OW23755   2.422   1.162   5.726  0.0623 -0.3723 -0.0644
 4098SOL    HW123756   2.419   1.187   5.819  1.2528 -0.6934  0.0624
 4098SOL    HW223757   2.487   1.092   5.724 -0.1590 -0.5555 -0.6300
 4099SOL     OW23758   0.649   4.452  15.215  0.1290  0.3936 -0.2468
 4099SOL    HW123759   0.593   4.404  15.275 -0.9595 -1.0391 -2.4221
 4099SOL    HW223760   0.586   4.511  15.175 -2.6978 -1.2490  1.8480
 4100SOL     OW23761   4.299   0.579   8.391 -0.3344  0.1175 -0.2516
 4100SOL    HW123762   4.218   0.585   8.441  1.6019  2.4044  2.5911
 4100SOL    HW223763   4.268   0.522   8.320  1.0674  1.0890 -1.6623
 4101SOL     OW23764   1.025   2.609  16.201 -0.4846  0.2325  0.1907
 4101SOL    HW123765   0.940   2.636  16.165 -0.8318 -1.3155 -0.1179
 4101SOL    HW223766   1.009   2.625  16.294  0.3491  0.6843  0.2563
 4102SOL     OW23767   0.838   3.424   8.027 -0.3351 -0.0413  0.2807
 4102SOL    HW123768   0.810   3.513   8.007  1.3182  0.4167  0.0534
 4102SOL    HW223769   0.871   3.429   8.116  2.6128 -1.7532 -0.7049
 4103SOL     OW23770   4.030   1.785  13.017 -0.2746  0.2935 -0.4540
 4103SOL    HW123771   4.018   1.793  13.112 -1.8899  0.7852 -0.7082
 4103SOL    HW223772   4.000   1.696  13.001 -1.2736  0.4735  0.3672
 4104SOL     OW23773   3.113   3.829  16.707  0.1887  0.4416 -0.4807
 4104SOL    HW123774   3.125   3.817  16.802 -0.1190  0.3195 -0.4576
 4104SOL    HW223775   3.024   3.862  16.718 -0.0287 -0.4518  0.4289
 4105SOL     OW23776   0.289   3.467   4.159  0.1485 -0.4759  0.0146
 4105SOL    HW123777   0.381   3.443   4.170  1.1054  3.3843  0.5018
 4105SOL    HW223778   0.277   3.434   4.070 -0.6896 -3.1744  1.1401
 4106SOL     OW23779   1.230   2.469  12.435  0.4176  0.2330 -0.1387
 4106SOL    HW123780   1.311   2.519  12.440 -0.2500  1.3988 -0.9591
 4106SOL    HW223781   1.173   2.524  12.381 -1.2007 -1.2871  0.0318
 4107SOL     OW23782   1.378   4.681   5.091  0.2245 -0.3079 -0.0284
 4107SOL    HW123783   1.382   4.667   5.186  1.8408  2.8841  0.3669
 4107SOL    HW223784   1.465   4.721   5.089  0.1495 -0.1444 -0.0279
 4108SOL     OW23785   1.695   4.107   5.702  0.4921  0.0100 -0.0020
 4108SOL    HW123786   1.771   4.061   5.663  1.1725  0.3332  0.9576
 4108SOL    HW223787   1.708   4.098   5.796 -1.8282 -3.2618  0.0051
 4109SOL     OW23788   2.436   0.617   7.831  0.4034  0.3488  0.1095
 4109SOL    HW123789   2.521   0.580   7.809 -1.1172 -2.5410 -0.9742
 4109SOL    HW223790   2.378   0.619   7.754 -0.0084  3.5209  0.5166
 4110SOL     OW23791   0.988   4.382   3.588 -0.4533  0.4295  0.0895
 4110SOL    HW123792   0.968   4.290   3.574  1.1511 -0.0836  1.2257
 4110SOL    HW223793   0.986   4.396   3.682  0.6107  3.3427 -0.3112
 4111SOL     OW23794   3.459   1.535   6.483 -0.0022  0.5841  0.4439
 4111SOL    HW123795   3.409   1.460   6.450  1.9272 -1.3078  1.8544
 4111SOL    HW223796   3.441   1.551   6.575 -3.6541 -2.5968  0.2521
 4112SOL     OW23797   3.126   0.035   5.432 -0.0817 -0.0728 -0.2939
 4112SOL    HW123798   3.113   0.032   5.338  0.8632 -0.2858 -0.4232
 4112SOL    HW223799   3.211   4.715   5.439  0.2829  0.2717 -2.6065
 4113SOL     OW23800   4.402   3.783   2.638  0.0831  0.3008  0.2895
 4113SOL    HW123801   4.411   3.749   2.548 -0.8778 -1.3120  0.8006
 4113SOL    HW223802   4.487   3.765   2.679  0.4698  0.2959 -0.5119
 4114SOL     OW23803   4.654   4.135   1.676 -0.0622 -0.1232  0.2064
 4114SOL    HW123804   4.579   4.148   1.618 -1.2295  0.2020  1.7880
 4114SOL    HW223805   0.007   4.133   1.620  1.8955  0.0223  2.9429
 4115SOL     OW23806   2.597   2.501  10.237 -0.3708  0.4025 -0.2451
 4115SOL    HW123807   2.688   2.531  10.238 -0.4128  0.5515 -0.7374
 4115SOL    HW223808   2.600   2.439  10.309 -1.2435  1.8502  1.0302
 4116SOL     OW23809   1.652   3.275  17.386  0.5058 -0.1057  0.5317
 4116SOL    HW123810   1.644   3.344  17.320  0.0614  1.1545  1.9041
 4116SOL    HW223811   1.684   3.325  17.460  2.0077  3.4179 -2.5012
 4117SOL     OW23812   3.755   3.889   6.872 -0.0187 -0.0669  0.1454
 4117SOL    HW123813   3.745   3.800   6.903 -0.6409  0.3244  1.0734
 4117SOL    HW223814   3.836   3.874   6.823 -0.1443 -0.0695 -0.0627
 4118SOL     OW23815   2.371   1.692   1.832 -0.1343 -0.2248 -0.4921
 4118SOL    HW123816   2.280   1.707   1.856 -0.1811  0.3876 -1.0362
 4118SOL    HW223817   2.385   1.598   1.842  0.3721  0.1885  2.5494
 4119SOL     OW23818   2.519   0.368  14.977 -0.2747 -0.2075 -0.2258
 4119SOL    HW123819   2.426   0.373  14.958 -0.7651 -2.4019  1.4757
 4119SOL    HW223820   2.549   0.331  14.894  0.4419 -0.4525  0.1372
 4120SOL     OW23821   4.712   4.116   7.593 -0.2606  0.1871 -0.4942
 4120SOL    HW123822   4.714   4.118   7.498  1.0335  0.4478 -0.4542
 4120SOL    HW223823   4.634   4.067   7.621  0.0238 -0.4839 -0.8718
 4121SOL     OW23824   2.467   4.239   6.476  0.2248  0.3987 -0.1274
 4121SOL    HW123825   2.440   4.210   6.389  0.8950 -0.0448 -0.1840
 4121SOL    HW223826   2.506   4.156   6.503  1.9099  1.3113  0.2560
 4122SOL     OW23827   1.024   0.138   2.925 -0.2395 -0.7787 -0.9935
 4122SOL    HW123828   1.104   0.189   2.916 -0.8683  0.3102 -0.4849
 4122SOL    HW223829   1.063   0.076   2.986  0.4435  1.5051  0.9186
 4123SOL     OW23830   1.701   2.595  11.161 -0.4281 -0.1161 -0.0464
 4123SOL    HW123831   1.697   2.612  11.067 -1.4160 -0.0292  0.0193
 4123SOL    HW223832   1.717   2.500  11.157 -0.3111 -0.1999  2.2411
 4124SOL     OW23833   3.665   3.578   8.733  1.1274 -0.1308 -0.0280
 4124SOL    HW123834   3.635   3.653   8.785  2.8700  1.2878 -1.0627
 4124SOL    HW223835   3.583   3.543   8.699  0.8437 -1.2010  1.7353
 4125SOL     OW23836   0.385   4.124  11.231 -0.0773  0.3194  0.2891
 4125SOL    HW123837   0.402   4.138  11.324  1.7954  1.1399 -0.1638
 4125SOL    HW223838   0.290   4.129  11.224 -0.0848 -0.3949 -0.0701
 4126SOL     OW23839   0.742   3.795   7.453  0.4400 -0.0608  0.4012
 4126SOL    HW123840   0.718   3.852   7.526 -1.0827  0.3927 -0.4288
 4126SOL    HW223841   0.683   3.818   7.381  1.3697  2.2434  0.3722
 4127SOL     OW23842   0.230   1.382   5.285 -0.2235 -0.2250  0.0462
 4127SOL    HW123843   0.240   1.400   5.192 -1.3102 -0.8006 -0.1762
 4127SOL    HW223844   0.242   1.288   5.282 -1.4177 -0.4560  2.4560
 4128SOL     OW23845   1.121   2.674   7.735  1.0444 -0.0186  0.1773
 4128SOL    HW123846   1.129   2.768   7.749  0.6607  0.2402 -1.3981
 4128SOL    HW223847   1.026   2.667   7.742  0.7754  2.3467 -1.1848
 4129SOL     OW23848   4.585   0.713   4.544  0.1326  0.6582 -0.2478
 4129SOL    HW123849   4.584   0.787   4.484 -1.0531  0.9336  0.1129
 4129SOL    HW223850   4.614   0.640   4.489 -0.2532  0.5148 -0.2619
 4130SOL     OW23851   1.366   1.481   8.799 -0.0211 -0.5934  0.1848
 4130SOL    HW123852   1.292   1.510   8.745  0.9213 -0.7788 -1.1961
 4130SOL    HW223853   1.337   1.516   8.883 -0.7786  1.9324 -1.1222
 4131SOL     OW23854   0.802   3.163   5.496  0.1833 -0.0137  0.1932
 4131SOL    HW123855   0.889   3.197   5.512  1.0067 -1.6662 -0.7233
 4131SOL    HW223856   0.755   3.214   5.561 -0.6805  0.0690 -0.4839
 4132SOL     OW23857   0.354   0.809   5.763  0.1845  0.1673 -0.1904
 4132SOL    HW123858   0.295   0.860   5.707 -1.4379 -0.9152  0.5241
 4132SOL    HW223859   0.296   0.733   5.769 -1.6944  1.6929  1.0862
 4133SOL     OW23860   3.798   1.823   9.727  0.1921  0.0613 -0.0487
 4133SOL    HW123861   3.759   1.757   9.784 -0.7098  0.6571  0.0282
 4133SOL    HW223862   3.726   1.887   9.724 -2.8352 -3.1671  4.1360
 4134SOL     OW23863   4.004   3.573   8.382  0.1318  0.3506  0.6833
 4134SOL    HW123864   3.954   3.623   8.318  1.7675 -0.1892 -1.0225
 4134SOL    HW223865   3.978   3.484   8.356 -0.7783  0.9511 -0.4258
 4135SOL     OW23866   0.950   0.526   3.437 -0.0231 -0.6737  0.3317
 4135SOL    HW123867   1.023   0.468   3.418  0.2838 -0.0652 -0.3476
 4135SOL    HW223868   0.875   0.475   3.407  0.0733 -1.1975  0.9957
 4136SOL     OW23869   2.984   0.404   3.396 -0.2365 -0.2651 -0.3444
 4136SOL    HW123870   2.916   0.458   3.437  0.4577  0.2764  0.0846
 4136SOL    HW223871   2.929   0.333   3.362 -2.2339  0.3936  1.4639
 4137SOL     OW23872   1.203   3.497   4.017  0.1686  0.1191 -0.2061
 4137SOL    HW123873   1.247   3.553   3.952  3.4339 -1.8474  0.2745
 4137SOL    HW223874   1.124   3.473   3.970 -0.4409 -1.0314  1.4074
 4138SOL     OW23875   1.341   1.071   4.148 -0.0449 -0.3420  0.1391
 4138SOL    HW123876   1.345   1.159   4.113  0.4170 -0.0641  0.8837
 4138SOL    HW223877   1.263   1.041   4.100  1.2394  2.0431 -3.3991
 4139SOL     OW23878   1.816   1.489  11.085  0.0458 -0.8920  0.1175
 4139SOL    HW123879   1.743   1.445  11.040  0.8493 -2.9396  0.8275
 4139SOL    HW223880   1.857   1.418  11.134 -0.0366 -1.6347 -0.8934
 4140SOL     OW23881   0.236   4.128  15.456 -0.0581  0.2666 -0.1059
 4140SOL    HW123882   0.144   4.148  15.472 -0.5861 -1.0861 -1.4470
 4140SOL    HW223883   0.273   4.133  15.544 -0.1727 -1.2492  0.0198
 4141SOL     OW23884   0.402   2.143   8.832  0.1145  0.3628  0.3665
 4141SOL    HW123885   0.407   2.133   8.927  0.4679  1.6927  0.4810
 4141SOL    HW223886   0.309   2.153   8.809 -0.0914 -1.0819  0.5432
 4142SOL     OW23887   2.577   0.519   2.461 -0.6157  0.2250 -0.1635
 4142SOL    HW123888   2.664   0.550   2.435 -0.2655 -1.5154 -1.0778
 4142SOL    HW223889   2.560   0.578   2.534  2.4427  2.1017 -0.9440
 4143SOL     OW23890   3.905   2.857   2.252  0.2964 -0.2475  0.1144
 4143SOL    HW123891   3.883   2.898   2.336  0.7171 -2.2511  1.1852
 4143SOL    HW223892   3.982   2.914   2.241  0.9655 -1.6506 -2.3819
 4144SOL     OW23893   2.703   2.250   2.161  0.3410 -0.1807  0.1728
 4144SOL    HW123894   2.616   2.266   2.125  0.0920 -1.9631  0.0006
 4144SOL    HW223895   2.689   2.158   2.186 -0.5820  0.2594  1.3273
 4145SOL     OW23896   0.821   1.775   6.666  0.5159 -0.1697 -0.5379
 4145SOL    HW123897   0.878   1.839   6.624 -2.0600  2.8934  0.6109
 4145SOL    HW223898   0.844   1.690   6.629 -1.3600 -0.7821 -0.3426
 4146SOL     OW23899   4.032   3.894  12.642  0.3478 -0.1051 -0.4162
 4146SOL    HW123900   4.123   3.865  12.632  0.6807  1.6597 -2.5891
 4146SOL    HW223901   4.047   3.988  12.638 -2.7740  0.3925 -0.7573
 4147SOL     OW23902   1.176   3.462   5.771 -0.3296 -0.2104  0.1706
 4147SOL    HW123903   1.119   3.447   5.847  0.9393  0.1568  1.1994
 4147SOL    HW223904   1.258   3.434   5.812 -0.2636  0.6546  0.6294
 4148SOL     OW23905   4.640   0.316  16.371 -0.2763 -0.0148  0.5408
 4148SOL    HW123906   4.560   0.328  16.320  0.2011  0.8331 -0.0020
 4148SOL    HW223907   4.612   0.242  16.425  0.7910 -2.3680 -2.1512
 4149SOL     OW23908   3.352   3.687  16.463  0.2269 -0.5396  0.0250
 4149SOL    HW123909   3.420   3.685  16.530  1.4122 -2.1596 -1.2234
 4149SOL    HW223910   3.367   3.777  16.436  0.7679 -1.4752 -2.7927
 4150SOL     OW23911   0.921   2.572   5.137 -0.4182  0.3829 -0.3101
 4150SOL    HW123912   0.848   2.578   5.199  2.6622  0.5142  3.2836
 4150SOL    HW223913   0.881   2.596   5.054  1.0635 -0.6129 -1.3107
 4151SOL     OW23914   3.837   3.466   8.037 -0.2381 -0.0400 -0.1077
 4151SOL    HW123915   3.758   3.445   7.986  0.4405 -0.6873 -0.8796
 4151SOL    HW223916   3.901   3.429   7.977  1.3719  2.0985  0.3058
 4152SOL     OW23917   2.946   0.225  14.384  0.1887  0.1066  0.3143
 4152SOL    HW123918   3.041   0.222  14.373 -0.2178  1.6181 -3.4242
 4152SOL    HW223919   2.908   0.185  14.306 -1.4691 -0.8180  1.5838
 4153SOL     OW23920   1.743   1.852   6.883  0.4160  0.1148  0.0446
 4153SOL    HW123921   1.780   1.865   6.796  1.4944  1.1817  0.6621
 4153SOL    HW223922   1.676   1.920   6.883  1.6187  1.3117  0.5866
 4154SOL     OW23923   2.388   2.110   6.089  0.4834  0.4113 -0.0865
 4154SOL    HW123924   2.347   2.178   6.142 -0.3999  0.0808 -0.3636
 4154SOL    HW223925   2.307   2.065   6.066  0.9994 -0.6878  0.2230
 4155SOL     OW23926   2.341   2.351   1.403 -0.5430  0.2479  0.0530
 4155SOL    HW123927   2.259   2.369   1.357 -1.5853 -1.1910  1.3413
 4155SOL    HW223928   2.349   2.255   1.407 -1.8399  0.0916 -1.0020
 4156SOL     OW23929   3.917   3.936   4.712 -0.0460 -0.2796 -0.4925
 4156SOL    HW123930   4.011   3.932   4.725 -0.1686  1.5825  0.9756
 4156SOL    HW223931   3.913   3.859   4.655  0.6135 -0.8715  0.2742
 4157SOL     OW23932   3.601   4.075   4.261  0.3279  0.4098  0.2781
 4157SOL    HW123933   3.507   4.073   4.247 -0.0322  1.3579  2.4653
 4157SOL    HW223934   3.630   4.133   4.190 -0.9651 -1.7296 -1.9806
 4158SOL     OW23935   4.607   0.362   7.255 -0.1257  0.2685 -0.3085
 4158SOL    HW123936   4.691   0.382   7.213 -0.0113 -0.5680 -0.4914
 4158SOL    HW223937   4.610   0.266   7.252 -0.0118  0.2237  1.0051
 4159SOL     OW23938   3.094   4.694  15.562  0.1302 -0.8075  0.0224
 4159SOL    HW123939   3.134   4.608  15.567 -1.8986 -1.6345  2.2508
 4159SOL    HW223940   3.045   4.688  15.480 -0.5218 -2.4767  0.5467
 4160SOL     OW23941   0.385   0.180   5.583  0.5342 -0.1845 -0.3667
 4160SOL    HW123942   0.400   0.089   5.610  1.3130 -0.2352 -0.9588
 4160SOL    HW223943   0.393   0.163   5.489  1.5746  2.6417 -0.7868
 4161SOL     OW23944   3.537   0.135   2.829  0.5289  0.0099 -0.0062
 4161SOL    HW123945   3.546   0.223   2.865  0.5723 -0.8067  1.9806
 4161SOL    HW223946   3.546   0.161   2.737 -2.3129 -0.1187 -0.3042
 4162SOL     OW23947   0.290   1.098   6.452 -0.1634  0.0869  0.2367
 4162SOL    HW123948   0.207   1.106   6.499  1.0081  1.2962  2.1062
 4162SOL    HW223949   0.253   1.072   6.367 -0.6757  1.0766  0.1541
 4163SOL     OW23950   3.025   2.233  17.004 -0.2307  0.5308  0.6206
 4163SOL    HW123951   3.087   2.225  16.930  0.7899  5.5081  0.9609
 4163SOL    HW223952   3.012   2.140  17.024  0.8604 -0.3358 -2.6147
 4164SOL     OW23953   1.677   4.307   3.441 -0.0194  0.6052  0.1361
 4164SOL    HW123954   1.695   4.390   3.485  1.2189 -0.7019  2.0837
 4164SOL    HW223955   1.610   4.268   3.496  0.3137 -0.9200 -0.5248
 4165SOL     OW23956   1.165   1.196  11.345 -0.0346 -0.0867  0.4853
 4165SOL    HW123957   1.132   1.171  11.432  0.4355  1.0232  0.9793
 4165SOL    HW223958   1.257   1.212  11.363  0.0656  0.2429 -0.3413
 4166SOL     OW23959   3.030   2.894  16.937 -0.4842 -0.4528  0.7579
 4166SOL    HW123960   3.069   2.819  16.982  0.7080 -1.5575 -2.1145
 4166SOL    HW223961   3.043   2.958  17.006  1.8964  2.2006 -2.1550
 4167SOL     OW23962   0.427   2.616   5.823 -0.1608  0.1859 -1.1077
 4167SOL    HW123963   0.388   2.602   5.909 -0.7184 -0.3367 -1.4460
 4167SOL    HW223964   0.389   2.554   5.761  0.2017  0.1632 -1.3053
 4168SOL     OW23965   3.269   3.638   1.805 -0.7629  0.0345  0.1463
 4168SOL    HW123966   3.233   3.549   1.803  0.5285 -0.4485 -0.9996
 4168SOL    HW223967   3.245   3.656   1.896 -1.8838 -1.8365  0.2211
 4169SOL     OW23968   1.955   0.481   2.537  0.4446  0.2055  0.6226
 4169SOL    HW123969   1.890   0.549   2.554 -1.9085 -0.9851 -3.6011
 4169SOL    HW223970   1.950   0.475   2.442 -2.0783  1.0194  0.7018
 4170SOL     OW23971   1.371   1.171   4.711 -0.5699  0.5630  0.0157
 4170SOL    HW123972   1.435   1.176   4.640 -0.4723  0.8700  0.1275
 4170SOL    HW223973   1.348   1.264   4.710  1.5622  1.0932  0.4402
 4171SOL     OW23974   4.120   0.232   2.149 -0.1271 -0.2503  0.2869
 4171SOL    HW123975   4.038   0.222   2.198  0.7914  1.5882  2.1996
 4171SOL    HW223976   4.143   0.139   2.149  0.1679 -0.1781 -0.4689
 4172SOL     OW23977   0.675   4.576   1.499 -0.7110 -0.1384  0.3647
 4172SOL    HW123978   0.586   4.566   1.535 -0.9759  0.9524  0.0175
 4172SOL    HW223979   0.720   4.566   1.583  1.4025  1.3426 -0.5975
 4173SOL     OW23980   3.934   3.364  15.302 -0.1464 -0.0076  0.0444
 4173SOL    HW123981   3.945   3.458  15.316 -0.4109 -0.1968  1.4812
 4173SOL    HW223982   4.022   3.327  15.314  0.0898  0.2436 -0.8662
 4174SOL     OW23983   3.691   0.998   3.158 -0.2928  0.3249 -0.2095
 4174SOL    HW123984   3.699   0.905   3.182 -0.4618  0.3061 -0.2231
 4174SOL    HW223985   3.596   1.009   3.145 -0.3335  1.6747  1.2362
 4175SOL     OW23986   2.427   4.332   4.400  0.2862 -0.0069  0.0840
 4175SOL    HW123987   2.383   4.364   4.479 -0.4815 -1.4119  0.2371
 4175SOL    HW223988   2.518   4.337   4.430  0.2678  5.1652 -0.7731
 4176SOL     OW23989   0.305   4.649  16.593 -0.4912  0.3593  0.0410
 4176SOL    HW123990   0.267   4.674  16.677 -1.8910 -1.3862 -0.0726
 4176SOL    HW223991   0.361   4.724  16.572 -0.1523 -1.1508 -4.5503
 4177SOL     OW23992   2.488   1.949   1.935 -0.3019 -0.1463 -0.1014
 4177SOL    HW123993   2.462   1.863   1.904 -3.2713  0.4340  0.7380
 4177SOL    HW223994   2.562   1.927   1.993 -0.9583  0.2030  0.8743
 4178SOL     OW23995   2.731   1.379   3.035 -0.1200  0.4716  0.4173
 4178SOL    HW123996   2.638   1.366   3.018 -0.3184  1.1560  0.9851
 4178SOL    HW223997   2.739   1.341   3.123 -0.7860  1.4494  0.8990
 4179SOL     OW23998   1.302   0.452   5.716 -0.4305 -0.3304 -0.3229
 4179SOL    HW123999   1.365   0.524   5.731 -0.7424 -0.1663  0.2018
 4179SOL    HW224000   1.231   0.484   5.771 -0.0355 -2.7262  1.6051
 4180SOL     OW24001   3.652   0.262  16.208 -0.3367  0.0927 -0.7595
 4180SOL    HW124002   3.579   0.241  16.266  1.6613 -0.8609  1.4023
 4180SOL    HW224003   3.618   0.213  16.132 -2.3341  0.3305 -0.0270
 4181SOL     OW24004   0.075   3.990   3.353 -0.2738  0.2646  0.1724
 4181SOL    HW124005   0.100   4.009   3.443 -0.2944  0.9625  0.0312
 4181SOL    HW224006   4.705   4.005   3.360 -0.4360 -1.1220  1.0054
 4182SOL     OW24007   0.923   4.235   2.927 -0.2386 -0.1020 -0.1134
 4182SOL    HW124008   0.915   4.303   2.859  3.8854  0.7779  0.2227
 4182SOL    HW224009   0.833   4.242   2.958 -0.3927  0.1795 -0.6230
 4183SOL     OW24010   1.604   3.590  17.365  0.1586  0.4615  0.2446
 4183SOL    HW124011   1.694   3.612  17.391  1.0496 -1.2024 -1.4806
 4183SOL    HW224012   1.565   3.547  17.440 -1.8128  0.8214 -0.5784
 4184SOL     OW24013   1.605   3.023  17.554  0.0764  0.1905 -0.4500
 4184SOL    HW124014   1.694   3.005  17.583 -0.0052 -1.1320 -1.0074
 4184SOL    HW224015   1.613   3.098  17.495  0.0705 -0.0966 -0.8141
 4185SOL     OW24016   4.575   3.522  12.212  0.2656  0.3502 -0.0750
 4185SOL    HW124017   4.553   3.561  12.297 -1.8319  0.1280 -0.5141
 4185SOL    HW224018   4.593   3.610  12.179 -0.1845 -0.1068 -1.5202
 4186SOL     OW24019   0.339   0.163  14.313 -0.2582  0.0515 -0.0326
 4186SOL    HW124020   0.425   0.177  14.272 -0.3854  1.4929  0.1938
 4186SOL    HW224021   0.322   0.245  14.360 -0.6900  0.1041 -0.2823
 4187SOL     OW24022   3.776   1.995  17.363 -0.5561  0.5678  0.1830
 4187SOL    HW124023   3.768   2.077  17.412 -1.1261  0.6566 -0.0622
 4187SOL    HW224024   3.869   1.981  17.381 -0.2220  0.7053 -1.5168
 4188SOL     OW24025   2.227   2.464   4.084  0.0562 -0.0993  0.2391
 4188SOL    HW124026   2.287   2.456   4.158  0.8551 -2.6229 -0.6972
 4188SOL    HW224027   2.291   2.461   4.013  1.0890 -1.7460  1.2441
 4189SOL     OW24028   2.302   3.312   0.642  0.1756 -0.0401 -0.0807
 4189SOL    HW124029   2.265   3.307   0.730  0.0653  0.1709 -0.1167
 4189SOL    HW224030   2.391   3.329   0.673 -0.2005  0.1208  0.9016
 4190SOL     OW24031   0.363   1.898   6.231  0.1818  0.0939 -0.6629
 4190SOL    HW124032   0.304   1.883   6.305  1.9934 -0.0230  0.7772
 4190SOL    HW224033   0.311   1.957   6.176  0.8939  1.0471 -0.3234
 4191SOL     OW24034   4.049   4.247   5.336  0.1453 -0.0714 -0.2664
 4191SOL    HW124035   4.034   4.184   5.406  0.5651  1.8903  1.6116
 4191SOL    HW224036   4.011   4.194   5.266  0.6360 -2.2209  1.1066
 4192SOL     OW24037   0.806   4.653   2.423  0.0205  0.6001  0.0634
 4192SOL    HW124038   0.853   4.696   2.495  0.0224  0.2276  0.2883
 4192SOL    HW224039   0.726   4.634   2.471 -0.5241 -0.0240 -1.1066
 4193SOL     OW24040   0.702   0.094  12.876 -0.1448 -0.1855  0.2817
 4193SOL    HW124041   0.764   0.144  12.824  0.1439 -1.2165 -0.3720
 4193SOL    HW224042   0.655   0.169  12.913 -1.0614  0.6382 -2.5751
 4194SOL     OW24043   1.002   1.126  12.507 -0.5874  0.2090  0.7737
 4194SOL    HW124044   1.035   1.120  12.418 -0.5304  1.2338  0.7233
 4194SOL    HW224045   1.014   1.220  12.523 -0.5552  0.6867 -2.1525
 4195SOL     OW24046   2.420   0.542   8.740 -0.4011 -0.5039 -0.1896
 4195SOL    HW124047   2.485   0.595   8.788 -0.6572 -0.8145  0.5053
 4195SOL    HW224048   2.347   0.603   8.752  0.2874  0.1333  0.7930
 4196SOL     OW24049   0.961   1.695   3.212 -0.2859  0.3157  0.1685
 4196SOL    HW124050   0.948   1.788   3.192 -0.7527  0.6088  1.8181
 4196SOL    HW224051   1.045   1.693   3.257  1.3696 -0.3813 -2.9686
 4197SOL     OW24052   0.124   1.947   2.695  0.4579 -0.1133 -0.4702
 4197SOL    HW124053   0.210   1.972   2.661  2.2239 -3.4841  1.5804
 4197SOL    HW224054   0.059   1.921   2.629  0.0956  1.8110 -0.8812
 4198SOL     OW24055   3.951   1.096   5.860 -0.6934  0.0917  0.0069
 4198SOL    HW124056   3.917   1.009   5.837  0.5620  0.4846 -3.2770
 4198SOL    HW224057   3.873   1.149   5.847  1.4117  2.5680 -2.4009
 4199SOL     OW24058   3.882   0.438  10.443  0.2526 -0.5562 -0.2165
 4199SOL    HW124059   3.960   0.390  10.417  0.2716 -0.8587  0.4048
 4199SOL    HW224060   3.825   0.408  10.372 -0.8317  1.0343 -0.0071
 4200SOL     OW24061   1.227   2.698   3.884 -0.4666 -0.1148 -0.0391
 4200SOL    HW124062   1.266   2.710   3.971 -0.5565  3.8308 -0.5587
 4200SOL    HW224063   1.307   2.690   3.832  0.3063  1.4886  0.9072
 4201SOL     OW24064   3.267   1.611   7.292  0.0245  0.2285 -0.2332
 4201SOL    HW124065   3.291   1.644   7.379 -0.9705  0.4191 -0.0308
 4201SOL    HW224066   3.339   1.548   7.290  0.0405  0.3144 -2.5499
 4202SOL     OW24067   2.727   0.165  14.530 -1.1550 -0.2972 -0.3755
 4202SOL    HW124068   2.681   0.097  14.481 -0.4908 -0.8920 -0.1620
 4202SOL    HW224069   2.806   0.177  14.478  0.6373  0.4620  2.5144
 4203SOL     OW24070   1.876   1.701  14.411 -0.2388 -0.2641 -0.5220
 4203SOL    HW124071   1.930   1.690  14.489 -1.8814 -0.7326  0.5635
 4203SOL    HW224072   1.894   1.792  14.385  1.0592 -0.5110 -0.4829
 4204SOL     OW24073   1.573   1.159   0.499  0.7072  0.1951 -0.0644
 4204SOL    HW124074   1.609   1.247   0.487 -1.3992  1.2165  1.0529
 4204SOL    HW224075   1.530   1.181   0.582  1.8734  0.2939  0.5140
 4205SOL     OW24076   2.080   1.278   7.452 -0.2639 -0.0338  0.1955
 4205SOL    HW124077   2.050   1.368   7.443 -0.4881 -0.1061  0.2225
 4205SOL    HW224078   2.039   1.240   7.529 -1.2626 -2.9817 -1.7934
 4206SOL     OW24079   0.250   4.610  12.253 -0.6242  0.2831  0.0715
 4206SOL    HW124080   0.240   4.515  12.265 -1.6741  0.3412 -0.3975
 4206SOL    HW224081   0.162   4.640  12.272 -1.0150 -1.3413  0.8939
 4207SOL     OW24082   2.573   4.240   4.125  0.1468  0.5675  0.3446
 4207SOL    HW124083   2.616   4.162   4.161  0.8389  0.4624 -0.7149
 4207SOL    HW224084   2.526   4.274   4.201 -0.2743  0.1734  0.2651
 4208SOL     OW24085   0.398   1.533   5.610 -0.1048  0.2535 -0.1350
 4208SOL    HW124086   0.454   1.601   5.647  1.6139 -1.2226 -0.0264
 4208SOL    HW224087   0.371   1.483   5.687 -0.8905  0.0296 -0.5527
 4209SOL     OW24088   0.033   3.058   8.457 -0.0180 -0.1274  0.8586
 4209SOL    HW124089   0.007   3.149   8.438 -1.3104 -0.3796  1.3904
 4209SOL    HW224090   0.128   3.061   8.446 -0.0528  0.3880  0.7023
 4210SOL     OW24091   2.183   2.024   9.441  0.5032 -0.3590  1.0422
 4210SOL    HW124092   2.181   1.940   9.488  2.0328 -2.0603 -1.9072
 4210SOL    HW224093   2.096   2.054   9.466  0.1230 -1.1658  0.6746
 4211SOL     OW24094   2.734   1.930   0.860  0.0942 -0.0725  0.5263
 4211SOL    HW124095   2.824   1.902   0.877  1.1148  3.7977  1.5134
 4211SOL    HW224096   2.692   1.853   0.821  0.5886  1.0405 -2.1505
 4212SOL     OW24097   1.718   0.462  16.308 -0.0798  0.5201  0.0004
 4212SOL    HW124098   1.689   0.403  16.239 -0.7565 -0.5817  1.2224
 4212SOL    HW224099   1.676   0.429  16.388  1.3701 -0.7187  0.2477
 4213SOL     OW24100   4.649   1.595   6.934 -0.1860 -0.0297 -0.7576
 4213SOL    HW124101   4.724   1.582   6.875 -1.6865 -0.9504 -2.4688
 4213SOL    HW224102   4.629   1.507   6.965 -0.3865 -0.4308 -2.0192
 4214SOL     OW24103   0.523   2.934   1.454 -0.0497 -0.1463  0.2607
 4214SOL    HW124104   0.546   2.841   1.446  0.3365 -0.1533  1.4662
 4214SOL    HW224105   0.435   2.912   1.422 -0.7243 -0.4020  2.2485
 4215SOL     OW24106   0.616   4.463   9.747 -0.1315 -0.0061 -0.3793
 4215SOL    HW124107   0.543   4.460   9.809  0.4919 -1.3209  0.3037
 4215SOL    HW224108   0.582   4.508   9.670  0.3106 -0.5634 -0.9036
 4216SOL     OW24109   2.491   1.001   7.518  0.6320 -0.5809 -0.0387
 4216SOL    HW124110   2.534   1.086   7.510 -1.0727  0.2983 -0.0047
 4216SOL    HW224111   2.449   1.010   7.433  3.3069  1.8501 -1.0876
 4217SOL     OW24112   2.565   4.661  10.953  0.1894 -0.2315  0.0282
 4217SOL    HW124113   2.657   4.666  10.977  0.1116  0.5370  0.1914
 4217SOL    HW224114   2.555   0.030  10.934 -1.7649 -0.3457  0.4378
 4218SOL     OW24115   4.045   4.309   9.109  0.3326 -0.3114  0.1072
 4218SOL    HW124116   3.986   4.241   9.141  1.3448 -0.4487  1.6963
 4218SOL    HW224117   4.017   4.379   9.169 -0.2557 -1.1702  0.8384
 4219SOL     OW24118   0.082   3.324   3.029  0.6336  0.1653 -0.3118
 4219SOL    HW124119   0.066   3.331   2.935  1.5034 -1.4800 -0.5943
 4219SOL    HW224120   4.722   3.311   3.072  0.2614 -0.2942 -1.1720
 4220SOL     OW24121   1.314   1.047  14.413  0.4091  0.0666  0.3834
 4220SOL    HW124122   1.270   1.100  14.347  0.5981  0.8171  0.8476
 4220SOL    HW224123   1.393   1.102  14.416  0.4084 -0.0027  1.6307
 4221SOL     OW24124   1.636   1.366   1.612 -0.1029 -0.0338 -0.0332
 4221SOL    HW124125   1.711   1.313   1.584 -1.5960 -2.2892  0.2898
 4221SOL    HW224126   1.618   1.422   1.536  0.1210 -1.1369 -0.8916
 4222SOL     OW24127   3.414   3.384   8.242  0.5873 -0.3070 -0.7525
 4222SOL    HW124128   3.509   3.384   8.256  0.5386  0.0599 -0.4398
 4222SOL    HW224129   3.412   3.478   8.258 -0.2849 -1.1118  3.6495
 4223SOL     OW24130   3.027   2.696   3.991 -0.5652  0.6664 -0.3504
 4223SOL    HW124131   3.057   2.661   3.907 -0.7806  1.7943 -0.9004
 4223SOL    HW224132   3.113   2.716   4.029 -0.8605  0.6609  0.3199
 4224SOL     OW24133   1.441   4.309   7.858  0.5725 -0.0193  0.8341
 4224SOL    HW124134   1.363   4.301   7.802  1.6392  1.0461 -0.7732
 4224SOL    HW224135   1.503   4.254   7.811 -0.1635 -2.3892  2.6671
 4225SOL     OW24136   0.826   4.065   3.235  0.7988 -0.1234  0.0555
 4225SOL    HW124137   0.845   3.981   3.193 -1.3154 -0.9461  0.7544
 4225SOL    HW224138   0.905   4.063   3.289  1.7920 -1.3515 -1.4409
 4226SOL     OW24139   3.290   3.239   5.345 -0.6459 -0.1200  0.1948
 4226SOL    HW124140   3.342   3.287   5.281  0.2314 -0.2418  0.8191
 4226SOL    HW224141   3.204   3.250   5.305 -1.4662 -3.5091  1.0654
 4227SOL     OW24142   3.410   2.922  15.103 -0.4001 -0.1644  0.2199
 4227SOL    HW124143   3.430   2.830  15.085 -1.3630 -0.4734  0.7047
 4227SOL    HW224144   3.454   2.925  15.188 -0.5124  0.3250  0.2628
 4228SOL     OW24145   2.252   1.302   1.086  0.2091 -0.1483  0.0080
 4228SOL    HW124146   2.218   1.236   1.145 -1.8922 -0.6318 -1.7534
 4228SOL    HW224147   2.307   1.244   1.033  1.5761  1.4894 -0.3998
 4229SOL     OW24148   1.507   2.352   5.280 -0.4135 -0.1912 -0.1253
 4229SOL    HW124149   1.545   2.414   5.342  0.6839 -1.9703  0.9835
 4229SOL    HW224150   1.507   2.274   5.336  1.5233 -1.0780 -1.3640
 4230SOL     OW24151   1.114   3.337   4.363 -0.0333  0.1558  0.8266
 4230SOL    HW124152   1.033   3.288   4.352  0.7788 -1.4611  1.9676
 4230SOL    HW224153   1.170   3.259   4.365 -0.8786 -0.4754 -0.4769
 4231SOL     OW24154   2.382   4.604   2.581  0.2633 -0.1538 -0.2572
 4231SOL    HW124155   2.353   4.548   2.508  0.1187  1.4180 -1.4029
 4231SOL    HW224156   2.475   4.620   2.569  0.7014 -2.1282  0.4075
 4232SOL     OW24157   4.483   1.301   6.713  0.4548 -0.5683 -0.0779
 4232SOL    HW124158   4.500   1.215   6.674  0.3118 -0.8762  0.5356
 4232SOL    HW224159   4.476   1.358   6.636 -1.5080  0.7917  1.1093
 4233SOL     OW24160   0.348   1.894  10.477 -0.0162 -0.6220 -0.0391
 4233SOL    HW124161   0.386   1.952  10.542 -1.1829 -2.2038  2.0448
 4233SOL    HW224162   0.384   1.814  10.516 -0.5697 -0.3254  1.0785
 4234SOL     OW24163   3.067   3.322   1.991  0.4471 -0.8241 -0.6188
 4234SOL    HW124164   2.978   3.289   2.005  0.2291  0.8834  1.9417
 4234SOL    HW224165   3.086   3.350   2.080 -2.4397  1.7592 -0.8366
 4235SOL     OW24166   1.976   3.091  14.663 -0.5400 -0.7248 -0.3529
 4235SOL    HW124167   1.904   3.151  14.678  1.3829  1.0012  1.8672
 4235SOL    HW224168   1.972   3.018  14.726 -0.4053 -0.3771  0.0568
 4236SOL     OW24169   4.435   0.800   1.911 -0.0450 -0.5176  0.4762
 4236SOL    HW124170   4.462   0.873   1.854  1.3873 -1.6976 -0.3651
 4236SOL    HW224171   4.364   0.831   1.967  0.3791 -1.5375  1.5748
 4237SOL     OW24172   1.755   1.938   7.491  0.6786 -0.1994  0.6358
 4237SOL    HW124173   1.818   2.009   7.498  2.8389 -2.1932  1.1151
 4237SOL    HW224174   1.753   1.926   7.396 -1.3072  1.0891  0.4927
 4238SOL     OW24175   0.593   0.498   4.697 -0.2939 -0.4060  0.4939
 4238SOL    HW124176   0.508   0.476   4.660  1.3563 -1.9529 -2.3620
 4238SOL    HW224177   0.612   0.584   4.661 -0.0980  0.5814  2.9642
 4239SOL     OW24178   0.405   3.043   3.606  0.0986 -0.5728  0.0920
 4239SOL    HW124179   0.404   3.096   3.526 -0.7953 -0.5287  0.1303
 4239SOL    HW224180   0.457   3.099   3.664 -1.2201  0.4620  0.2639
 4240SOL     OW24181   1.620   3.601   4.294 -0.5864 -0.3026  0.3339
 4240SOL    HW124182   1.693   3.630   4.348  1.2149 -3.7701 -0.2465
 4240SOL    HW224183   1.674   3.571   4.222  1.6427  0.4341  1.7078
 4241SOL     OW24184   2.420   1.538   5.113 -0.0199 -0.9788  0.3269
 4241SOL    HW124185   2.428   1.573   5.024 -1.8229  0.9765  0.9492
 4241SOL    HW224186   2.461   1.453   5.096  1.2464  0.1282 -2.1962
 4242SOL     OW24187   2.919   3.597   7.334  0.2315 -0.6016  0.0592
 4242SOL    HW124188   2.977   3.527   7.304 -1.6446 -2.6272  1.1472
 4242SOL    HW224189   2.830   3.573   7.307  0.6707  0.5394 -2.3983
 4243SOL     OW24190   4.233   1.727   9.585  0.0082 -0.5431  0.0689
 4243SOL    HW124191   4.222   1.759   9.675 -1.8843 -0.5742 -0.1348
 4243SOL    HW224192   4.181   1.646   9.585 -0.1496 -0.4321  3.0187
 4244SOL     OW24193   0.076   3.471  14.112  0.1029 -0.8374 -0.1144
 4244SOL    HW124194   0.154   3.487  14.165 -0.4371  1.5743 -0.0205
 4244SOL    HW224195   0.035   3.558  14.113  1.6073 -0.1304  0.1085
 4245SOL     OW24196   0.092   1.437  13.144 -0.7229  0.3599  0.3527
 4245SOL    HW124197   0.119   1.396  13.061  0.7073  1.7194  0.1486
 4245SOL    HW224198   0.015   1.384  13.161  0.1839 -0.8567  0.6578
 4246SOL     OW24199   3.594   4.606  11.396 -0.0369 -0.4217 -1.0945
 4246SOL    HW124200   3.591   4.608  11.491 -1.2053 -1.9012 -1.1014
 4246SOL    HW224201   3.559   4.518  11.384 -2.2906  0.2990  0.1406
 4247SOL     OW24202   2.249   2.513   0.249  0.4961 -0.5204  0.2711
 4247SOL    HW124203   2.230   2.422   0.272  2.1293 -1.4218 -1.8662
 4247SOL    HW224204   2.249   2.557   0.334  0.0607 -0.2208  0.1172
 4248SOL     OW24205   2.528   3.170   0.464 -0.3819  0.4313  0.4369
 4248SOL    HW124206   2.560   3.187   0.553  0.7005 -1.2272  0.3710
 4248SOL    HW224207   2.437   3.163   0.493 -0.4264 -2.0111 -0.2530
 4249SOL     OW24208   3.383   1.227   0.192  0.2161 -0.1874  0.2189
 4249SOL    HW124209   3.429   1.156   0.237 -1.0513  0.9687  3.3844
 4249SOL    HW224210   3.453   1.287   0.166 -0.0009 -0.6914 -1.5077
 4250SOL     OW24211   3.283   2.771   6.883  0.0071  0.7626  0.5357
 4250SOL    HW124212   3.348   2.702   6.866 -2.3073 -1.9772  2.9072
 4250SOL    HW224213   3.261   2.780   6.790  2.8634 -0.7443 -0.2976
 4251SOL     OW24214   0.691   4.374  17.637  0.8335 -0.4465 -0.0754
 4251SOL    HW124215   0.763   4.367  17.699 -0.1209  4.1402  1.5918
 4251SOL    HW224216   0.612   4.359  17.690  0.1173  1.1462 -0.6607
 4252SOL     OW24217   4.484   2.180   7.945  0.6711  0.5401 -0.2520
 4252SOL    HW124218   4.547   2.129   7.995 -0.0092 -1.3231 -1.3000
 4252SOL    HW224219   4.539   2.256   7.929 -0.2972  1.5505  1.1964
 4253SOL     OW24220   3.074   0.439   7.000  0.3941 -0.0366 -0.2984
 4253SOL    HW124221   3.106   0.471   6.916  4.6796 -1.8707  0.6506
 4253SOL    HW224222   3.115   0.492   7.068  1.6298 -1.5152  0.1130
 4254SOL     OW24223   1.482   4.002   4.385 -0.3221  0.3780 -0.0164
 4254SOL    HW124224   1.458   3.947   4.310 -0.2581 -1.1221  1.0513
 4254SOL    HW224225   1.393   4.028   4.404 -0.6120 -0.2301 -0.5221
 4255SOL     OW24226   1.944   1.429   4.992  0.3102  0.2270 -0.1409
 4255SOL    HW124227   1.884   1.436   5.067 -2.0802  0.4936 -2.1090
 4255SOL    HW224228   1.923   1.510   4.947  1.1530  0.1814 -0.6139
 4256SOL     OW24229   3.456   3.341  10.029  0.2568 -0.0164  0.3358
 4256SOL    HW124230   3.522   3.273  10.013  0.7251  0.0939  1.7973
 4256SOL    HW224231   3.489   3.421   9.988  1.9953  0.8523  3.4100
 4257SOL     OW24232   0.864   0.078  12.165  0.2055  0.5981 -0.5594
 4257SOL    HW124233   0.850   4.719  12.208  1.5584  1.2422  1.1230
 4257SOL    HW224234   0.901   0.052  12.080  1.7499  1.3601 -0.1112
 4258SOL     OW24235   3.833   3.632   7.727  0.0057  0.6132 -0.0125
 4258SOL    HW124236   3.817   3.726   7.736 -1.5612  0.3358  0.1339
 4258SOL    HW224237   3.773   3.599   7.794 -1.2334  1.9963 -0.4400
 4259SOL     OW24238   3.647   1.952   2.660 -0.3492 -0.2853  0.4150
 4259SOL    HW124239   3.600   2.030   2.630 -0.2220 -1.2469 -2.2933
 4259SOL    HW224240   3.704   1.941   2.584 -2.1352  1.0477 -1.1093
 4260SOL     OW24241   2.525   3.220  11.678  0.4079  0.2602  0.2741
 4260SOL    HW124242   2.431   3.211  11.696  0.3529 -1.6392 -0.8733
 4260SOL    HW224243   2.534   3.131  11.642 -1.3566  0.7299 -1.2937
 4261SOL     OW24244   2.945   1.912   6.688 -0.3242 -0.3701  0.8531
 4261SOL    HW124245   2.990   1.835   6.654 -1.0650  0.6053 -2.2639
 4261SOL    HW224246   3.002   1.949   6.756  2.5085 -0.5819 -1.4057
 4262SOL     OW24247   4.552   2.851  12.685 -0.2781  0.3292 -0.2997
 4262SOL    HW124248   4.555   2.945  12.668 -0.1704 -0.4447 -4.5810
 4262SOL    HW224249   4.621   2.829  12.622 -2.1341 -1.3623 -1.7399
 4263SOL     OW24250   0.422   1.072   6.068 -0.4683  0.2592  0.4116
 4263SOL    HW124251   0.488   1.098   6.003 -1.1950 -1.6241 -1.0773
 4263SOL    HW224252   0.469   1.003   6.116  1.4370 -0.1464 -2.0188
 4264SOL     OW24253   4.691   3.640   8.399 -0.4573  0.2171 -0.0645
 4264SOL    HW124254   0.029   3.648   8.328 -0.3358  1.9125  0.2374
 4264SOL    HW224255   4.703   3.725   8.442  0.5195 -0.3216  0.7179
 4265SOL     OW24256   2.788   2.374   5.575  0.4365 -0.7366 -0.2005
 4265SOL    HW124257   2.882   2.374   5.595  0.5919  2.4325 -0.8890
 4265SOL    HW224258   2.791   2.333   5.488 -1.2293 -0.4484 -0.3850
 4266SOL     OW24259   3.289   2.198  17.387  0.0780  0.5884  0.5902
 4266SOL    HW124260   3.245   2.283  17.390 -2.7371 -0.9247  1.3491
 4266SOL    HW224261   3.270   2.165  17.299  0.6880  1.6465  0.0535
 4267SOL     OW24262   1.973   0.223  15.539  0.0519 -0.4275  0.7318
 4267SOL    HW124263   2.033   0.241  15.612 -2.5355  0.6315  2.5874
 4267SOL    HW224264   1.999   0.132  15.531  0.6819 -0.1603 -0.2269
 4268SOL     OW24265   0.365   0.389  12.506  0.1069 -0.0483 -0.9375
 4268SOL    HW124266   0.437   0.448  12.486 -0.3690  0.0224 -2.4920
 4268SOL    HW224267   0.401   0.300  12.503 -1.8135 -0.8648 -0.3606
 4269SOL     OW24268   0.591   4.186  13.758  0.0077 -0.0376 -0.0404
 4269SOL    HW124269   0.564   4.185  13.849  1.0869 -1.7681  0.2668
 4269SOL    HW224270   0.664   4.246  13.772 -0.0327  0.1101 -0.4593
 4270SOL     OW24271   1.541   3.508   5.217 -0.1857  0.0239 -0.2677
 4270SOL    HW124272   1.488   3.433   5.189  1.0132  0.0160 -2.4917
 4270SOL    HW224273   1.562   3.475   5.304 -0.3462  0.1294 -0.1881
 4271SOL     OW24274   3.320   2.090  17.113  0.0688  0.4537  0.2206
 4271SOL    HW124275   3.292   2.000  17.096 -0.1716  0.4442  0.6656
 4271SOL    HW224276   3.286   2.134  17.035 -0.7382 -1.5092 -0.5102
 4272SOL     OW24277   0.918   3.734   9.329  0.0942 -0.7444 -0.1870
 4272SOL    HW124278   0.845   3.685   9.366 -0.1061 -0.8201 -0.6908
 4272SOL    HW224279   0.955   3.666   9.274  0.8040 -0.7794  0.3208
 4273SOL     OW24280   2.893   0.703   5.821 -0.2459  1.1194 -0.2228
 4273SOL    HW124281   2.870   0.663   5.737  0.7362  0.1851 -0.0442
 4273SOL    HW224282   2.974   0.657   5.843 -1.8254 -1.7756 -0.5415
 4274SOL     OW24283   2.466   0.133   5.763  0.6767  0.1871  0.0037
 4274SOL    HW124284   2.459   0.062   5.827  0.2645  2.0359  2.0034
 4274SOL    HW224285   2.434   0.082   5.689  1.3052  2.0352 -1.5084
 4275SOL     OW24286   2.903   2.939   2.110 -0.2662  0.6083  0.1848
 4275SOL    HW124287   2.864   3.019   2.144  0.7298  1.2504 -0.1774
 4275SOL    HW224288   2.919   2.957   2.017  0.3723  0.0562  0.1866
 4276SOL     OW24289   2.222   3.260   6.879 -0.2126 -0.1915  0.9143
 4276SOL    HW124290   2.218   3.288   6.788  1.7705 -0.1126  0.8450
 4276SOL    HW224291   2.186   3.341   6.916 -2.6823 -0.4551 -0.9665
 4277SOL     OW24292   2.385   1.396   7.964 -0.0855  0.0760 -0.1521
 4277SOL    HW124293   2.298   1.394   8.004 -0.1426  1.2883 -0.2198
 4277SOL    HW224294   2.360   1.385   7.872 -0.4394  0.7630 -0.1397
 4278SOL     OW24295   0.042   3.030   9.312  0.3747 -0.6685  0.0715
 4278SOL    HW124296   0.056   3.005   9.403 -1.2730  2.8870  1.2847
 4278SOL    HW224297   0.129   3.012   9.275  0.7969  1.8315 -0.1598
 4279SOL     OW24298   3.068   1.858   2.075 -0.1764 -0.8826 -0.0509
 4279SOL    HW124299   3.034   1.916   2.144  0.8732  1.8844 -1.8620
 4279SOL    HW224300   3.032   1.773   2.102 -2.9670 -0.5024 -2.6851
 4280SOL     OW24301   3.543   1.318  15.321 -0.0332  0.3419 -0.1616
 4280SOL    HW124302   3.500   1.286  15.242  0.2782  2.2015 -1.0891
 4280SOL    HW224303   3.568   1.232  15.353 -1.7608 -0.5340 -1.1759
 4281SOL     OW24304   2.429   2.282  16.081 -0.3481  0.1617  0.0178
 4281SOL    HW124305   2.369   2.354  16.099  1.4175  1.0349  2.3112
 4281SOL    HW224306   2.503   2.320  16.129 -1.3287 -0.0507  1.7005
 4282SOL     OW24307   2.954   1.179  13.448 -0.0945 -0.3810  0.1493
 4282SOL    HW124308   2.962   1.255  13.390 -0.0314 -0.7222 -0.2897
 4282SOL    HW224309   2.866   1.144  13.432  0.4853 -1.3226 -1.0077
 4283SOL     OW24310   4.117   1.215   6.533  0.0978  0.2651 -0.3461
 4283SOL    HW124311   4.063   1.219   6.454  0.1468  1.1680 -0.3316
 4283SOL    HW224312   4.066   1.276   6.586  2.4592  1.7204  0.2036
 4284SOL     OW24313   0.468   3.624   3.950 -0.4444  0.0495  0.1629
 4284SOL    HW124314   0.488   3.642   3.858 -0.6726 -1.5675 -0.1997
 4284SOL    HW224315   0.400   3.557   3.945 -1.0263  0.6904 -0.5904
 4285SOL     OW24316   4.677   2.836   6.385 -0.1886  0.1722 -0.1317
 4285SOL    HW124317   0.034   2.883   6.400 -0.9690  0.7034  2.4757
 4285SOL    HW224318   4.684   2.758   6.440 -1.2813  0.9355  1.0899
 4286SOL     OW24319   1.432   0.604   2.843 -0.0527  0.0076  0.2416
 4286SOL    HW124320   1.460   0.675   2.900 -0.7174 -0.4189  1.0897
 4286SOL    HW224321   1.519   0.565   2.840  0.7092  1.8206 -1.3966
 4287SOL     OW24322   0.725   0.092   7.996  0.0793  1.1708 -0.2613
 4287SOL    HW124323   0.802   0.134   7.958  0.2931 -0.2050 -1.3524
 4287SOL    HW224324   0.650   0.152   7.988  0.6840  2.0750  0.8745
 4288SOL     OW24325   4.548   2.674  15.928  1.0111  0.6086  0.2323
 4288SOL    HW124326   4.556   2.601  15.866 -0.0305 -0.2915  1.1461
 4288SOL    HW224327   4.460   2.708  15.911  0.5281  0.0946  1.6596
 4289SOL     OW24328   3.634   1.001   7.654  0.5297 -0.1238  0.2883
 4289SOL    HW124329   3.580   0.928   7.684  0.0450  0.3452  0.5414
 4289SOL    HW224330   3.601   1.063   7.718  2.1675  0.3458  0.6849
 4290SOL     OW24331   0.112   0.142   9.240 -0.7147 -0.6881  0.3389
 4290SOL    HW124332   0.178   0.181   9.182 -1.1991  1.2938  1.1038
 4290SOL    HW224333   0.067   0.075   9.190  0.8038 -1.2167 -0.3075
 4291SOL     OW24334   0.637   4.105   0.415 -0.2562 -0.0610  0.5578
 4291SOL    HW124335   0.717   4.091   0.465  0.5634 -1.8099 -1.2658
 4291SOL    HW224336   0.686   4.143   0.341 -0.4130  0.5136  0.7464
 4292SOL     OW24337   3.571   3.444  11.260 -0.1665 -0.2349 -0.0915
 4292SOL    HW124338   3.492   3.452  11.206  0.8163 -0.4818 -1.5494
 4292SOL    HW224339   3.572   3.348  11.263  0.9064 -0.2280 -0.6112
 4293SOL     OW24340   4.009   3.969   5.504 -0.4159  0.3905 -0.4173
 4293SOL    HW124341   4.053   3.889   5.477  3.7053  1.1485  3.9132
 4293SOL    HW224342   3.922   3.929   5.510  0.2325 -0.7743  1.4344
 4294SOL     OW24343   1.902   4.682   3.506 -0.1771 -0.0192  0.4306
 4294SOL    HW124344   1.875   0.045   3.534 -1.9531 -0.1337 -0.8958
 4294SOL    HW224345   1.827   4.667   3.448  1.0995 -0.5153 -1.0881
 4295SOL     OW24346   1.317   2.476   5.109  0.1304 -0.0977  0.4048
 4295SOL    HW124347   1.383   2.444   5.170  0.1631 -1.1069 -0.1571
 4295SOL    HW224348   1.367   2.550   5.073  1.0227 -1.0201 -0.2725
 4296SOL     OW24349   1.156   3.218   8.192  0.1985 -0.1555  0.2870
 4296SOL    HW124350   1.155   3.272   8.271 -1.2061 -0.8445  0.7282
 4296SOL    HW224351   1.247   3.231   8.162 -0.2481 -0.9952 -1.4619
 4297SOL     OW24352   3.237   1.573   4.402 -0.2308 -0.5395 -0.0166
 4297SOL    HW124353   3.285   1.531   4.331  1.1388 -3.2058  2.4855
 4297SOL    HW224354   3.147   1.540   4.401  0.2836 -1.8702 -2.1191
 4298SOL     OW24355   2.812   4.198  11.472 -0.4108  0.3620 -0.1018
 4298SOL    HW124356   2.881   4.211  11.407 -1.2921 -1.3306 -1.3751
 4298SOL    HW224357   2.861   4.161  11.545 -1.2579 -2.2882 -0.8543
 4299SOL     OW24358   0.479   1.182   2.223 -0.3574  0.0434  0.1291
 4299SOL    HW124359   0.512   1.255   2.170  1.5319  0.2468  1.5639
 4299SOL    HW224360   0.520   1.211   2.305 -0.8125  0.2463  0.2803
 4300SOL     OW24361   2.541   0.251  14.715  0.4962  0.1321  0.2196
 4300SOL    HW124362   2.523   0.327  14.660  1.3422 -0.3144 -0.6913
 4300SOL    HW224363   2.616   0.227  14.660  2.3503 -0.0361  2.8341
 4301SOL     OW24364   1.249   4.493  15.266  0.0943  0.7370 -0.4808
 4301SOL    HW124365   1.233   4.453  15.352  0.4297  1.7473  0.0531
 4301SOL    HW224366   1.191   4.439  15.212 -0.4415  0.6582  0.1643
 4302SOL     OW24367   1.081   2.597   3.425 -0.1883 -0.0567 -0.0082
 4302SOL    HW124368   1.145   2.533   3.455  0.2032  0.0333 -0.6423
 4302SOL    HW224369   1.143   2.664   3.396  0.4175 -1.1141 -1.1660
 4303SOL     OW24370   4.307   4.520  12.783  0.1028  0.1252 -0.3550
 4303SOL    HW124371   4.217   4.491  12.798 -0.2524  0.0656 -2.6179
 4303SOL    HW224372   4.299   4.575  12.705 -3.8459 -0.7407 -0.5702
 4304SOL     OW24373   0.885   3.811   0.325  0.1441  0.4566  0.3390
 4304SOL    HW124374   0.975   3.779   0.312  0.4519  1.4438  0.0651
 4304SOL    HW224375   0.857   3.835   0.237  1.9915 -2.4222 -1.0140
 4305SOL     OW24376   3.257   1.344   5.611  0.3032 -0.3134 -0.4237
 4305SOL    HW124377   3.217   1.341   5.525  0.3596  3.5346 -0.5922
 4305SOL    HW224378   3.179   1.335   5.666  0.1462  0.0152 -0.5882
 4306SOL     OW24379   3.380   4.694   2.208 -0.3707 -0.6077  0.2511
 4306SOL    HW124380   3.302   0.017   2.235 -1.2433 -1.2930 -1.1111
 4306SOL    HW224381   3.351   4.668   2.121 -0.7548 -1.5973  0.6728
 4307SOL     OW24382   2.612   0.692  11.708 -0.6005 -0.2542 -0.0912
 4307SOL    HW124383   2.564   0.683  11.790 -2.0152 -1.5448 -1.0536
 4307SOL    HW224384   2.563   0.630  11.654 -1.6466  0.1617  0.3808
 4308SOL     OW24385   0.227   2.227   5.168  0.3215 -0.5692  0.5900
 4308SOL    HW124386   0.308   2.182   5.194  1.7961  1.6784 -0.1010
 4308SOL    HW224387   0.259   2.311   5.135 -1.6688 -0.2794 -0.5607
 4309SOL     OW24388   2.327   0.645   9.073  0.2124  0.1101 -0.3198
 4309SOL    HW124389   2.262   0.690   9.126  1.7559  0.9276  0.8570
 4309SOL    HW224390   2.266   0.584   9.031  0.0190 -0.1956  0.4140
 4310SOL     OW24391   1.663   2.163  15.748  0.0692  0.7606 -0.2471
 4310SOL    HW124392   1.685   2.094  15.685  1.6681 -0.4008  1.6041
 4310SOL    HW224393   1.571   2.179  15.728 -0.4736 -1.4496  0.5233
 4311SOL     OW24394   4.722   3.413   2.451 -0.2327  0.2875 -0.1509
 4311SOL    HW124395   0.002   3.364   2.533  0.3224  0.4388 -0.0872
 4311SOL    HW224396   0.087   3.403   2.418  1.2384  0.7066  3.7788
 4312SOL     OW24397   2.495   4.331  13.512  0.7021 -0.4111  0.2485
 4312SOL    HW124398   2.525   4.260  13.455 -2.0883 -0.3746 -1.2541
 4312SOL    HW224399   2.430   4.286  13.565 -2.3114  2.5365 -0.9495
 4313SOL     OW24400   0.482   3.820  13.048 -0.0743  0.1687 -0.0569
 4313SOL    HW124401   0.552   3.814  13.113  0.0871 -3.1521 -0.5784
 4313SOL    HW224402   0.512   3.761  12.980  1.5878  1.1197 -0.1490
 4314SOL     OW24403   1.547   1.970   6.606 -0.2445 -0.2074 -0.1578
 4314SOL    HW124404   1.525   2.026   6.532 -0.6670  0.2482  0.3025
 4314SOL    HW224405   1.550   2.033   6.678  0.4640  0.5021 -0.8088
 4315SOL     OW24406   1.411   0.939  11.626 -0.8422 -0.2226  0.8387
 4315SOL    HW124407   1.359   0.870  11.583 -1.3908  0.3638  0.5699
 4315SOL    HW224408   1.351   0.954  11.699 -0.4543 -0.9778  1.3175
 4316SOL     OW24409   3.174   2.055  14.926 -0.0139 -0.9986 -0.3515
 4316SOL    HW124410   3.100   2.088  14.977  0.4462 -0.0614 -0.2826
 4316SOL    HW224411   3.206   1.977  14.972 -0.3835 -1.6347 -1.1657
 4317SOL     OW24412   2.801   1.533   2.457 -0.4939  0.2855 -0.4258
 4317SOL    HW124413   2.752   1.561   2.534 -1.5913 -0.0831 -0.9849
 4317SOL    HW224414   2.730   1.534   2.392  0.6953  1.4574 -1.7099
 4318SOL     OW24415   3.739   3.091  12.946 -0.0339 -0.0302 -0.1899
 4318SOL    HW124416   3.715   3.035  13.019  1.3473  0.4467  0.6342
 4318SOL    HW224417   3.835   3.089  12.949 -0.0762 -0.6880  0.7677
 4319SOL     OW24418   0.978   0.264   3.654 -0.6897  0.2133 -0.2616
 4319SOL    HW124419   0.923   0.232   3.584 -0.3196  1.5907 -1.1867
 4319SOL    HW224420   1.035   0.323   3.605  0.0517  1.9423  2.6882
 4320SOL     OW24421   1.647   1.857   8.794 -0.4501 -0.4718  0.1686
 4320SOL    HW124422   1.704   1.793   8.836 -3.0061 -1.6998  1.7655
 4320SOL    HW224423   1.616   1.911   8.867 -1.3633 -1.0832  0.2332
 4321SOL     OW24424   0.396   4.454   8.546  0.1888 -0.3817  0.1347
 4321SOL    HW124425   0.428   4.363   8.544 -2.4552 -1.3270  0.1639
 4321SOL    HW224426   0.432   4.490   8.626  0.1757  1.2589 -0.5953
 4322SOL     OW24427   4.395   1.532  10.155  0.5967 -0.1651 -0.2963
 4322SOL    HW124428   4.399   1.621  10.120 -2.5080  1.5645  3.7302
 4322SOL    HW224429   4.416   1.483  10.075  1.3184 -0.3087 -0.0126
 4323SOL     OW24430   2.700   3.605   9.168 -0.0127  0.0107  0.6432
 4323SOL    HW124431   2.625   3.546   9.180  0.1319 -0.8754 -2.7390
 4323SOL    HW224432   2.687   3.620   9.074 -0.9204  0.3408  0.8196
 4324SOL     OW24433   3.462   3.554   4.040 -0.4280 -0.9603 -0.3631
 4324SOL    HW124434   3.534   3.575   4.100  0.7796 -1.9096 -1.4822
 4324SOL    HW224435   3.493   3.589   3.957  2.6253 -0.9426  0.7777
 4325SOL     OW24436   0.928   3.585  13.260  0.0449  0.0932  0.4329
 4325SOL    HW124437   0.970   3.561  13.342  0.1936 -0.9778  0.0360
 4325SOL    HW224438   0.934   3.503  13.212 -0.9229  0.7759 -0.8612
 4326SOL     OW24439   4.452   2.869   4.739 -0.1120 -0.3664  0.2148
 4326SOL    HW124440   4.523   2.915   4.782 -1.0714 -1.9110  3.4059
 4326SOL    HW224441   4.381   2.865   4.803 -0.3921  0.5372 -0.0345
 4327SOL     OW24442   3.095   4.489   3.763  0.6403  0.6337 -0.0698
 4327SOL    HW124443   3.023   4.496   3.825 -0.0414  1.6402 -0.9886
 4327SOL    HW224444   3.108   4.578   3.729  2.3108 -0.0769 -1.3143
 4328SOL     OW24445   1.389   2.213   8.488  0.3504  0.0431 -0.0565
 4328SOL    HW124446   1.387   2.299   8.529 -1.4836  0.8074 -1.7175
 4328SOL    HW224447   1.483   2.204   8.500  0.0311  1.2308  3.3088
 4329SOL     OW24448   1.451   3.316   4.527 -0.0968  0.1965  0.0359
 4329SOL    HW124449   1.445   3.411   4.526 -1.2639  0.1338  0.2887
 4329SOL    HW224450   1.489   3.308   4.439 -0.1675 -0.8803  0.1027
 4330SOL     OW24451   4.164   2.410  13.504 -0.3269 -0.1217  0.2216
 4330SOL    HW124452   4.217   2.417  13.584 -1.8259 -4.0020  1.5520
 4330SOL    HW224453   4.200   2.490  13.465  2.3940 -1.1948  0.4988
 4331SOL     OW24454   2.650   0.765  16.969 -0.0545 -0.0264  0.5396
 4331SOL    HW124455   2.680   0.767  16.878 -1.7723  0.6184 -0.0218
 4331SOL    HW224456   2.655   0.674  16.997 -0.4261 -0.0780  0.4475
 4332SOL     OW24457   0.778   1.861   2.812 -0.2119  0.0134  0.3985
 4332SOL    HW124458   0.864   1.819   2.804 -0.5087 -0.6061  0.4529
 4332SOL    HW224459   0.724   1.817   2.746  0.3118 -1.4011  0.9330
 4333SOL     OW24460   2.184   2.454  16.532 -0.3449 -0.0933  0.2533
 4333SOL    HW124461   2.150   2.372  16.568 -0.5198 -0.7370 -1.3871
 4333SOL    HW224462   2.272   2.421  16.516  0.0030 -0.0870  2.2387
 4334SOL     OW24463   3.960   0.041  11.146  0.1421 -0.6803 -0.4091
 4334SOL    HW124464   3.892   0.106  11.160  0.5788  0.0006 -1.4084
 4334SOL    HW224465   4.029   0.090  11.191  0.9123 -3.1348  1.0927
 4335SOL     OW24466   3.900   1.268   9.009  0.8443  0.1228 -0.5089
 4335SOL    HW124467   3.819   1.219   8.998 -0.0851  0.7400  3.4180
 4335SOL    HW224468   3.963   1.228   8.948  0.6156 -2.7081  1.0958
 4336SOL     OW24469   2.393   2.201   7.326  0.0340 -0.5942 -0.0937
 4336SOL    HW124470   2.371   2.260   7.254  0.1770  1.8775  1.9065
 4336SOL    HW224471   2.488   2.198   7.313  0.0472 -0.2102 -0.0662
 4337SOL     OW24472   4.338   3.285   4.152 -0.0231  0.6859 -0.1669
 4337SOL    HW124473   4.408   3.221   4.166 -0.7828 -0.0133  0.4176
 4337SOL    HW224474   4.373   3.374   4.155  0.2198  0.7396 -4.3397
 4338SOL     OW24475   4.689   4.651   4.686 -0.4609 -0.3708  0.0906
 4338SOL    HW124476   4.611   4.617   4.642 -0.7481  0.8829 -0.3482
 4338SOL    HW224477   4.648   0.001   4.727 -1.7535 -0.9215 -0.2070
 4339SOL     OW24478   1.959   3.401   1.900 -0.6977  0.1256 -0.0689
 4339SOL    HW124479   1.920   3.430   1.983 -1.3102  2.9189 -1.3265
 4339SOL    HW224480   1.891   3.433   1.840  0.1341  2.4559  0.2532
 4340SOL     OW24481   0.755   3.240   4.991 -0.5196  0.8940 -0.1612
 4340SOL    HW124482   0.707   3.300   5.048 -2.2316 -0.2479 -0.4073
 4340SOL    HW224483   0.743   3.283   4.906 -4.4623  2.1055  1.0185
 4341SOL     OW24484   1.437   3.234   3.615  0.2296  0.5679 -0.2040
 4341SOL    HW124485   1.405   3.323   3.605 -0.6665  0.6481  3.2347
 4341SOL    HW224486   1.398   3.215   3.700  2.7156 -1.9061  0.4050
 4342SOL     OW24487   3.757   0.594   5.555 -0.7267 -0.3682  0.1514
 4342SOL    HW124488   3.747   0.569   5.464 -2.8212  1.0849 -0.0071
 4342SOL    HW224489   3.841   0.552   5.574 -0.0623  0.2263 -1.5214
 4343SOL     OW24490   2.819   0.010  15.866 -0.4033 -0.1814  0.8017
 4343SOL    HW124491   2.823   0.105  15.855 -2.1618  0.1038  2.5033
 4343SOL    HW224492   2.805   4.705  15.776 -1.4862  0.6752  0.6794
 4344SOL     OW24493   3.744   0.301   5.752 -0.0856 -0.3473 -0.0064
 4344SOL    HW124494   3.761   0.277   5.661 -1.0806 -0.0707 -0.2695
 4344SOL    HW224495   3.762   0.395   5.743  1.9110 -0.6434  0.9320
 4345SOL     OW24496   3.559   2.996   4.199  0.5664  0.0099  0.5806
 4345SOL    HW124497   3.589   3.066   4.258 -0.5865  0.9788  0.0066
 4345SOL    HW224498   3.526   2.928   4.258  0.9157 -0.8468 -0.2218
 4346SOL     OW24499   2.417   3.699   2.428  0.0130 -0.2840  0.2793
 4346SOL    HW124500   2.498   3.657   2.399 -0.0869 -0.5415  0.3701
 4346SOL    HW224501   2.431   3.700   2.522  0.7632 -0.1629  0.1614
 4347SOL     OW24502   1.134   0.140   5.979  0.1059  0.6247  0.2544
 4347SOL    HW124503   1.116   0.212   6.039 -1.0754 -0.1124  0.7798
 4347SOL    HW224504   1.193   0.084   6.030 -0.7695 -0.0053  0.5868
 4348SOL     OW24505   2.305   2.507   7.577  0.3455 -0.4906  0.1673
 4348SOL    HW124506   2.211   2.528   7.576  0.1890 -1.1722  0.7487
 4348SOL    HW224507   2.304   2.412   7.574  0.1470 -0.4631 -0.6635
 4349SOL     OW24508   1.231   2.772   8.228 -0.5808  0.2637 -0.3605
 4349SOL    HW124509   1.272   2.807   8.308 -0.1631 -1.6725  0.2655
 4349SOL    HW224510   1.230   2.678   8.244  2.8978  0.1406 -1.0366
 4350SOL     OW24511   1.755   2.511   3.808 -0.4221  0.5333  0.2680
 4350SOL    HW124512   1.751   2.519   3.904  0.3745  0.4840  0.3028
 4350SOL    HW224513   1.744   2.416   3.810 -0.6777  0.5902  1.6175
 4351SOL     OW24514   2.748   1.517   3.322  0.2393  0.4178  0.0922
 4351SOL    HW124515   2.682   1.450   3.339  0.2300  0.5957  0.7674
 4351SOL    HW224516   2.810   1.457   3.281 -0.6549 -0.6165  0.2185
 4352SOL     OW24517   0.794   2.252   8.084 -0.4541 -0.2761  0.0365
 4352SOL    HW124518   0.774   2.272   7.993 -0.0224 -1.9273 -0.4241
 4352SOL    HW224519   0.842   2.328   8.116  1.0458 -1.5782  0.8808
 4353SOL     OW24520   1.266   3.396   1.603 -0.6442 -0.1777 -0.0561
 4353SOL    HW124521   1.242   3.436   1.687  0.8002 -0.0233  0.2809
 4353SOL    HW224522   1.212   3.317   1.606 -0.9718  0.0758  0.8250
 4354SOL     OW24523   0.995   2.128   5.635  0.4743  0.3386  0.5846
 4354SOL    HW124524   1.054   2.192   5.595 -0.7915  1.7450  0.9839
 4354SOL    HW224525   0.983   2.058   5.572  0.2615  1.7852 -0.9836
 4355SOL     OW24526   2.762   4.344  16.027 -0.5182 -0.2577 -0.2105
 4355SOL    HW124527   2.841   4.394  16.047 -0.8092 -0.3597  1.2328
 4355SOL    HW224528   2.686   4.400  16.045  0.0235  0.0399  1.1613
 4356SOL     OW24529   4.118   1.530   7.433  0.1901 -0.2874  0.1303
 4356SOL    HW124530   4.086   1.555   7.347 -1.5663  0.9660  1.1392
 4356SOL    HW224531   4.085   1.601   7.489 -0.1358  0.2791 -0.7923
 4357SOL     OW24532   3.621   0.217   4.109 -0.2281 -0.4674  0.0325
 4357SOL    HW124533   3.559   0.148   4.134  0.0224 -1.8544 -3.2079
 4357SOL    HW224534   3.624   0.224   4.013  2.2272 -0.7181  0.0751
 4358SOL     OW24535   2.400   0.550  14.721 -0.2357  0.8528 -0.3549
 4358SOL    HW124536   2.356   0.473  14.757  0.8676  0.6982  0.6724
 4358SOL    HW224537   2.492   0.526  14.724 -0.9373 -1.4043  2.7743
 4359SOL     OW24538   2.162   4.714   6.197 -0.1088  0.2292  0.4014
 4359SOL    HW124539   2.082   4.697   6.246  0.1861  0.3309  0.9174
 4359SOL    HW224540   2.178   0.082   6.213 -0.4685 -0.0257  2.2673
 4360SOL     OW24541   0.704   2.930   3.568  0.5956  0.0068  0.2893
 4360SOL    HW124542   0.627   2.897   3.614  1.5159 -1.0639  1.0430
 4360SOL    HW224543   0.762   2.856   3.586 -0.1544 -0.6132  0.1631
 4361SOL     OW24544   3.546   3.615   6.005  0.0253  0.4335  0.5306
 4361SOL    HW124545   3.474   3.553   5.996  3.6778 -3.4525 -2.0969
 4361SOL    HW224546   3.549   3.618   6.100 -0.5707  1.6543  0.5080
 4362SOL     OW24547   1.197   1.394   5.653  0.1454 -0.3869 -0.2171
 4362SOL    HW124548   1.245   1.344   5.719  2.0863  1.6195 -0.0989
 4362SOL    HW224549   1.154   1.466   5.699  1.7056  1.6757 -2.0173
 4363SOL     OW24550   3.304   0.191  12.915 -0.1642  0.0064 -0.4232
 4363SOL    HW124551   3.310   0.172  12.821  1.2246 -0.5377 -0.2293
 4363SOL    HW224552   3.209   0.189  12.929 -0.2566  0.5325 -1.0060
 4364SOL     OW24553   2.992   3.904  12.088  0.0183 -0.8333 -0.3620
 4364SOL    HW124554   2.936   3.828  12.103 -0.6276 -0.4038 -0.5785
 4364SOL    HW224555   3.031   3.882  12.004 -2.4375  0.5152 -1.8568
 4365SOL     OW24556   3.029   2.338   4.134  0.7557  0.6627 -0.0738
 4365SOL    HW124557   2.956   2.396   4.155  0.1496  0.7219 -2.3911
 4365SOL    HW224558   3.025   2.340   4.039  0.9451  0.5986 -0.0836
 4366SOL     OW24559   2.468   0.059   7.633 -0.1654  0.3630  0.3699
 4366SOL    HW124560   2.456   0.051   7.538  1.6504 -1.5831  0.3100
 4366SOL    HW224561   2.432   4.697   7.650 -0.9926  0.6300  0.0171
 4367SOL     OW24562   1.936   1.204   7.904  0.6410  0.1423  0.1992
 4367SOL    HW124563   1.890   1.167   7.828  1.2868 -1.6401  0.6881
 4367SOL    HW224564   1.920   1.298   7.893  0.0335  0.2113  1.6946
 4368SOL     OW24565   2.065   4.267   7.296  0.6446 -0.5449 -0.0880
 4368SOL    HW124566   2.048   4.359   7.316  1.5492  0.0421 -1.9733
 4368SOL    HW224567   2.030   4.255   7.207  0.7156 -1.6358  0.0306
 4369SOL     OW24568   0.983   0.611   4.145 -0.6013 -0.0980  0.6396
 4369SOL    HW124569   1.021   0.565   4.220  0.2967 -1.2636 -0.5251
 4369SOL    HW224570   1.060   0.661   4.116 -0.6511 -0.1587  0.4096
 4370SOL     OW24571   0.262   0.987   2.161 -0.4039  0.3946 -0.9122
 4370SOL    HW124572   0.265   0.955   2.071  2.0027 -0.7493 -0.4407
 4370SOL    HW224573   0.321   1.062   2.157  0.0723  0.1404  1.4031
 4371SOL     OW24574   3.244   3.897   0.041  0.5093  0.1588 -0.1558
 4371SOL    HW124575   3.200   3.952   0.105 -0.5364  1.5324 -2.0432
 4371SOL    HW224576   3.175   3.832   0.025  0.3728 -0.9776  5.2594
 4372SOL     OW24577   2.338   0.996   9.358  0.3339  0.0942 -0.0186
 4372SOL    HW124578   2.398   1.070   9.349 -0.7155  1.0382  0.6830
 4372SOL    HW224579   2.273   1.047   9.309 -2.0386 -0.4791  2.4768
 4373SOL     OW24580   2.511   1.928   5.085 -0.1947 -0.1356  0.4335
 4373SOL    HW124581   2.560   1.869   5.143  0.8502 -1.0738 -1.3930
 4373SOL    HW224582   2.470   1.864   5.026 -1.4925 -0.8521  2.1376
 4374SOL     OW24583   2.449   2.587   0.709 -0.1854 -0.0459 -0.2612
 4374SOL    HW124584   2.395   2.652   0.754  2.5780  0.5927  2.1530
 4374SOL    HW224585   2.535   2.599   0.750 -0.3568 -1.8097  0.6122
 4375SOL     OW24586   2.742   3.423   5.503 -0.0097  0.1068 -0.0593
 4375SOL    HW124587   2.679   3.439   5.432  1.7716  1.6939 -1.2886
 4375SOL    HW224588   2.722   3.330   5.516 -5.1367  1.2312  0.0275
 4376SOL     OW24589   1.981   3.503  14.338 -0.0779 -0.0658 -0.4343
 4376SOL    HW124590   2.000   3.578  14.394  4.0774 -1.6533  0.2735
 4376SOL    HW224591   1.955   3.444  14.410  0.7429  1.4097  1.0697
 4377SOL     OW24592   3.100   3.729   3.901 -0.0650 -0.0059 -0.2061
 4377SOL    HW124593   3.010   3.736   3.933  0.2630  1.0168  0.4898
 4377SOL    HW224594   3.142   3.669   3.963  0.5859 -2.6104 -3.1425
 4378SOL     OW24595   0.315   2.342  17.159 -0.1675  0.3816 -0.7604
 4378SOL    HW124596   0.317   2.272  17.093  1.3481 -0.3528  0.0685
 4378SOL    HW224597   0.230   2.382  17.140 -0.2691  0.4820 -0.0850
 4379SOL     OW24598   2.157   3.303   5.599  0.4731  0.1417  0.0889
 4379SOL    HW124599   2.154   3.276   5.507  2.4946 -1.3443  0.4528
 4379SOL    HW224600   2.146   3.219   5.644  2.7487 -0.1027  0.1997
 4380SOL     OW24601   3.613   2.865   1.021  0.3126  0.2970 -0.0252
 4380SOL    HW124602   3.701   2.828   1.023 -0.2060 -0.9562 -0.7488
 4380SOL    HW224603   3.617   2.925   1.095  2.6107 -2.4838  2.1046
 4381SOL     OW24604   3.977   1.027   5.203  0.2793 -0.0518  0.0982
 4381SOL    HW124605   3.887   0.995   5.210 -0.1337  0.4860 -2.7822
 4381SOL    HW224606   3.964   1.092   5.135  1.8391  0.1921  0.0223
 4382SOL     OW24607   1.992   2.483  12.864 -0.3005  0.0221  0.2320
 4382SOL    HW124608   1.911   2.436  12.882 -0.5300  0.2315 -0.2572
 4382SOL    HW224609   2.006   2.534  12.944  0.5055 -3.2966  2.2035
 4383SOL     OW24610   0.867   0.066  16.017  0.1994 -0.3113  0.0105
 4383SOL    HW124611   0.823   0.124  15.956  1.0511 -0.2861 -0.5774
 4383SOL    HW224612   0.958   0.089  15.995 -0.4415  2.8866  0.6780
 4384SOL     OW24613   2.944   2.009   7.060  0.3203 -0.1042 -0.3834
 4384SOL    HW124614   3.011   1.964   7.008  0.0399 -0.5906 -0.3189
 4384SOL    HW224615   2.989   2.072   7.117  1.5553  0.3314 -1.8476
 4385SOL     OW24616   0.294   4.644   6.222 -0.0819 -0.1862  0.2469
 4385SOL    HW124617   0.367   4.686   6.176 -1.5323  1.3809 -0.6396
 4385SOL    HW224618   0.341   4.631   6.304  0.5989 -0.6474 -0.2245
 4386SOL     OW24619   2.870   1.905   7.513 -0.1821  0.4712  0.2453
 4386SOL    HW124620   2.906   1.991   7.534  1.7713 -0.3540  0.2501
 4386SOL    HW224621   2.938   1.861   7.461  0.6962  1.1495  0.8193
 4387SOL     OW24622   1.044   1.931   7.644  0.2225 -0.4876 -0.1421
 4387SOL    HW124623   1.050   1.928   7.549 -1.8017 -0.4000 -0.2737
 4387SOL    HW224624   1.112   1.996   7.661 -0.4157  0.2127 -0.2632
 4388SOL     OW24625   0.704   3.844  16.327  0.1989  0.5414  0.0419
 4388SOL    HW124626   0.765   3.779  16.291  1.4138  1.7324 -0.0537
 4388SOL    HW224627   0.702   3.809  16.416  1.7232 -0.5531 -0.3424
 4389SOL     OW24628   1.934   1.468   8.100 -0.2900 -0.1598  0.0335
 4389SOL    HW124629   1.855   1.464   8.153 -0.2129 -0.6330  0.1156
 4389SOL    HW224630   1.894   1.519   8.030  0.9062 -0.4677 -0.8640
 4390SOL     OW24631   3.043   4.169   6.570  0.4881  0.1900  0.4581
 4390SOL    HW124632   3.061   4.075   6.572 -0.7729 -0.0625 -0.3974
 4390SOL    HW224633   3.106   4.206   6.509  0.1723 -0.3908 -0.2251
 4391SOL     OW24634   1.311   0.413   8.625 -0.2296 -0.7075 -0.1644
 4391SOL    HW124635   1.354   0.487   8.583 -0.0900 -0.4316  0.4592
 4391SOL    HW224636   1.265   0.460   8.695  0.0498 -0.4171 -0.1753
 4392SOL     OW24637   2.526   0.676   2.686 -0.3236  0.4798 -0.1710
 4392SOL    HW124638   2.612   0.716   2.687 -0.0306 -0.1227 -1.2526
 4392SOL    HW224639   2.487   0.719   2.762  0.0919  1.2857 -0.4204
 4393SOL     OW24640   1.674   2.881   6.298 -0.0958  0.0430 -0.2913
 4393SOL    HW124641   1.742   2.924   6.351  0.0840 -1.5396  0.7904
 4393SOL    HW224642   1.604   2.888   6.363  0.5454  0.8390  0.3197
 4394SOL     OW24643   3.410   0.078   6.541 -0.1124 -0.3117 -0.2616
 4394SOL    HW124644   3.374   0.018   6.606 -0.3467 -0.3179 -0.4008
 4394SOL    HW224645   3.442   0.014   6.477 -0.4027 -1.6858  0.9659
 4395SOL     OW24646   2.998   3.087   7.041  0.1979  0.2008 -0.2251
 4395SOL    HW124647   2.903   3.099   7.044  0.4676  1.3265  3.0765
 4395SOL    HW224648   3.008   3.024   6.970  0.4061 -0.6811  0.5869
 4396SOL     OW24649   2.689   1.303  12.309 -0.1416  0.5433 -0.1244
 4396SOL    HW124650   2.771   1.305  12.359  0.2766 -2.1128 -0.6794
 4396SOL    HW224651   2.621   1.332  12.370 -1.0811 -1.4603 -0.1943
 4397SOL     OW24652   0.454   2.693   4.364  0.3823 -0.3410  0.2656
 4397SOL    HW124653   0.450   2.788   4.375  0.0076 -0.2884 -0.3011
 4397SOL    HW224654   0.366   2.669   4.392 -0.6776  2.4381 -0.6252
 4398SOL     OW24655   3.520   1.466   5.346  0.0164 -0.4586 -0.5676
 4398SOL    HW124656   3.458   1.539   5.346  0.3817 -0.1463  0.2802
 4398SOL    HW224657   3.508   1.431   5.258 -1.3192  1.7478 -1.2697
 4399SOL     OW24658   4.345   2.650  13.911 -0.3597 -0.0328 -0.3742
 4399SOL    HW124659   4.331   2.731  13.961 -2.3506 -0.4349 -0.3041
 4399SOL    HW224660   4.422   2.609  13.950  0.9340  1.5447 -1.2615
 4400SOL     OW24661   3.451   2.944  10.949 -0.2121 -0.0025  0.0976
 4400SOL    HW124662   3.485   3.033  10.957  0.4470 -0.4325  2.0009
 4400SOL    HW224663   3.370   2.967  10.903  0.5306 -0.7295 -1.5942
 4401SOL     OW24664   0.457   3.288   8.438 -0.5000 -0.2841 -0.7181
 4401SOL    HW124665   0.369   3.323   8.429 -0.8864 -0.8803  0.7020
 4401SOL    HW224666   0.497   3.349   8.500  0.0859 -1.0436 -0.3302
 4402SOL     OW24667   4.107   2.772   5.341 -0.1643  0.7135  0.1196
 4402SOL    HW124668   4.161   2.743   5.416 -3.0889 -0.8499  1.6065
 4402SOL    HW224669   4.025   2.796   5.383 -0.4899 -0.9608  0.4477
 4403SOL     OW24670   2.269   0.210   5.433  1.1208  0.2611 -0.7587
 4403SOL    HW124671   2.306   0.255   5.357  2.5873  0.6368  0.1713
 4403SOL    HW224672   2.177   0.237   5.430  1.6017  1.9813 -0.4032
 4404SOL     OW24673   2.600   3.792   4.152  0.1709 -0.0338  0.4576
 4404SOL    HW124674   2.656   3.750   4.218  0.4851 -0.1267  0.1342
 4404SOL    HW224675   2.614   3.885   4.174 -3.4192  0.2734  1.4216
 4405SOL     OW24676   0.387   1.567   4.320 -0.0124 -0.2077  0.2644
 4405SOL    HW124677   0.359   1.643   4.371 -1.3858 -1.4447  1.3419
 4405SOL    HW224678   0.341   1.587   4.239  0.5201  1.3748  0.3543
 4406SOL     OW24679   4.044   1.113   8.032  0.2620 -0.1954  0.2316
 4406SOL    HW124680   3.979   1.101   7.963  0.9433 -0.7986 -0.3040
 4406SOL    HW224681   3.989   1.132   8.107  1.6623  3.3613  0.3764
 4407SOL     OW24682   4.246   1.680   2.636 -0.1528  0.4147 -0.2188
 4407SOL    HW124683   4.301   1.753   2.665  0.8765 -0.9829  1.3414
 4407SOL    HW224684   4.295   1.657   2.556  0.9692 -0.2978  0.6721
 4408SOL     OW24685   3.711   2.079   3.260  0.2051  0.4331 -0.6646
 4408SOL    HW124686   3.783   2.071   3.197 -0.0423  0.9448 -1.0082
 4408SOL    HW224687   3.641   2.112   3.204  0.3492 -0.0948 -1.1581
 4409SOL     OW24688   4.028   3.920   6.694 -0.3996 -0.2771 -0.0058
 4409SOL    HW124689   4.036   3.980   6.769 -1.8145 -0.0794 -0.0085
 4409SOL    HW224690   4.104   3.923   6.636 -0.6725 -0.0310 -0.3515
 4410SOL     OW24691   2.868   0.320   2.549 -0.8334  0.3142 -0.2571
 4410SOL    HW124692   2.849   0.391   2.610  0.5358  0.3399  0.1376
 4410SOL    HW224693   2.895   0.373   2.474  0.5132  0.2253  0.1766
 4411SOL     OW24694   4.631   1.249  12.250 -0.0186  0.8249  0.1990
 4411SOL    HW124695   4.698   1.316  12.241  1.6303 -0.6833  1.3254
 4411SOL    HW224696   4.617   1.234  12.157 -1.0588  0.5322  0.3946
 4412SOL     OW24697   2.474   1.836   2.795 -0.2804 -0.4906  0.2817
 4412SOL    HW124698   2.527   1.908   2.760 -3.4117  0.2223 -3.0959
 4412SOL    HW224699   2.446   1.883   2.873  0.2001  2.0754 -1.0607
 4413SOL     OW24700   2.961   3.995   2.586  0.6025 -0.0823  0.5520
 4413SOL    HW124701   2.871   4.026   2.578  0.5723 -0.2206  0.3579
 4413SOL    HW224702   3.009   4.073   2.614 -1.0020  1.1999 -0.2493
 4414SOL     OW24703   0.918   3.718  16.497 -0.0451 -0.1599  0.1363
 4414SOL    HW124704   0.869   3.657  16.551 -0.9876 -0.3183 -0.9024
 4414SOL    HW224705   0.981   3.759  16.557 -0.3441  0.9877 -0.3186
 4415SOL     OW24706   3.804   3.756  12.479  0.4636 -0.2852  0.0127
 4415SOL    HW124707   3.894   3.774  12.507  0.4627  0.2722 -0.3428
 4415SOL    HW224708   3.807   3.783  12.388 -0.3698 -0.9308 -0.2047
 4416SOL     OW24709   1.155   1.862   7.101 -1.0045  0.4125  0.4759
 4416SOL    HW124710   1.229   1.802   7.109 -1.7354 -0.7359 -1.3396
 4416SOL    HW224711   1.205   1.944   7.101  1.8205 -1.2953  1.3777
 4417SOL     OW24712   2.796   4.496  16.897 -0.2883  0.3858 -0.1352
 4417SOL    HW124713   2.789   4.588  16.923 -0.9086 -0.3923  2.4185
 4417SOL    HW224714   2.852   4.502  16.820 -1.5098 -1.3195 -1.1791
 4418SOL     OW24715   2.573   1.628   6.221 -0.7185 -0.3124 -0.0008
 4418SOL    HW124716   2.609   1.647   6.308 -1.4422  0.5855  0.1077
 4418SOL    HW224717   2.613   1.697   6.169 -1.8162 -0.1560 -0.6520
 4419SOL     OW24718   3.652   2.808   0.504 -0.3473 -0.3699 -0.2785
 4419SOL    HW124719   3.711   2.747   0.548 -0.5212  1.9291  3.1033
 4419SOL    HW224720   3.623   2.741   0.441  0.0416 -1.3288  0.5590
 4420SOL     OW24721   2.385   3.505   1.628 -0.2803 -0.4135  0.0043
 4420SOL    HW124722   2.432   3.534   1.706 -2.0073  0.2723  0.8063
 4420SOL    HW224723   2.446   3.541   1.563 -0.2900 -0.6378 -0.1293
 4421SOL     OW24724   0.154   2.113   4.171  0.0393 -0.2892 -0.0230
 4421SOL    HW124725   0.071   2.114   4.125 -0.6255  0.1876  1.1755
 4421SOL    HW224726   0.125   2.117   4.262 -1.7141 -0.6316 -0.5695
 4422SOL     OW24727   2.829   3.853   3.749  0.4639 -0.3599  0.5780
 4422SOL    HW124728   2.735   3.840   3.760 -0.1357  5.4269  2.3312
 4422SOL    HW224729   2.844   3.900   3.831 -0.4704 -0.2990  0.7183
 4423SOL     OW24730   1.942   2.004  16.964 -0.0045  0.4492 -0.0594
 4423SOL    HW124731   2.012   2.043  16.913 -1.8959  3.1523 -0.5962
 4423SOL    HW224732   1.881   2.067  16.926  0.9716 -0.1357 -2.5510
 4424SOL     OW24733   2.207   2.068   1.769  0.3410  0.2355  0.1949
 4424SOL    HW124734   2.298   2.093   1.781  0.5475  0.4041 -1.6381
 4424SOL    HW224735   2.216   1.991   1.713 -1.2164  0.1732  0.0156
 4425SOL     OW24736   4.284   0.514   9.511 -0.2138 -0.7345 -0.4547
 4425SOL    HW124737   4.377   0.534   9.500 -0.2554  1.0475  2.3895
 4425SOL    HW224738   4.273   0.491   9.419  2.3383  0.1991 -0.9853
 4426SOL     OW24739   2.611   1.666  14.463 -0.3460  0.0163 -0.4802
 4426SOL    HW124740   2.696   1.662  14.419 -1.5743 -2.2553 -2.6661
 4426SOL    HW224741   2.561   1.725  14.407  0.4092 -0.0850 -1.2522
 4427SOL     OW24742   1.779   4.506   0.634  0.0518  0.6489  0.2672
 4427SOL    HW124743   1.783   4.492   0.540  0.1076 -3.3570  0.8920
 4427SOL    HW224744   1.707   4.446   0.651 -0.1295  0.4124 -1.3300
 4428SOL     OW24745   1.967   2.046  11.859 -0.5262  0.3681 -0.0534
 4428SOL    HW124746   2.024   2.059  11.934  0.5368 -0.7710 -0.6565
 4428SOL    HW224747   1.912   2.120  11.885 -2.6340 -1.7070  1.4366
 4429SOL     OW24748   1.708   2.635   3.341  0.1888  0.4102  0.2788
 4429SOL    HW124749   1.666   2.609   3.423  1.1532  0.1074  0.6786
 4429SOL    HW224750   1.781   2.689   3.371 -0.3284  1.4805 -0.4046
 4430SOL     OW24751   0.253   0.937  12.856 -0.1844  0.0179  0.1030
 4430SOL    HW124752   0.289   1.004  12.914  0.7255  0.2076 -0.6794
 4430SOL    HW224753   0.313   0.863  12.865  1.1041  1.1220  0.6010
 4431SOL     OW24754   2.372   0.030   2.112 -0.3650 -0.2380 -0.0906
 4431SOL    HW124755   2.444   0.087   2.136 -0.7654  0.7163 -1.1604
 4431SOL    HW224756   2.429   4.692   2.067  1.3671  1.3531 -0.0592
 4432SOL     OW24757   3.707   1.902   3.886  0.9414 -0.0828  0.1416
 4432SOL    HW124758   3.643   1.845   3.843  0.0980  0.4252  0.7174
 4432SOL    HW224759   3.655   1.939   3.957  1.8300  2.8217 -0.7335
 4433SOL     OW24760   0.453   0.253   6.063 -0.0988 -0.1290 -0.4998
 4433SOL    HW124761   0.373   0.213   6.028 -0.8515  0.4705  0.5259
 4433SOL    HW224762   0.473   0.322   6.000 -2.3983 -1.2796 -2.4836
 4434SOL     OW24763   1.200   4.124  13.291 -0.6194 -0.0282  0.4732
 4434SOL    HW124764   1.288   4.102  13.320 -0.0933 -0.8608 -1.7777
 4434SOL    HW224765   1.188   4.076  13.209  0.6942 -0.9139  0.7931
 4435SOL     OW24766   0.315   3.413  11.386  0.6869  0.2170  0.1873
 4435SOL    HW124767   0.338   3.357  11.312  0.6642 -0.6732  0.8493
 4435SOL    HW224768   0.321   3.499  11.343  0.8359  1.5580  2.8926
 4436SOL     OW24769   2.411   4.163   2.893 -0.2534 -0.6601  0.2435
 4436SOL    HW124770   2.388   4.162   2.801 -2.0020  2.5944  0.6434
 4436SOL    HW224771   2.355   4.230   2.932  0.7048  0.4520 -0.2691
 4437SOL     OW24772   1.810   3.243   6.032 -0.1442  0.5314  0.2199
 4437SOL    HW124773   1.856   3.325   6.013  0.2038  0.3649  0.3478
 4437SOL    HW224774   1.878   3.177   6.026  0.4752  1.1934 -0.0587
 4438SOL     OW24775   2.523   4.518   4.729  0.4441  0.2856  0.4510
 4438SOL    HW124776   2.445   4.462   4.726  1.8016 -1.6142  0.3283
 4438SOL    HW224777   2.481   4.602   4.710  0.5827  0.6273  1.6672
 4439SOL     OW24778   0.133   3.661  13.474  0.0029  0.1100  0.7184
 4439SOL    HW124779   0.099   3.697  13.557 -1.2321  1.3636 -0.3180
 4439SOL    HW224780   0.057   3.674  13.418  0.1538 -0.5833  0.3653
 4440SOL     OW24781   2.239   1.945   4.465 -0.0466 -0.5409  0.2659
 4440SOL    HW124782   2.164   1.899   4.428 -0.3559 -1.3013  1.8540
 4440SOL    HW224783   2.302   1.873   4.455 -2.6677 -2.4993 -2.0729
 4441SOL     OW24784   1.079   2.848   8.495 -0.1803  0.2315 -0.3973
 4441SOL    HW124785   1.045   2.764   8.466 -0.2368  0.0626  0.1694
 4441SOL    HW224786   1.063   2.901   8.417  2.3647  0.2730 -0.9041
 4442SOL     OW24787   0.478   0.429  15.052  0.0423  0.0985  0.4648
 4442SOL    HW124788   0.498   0.522  15.059  0.3071  0.1692 -1.4480
 4442SOL    HW224789   0.473   0.419  14.957 -1.6115  0.7002  0.4744
 4443SOL     OW24790   2.875   3.032   7.659  0.1979 -0.6500  0.0605
 4443SOL    HW124791   2.827   2.993   7.586  2.6638  0.0796 -1.9467
 4443SOL    HW224792   2.959   3.022   7.615  0.7484 -0.1173  0.9828
 4444SOL     OW24793   1.906   4.377  11.519  0.5373  0.4571  0.2387
 4444SOL    HW124794   1.984   4.322  11.514 -0.3301 -0.8166  0.7123
 4444SOL    HW224795   1.884   4.359  11.610 -0.9231 -1.8693 -0.5762
 4445SOL     OW24796   3.976   2.536   1.466  0.0014  0.8008  0.2997
 4445SOL    HW124797   3.970   2.441   1.480  0.6554  0.7548  0.2753
 4445SOL    HW224798   4.033   2.565   1.537 -1.2760  0.4001  1.4918
 4446SOL     OW24799   0.420   4.259   7.208  0.0312  0.3982 -0.2419
 4446SOL    HW124800   0.516   4.255   7.205 -0.0618 -2.1472  0.4047
 4446SOL    HW224801   0.398   4.229   7.120  0.1762  1.6471 -0.7020
 4447SOL     OW24802   0.430   2.317   9.786  0.0451 -0.6260  0.1889
 4447SOL    HW124803   0.458   2.225   9.789  2.8001  0.2219  0.9023
 4447SOL    HW224804   0.474   2.346   9.866  3.6040 -3.1897 -0.8201
 4448SOL     OW24805   0.670   3.544   7.692  0.3643  0.5231 -0.4137
 4448SOL    HW124806   0.643   3.496   7.614 -0.0776  2.4618 -1.4599
 4448SOL    HW224807   0.690   3.629   7.652 -0.8262  1.0570  0.1147
 4449SOL     OW24808   2.308   2.664   3.174 -0.1666 -0.3456  0.0083
 4449SOL    HW124809   2.220   2.675   3.212  0.9360 -2.0689  3.0843
 4449SOL    HW224810   2.328   2.573   3.194  0.0629 -0.7401 -2.0424
 4450SOL     OW24811   3.700   2.658   6.906  0.4036  0.4494  0.2265
 4450SOL    HW124812   3.671   2.674   6.996  1.4647 -0.4563  0.7265
 4450SOL    HW224813   3.756   2.583   6.926  0.6245 -0.4514 -3.6777
 4451SOL     OW24814   2.817   0.209   6.741  0.7186  0.3024 -0.4161
 4451SOL    HW124815   2.766   0.133   6.768  0.5180  1.2029  1.7141
 4451SOL    HW224816   2.905   0.183   6.767  0.7612  2.9365  2.1082
 4452SOL     OW24817   0.460   2.890   6.689  0.0421  0.3051 -0.1668
 4452SOL    HW124818   0.449   2.984   6.676  1.0477  0.3103 -1.0411
 4452SOL    HW224819   0.553   2.869   6.681 -0.7012 -2.7704 -0.6523
 4453SOL     OW24820   1.710   4.378   5.878  0.3721 -0.4801 -0.3986
 4453SOL    HW124821   1.775   4.439   5.913 -3.8827  2.4638  2.3245
 4453SOL    HW224822   1.741   4.297   5.918  1.0611  0.0844  0.2037
 4454SOL     OW24823   3.691   1.447  12.438 -0.0185  0.4315  0.5616
 4454SOL    HW124824   3.725   1.533  12.460 -0.0658  0.4587  0.5284
 4454SOL    HW224825   3.684   1.411  12.527 -3.0684 -1.4855 -0.4690
 4455SOL     OW24826   3.662   1.961  12.585 -1.0122  0.4546 -0.3063
 4455SOL    HW124827   3.682   1.962  12.679 -1.1645 -1.2661 -0.2510
 4455SOL    HW224828   3.674   2.053  12.561  1.7780  0.5242  1.2728
 4456SOL     OW24829   3.129   1.028  13.075  0.2848  0.3600  0.1057
 4456SOL    HW124830   3.203   0.994  13.126  0.2821  0.1985 -0.0001
 4456SOL    HW224831   3.139   1.123  13.086 -0.1129  0.0183  3.2389
 4457SOL     OW24832   2.971   4.535   2.583 -0.0172  0.1200 -0.0797
 4457SOL    HW124833   2.901   4.489   2.630  1.5718 -3.7851 -1.5010
 4457SOL    HW224834   2.983   4.596   2.655  1.4661 -0.7375  0.4073
 4458SOL     OW24835   0.408   3.787   3.177 -0.0674 -0.8538 -0.0418
 4458SOL    HW124836   0.446   3.825   3.098 -1.3771 -0.1669 -0.3434
 4458SOL    HW224837   0.313   3.783   3.162  0.0323 -0.0024 -0.8945
 4459SOL     OW24838   0.167   3.003  16.311 -0.4446 -0.1009 -0.0937
 4459SOL    HW124839   0.088   2.951  16.325  0.4782 -0.8632  2.3057
 4459SOL    HW224840   0.138   3.075  16.255  2.5071  1.2213  0.0504
 4460SOL     OW24841   3.549   2.401   8.808 -0.4797 -0.1066  0.0355
 4460SOL    HW124842   3.602   2.327   8.777 -0.4884  0.0378 -0.3307
 4460SOL    HW224843   3.488   2.353   8.863  0.7303 -2.0884 -0.3694
 4461SOL     OW24844   3.119   1.824   2.723  0.3204  0.1385  0.0861
 4461SOL    HW124845   3.092   1.845   2.812  2.3435 -0.5281  0.8633
 4461SOL    HW224846   3.213   1.845   2.727 -0.1247  2.0684  0.2967
 4462SOL     OW24847   3.681   3.400   5.047 -0.0002  0.4282  0.2942
 4462SOL    HW124848   3.707   3.395   4.955  0.4247  0.9443  0.3909
 4462SOL    HW224849   3.747   3.349   5.094 -0.4272  2.2082  2.8245
 4463SOL     OW24850   1.551   0.190   2.296 -0.1823  0.6160 -0.0626
 4463SOL    HW124851   1.585   0.182   2.386 -1.5039 -0.0303  0.3725
 4463SOL    HW224852   1.568   0.105   2.257 -0.2955  0.6968 -0.2831
 4464SOL     OW24853   3.421   3.677  14.713 -0.1817 -0.6582  0.2208
 4464SOL    HW124854   3.337   3.723  14.708 -0.4578 -1.0163  1.5289
 4464SOL    HW224855   3.480   3.749  14.737  0.3872 -1.3834  0.9872
 4465SOL     OW24856   2.582   4.564  12.967  0.7293  0.2301 -0.0940
 4465SOL    HW124857   2.624   4.587  13.050  0.3047 -1.1091  0.5020
 4465SOL    HW224858   2.492   4.587  12.989  0.6052  1.8628 -2.2986
 4466SOL     OW24859   4.194   2.833   7.872  0.2360  0.4692  0.2020
 4466SOL    HW124860   4.261   2.768   7.894 -0.6518  0.2798  2.3472
 4466SOL    HW224861   4.215   2.908   7.927  0.3456 -0.2407  1.1364
 4467SOL     OW24862   1.327   0.278   2.928 -0.2181 -0.1902  0.4282
 4467SOL    HW124863   1.331   0.304   2.835  0.4280 -1.9143 -0.0155
 4467SOL    HW224864   1.411   0.234   2.925  0.3980  1.1950 -3.8582
 4468SOL     OW24865   1.648   2.228  13.795 -0.6649  0.1279 -0.4774
 4468SOL    HW124866   1.730   2.238  13.844 -0.5054 -0.9780 -0.5260
 4468SOL    HW224867   1.671   2.149  13.746 -0.7476 -0.2521  0.1007
 4469SOL     OW24868   4.278   4.154   0.712 -0.3927 -0.6000  0.0531
 4469SOL    HW124869   4.215   4.129   0.644 -0.3663  0.3832 -0.3373
 4469SOL    HW224870   4.339   4.205   0.660  0.8002 -1.4758  0.5968
 4470SOL     OW24871   3.987   2.345   3.954 -0.2116  0.3090  0.8373
 4470SOL    HW124872   4.003   2.330   4.047 -0.3068 -0.8241  0.6668
 4470SOL    HW224873   3.895   2.320   3.953 -0.1046 -0.0415 -0.7197
 4471SOL     OW24874   3.020   2.676   6.927 -0.4995  0.4621 -0.0769
 4471SOL    HW124875   3.111   2.702   6.944 -0.5234 -1.2148  2.5500
 4471SOL    HW224876   2.986   2.746   6.871  0.6770  0.8591 -0.3016
 4472SOL     OW24877   3.383   0.545   5.579  0.1704  0.3886 -1.0472
 4472SOL    HW124878   3.406   0.456   5.549  1.8688  0.1559  0.9349
 4472SOL    HW224879   3.410   0.591   5.499  2.3896 -1.4082 -1.3307
 4473SOL     OW24880   4.053   3.243   3.680  0.0597  0.6413 -0.3196
 4473SOL    HW124881   3.979   3.189   3.708  1.2478 -1.6238 -1.4893
 4473SOL    HW224882   4.087   3.265   3.766  0.9106  0.3148 -0.5752
 4474SOL     OW24883   2.508   2.204   7.680 -0.0340  0.1024  0.9124
 4474SOL    HW124884   2.515   2.203   7.584  0.8321 -0.4013  0.9831
 4474SOL    HW224885   2.445   2.275   7.695  1.3322  1.2084  1.4125
 4475SOL     OW24886   1.287   3.947  14.616 -0.4759 -0.1727  0.4333
 4475SOL    HW124887   1.374   3.910  14.601  0.3612  2.8422 -2.2013
 4475SOL    HW224888   1.247   3.869  14.654 -0.5834 -0.2575  0.1505
 4476SOL     OW24889   3.091   3.361   3.518 -0.7177 -0.3309  0.6303
 4476SOL    HW124890   3.170   3.369   3.571 -0.0585  2.1500 -0.7341
 4476SOL    HW224891   3.124   3.323   3.436 -2.2326 -1.8607  0.7257
 4477SOL     OW24892   1.718   0.469   9.868 -0.0644 -0.1095  0.2477
 4477SOL    HW124893   1.715   0.473   9.773  0.6448 -1.7682  0.1679
 4477SOL    HW224894   1.731   0.375   9.881 -0.8482 -0.2230  0.2337
 4478SOL     OW24895   0.641   3.775   4.672  0.6315  0.6142  0.1598
 4478SOL    HW124896   0.695   3.847   4.705  0.1311  1.5609 -1.0936
 4478SOL    HW224897   0.687   3.712   4.728 -0.6901  0.4536  1.0451
 4479SOL     OW24898   2.323   0.784  17.439  0.2158 -0.4406  0.0508
 4479SOL    HW124899   2.343   0.867  17.396  0.4219  0.3114  1.5590
 4479SOL    HW224900   2.310   0.736  17.358 -0.3601  0.1205 -0.1852
 4480SOL     OW24901   3.175   0.712   8.917  0.4962 -0.0921  0.3909
 4480SOL    HW124902   3.253   0.679   8.961 -1.7855 -2.1732  2.9531
 4480SOL    HW224903   3.165   0.629   8.871  2.5108  0.1068 -0.3605
 4481SOL     OW24904   0.151   1.142   3.892 -0.7203 -0.4561  0.6606
 4481SOL    HW124905   0.226   1.146   3.950  1.0234 -0.7733 -1.5516
 4481SOL    HW224906   0.132   1.235   3.885  0.1117 -0.3604 -0.3158
 4482SOL     OW24907   2.268   3.776   4.994 -0.1836  0.2283  0.0817
 4482SOL    HW124908   2.256   3.687   5.027  0.4025  0.4672  0.9275
 4482SOL    HW224909   2.298   3.824   5.071  1.8433 -0.1489 -0.4893
 4483SOL     OW24910   3.194   2.572   9.902  0.2669 -0.1098 -0.1741
 4483SOL    HW124911   3.199   2.531   9.816 -1.0915 -2.8418  1.0462
 4483SOL    HW224912   3.205   2.495   9.957 -0.6817  0.4364  0.7739
 4484SOL     OW24913   0.742   4.006  17.121  0.0229  0.5125 -0.8464
 4484SOL    HW124914   0.785   4.068  17.062 -1.0233  1.1248 -0.9755
 4484SOL    HW224915   0.647   4.017  17.109 -0.5005 -1.2532  1.8347
 4485SOL     OW24916   2.857   2.097   5.442  0.0238  0.2462  0.3444
 4485SOL    HW124917   2.763   2.084   5.424  0.5068 -0.6488 -1.6177
 4485SOL    HW224918   2.873   2.053   5.525 -1.8746  2.7017  2.0124
 4486SOL     OW24919   2.105   2.079   5.725 -0.2041 -0.1250 -0.2669
 4486SOL    HW124920   2.084   2.112   5.638  1.4969  1.4424 -0.0771
 4486SOL    HW224921   2.198   2.100   5.725 -0.3780  0.6341 -1.2813
 4487SOL     OW24922   2.208   2.015   3.872  0.4112  0.4661 -0.1324
 4487SOL    HW124923   2.211   2.068   3.792 -1.7164  0.6439 -0.1048
 4487SOL    HW224924   2.271   1.945   3.855 -0.3164  0.1199 -1.4587
 4488SOL     OW24925   4.244   2.313   3.839  0.3582  0.4872 -0.2377
 4488SOL    HW124926   4.159   2.290   3.876  0.1342  1.1530 -0.3292
 4488SOL    HW224927   4.225   2.344   3.751  0.2204 -0.9984 -0.7295
 4489SOL     OW24928   4.675   2.716   7.066  0.6464  0.4052 -0.0245
 4489SOL    HW124929   4.679   2.691   7.158  2.1476  1.1815  0.1236
 4489SOL    HW224930   0.041   2.747   7.055  0.4306  1.2704  0.6992
 4490SOL     OW24931   0.638   1.153   5.546 -0.6041 -0.5639  0.1423
 4490SOL    HW124932   0.550   1.192   5.548 -0.2805  0.2672 -1.3898
 4490SOL    HW224933   0.694   1.230   5.553  0.3837 -1.2061 -0.7311
 4491SOL     OW24934   2.113   4.349  15.434 -0.5601 -0.2832  0.0899
 4491SOL    HW124935   2.069   4.377  15.515 -1.1024  0.1133 -0.3436
 4491SOL    HW224936   2.084   4.420  15.376 -0.4588  0.2674  0.7128
 4492SOL     OW24937   2.253   2.456   8.550 -0.1010  0.2767 -0.4466
 4492SOL    HW124938   2.326   2.487   8.604  1.0154 -1.8895 -0.7277
 4492SOL    HW224939   2.198   2.428   8.623 -0.0371  0.1231 -0.4573
 4493SOL     OW24940   0.746   3.325  13.512  0.1650  0.5631 -0.4337
 4493SOL    HW124941   0.655   3.327  13.483 -0.5479  2.4085  1.9250
 4493SOL    HW224942   0.769   3.235  13.489 -0.2097  0.3777 -0.0821
 4494SOL     OW24943   2.132   0.012   6.619  0.2319  0.2459 -0.1217
 4494SOL    HW124944   2.120   4.656   6.569 -0.3830 -1.5016  2.7902
 4494SOL    HW224945   2.135   4.702   6.709 -4.0453 -0.6318 -0.3164
 4495SOL     OW24946   4.076   0.207   7.728 -0.3179  0.4869 -0.1059
 4495SOL    HW124947   4.071   0.302   7.724  2.9025  0.7387  2.5415
 4495SOL    HW224948   4.167   0.202   7.700 -0.3392 -1.3321  0.1549
 4496SOL     OW24949   2.262   1.362   6.698  0.0971 -0.1825 -0.2753
 4496SOL    HW124950   2.319   1.385   6.771 -1.1892 -0.6954  0.8995
 4496SOL    HW224951   2.252   1.269   6.716 -0.3889  0.2467  1.6830
 4497SOL     OW24952   3.127   0.532   9.328 -0.1176  0.5948 -0.1408
 4497SOL    HW124953   3.145   0.626   9.335  3.0228 -0.1886  2.4567
 4497SOL    HW224954   3.040   0.542   9.290 -0.7894 -0.3091  1.1640
 4498SOL     OW24955   1.884   4.400   8.400  0.2404  0.5540  0.0232
 4498SOL    HW124956   1.917   4.363   8.482 -2.1572 -2.3408 -0.3299
 4498SOL    HW224957   1.823   4.334   8.368  0.4099  1.2169 -1.6842
 4499SOL     OW24958   1.340   1.582   7.172 -0.5722  0.1870  0.1737
 4499SOL    HW124959   1.360   1.493   7.145  0.5259  0.4705  0.0639
 4499SOL    HW224960   1.396   1.632   7.112 -1.4919 -0.0079 -0.8526
 4500SOL     OW24961   2.059   0.930   4.991  0.4669  0.5187 -0.0384
 4500SOL    HW124962   2.063   1.011   4.939 -3.2357  0.4038 -0.5156
 4500SOL    HW224963   2.024   0.959   5.075 -1.1203  4.6439 -2.1189
 4501SOL     OW24964   2.012   1.644   7.468  0.0232 -0.3287 -0.1063
 4501SOL    HW124965   1.968   1.610   7.546 -2.2856  1.4171 -0.6577
 4501SOL    HW224966   1.932   1.653   7.416 -0.4604  0.3757  0.7457
 4502SOL     OW24967   2.567   2.250   4.440  0.4352  0.6866 -0.6970
 4502SOL    HW124968   2.574   2.253   4.535 -1.4651  2.1238 -0.6003
 4502SOL    HW224969   2.654   2.217   4.418 -0.0979 -0.1822 -1.5439
 4503SOL     OW24970   1.551   1.945   1.780 -0.3916  0.3469  0.2194
 4503SOL    HW124971   1.514   1.995   1.707 -0.8608  0.9318  0.8512
 4503SOL    HW224972   1.490   1.871   1.787  1.7508 -1.5388 -1.3218
 4504SOL     OW24973   4.563   0.422  11.516 -0.3617  0.8947 -0.3399
 4504SOL    HW124974   4.628   0.492  11.509 -0.8361  1.4279  0.7443
 4504SOL    HW224975   4.521   0.428  11.430 -0.8386  0.1713 -0.1581
 4505SOL     OW24976   4.590   2.451  16.168 -0.4377  0.9333 -0.0871
 4505SOL    HW124977   4.536   2.414  16.099 -1.0525  0.4401  0.6607
 4505SOL    HW224978   4.592   2.543  16.142  2.9706  1.0630  0.5829
 4506SOL     OW24979   0.440   3.953  12.819 -0.4824 -0.0427 -0.6923
 4506SOL    HW124980   0.520   3.922  12.776  0.0427  0.9694 -0.4641
 4506SOL    HW224981   0.460   3.944  12.913  1.0914  0.5268 -0.9617
 4507SOL     OW24982   1.417   1.188   3.040  0.0414 -0.2305 -0.3648
 4507SOL    HW124983   1.356   1.153   2.975  0.4068  0.4971 -1.1025
 4507SOL    HW224984   1.449   1.107   3.080 -1.1168 -0.1338  0.7717
 4508SOL     OW24985   0.251   0.232  12.270 -0.0569  0.8931 -0.4137
 4508SOL    HW124986   0.231   0.320  12.300 -1.1914  0.7521 -0.7477
 4508SOL    HW224987   0.263   0.197  12.358  0.5779  1.8366 -0.1343
 4509SOL     OW24988   1.845   1.091   2.191  0.1400  0.0025  0.3942
 4509SOL    HW124989   1.909   1.125   2.128 -1.1096  1.5264 -0.0618
 4509SOL    HW224990   1.865   1.005   2.153  1.9590  0.6842 -0.2061
 4510SOL     OW24991   1.732   0.814   3.982 -0.7383 -0.2274  0.1787
 4510SOL    HW124992   1.699   0.876   4.048 -2.1868 -0.9236  0.1095
 4510SOL    HW224993   1.661   0.750   3.978 -4.3964  4.1107 -4.1047
 4511SOL     OW24994   0.851   1.675   4.585  0.0520  0.4241 -0.3415
 4511SOL    HW124995   0.808   1.652   4.668 -0.7909  3.4030  0.0233
 4511SOL    HW224996   0.776   1.656   4.528  0.3040 -0.9173 -0.2241
 4512SOL     OW24997   4.637   2.447   8.028 -0.7487  0.5952 -0.6082
 4512SOL    HW124998   4.600   2.464   7.941 -3.0558 -0.6052  0.1373
 4512SOL    HW224999   4.560   2.454   8.084  0.1237 -0.4495  0.7029
 4513SOL     OW25000   4.118   4.258  11.206  0.4497 -0.4881  0.3407
 4513SOL    HW125001   4.069   4.340  11.209  0.4772 -0.4529 -0.2186
 4513SOL    HW225002   4.123   4.235  11.114  1.8201 -0.4424  0.3997
 4514SOL     OW25003   2.581   0.316   7.635  0.2048 -0.1862  0.0533
 4514SOL    HW125004   2.511   0.250   7.639 -0.0866  0.2195  2.0056
 4514SOL    HW225005   2.565   0.371   7.559 -1.6243 -2.1586 -0.9969
 4515SOL     OW25006   2.087   2.410  12.357  0.1086  0.6545 -0.3807
 4515SOL    HW125007   2.078   2.488  12.413 -0.3250  1.0480 -0.9940
 4515SOL    HW225008   2.148   2.359  12.409  0.8836  0.6791 -1.2565
 4516SOL     OW25009   4.045   0.107   3.284 -0.3116 -0.8609 -0.0403
 4516SOL    HW125010   4.086   0.161   3.217 -1.3429 -0.9891 -0.7528
 4516SOL    HW225011   4.120   0.110   3.345  0.0568 -0.2744 -0.5218
 4517SOL     OW25012   2.544   0.364   4.279 -0.0762 -0.0624  0.5841
 4517SOL    HW125013   2.463   0.397   4.317 -0.9747  0.6421 -1.9607
 4517SOL    HW225014   2.502   0.308   4.214 -0.9614  0.8173  0.4051
 4518SOL     OW25015   0.608   2.286   5.043 -0.4183  0.3537  0.1003
 4518SOL    HW125016   0.601   2.380   5.030  0.7615  0.4470  0.1245
 4518SOL    HW225017   0.654   2.279   4.960  0.2075 -1.1809  0.5674
 4519SOL     OW25018   1.465   2.784   7.489 -0.3263  0.4343 -0.5840
 4519SOL    HW125019   1.414   2.717   7.535  1.4338 -1.3889 -1.2578
 4519SOL    HW225020   1.402   2.855   7.480 -1.8501 -1.1283 -2.1681
 4520SOL     OW25021   1.470   1.720   5.177 -0.4635 -0.2203  0.6774
 4520SOL    HW125022   1.545   1.754   5.127  1.2366  0.5884  3.7680
 4520SOL    HW225023   1.445   1.635   5.142 -1.0986 -0.4527  1.7049
 4521SOL     OW25024   2.626   2.078   8.082  0.6775  0.0474 -0.3093
 4521SOL    HW125025   2.546   2.130   8.088  0.2384 -0.7044  0.3349
 4521SOL    HW225026   2.634   2.055   7.989  2.0614  1.0248 -0.4244
 4522SOL     OW25027   4.416   3.214  14.535  0.2500 -0.1601 -0.4443
 4522SOL    HW125028   4.362   3.217  14.614  1.4410 -0.5318  0.3654
 4522SOL    HW225029   4.374   3.134  14.501 -2.2866  0.6094  0.9025
 4523SOL     OW25030   0.814   4.320  16.984  0.0288  0.4925 -0.0038
 4523SOL    HW125031   0.839   4.395  17.039 -0.9784  2.2760 -2.0008
 4523SOL    HW225032   0.897   4.276  16.962  0.0075  0.2425  0.4098
 4524SOL     OW25033   0.322   2.997   2.726 -0.1855  0.1811  0.1864
 4524SOL    HW125034   0.384   3.069   2.735  0.4349 -0.4949  1.3700
 4524SOL    HW225035   0.322   2.956   2.813  0.4707  0.6478  0.4079
 4525SOL     OW25036   0.669   3.905  10.903 -0.1336  0.5168  0.4466
 4525SOL    HW125037   0.700   3.816  10.919  0.3982  0.5902 -0.1717
 4525SOL    HW225038   0.745   3.962  10.890  0.0950 -0.2582 -1.6282
 4526SOL     OW25039   0.797   1.322  10.411 -0.7259  0.3226  0.1825
 4526SOL    HW125040   0.798   1.231  10.440 -0.1146 -0.4405 -2.1959
 4526SOL    HW225041   0.770   1.359  10.495  0.1144  2.0669 -0.3054
 4527SOL     OW25042   4.455   4.469   9.669 -0.0135  0.1545  0.5274
 4527SOL    HW125043   4.507   4.540   9.706  1.0790  0.7077 -2.1087
 4527SOL    HW225044   4.496   4.400   9.721 -0.9167  0.4468  1.6431
 4528SOL     OW25045   1.918   2.904   0.988  0.0011 -0.3196 -0.7419
 4528SOL    HW125046   1.936   2.965   0.916  2.9276  0.2096  0.4726
 4528SOL    HW225047   1.992   2.843   0.982 -0.4887 -1.0037  0.2151
 4529SOL     OW25048   3.334   2.730   8.890 -0.2807  0.4025  0.6221
 4529SOL    HW125049   3.291   2.646   8.873  1.1892 -0.7577  2.5947
 4529SOL    HW225050   3.386   2.698   8.964  1.0159  2.2599  0.5171
 4530SOL     OW25051   2.956   1.695   0.264 -0.1517  0.0985  0.0585
 4530SOL    HW125052   2.906   1.616   0.244 -0.0875  0.0919 -0.0782
 4530SOL    HW225053   2.901   1.744   0.325  1.0899  1.7292 -0.1090
 4531SOL     OW25054   3.387   3.078  15.811 -0.7344  0.0632  0.0008
 4531SOL    HW125055   3.293   3.065  15.827 -0.7818 -1.9281 -1.9552
 4531SOL    HW225056   3.388   3.173  15.822 -0.7337  0.0273  0.3048
 4532SOL     OW25057   2.657   0.940  11.610 -0.1895 -0.0009 -0.1894
 4532SOL    HW125058   2.637   0.935  11.517 -0.4395 -0.3376 -0.1192
 4532SOL    HW225059   2.615   0.862  11.648  1.5969  0.1419  2.0511
 4533SOL     OW25060   0.875   3.125   0.031 -0.1967  0.3613  0.6459
 4533SOL    HW125061   0.970   3.109   0.037 -0.7310 -2.8888  0.5204
 4533SOL    HW225062   0.849   3.038   0.061 -0.5909  0.0882 -0.5052
 4534SOL     OW25063   2.643   2.403  16.205  0.1242 -0.5228  0.3401
 4534SOL    HW125064   2.584   2.449  16.264  0.4340  0.2628  0.0443
 4534SOL    HW225065   2.713   2.374  16.264  0.8179 -3.2550 -1.7943
 4535SOL     OW25066   3.696   2.730  17.393 -0.3908  0.0135  0.6725
 4535SOL    HW125067   3.669   2.730  17.485  1.2647 -0.0288  1.1666
 4535SOL    HW225068   3.767   2.666  17.384  0.3942  1.0274 -0.2828
 4536SOL     OW25069   4.444   3.889  13.308  0.1510  0.3054 -0.1717
 4536SOL    HW125070   4.439   3.911  13.401 -2.9994  0.9603 -0.4935
 4536SOL    HW225071   4.538   3.875  13.296 -0.1333  0.8790 -3.0631
 4537SOL     OW25072   1.918   2.847   8.519 -0.7021 -0.0677 -0.6313
 4537SOL    HW125073   1.992   2.829   8.577  0.5124  0.5074 -2.0235
 4537SOL    HW225074   1.926   2.934   8.480  1.8462 -0.1840 -0.3516
 4538SOL     OW25075   4.025   0.446  11.097  0.0715  0.5594  0.1108
 4538SOL    HW125076   4.097   0.393  11.130 -0.9391  0.9199  2.8962
 4538SOL    HW225077   4.073   0.528  11.108  0.5495  0.1011  1.5373
 4539SOL     OW25078   2.302   3.860   7.335 -0.4191  0.3886 -0.0891
 4539SOL    HW125079   2.282   3.876   7.243 -0.5120 -1.8112 -0.4528
 4539SOL    HW225080   2.398   3.867   7.328 -0.4823  2.5064  1.1325
 4540SOL     OW25081   4.600   2.879  16.375  0.2110 -0.8349  0.2190
 4540SOL    HW125082   4.598   2.794  16.418  0.7572 -0.6685  0.5696
 4540SOL    HW225083   4.603   2.854  16.283  0.9424  2.1994 -0.5723
 4541SOL     OW25084   1.341   2.350   1.215  0.5590  0.2948  0.2100
 4541SOL    HW125085   1.294   2.268   1.229  0.0145  0.4491 -0.6852
 4541SOL    HW225086   1.416   2.343   1.274 -0.3018  0.2300  1.2964
 4542SOL     OW25087   0.797   4.347  13.800  0.2789  0.1423  0.5513
 4542SOL    HW125088   0.840   4.403  13.736 -0.5939  2.3601  1.8927
 4542SOL    HW225089   0.867   4.293  13.834 -0.1364 -0.3241  0.6715
 4543SOL     OW25090   2.131   1.866   5.498  0.1798 -0.4628 -0.0181
 4543SOL    HW125091   2.167   1.948   5.464  0.7634 -0.0021  1.7383
 4543SOL    HW225092   2.214   1.840   5.538 -1.1709 -0.4912  2.7659
 4544SOL     OW25093   0.442   1.077  11.093  0.1509 -0.1523 -0.2989
 4544SOL    HW125094   0.418   0.984  11.095  0.5102 -0.1879  2.1278
 4544SOL    HW225095   0.536   1.077  11.113  0.3713  1.2955 -1.3835
 4545SOL     OW25096   4.274   0.681   6.989  0.2836  0.3990 -0.3775
 4545SOL    HW125097   4.295   0.694   7.081 -0.8098 -1.0604  0.0820
 4545SOL    HW225098   4.364   0.683   6.955 -0.0899  1.9510 -1.2715
 4546SOL     OW25099   2.797   2.093   3.961  0.3366 -0.3049  0.0052
 4546SOL    HW125100   2.751   2.009   3.962 -0.6119  0.2029 -1.4615
 4546SOL    HW225101   2.726   2.148   3.928  0.2094 -0.3799  0.1480
 4547SOL     OW25102   1.097   0.734   7.979 -0.1469  0.1318 -0.1797
 4547SOL    HW125103   1.061   0.790   7.910  0.4205  0.0651 -0.5307
 4547SOL    HW225104   1.105   0.800   8.048  0.7498  0.3075 -0.4429
 4548SOL     OW25105   0.565   1.185   8.003  0.3463 -0.2978  0.5996
 4548SOL    HW125106   0.605   1.148   7.924  1.2094  0.7537  0.5500
 4548SOL    HW225107   0.621   1.254   8.039  1.0407 -1.0976  1.0595
 4549SOL     OW25108   0.480   3.980   0.660  0.2481  0.1245  0.3178
 4549SOL    HW125109   0.426   3.901   0.658  0.3310  0.0889 -0.3802
 4549SOL    HW225110   0.520   3.989   0.574  2.7126  0.1865  1.4857
 4550SOL     OW25111   2.883   2.890   0.050  0.4852  0.2987  0.3750
 4550SOL    HW125112   2.806   2.867   0.102 -0.9704  0.0063 -1.8808
 4550SOL    HW225113   2.941   2.814   0.050 -2.3183 -1.8659  0.7851
 4551SOL     OW25114   3.884   0.335  13.909 -0.0131 -0.3564 -0.4045
 4551SOL    HW125115   3.817   0.360  13.974 -1.1182 -2.8177 -0.6088
 4551SOL    HW225116   3.948   0.306  13.973  0.7819  1.0741 -0.5508
 4552SOL     OW25117   3.663   0.518   6.415 -0.5227 -0.3352 -0.2011
 4552SOL    HW125118   3.705   0.601   6.437  2.9468 -1.8411 -1.1168
 4552SOL    HW225119   3.739   0.462   6.401 -0.9535 -1.4883  1.9711
 4553SOL     OW25120   1.443   3.776   5.160  0.1340  0.4222  0.0699
 4553SOL    HW125121   1.504   3.827   5.214 -0.0086  0.7114 -0.0427
 4553SOL    HW225122   1.481   3.690   5.174 -0.6816 -0.2994 -2.1659
 4554SOL     OW25123   0.957   0.147  11.913 -0.3390 -0.0476 -0.6359
 4554SOL    HW125124   1.032   0.087  11.915  0.0504  0.5946  2.6430
 4554SOL    HW225125   0.980   0.213  11.979  0.8671 -2.1887  1.0625
 4555SOL     OW25126   4.060   4.134   0.560  0.2478  0.4000  0.5186
 4555SOL    HW125127   4.073   4.185   0.480 -2.6869  2.5751  1.4259
 4555SOL    HW225128   3.971   4.164   0.579 -0.0045 -1.1477  1.8180
 4556SOL     OW25129   2.449   2.302   2.062 -0.0395 -0.2924  0.0891
 4556SOL    HW125130   2.368   2.278   2.107  1.1616 -0.1483  2.3275
 4556SOL    HW225131   2.457   2.391   2.096 -1.6397 -0.0886 -0.0692
 4557SOL     OW25132   0.323   2.802   4.099  0.3416 -0.4216 -0.1990
 4557SOL    HW125133   0.408   2.758   4.094 -0.9178 -2.6864 -1.5015
 4557SOL    HW225134   0.271   2.722   4.101 -2.0291  1.0927 -2.0396
 4558SOL     OW25135   2.074   4.262   2.975  0.1321  0.6017  0.0921
 4558SOL    HW125136   2.086   4.336   3.036 -0.4113  2.0254 -1.5312
 4558SOL    HW225137   2.026   4.198   3.027  1.0074  0.0853  0.2595
 4559SOL     OW25138   1.084   0.571  12.084 -0.2662 -0.2548 -0.2352
 4559SOL    HW125139   1.162   0.586  12.137 -0.2572  0.1397 -0.3540
 4559SOL    HW225140   1.128   0.584  12.000  0.9301 -0.5523  0.3418
 4560SOL     OW25141   1.793   2.572  13.814  0.2497 -0.5542 -0.3064
 4560SOL    HW125142   1.755   2.606  13.895 -0.3131 -0.3147 -0.6807
 4560SOL    HW225143   1.809   2.479  13.832 -0.4001 -0.7130 -0.5743
 4561SOL     OW25144   4.039   0.340  13.283  0.3468  0.0577 -0.6137
 4561SOL    HW125145   4.058   0.249  13.256  0.0125  0.0171 -0.7061
 4561SOL    HW225146   3.945   0.348  13.272  0.3568 -0.0815 -0.8230
 4562SOL     OW25147   1.188   3.752   3.725 -0.0491 -0.3994 -0.3166
 4562SOL    HW125148   1.114   3.730   3.668  0.4730  0.0044 -1.1544
 4562SOL    HW225149   1.155   3.822   3.780  2.4896  1.0282 -0.6317
 4563SOL     OW25150   0.677   4.046   8.981  0.9702 -0.3904  0.1249
 4563SOL    HW125151   0.762   4.004   8.992  0.7103 -0.6194  1.2426
 4563SOL    HW225152   0.634   3.987   8.918  1.0185 -1.3880  1.0143
 4564SOL     OW25153   1.973   3.170   1.368  0.4376 -0.1695  0.2837
 4564SOL    HW125154   1.882   3.197   1.374 -0.3775 -2.9428  0.7743
 4564SOL    HW225155   1.973   3.131   1.456  2.1283 -2.4612 -0.7325
 4565SOL     OW25156   2.305   3.268   4.706  0.1021 -0.4428 -0.0959
 4565SOL    HW125157   2.298   3.361   4.728  2.7569 -0.1267 -0.5717
 4565SOL    HW225158   2.399   3.263   4.688  0.5829  1.4641  1.9437
 4566SOL     OW25159   2.687   3.481   6.157 -0.4086  0.2859  0.8616
 4566SOL    HW125160   2.664   3.391   6.181  2.5310 -1.4281 -2.7909
 4566SOL    HW225161   2.602   3.523   6.151 -0.9376 -0.5481  2.3227
 4567SOL     OW25162   1.658   0.305   4.291 -0.2123  0.1552  0.0766
 4567SOL    HW125163   1.615   0.390   4.290 -3.6117 -1.6098 -0.7296
 4567SOL    HW225164   1.577   0.256   4.295  0.5414 -1.0804  0.2925
 4568SOL     OW25165   0.126   2.837   8.122 -0.1382  0.2288  0.2545
 4568SOL    HW125166   0.213   2.852   8.159  0.2708 -0.1596 -0.5709
 4568SOL    HW225167   0.095   2.928   8.123  1.5704  0.8102  0.4981
 4569SOL     OW25168   0.076   3.343   0.142  0.0403 -0.0679  0.4289
 4569SOL    HW125169   0.154   3.329   0.196 -1.1314 -0.5616  1.9813
 4569SOL    HW225170   0.076   3.437   0.160 -1.1351  0.0127 -0.0530
 4570SOL     OW25171   1.685   2.558   4.882 -0.7524  0.0864 -0.2419
 4570SOL    HW125172   1.640   2.618   4.942 -0.7845 -1.2692  1.1046
 4570SOL    HW225173   1.650   2.574   4.795  1.8283  0.6713 -1.1698
 4571SOL     OW25174   2.843   3.846   5.165 -0.0574  0.0350  0.1624
 4571SOL    HW125175   2.787   3.844   5.242  0.4698  0.5615  0.5570
 4571SOL    HW225176   2.782   3.826   5.094 -1.7041  1.8946  1.0546
 4572SOL     OW25177   0.795   2.932   7.443  0.2278 -0.1223  0.1286
 4572SOL    HW125178   0.743   3.012   7.435  0.5921  0.1451  0.4456
 4572SOL    HW225179   0.813   2.935   7.537  2.5718 -0.6750 -0.3167
 4573SOL     OW25180   1.143   2.331   2.428  0.2779 -0.5216  0.1555
 4573SOL    HW125181   1.134   2.412   2.478 -3.5517 -1.0960  0.3926
 4573SOL    HW225182   1.093   2.347   2.348  2.3359 -1.8507 -1.4079
 4574SOL     OW25183   4.300   4.133   8.465  0.7400 -0.3615 -0.1782
 4574SOL    HW125184   4.395   4.141   8.456  0.7256 -1.0224 -0.9100
 4574SOL    HW225185   4.281   4.222   8.495  1.1228 -0.9214  1.7740
 4575SOL     OW25186   4.629   2.731   3.424  0.1897  0.3850 -0.4106
 4575SOL    HW125187   4.606   2.705   3.335 -1.5519  1.1706 -0.1927
 4575SOL    HW225188   4.709   2.684   3.444 -0.5327  0.2231  2.1133
 4576SOL     OW25189   0.387   0.067   2.421  0.1967  0.0850  0.0828
 4576SOL    HW125190   0.306   0.056   2.470 -0.7030 -2.9957 -2.0890
 4576SOL    HW225191   0.444   0.018   2.480 -0.3503 -0.2398  0.3346
 4577SOL     OW25192   2.879   4.402   9.159  0.3615  0.3687  0.0490
 4577SOL    HW125193   2.903   4.439   9.244  2.4817  0.3597 -0.5617
 4577SOL    HW225194   2.957   4.387   9.106  1.7046 -2.5410  2.8517
 4578SOL     OW25195   2.215   3.954   5.681 -0.8303 -0.2531 -0.3007
 4578SOL    HW125196   2.165   3.923   5.756 -2.5393  0.5303 -1.1292
 4578SOL    HW225197   2.148   3.957   5.613  0.5029  0.7413 -1.5848
 4579SOL     OW25198   2.660   4.066   5.576  0.7902  0.2710  0.1062
 4579SOL    HW125199   2.715   4.090   5.650  2.5256 -0.6790 -0.8521
 4579SOL    HW225200   2.572   4.076   5.611 -0.0891 -4.3360 -0.6985
 4580SOL     OW25201   4.126   1.963  17.030  0.0321 -0.1293  0.1579
 4580SOL    HW125202   4.163   1.913  17.103 -1.5415 -1.3586  0.1152
 4580SOL    HW225203   4.034   1.978  17.051  0.4291  2.1822  0.2547
 4581SOL     OW25204   0.352   0.483   7.215  0.0892 -0.1309 -0.1660
 4581SOL    HW125205   0.296   0.409   7.240 -0.8799  0.5870 -0.2232
 4581SOL    HW225206   0.381   0.458   7.127 -2.1201  0.3643 -1.0254
 4582SOL     OW25207   2.284   0.324   5.691  0.2582  0.6140  0.0035
 4582SOL    HW125208   2.356   0.279   5.734  1.5571  3.2948  0.6038
 4582SOL    HW225209   2.273   0.277   5.608 -1.5953 -1.6722  1.5354
 4583SOL     OW25210   0.762   0.825  16.448 -0.2964 -0.3259 -0.0306
 4583SOL    HW125211   0.730   0.877  16.522  0.1994 -2.0637  1.3976
 4583SOL    HW225212   0.736   0.736  16.473 -1.6020 -0.2903 -1.2857
 4584SOL     OW25213   3.404   2.858   5.018  0.4525  0.0148 -0.2625
 4584SOL    HW125214   3.403   2.835   4.925  1.5333 -0.4119 -0.1775
 4584SOL    HW225215   3.480   2.915   5.026  0.3817  0.1041 -0.2300
 4585SOL     OW25216   3.740   2.058   6.330  0.1792  0.0876 -0.4211
 4585SOL    HW125217   3.715   2.137   6.282  0.2245  0.5114  0.2574
 4585SOL    HW225218   3.764   2.101   6.412  0.9036 -0.9406 -0.0857
 4586SOL     OW25219   2.411   3.392   2.472 -0.6929 -0.1023 -0.0958
 4586SOL    HW125220   2.482   3.359   2.526  0.0483  1.0727 -0.3777
 4586SOL    HW225221   2.455   3.431   2.396 -0.1971  0.0138  0.2532
 4587SOL     OW25222   3.322   1.196   2.900  0.2832 -0.3938  0.1234
 4587SOL    HW125223   3.379   1.255   2.949 -0.9932 -0.5813  1.8345
 4587SOL    HW225224   3.241   1.241   2.878  0.2202  0.6093  2.4722
 4588SOL     OW25225   0.140   0.691   9.600 -0.3757  0.3004  0.3281
 4588SOL    HW125226   0.222   0.732   9.627  0.2481 -0.0493 -1.0493
 4588SOL    HW225227   0.179   0.611   9.566 -1.5504 -0.8865  1.7542
 4589SOL     OW25228   0.715   4.337   4.708  0.1494 -0.2348 -0.0550
 4589SOL    HW125229   0.691   4.258   4.756  1.2941 -2.0436 -2.4559
 4589SOL    HW225230   0.783   4.380   4.758 -0.2472  1.2285 -0.7772
 4590SOL     OW25231   2.307   2.156  16.454  0.1985  0.6038  0.3221
 4590SOL    HW125232   2.226   2.169  16.503  0.3395  1.5207  0.2968
 4590SOL    HW225233   2.267   2.114  16.378  1.7539  1.6008 -1.0598
 4591SOL     OW25234   1.777   1.496   3.526  0.1029 -0.1245 -0.7392
 4591SOL    HW125235   1.692   1.520   3.563  0.6141 -0.0448  0.3863
 4591SOL    HW225236   1.770   1.400   3.533 -1.3660 -0.1398 -2.3456
 4592SOL     OW25237   3.858   3.859   7.523 -0.0811 -0.5765  0.2804
 4592SOL    HW125238   3.845   3.816   7.439  3.5482  3.0199 -2.0657
 4592SOL    HW225239   3.799   3.934   7.516 -0.5720 -1.0446 -0.5967
 4593SOL     OW25240   1.972   0.950   0.012  0.3505 -0.0819  0.4212
 4593SOL    HW125241   1.980   0.963   0.106 -0.2530  0.2681  0.4199
 4593SOL    HW225242   2.062   0.958  17.679  0.2090  0.9688  0.3014
 4594SOL     OW25243   3.751   1.391   3.729  0.4212  0.0023 -0.5572
 4594SOL    HW125244   3.721   1.303   3.751 -2.7894  1.1749 -0.3231
 4594SOL    HW225245   3.676   1.430   3.686 -0.3537 -1.5222 -0.5805
 4595SOL     OW25246   0.158   0.411  16.258  0.1247  0.2029 -0.1598
 4595SOL    HW125247   0.141   0.489  16.312  0.3991  1.1227 -1.4121
 4595SOL    HW225248   0.083   0.356  16.282  0.4479  0.4211  1.3836
 4596SOL     OW25249   3.634   1.086  14.718  0.8033 -0.0926 -0.1564
 4596SOL    HW125250   3.582   1.006  14.713  0.4680  0.1695 -0.9683
 4596SOL    HW225251   3.657   1.096  14.810  0.5684  0.6106 -0.1762
 4597SOL     OW25252   1.043   2.972   8.243  0.1667 -0.1183 -0.1669
 4597SOL    HW125253   1.114   2.912   8.217  0.1317 -0.7573  1.2523
 4597SOL    HW225254   1.076   3.059   8.220 -3.5980  1.4001  0.2783
 4598SOL     OW25255   2.397   3.449   7.877 -0.5673 -0.0822 -0.3927
 4598SOL    HW125256   2.358   3.411   7.798  0.9796  0.9784 -1.6698
 4598SOL    HW225257   2.358   3.398   7.948  0.6181 -1.6709 -0.9040
 4599SOL     OW25258   4.089   2.088   5.347 -0.0957  0.9609  0.7786
 4599SOL    HW125259   4.037   2.109   5.270  2.2208  0.0249 -1.0349
 4599SOL    HW225260   4.067   1.998   5.372  0.2826  2.2371  5.6991
 4600SOL     OW25261   0.176   0.364   3.976 -0.5091  0.6272 -0.0164
 4600SOL    HW125262   0.240   0.350   4.045 -0.4048  0.8998 -0.0557
 4600SOL    HW225263   0.175   0.456   3.947 -1.4466  0.0784 -1.7733
 4601SOL     OW25264   0.710   4.565  12.756  0.6165 -0.2458 -0.2417
 4601SOL    HW125265   0.687   4.653  12.784  0.5952 -0.6965  1.1630
 4601SOL    HW225266   0.727   4.530  12.844  1.2563 -1.6962 -0.9401
 4602SOL     OW25267   1.015   1.560   7.122  0.4106  0.1874  0.8276
 4602SOL    HW125268   1.030   1.469   7.097  1.7343  0.5110  0.4673
 4602SOL    HW225269   1.105   1.587   7.138  0.4690  0.5232 -0.0742
 4603SOL     OW25270   4.657   0.385   1.218 -0.2327  0.3128 -0.5967
 4603SOL    HW125271   4.652   0.480   1.231 -0.7597  0.0409  1.2332
 4603SOL    HW225272   4.704   0.356   1.296 -1.3099  2.3568  0.8217
 4604SOL     OW25273   0.116   0.570  17.583  0.1108 -0.2045 -0.4661
 4604SOL    HW125274   0.156   0.592  17.666  3.3857 -1.4762 -1.7305
 4604SOL    HW225275   0.060   0.497  17.610 -0.3628  0.7347  1.0739
 4605SOL     OW25276   0.168   1.561   7.625 -0.1620  0.2105  0.2568
 4605SOL    HW125277   0.236   1.501   7.655  1.7603  1.0224 -2.4537
 4605SOL    HW225278   0.098   1.531   7.683 -0.8270  0.4915 -0.4002
 4606SOL     OW25279   1.139   3.171   1.625 -0.6699  0.0590  0.5340
 4606SOL    HW125280   1.056   3.177   1.672 -1.2371  2.3318 -0.7423
 4606SOL    HW225281   1.106   3.117   1.553  0.6066  1.8264 -1.3777
 4607SOL     OW25282   0.967   0.504   2.895 -0.8087  0.2780  0.1672
 4607SOL    HW125283   0.980   0.572   2.828 -1.1960 -1.1097 -1.3063
 4607SOL    HW225284   1.041   0.517   2.955  0.1845  0.5955 -1.1252
 4608SOL     OW25285   0.246   0.561   6.787  0.0421  0.0305  0.6582
 4608SOL    HW125286   0.196   0.642   6.773  2.0251  1.2457  0.6878
 4608SOL    HW225287   0.244   0.545   6.692 -0.2769  0.1240  0.6474
 4609SOL     OW25288   0.444   1.952   6.828 -0.3253  0.2792  0.1487
 4609SOL    HW125289   0.524   1.992   6.794 -1.3970  2.8287  0.6024
 4609SOL    HW225290   0.481   1.875   6.870 -0.3849  1.3301  2.1315
 4610SOL     OW25291   4.454   1.178   4.069  0.0120  0.1235  0.6859
 4610SOL    HW125292   4.454   1.186   3.974  0.0151 -1.3087  0.5705
 4610SOL    HW225293   4.539   1.137   4.084  0.3002  1.0342  1.5187
 4611SOL     OW25294   1.766   2.373   0.164 -0.4210  0.5813 -0.1719
 4611SOL    HW125295   1.724   2.294   0.129 -1.8813  0.5432  1.6377
 4611SOL    HW225296   1.719   2.436   0.109 -1.9716  0.5278  1.0868
 4612SOL     OW25297   2.976   3.623   3.354 -0.3655  0.7661 -0.5505
 4612SOL    HW125298   2.936   3.702   3.318  1.8102  2.9537  1.8441
 4612SOL    HW225299   2.991   3.587   3.266  0.8611  1.2960 -0.5647
 4613SOL     OW25300   4.168   4.332   1.804  0.1522 -0.3946  0.1889
 4613SOL    HW125301   4.256   4.345   1.770  0.5026  0.7186  1.5310
 4613SOL    HW225302   4.174   4.251   1.853  0.0117 -1.0304 -0.8332
 4614SOL     OW25303   1.403   0.749   8.759  0.2848  0.0494 -0.0835
 4614SOL    HW125304   1.359   0.728   8.677  1.4831 -0.3909 -0.6143
 4614SOL    HW225305   1.492   0.768   8.728 -0.8501  1.6638 -2.2743
 4615SOL     OW25306   1.190   2.877   5.886 -0.4101 -0.2410  0.0528
 4615SOL    HW125307   1.171   2.804   5.828 -0.7353  1.1790 -1.6457
 4615SOL    HW225308   1.154   2.852   5.971  1.1869 -1.2048  0.4437
 4616SOL     OW25309   1.736   0.290   7.717  0.0565 -0.4104  0.0150
 4616SOL    HW125310   1.675   0.217   7.721 -1.8346  1.0639 -1.8242
 4616SOL    HW225311   1.817   0.250   7.748  1.7663  2.1670 -1.0593
 4617SOL     OW25312   0.608   2.892  14.850  0.5915  0.0421  0.2311
 4617SOL    HW125313   0.604   2.966  14.789 -0.3738 -0.6223 -0.5210
 4617SOL    HW225314   0.690   2.912  14.895  0.9204  0.6177 -0.6119
 4618SOL     OW25315   3.552   3.714   1.965 -0.0783 -0.2876  0.6408
 4618SOL    HW125316   3.592   3.673   1.888  0.2624  0.5832  0.3593
 4618SOL    HW225317   3.474   3.660   1.979 -0.4664 -0.5541 -2.4643
 4619SOL     OW25318   3.342   3.157  14.226  0.1255 -0.0434  0.0350
 4619SOL    HW125319   3.271   3.156  14.162  1.3227 -2.3101 -1.2806
 4619SOL    HW225320   3.312   3.224  14.287 -1.2064  0.9000 -1.6233
 4620SOL     OW25321   1.176   4.046   2.227 -0.7143  0.0984 -0.2825
 4620SOL    HW125322   1.177   3.960   2.268  0.5507 -0.0720 -0.6706
 4620SOL    HW225323   1.102   4.098   2.259 -1.6094 -1.8198  0.7538
 4621SOL     OW25324   2.554   2.569   0.424  0.4332  0.1988  0.0389
 4621SOL    HW125325   2.531   2.618   0.503  1.2881 -0.6908  0.8454
 4621SOL    HW225326   2.509   2.613   0.352  0.4399  1.1981  0.6531
 4622SOL     OW25327   0.488   4.627  12.064  0.1636 -0.3632 -0.2243
 4622SOL    HW125328   0.450   4.708  12.030  1.2072  1.1445  2.1890
 4622SOL    HW225329   0.433   4.618  12.142 -0.2751  0.2071 -0.4628
 4623SOL     OW25330   3.308   3.681   6.613 -0.4279  0.2237 -0.1091
 4623SOL    HW125331   3.362   3.607   6.585 -2.5954 -0.4037 -2.5381
 4623SOL    HW225332   3.292   3.663   6.706 -0.3607  0.3483 -0.0735
 4624SOL     OW25333   4.327   0.925   8.138  0.1795 -0.2163  0.2143
 4624SOL    HW125334   4.369   0.986   8.199  1.5139  1.0945 -1.9867
 4624SOL    HW225335   4.245   0.973   8.129  1.0012  0.3768 -4.2547
 4625SOL     OW25336   1.541   0.608   0.462 -0.0961  0.0867 -0.1333
 4625SOL    HW125337   1.580   0.677   0.409 -0.6627 -0.1749 -0.8945
 4625SOL    HW225338   1.447   0.620   0.450 -0.1658 -2.6708 -2.3337
 4626SOL     OW25339   2.995   3.151  16.117  0.0553 -0.2305  0.0465
 4626SOL    HW125340   2.906   3.151  16.151  0.1777 -0.0633  0.3746
 4626SOL    HW225341   3.016   3.231  16.069  0.6293 -0.5982 -0.3174
 4627SOL     OW25342   0.945   0.618   8.390 -0.2923  0.4751  0.3281
 4627SOL    HW125343   1.032   0.659   8.386  0.5788 -1.4934 -0.9395
 4627SOL    HW225344   0.948   0.595   8.483 -1.0669  2.0785  0.7567
 4628SOL     OW25345   1.528   0.632   3.968 -0.3361 -0.4826  0.1424
 4628SOL    HW125346   1.536   0.540   3.944  2.3653  0.2144 -1.7132
 4628SOL    HW225347   1.474   0.623   4.047 -0.3113 -0.4573  0.1623
 4629SOL     OW25348   3.756   3.549  11.422 -0.8178 -0.5938 -0.0842
 4629SOL    HW125349   3.704   3.588  11.492  1.5447 -1.5128  2.1504
 4629SOL    HW225350   3.688   3.512  11.365 -0.7613  0.2885 -0.7433
 4630SOL     OW25351   1.937   3.944   1.688 -0.0616 -0.6624  0.8436
 4630SOL    HW125352   1.869   3.949   1.621  1.2711  0.6541 -0.4256
 4630SOL    HW225353   1.901   3.998   1.758 -0.5830  2.3456 -1.7505
 4631SOL     OW25354   3.942   4.218   7.314 -0.0381 -0.4163  0.1140
 4631SOL    HW125355   3.876   4.251   7.375  0.5583 -0.6009  0.8586
 4631SOL    HW225356   3.891   4.151   7.269 -0.4503 -0.7074  1.0145
 4632SOL     OW25357   2.792   3.692   2.508 -0.3640 -0.2863 -0.4045
 4632SOL    HW125358   2.857   3.736   2.563 -2.6931  1.3591  1.0666
 4632SOL    HW225359   2.718   3.691   2.568 -0.7050 -0.1471 -0.8143
 4633SOL     OW25360   0.954   1.590   5.178 -0.1605  0.2829 -0.2684
 4633SOL    HW125361   1.006   1.567   5.101 -0.6333 -2.5166  0.2691
 4633SOL    HW225362   0.973   1.682   5.197 -0.3107  0.6041 -1.6378
 4634SOL     OW25363   3.781   3.576   6.681  0.0472  0.2074 -0.2733
 4634SOL    HW125364   3.747   3.529   6.757  1.4222  0.5805  0.5823
 4634SOL    HW225365   3.869   3.599   6.711 -0.5916  2.9646 -0.4678
 4635SOL     OW25366   1.960   1.760  10.710  0.1616  0.1068  0.1494
 4635SOL    HW125367   2.050   1.730  10.723  0.8431  1.4950 -1.3095
 4635SOL    HW225368   1.961   1.746  10.615  2.4728 -0.0788  0.1822
 4636SOL     OW25369   2.219   0.813  11.752 -0.7619 -0.1085 -0.1787
 4636SOL    HW125370   2.272   0.733  11.746  1.1493  1.1470  0.0318
 4636SOL    HW225371   2.231   0.844  11.662  1.8489  1.9095  0.8709
 4637SOL     OW25372   2.723   0.118   7.782 -0.2543  0.2423 -0.2777
 4637SOL    HW125373   2.709   0.164   7.866  2.2056  1.4403 -0.5402
 4637SOL    HW225374   2.660   0.163   7.725 -1.0778 -0.9925 -0.3397
 4638SOL     OW25375   0.635   0.776   1.714  0.4105 -0.3752  0.8202
 4638SOL    HW125376   0.644   0.870   1.702 -4.2030 -0.2787 -1.7365
 4638SOL    HW225377   0.722   0.758   1.678  0.2046  2.2014 -0.9746
 4639SOL     OW25378   2.345   1.724   0.624 -0.2717 -0.1485  0.1423
 4639SOL    HW125379   2.283   1.777   0.674  0.4617 -0.9259  1.8783
 4639SOL    HW225380   2.355   1.650   0.684  1.9841 -0.0787 -0.1410
 4640SOL     OW25381   1.961   0.960   4.009 -0.3072  0.0688  0.0906
 4640SOL    HW125382   1.903   1.021   3.962 -1.1505 -1.0102 -0.2661
 4640SOL    HW225383   1.898   0.889   4.021  0.3213  0.2345  4.1833
 4641SOL     OW25384   0.347   0.125   2.796  0.1074  0.2694  0.6301
 4641SOL    HW125385   0.404   0.177   2.739  0.7777 -0.5129  0.5877
 4641SOL    HW225386   0.410   0.089   2.858 -0.9469 -0.8813  1.0315
 4642SOL     OW25387   0.996   0.224   8.476 -0.5031 -0.9766 -0.3602
 4642SOL    HW125388   1.018   0.263   8.392 -3.0315 -0.0689 -0.6049
 4642SOL    HW225389   1.074   0.178   8.506 -0.3949 -0.5223  0.0627
 4643SOL     OW25390   4.159   0.812   5.289  0.0861  0.3818 -0.1344
 4643SOL    HW125391   4.102   0.886   5.309  0.9256  0.7990  0.6711
 4643SOL    HW225392   4.115   0.757   5.224  0.2757 -0.3661  0.3637
 4644SOL     OW25393   1.816   1.632  11.428 -0.1151 -0.1323  0.5189
 4644SOL    HW125394   1.889   1.580  11.393 -0.6053  0.6576 -1.6783
 4644SOL    HW225395   1.745   1.573  11.455  0.9956 -0.7186  2.1565
 4645SOL     OW25396   3.391   4.401   1.298 -0.4063 -0.1549 -0.4502
 4645SOL    HW125397   3.454   4.397   1.370  1.0487  1.6806 -1.6244
 4645SOL    HW225398   3.332   4.328   1.315 -0.0753 -0.6000 -1.2244
 4646SOL     OW25399   2.572   0.635   6.035  0.2592 -0.1760  0.1533
 4646SOL    HW125400   2.546   0.690   6.109  0.6427 -0.7941  0.7414
 4646SOL    HW225401   2.662   0.628   6.065 -0.0355  0.2664  1.1492
 4647SOL     OW25402   1.206   0.137  16.026  0.5295 -0.8837  0.1742
 4647SOL    HW125403   1.252   0.173  16.101 -2.4326  3.1242  0.0580
 4647SOL    HW225404   1.139   0.205  16.019  0.2087 -1.4896 -2.5358
 4648SOL     OW25405   0.795   2.663   4.917  0.8457  0.0865 -0.0139
 4648SOL    HW125406   0.865   2.666   4.851  1.9416 -2.2201  1.0524
 4648SOL    HW225407   0.778   2.753   4.946  2.1709  0.8857 -1.6776
 4649SOL     OW25408   2.082   2.302   1.598 -0.8131 -0.5874  0.0937
 4649SOL    HW125409   2.010   2.266   1.545 -0.5354  0.6773 -1.1281
 4649SOL    HW225410   2.099   2.225   1.653 -2.9982 -0.8772  0.3734
 4650SOL     OW25411   2.038   1.494   3.735 -0.8766  0.0344 -0.3309
 4650SOL    HW125412   1.995   1.579   3.725 -2.5285 -0.8060 -0.3326
 4650SOL    HW225413   2.002   1.438   3.666 -0.3078 -0.3647 -0.3024
 4651SOL     OW25414   0.764   0.352  13.247  0.2938  0.4259  0.1408
 4651SOL    HW125415   0.759   0.424  13.310  0.4997 -1.4782  2.3699
 4651SOL    HW225416   0.740   0.272  13.294  0.1653 -0.0959 -0.8191
 4652SOL     OW25417   2.351   1.864   8.146  0.2622 -0.0579 -0.3435
 4652SOL    HW125418   2.300   1.865   8.065  3.6145  1.5029 -2.4224
 4652SOL    HW225419   2.349   1.775   8.182 -1.3146  0.5026  0.9864
 4653SOL     OW25420   1.874   3.911   2.125 -0.1390  0.0856  0.3350
 4653SOL    HW125421   1.857   3.954   2.041 -0.7817  1.2320  1.0545
 4653SOL    HW225422   1.969   3.910   2.123 -0.1554 -0.4043 -0.1068
 4654SOL     OW25423   4.069   2.629   3.901 -0.3161 -0.1010  0.2397
 4654SOL    HW125424   4.154   2.630   3.946  0.6594 -0.0333 -1.5990
 4654SOL    HW225425   4.043   2.537   3.908 -1.0610 -0.0046 -1.3114
 4655SOL     OW25426   2.217   2.572  17.600  0.1698 -0.4275  0.4400
 4655SOL    HW125427   2.289   2.510  17.612  1.1129  0.6462  0.3393
 4655SOL    HW225428   2.247   2.640  17.540 -0.1426 -0.6854 -0.0063
 4656SOL     OW25429   3.844   0.569   5.890  0.4865  0.8799 -0.4489
 4656SOL    HW125430   3.813   0.543   5.977  2.3368  0.5843  0.1197
 4656SOL    HW225431   3.760   0.599   5.857  0.2755  0.3833 -0.3669
 4657SOL     OW25432   3.430   0.631   2.541  0.2627  0.1016  0.3742
 4657SOL    HW125433   3.517   0.671   2.536 -0.4029  1.4498 -0.3025
 4657SOL    HW225434   3.416   0.610   2.633 -1.0087  0.0668  0.1655
 4658SOL     OW25435   1.348   2.000   4.977  0.2045 -0.6289 -0.3555
 4658SOL    HW125436   1.346   1.962   4.889 -0.4717  0.9019 -0.9935
 4658SOL    HW225437   1.262   2.041   4.989  0.1375 -0.5427 -1.0954
 4659SOL     OW25438   3.533   1.605   0.766  0.1338 -0.1870 -0.2084
 4659SOL    HW125439   3.492   1.539   0.821  0.6770 -0.9233 -0.7015
 4659SOL    HW225440   3.478   1.601   0.688 -0.3969 -0.6237  0.1936
 4660SOL     OW25441   3.206   2.943  10.425  0.5673  0.6635 -0.2388
 4660SOL    HW125442   3.152   3.009  10.382 -1.1470  0.7351  2.0512
 4660SOL    HW225443   3.289   2.990  10.432  0.1465  1.3666 -0.0536
 4661SOL     OW25444   3.742   2.115   9.140  0.2068  0.2410  0.4161
 4661SOL    HW125445   3.725   2.032   9.185  0.1312 -0.5266 -1.0271
 4661SOL    HW225446   3.817   2.150   9.186  1.1593  1.9157 -2.4333
 4662SOL     OW25447   4.307   1.841   5.532  0.3373  0.5318 -0.2890
 4662SOL    HW125448   4.396   1.839   5.498  0.0323 -1.5283 -0.9169
 4662SOL    HW225449   4.334   1.875   5.617 -1.4159 -0.5073  0.6724
 4663SOL     OW25450   2.002   0.814   3.359  0.0136  0.2906  1.0174
 4663SOL    HW125451   1.982   0.736   3.411 -0.6524  0.8151  1.5522
 4663SOL    HW225452   1.919   0.800   3.314  0.0146  0.8507  0.8414
 4664SOL     OW25453   1.873   3.135  11.683 -0.3876 -0.0520  0.0657
 4664SOL    HW125454   1.882   3.101  11.594  1.2008 -1.6856  0.8444
 4664SOL    HW225455   1.911   3.221  11.669 -1.1324  0.0231 -1.5519
 4665SOL     OW25456   2.479   2.551   2.505  0.2694 -0.6025  0.0630
 4665SOL    HW125457   2.446   2.464   2.525  0.0356 -1.0670 -2.2723
 4665SOL    HW225458   2.393   2.583   2.480 -0.1422 -1.0692  0.8969
 4666SOL     OW25459   3.783   2.953   0.241  0.2674  0.5282 -0.2880
 4666SOL    HW125460   3.707   2.981   0.292  0.8500  0.0983  0.8140
 4666SOL    HW225461   3.849   2.996   0.295  1.1197  0.1701 -1.0377
 4667SOL     OW25462   0.236   2.473  13.105 -0.5508  0.1756  0.1283
 4667SOL    HW125463   0.152   2.486  13.062  1.0313  1.4424 -2.6000
 4667SOL    HW225464   0.241   2.377  13.113  2.4005  0.5973  3.1479
 4668SOL     OW25465   4.049   4.706  16.804 -0.4175 -0.5800  0.0488
 4668SOL    HW125466   3.992   4.657  16.863 -0.7259  0.8968  0.9899
 4668SOL    HW225467   3.990   0.040  16.757  2.2379  1.7559 -0.3871
 4669SOL     OW25468   2.800   3.458   3.946  0.3243 -0.6000  0.0209
 4669SOL    HW125469   2.893   3.476   3.963  0.5060 -0.1623 -1.3789
 4669SOL    HW225470   2.766   3.485   4.031 -0.5419 -2.5369  0.2911
 4670SOL     OW25471   3.313   0.679   3.378  0.0353  0.2434 -0.3156
 4670SOL    HW125472   3.297   0.601   3.431 -0.3405  0.4037 -0.1959
 4670SOL    HW225473   3.223   0.703   3.360 -0.1750 -0.9014 -0.8050
 4671SOL     OW25474   0.121   2.785   3.833 -1.0473  0.3356 -0.0901
 4671SOL    HW125475   0.174   2.801   3.755  0.9459  0.1566  1.2355
 4671SOL    HW225476   0.161   2.714   3.882 -2.0631  1.3601  2.2251
 4672SOL     OW25477   0.401   1.335  13.612  0.1142 -0.0073  0.1219
 4672SOL    HW125478   0.308   1.327  13.631 -0.2370 -0.3029 -1.6632
 4672SOL    HW225479   0.432   1.302  13.696  0.0170  1.3462  0.6871
 4673SOL     OW25480   2.549   1.159   5.328  0.4457  0.3846 -0.1791
 4673SOL    HW125481   2.514   1.219   5.394 -2.4204  0.6349 -1.9139
 4673SOL    HW225482   2.635   1.153   5.371  0.3351  0.9568  0.1195
 4674SOL     OW25483   1.580   1.770   8.523  0.2516  0.1409  0.5784
 4674SOL    HW125484   1.593   1.790   8.616 -2.1321 -1.6875  1.2826
 4674SOL    HW225485   1.671   1.762   8.493  0.6353 -1.5894  2.2371
 4675SOL     OW25486   1.940   1.729   3.549 -0.2044  0.0248  0.2749
 4675SOL    HW125487   1.900   1.801   3.501  1.3685 -0.7921 -2.2498
 4675SOL    HW225488   1.870   1.665   3.534 -0.7347  1.0365 -1.5504
 4676SOL     OW25489   0.742   2.037   8.274 -0.0488  0.5367 -0.3023
 4676SOL    HW125490   0.756   2.118   8.225  0.2657 -0.2503 -1.5145
 4676SOL    HW225491   0.812   1.983   8.237 -0.0696 -0.1221  0.6041
 4677SOL     OW25492   2.597   1.063   4.919 -0.0107  0.2248  0.4398
 4677SOL    HW125493   2.506   1.049   4.892  1.3545 -0.9464 -3.6716
 4677SOL    HW225494   2.622   1.128   4.854 -2.2516 -0.1434 -0.7962
 4678SOL     OW25495   0.246   0.991   8.980 -0.0474  0.2926  0.1382
 4678SOL    HW125496   0.171   0.984   8.921 -0.1397 -1.1615  0.4423
 4678SOL    HW225497   0.274   0.902   8.999  0.7494  0.4296 -0.3881
 4679SOL     OW25498   1.804   2.742  10.510 -0.4314  0.4407 -0.0317
 4679SOL    HW125499   1.787   2.834  10.532 -0.3045 -0.0016  1.9489
 4679SOL    HW225500   1.721   2.708  10.543  1.3998 -3.2665  0.7100
 4680SOL     OW25501   3.545   2.542  14.367  0.5636 -0.1937 -0.7286
 4680SOL    HW125502   3.622   2.494  14.397 -0.2321 -1.2465 -0.3952
 4680SOL    HW225503   3.579   2.626  14.336  0.9092 -0.5206 -1.2304
 4681SOL     OW25504   2.383   1.878   1.626 -0.2365 -0.1496  0.1150
 4681SOL    HW125505   2.392   1.805   1.687 -1.7025 -0.7286 -0.3606
 4681SOL    HW225506   2.400   1.830   1.545  0.8425  0.0430  0.2290
 4682SOL     OW25507   3.002   3.676   8.700  0.1137  0.5601 -0.2727
 4682SOL    HW125508   2.955   3.646   8.622 -1.8456 -0.7036  1.3872
 4682SOL    HW225509   2.981   3.605   8.761  1.6017  0.6085  0.2917
 4683SOL     OW25510   0.202   4.661   7.101  0.2315  0.5892  0.5620
 4683SOL    HW125511   0.231   4.663   7.009  0.1014 -2.4434  0.4759
 4683SOL    HW225512   0.259   4.599   7.146 -0.4243 -0.8049 -0.5475
 4684SOL     OW25513   1.467   1.468   9.430  0.4604  0.1428  0.0458
 4684SOL    HW125514   1.453   1.543   9.372  0.9220 -1.1002 -1.6748
 4684SOL    HW225515   1.414   1.402   9.384 -0.2174 -0.1015  1.1883
 4685SOL     OW25516   4.082   3.635   8.633  0.4453 -0.3161  0.0648
 4685SOL    HW125517   4.035   3.602   8.556 -0.4787  0.6613  0.2085
 4685SOL    HW225518   4.038   3.720   8.641  0.5871 -0.2641  0.2872
 4686SOL     OW25519   1.105   1.227   0.390 -0.2437 -0.1573  0.2461
 4686SOL    HW125520   1.173   1.171   0.428  1.7782  0.2871 -2.6665
 4686SOL    HW225521   1.155   1.276   0.325  0.0456 -1.4664 -0.5344
 4687SOL     OW25522   2.518   4.678   3.371 -0.2865 -0.2157 -0.2078
 4687SOL    HW125523   2.574   4.602   3.361  0.9127  0.6375 -0.0836
 4687SOL    HW225524   2.469   4.683   3.289 -0.7667  1.9565  0.1920
 4688SOL     OW25525   4.082   4.606   3.637  0.0142  0.7233  0.0560
 4688SOL    HW125526   3.990   4.632   3.641 -0.6695 -1.6290 -0.2359
 4688SOL    HW225527   4.091   4.583   3.729  2.7329 -2.0647 -0.8996
 4689SOL     OW25528   2.815   1.294   2.697  0.0948 -0.0511 -0.3618
 4689SOL    HW125529   2.895   1.270   2.744 -1.2434 -0.3999  1.7511
 4689SOL    HW225530   2.847   1.294   2.607 -1.3255  1.1905 -0.8616
 4690SOL     OW25531   0.048   1.085  10.393 -0.6177  0.1931 -0.1315
 4690SOL    HW125532   0.042   1.000  10.437 -0.6245  0.0922 -0.3263
 4690SOL    HW225533   4.680   1.104  10.377 -0.2719  2.7646  0.8111
 4691SOL     OW25534   3.252   1.447   3.498  0.0407 -0.2864  0.3623
 4691SOL    HW125535   3.193   1.486   3.433  1.7622  2.0593  0.2118
 4691SOL    HW225536   3.266   1.509   3.569  1.2414 -1.2423  0.9440
 4692SOL     OW25537   3.205   4.218   2.381  0.5409 -0.2117  0.5285
 4692SOL    HW125538   3.220   4.276   2.456 -0.2583  2.1471 -1.1485
 4692SOL    HW225539   3.199   4.283   2.312 -1.0309 -2.0358 -1.0256
 4693SOL     OW25540   1.361   2.193   8.881  0.4428 -0.2022 -0.1604
 4693SOL    HW125541   1.280   2.198   8.830 -0.8282 -2.3139  1.6708
 4693SOL    HW225542   1.329   2.200   8.971 -1.8336  0.0151 -0.9725
 4694SOL     OW25543   4.698   1.150   5.450  0.1087 -0.6747  0.5316
 4694SOL    HW125544   0.031   1.137   5.375 -0.0258  0.6458  0.1901
 4694SOL    HW225545   4.661   1.062   5.457  0.9213 -1.1627 -1.3708
 4695SOL     OW25546   0.569   3.751   7.215  0.0873 -0.4138  0.9034
 4695SOL    HW125547   0.577   3.707   7.130  0.2445  1.3939 -0.0214
 4695SOL    HW225548   0.490   3.709   7.249 -1.3673  1.0356 -0.6823
 4696SOL     OW25549   4.187   0.628  13.363  0.6346  0.0325  0.0112
 4696SOL    HW125550   4.125   0.556  13.359 -0.5432  1.0864 -0.8553
 4696SOL    HW225551   4.125   0.697  13.337 -0.7382 -0.5862  1.6135
 4697SOL     OW25552   1.078   0.517   5.954 -0.6280 -0.4256 -0.1001
 4697SOL    HW125553   1.002   0.544   6.006  0.8008  1.2188  1.1175
 4697SOL    HW225554   1.154   0.556   5.998 -0.7670 -0.1071 -0.1407
 4698SOL     OW25555   2.932   0.712   1.911 -0.2537 -0.2427  0.3059
 4698SOL    HW125556   2.972   0.768   1.845  2.5228 -1.9252  0.5741
 4698SOL    HW225557   2.908   0.640   1.854 -0.8401  1.1943 -1.2543
 4699SOL     OW25558   1.563   1.496   7.901 -0.3685  0.5764 -0.4951
 4699SOL    HW125559   1.521   1.556   7.839 -1.1291 -0.6135 -1.1300
 4699SOL    HW225560   1.655   1.514   7.881 -0.5279  0.9569 -0.9034
 4700SOL     OW25561   1.897   0.697  16.733  0.9528 -0.2687  0.0131
 4700SOL    HW125562   1.832   0.700  16.803 -1.3317  1.4279 -2.2034
 4700SOL    HW225563   1.857   0.749  16.664 -0.1620 -2.9549 -1.3833
 4701SOL     OW25564   0.416   1.801   7.513  0.4555 -0.0572 -0.2938
 4701SOL    HW125565   0.479   1.733   7.489  0.3671  0.5634 -2.2468
 4701SOL    HW225566   0.454   1.877   7.470  3.0398 -1.7845 -1.0566
 4702SOL     OW25567   1.331   3.488  15.953  0.4008 -0.1724  0.0970
 4702SOL    HW125568   1.330   3.570  16.002 -2.2028 -0.5497  0.6458
 4702SOL    HW225569   1.248   3.501  15.909  0.4881  0.9016  0.2425
 4703SOL     OW25570   0.381   0.976   8.027 -0.3292  0.2375 -0.1282
 4703SOL    HW125571   0.427   1.060   8.036 -0.7589  0.2792  1.5737
 4703SOL    HW225572   0.454   0.915   8.035  0.1079  0.6051 -1.3704
 4704SOL     OW25573   0.204   1.463  11.032 -0.2854 -0.2598 -0.3340
 4704SOL    HW125574   0.247   1.397  10.978  0.2125 -1.0371  0.9935
 4704SOL    HW225575   0.159   1.415  11.102 -0.9614 -2.1514 -2.0825
 4705SOL     OW25576   0.763   1.349   8.145  0.2511 -0.4251  0.9315
 4705SOL    HW125577   0.858   1.337   8.155 -0.0038 -3.8489 -0.9086
 4705SOL    HW225578   0.733   1.296   8.218 -1.2051  1.3398  1.6166
 4706SOL     OW25579   0.934   4.053   7.172 -0.0849  0.0256 -0.2009
 4706SOL    HW125580   0.843   4.070   7.196 -0.2817  0.4217 -1.2570
 4706SOL    HW225581   0.985   4.080   7.249  1.0377 -1.7081 -0.3402
 4707SOL     OW25582   4.420   1.815   1.745  0.6584  0.3197  0.0274
 4707SOL    HW125583   4.456   1.743   1.693  1.2049  0.9091 -0.4040
 4707SOL    HW225584   4.397   1.885   1.683 -0.7903  0.7632  1.0708
 4708SOL     OW25585   1.662   2.197   1.533  0.5991  0.4775 -0.4320
 4708SOL    HW125586   1.657   2.291   1.519  0.8574  0.6658  0.6857
 4708SOL    HW225587   1.674   2.196   1.628  0.5686  0.9255 -0.4257
 4709SOL     OW25588   2.465   2.497   8.726  0.6149  0.1396 -0.4038
 4709SOL    HW125589   2.537   2.517   8.667  0.7575  1.7214  0.2935
 4709SOL    HW225590   2.495   2.527   8.812  0.1167  0.0625 -0.1999
 4710SOL     OW25591   2.920   4.149  17.052 -0.0658  0.2343 -0.1136
 4710SOL    HW125592   2.985   4.205  17.010  0.7942 -1.4388 -1.0033
 4710SOL    HW225593   2.974   4.083  17.095 -0.5366  0.5728  0.9981
 4711SOL     OW25594   2.947   2.119   8.416  0.4318  0.5654 -0.0808
 4711SOL    HW125595   2.894   2.166   8.481 -1.8288 -1.0989 -0.7204
 4711SOL    HW225596   2.917   2.175   8.344  0.4238 -0.5035 -0.9071
 4712SOL     OW25597   2.196   0.316   8.780 -0.0306 -0.0809  0.3156
 4712SOL    HW125598   2.208   0.406   8.750  0.1012  0.7042  2.6677
 4712SOL    HW225599   2.123   0.329   8.841  0.0145 -1.4188  0.6520
 4713SOL     OW25600   2.165   0.623  16.014 -0.1648  0.1224  0.3097
 4713SOL    HW125601   2.166   0.538  16.058 -2.3592 -0.1874 -0.2753
 4713SOL    HW225602   2.194   0.679  16.086  1.6760  1.3358 -1.3735
 4714SOL     OW25603   3.335   3.441   6.062  0.4912  0.8823 -0.2043
 4714SOL    HW125604   3.259   3.474   6.012  0.9778  0.8885 -0.9374
 4714SOL    HW225605   3.320   3.475   6.150 -2.3756 -1.6288  0.2881
 4715SOL     OW25606   3.991   3.325   2.589 -0.0002  0.1081  0.0663
 4715SOL    HW125607   3.979   3.280   2.505 -0.3333 -0.4733  0.4274
 4715SOL    HW225608   3.997   3.255   2.654 -0.3436 -0.1232 -0.1515
 4716SOL     OW25609   3.539   3.988   4.554 -0.2601 -0.2171 -0.2955
 4716SOL    HW125610   3.532   4.033   4.470 -1.3388  1.9872  0.9783
 4716SOL    HW225611   3.608   4.036   4.601  2.1382 -2.8207 -1.1624
 4717SOL     OW25612   2.001   2.837   4.787  0.0596  0.1110  0.0672
 4717SOL    HW125613   2.015   2.776   4.859 -1.5035 -0.2352  0.0824
 4717SOL    HW225614   2.056   2.908   4.821  1.7024 -0.2421 -1.8557
 4718SOL     OW25615   3.070   0.982   7.609  0.2665 -0.4164 -0.1378
 4718SOL    HW125616   3.080   1.028   7.693  0.5615 -2.6355  1.0194
 4718SOL    HW225617   3.019   1.045   7.557 -0.1683 -1.1512 -0.5951
 4719SOL     OW25618   3.533   0.126  16.001 -0.2041 -0.3223  1.0121
 4719SOL    HW125619   3.605   0.067  16.025  0.7242 -0.7863 -2.9170
 4719SOL    HW225620   3.559   0.162  15.916 -1.4651  1.0685  1.2266
 4720SOL     OW25621   2.567   4.043   4.525  0.4603 -0.0700  0.0376
 4720SOL    HW125622   2.490   4.078   4.570 -1.2071 -1.3307 -1.8813
 4720SOL    HW225623   2.631   4.111   4.549  0.8423 -0.5464  0.3665
 4721SOL     OW25624   0.930   2.503  12.526  0.8249 -0.4547 -0.7427
 4721SOL    HW125625   0.969   2.425  12.565  0.7613 -0.6909 -1.1553
 4721SOL    HW225626   0.963   2.573  12.583 -2.6037  1.8548 -1.6025
 4722SOL     OW25627   0.499   1.055   0.651 -0.2121  0.1725  0.6131
 4722SOL    HW125628   0.493   1.122   0.583  0.7238  0.5448  0.8977
 4722SOL    HW225629   0.500   1.099   0.737  0.1079  0.4736  0.4537
 4723SOL     OW25630   0.310   1.690  16.173 -0.3719  0.3171  0.0050
 4723SOL    HW125631   0.356   1.639  16.106  0.7500  0.8691  0.3576
 4723SOL    HW225632   0.318   1.631  16.248  1.0585  0.5393  0.0120
 4724SOL     OW25633   0.451   4.417   6.712 -0.2484 -0.7945  0.2735
 4724SOL    HW125634   0.391   4.361   6.760 -0.9331  0.6135  1.0595
 4724SOL    HW225635   0.501   4.448   6.787  0.0889  1.1651 -0.7554
 4725SOL     OW25636   0.816   4.719   8.507 -0.0039 -0.4012  0.1138
 4725SOL    HW125637   0.821   0.001   8.603  2.1055 -1.7743  0.1015
 4725SOL    HW225638   0.868   0.069   8.475 -2.4374  0.8324 -0.9847
 4726SOL     OW25639   0.980   0.779  16.745 -0.3404 -1.1274  0.3839
 4726SOL    HW125640   0.950   0.742  16.828  1.0689 -0.0608  1.3624
 4726SOL    HW225641   0.981   0.708  16.681 -0.6142 -1.5222  0.8121
 4727SOL     OW25642   2.902   1.456   0.151 -0.4489 -0.1766 -0.1204
 4727SOL    HW125643   2.976   1.397   0.138  1.6245  2.2287  0.6535
 4727SOL    HW225644   2.833   1.393   0.171 -1.8519  1.4775  0.3079
 4728SOL     OW25645   1.753   1.107  13.934  0.1372  0.4994 -0.1668
 4728SOL    HW125646   1.669   1.111  13.981 -0.0752 -0.4598 -0.4658
 4728SOL    HW225647   1.722   1.090  13.845 -1.7781 -0.8997  0.7489
 4729SOL     OW25648   3.508   2.080  17.540 -0.1915  0.4330  0.0747
 4729SOL    HW125649   3.450   2.017  17.582  0.1701 -1.3348 -2.1243
 4729SOL    HW225650   3.443   2.110  17.477 -0.8316 -1.8444 -0.3513
 4730SOL     OW25651   3.559   3.031   1.259 -0.1779 -0.1431 -0.2393
 4730SOL    HW125652   3.502   2.970   1.305  0.1767 -0.4820 -0.2552
 4730SOL    HW225653   3.497   3.104   1.268 -1.2642 -0.9329 -1.4351
 4731SOL     OW25654   0.186   1.751   4.979  0.1652  0.6204  0.4542
 4731SOL    HW125655   0.208   1.692   5.051  1.0006 -2.1580 -2.0826
 4731SOL    HW225656   0.100   1.715   4.955  0.4101  0.5450 -0.3375
 4732SOL     OW25657   2.082   2.682   2.981 -0.7233  0.0627 -0.3945
 4732SOL    HW125658   2.026   2.675   3.059 -0.0100  2.5485  0.3268
 4732SOL    HW225659   2.172   2.688   3.014 -0.0947  1.2446 -2.3310
 4733SOL     OW25660   4.157   3.353   6.770 -0.3198  0.1932  0.1232
 4733SOL    HW125661   4.108   3.434   6.785 -2.5093 -0.8755 -1.2914
 4733SOL    HW225662   4.115   3.324   6.689  1.7271  1.0809 -1.2468
 4734SOL     OW25663   1.333   1.919  12.376 -0.4068 -0.4338 -0.3688
 4734SOL    HW125664   1.348   1.829  12.348 -3.0434 -1.0442  0.1999
 4734SOL    HW225665   1.384   1.955  12.304 -0.6592  1.0458  0.1807
 4735SOL     OW25666   1.577   1.133   8.806 -0.2745 -0.1377  0.0230
 4735SOL    HW125667   1.643   1.202   8.816  0.1165 -0.4078 -0.7225
 4735SOL    HW225668   1.595   1.089   8.889  0.6635  0.0351 -0.0860
 4736SOL     OW25669   1.677   0.119  11.894  0.2099 -0.1443  0.0203
 4736SOL    HW125670   1.760   0.113  11.941  1.9212  2.0294 -2.6845
 4736SOL    HW225671   1.690   0.176  11.818  1.6458  0.9692  1.1164
 4737SOL     OW25672   2.578   1.703   7.694 -0.0909 -0.2280  0.3622
 4737SOL    HW125673   2.501   1.647   7.689  0.9374 -1.7432  1.5642
 4737SOL    HW225674   2.547   1.780   7.741  2.2499  1.1534 -0.3323
 4738SOL     OW25675   2.765   1.729  10.278 -0.0999 -0.1768 -0.4403
 4738SOL    HW125676   2.774   1.700  10.187 -2.8546 -1.2317 -0.3671
 4738SOL    HW225677   2.754   1.640  10.314 -2.8930  0.0270 -0.7639
 4739SOL     OW25678   3.351   2.890   2.590 -0.8068 -0.2976  0.1792
 4739SOL    HW125679   3.393   2.812   2.554  2.0054  0.6960  1.3052
 4739SOL    HW225680   3.269   2.854   2.623 -1.0397  0.6214  0.6058
 4740SOL     OW25681   0.786   0.723   6.023 -0.0449 -0.9136 -0.4367
 4740SOL    HW125682   0.698   0.687   6.033  0.9811 -3.6156 -1.3227
 4740SOL    HW225683   0.777   0.782   5.947 -1.3841  0.9410  1.1415
 4741SOL     OW25684   0.658   0.844   5.783  0.4348  0.1619  0.9180
 4741SOL    HW125685   0.698   0.778   5.727 -0.9853  0.9142 -0.9605
 4741SOL    HW225686   0.566   0.824   5.769  0.9906 -1.4975 -0.3550
 4742SOL     OW25687   2.105   2.524   4.946  0.3938 -0.0572  0.3700
 4742SOL    HW125688   2.115   2.497   4.855  1.3573 -0.0706  0.4891
 4742SOL    HW225689   2.009   2.527   4.943  0.4238  1.1433  0.6409
 4743SOL     OW25690   2.936   1.321   8.455 -0.1754 -0.3942 -0.1841
 4743SOL    HW125691   2.872   1.377   8.498  2.4118  2.7613 -0.4663
 4743SOL    HW225692   2.881   1.268   8.397 -0.6721 -1.3087  1.1316
 4744SOL     OW25693   0.634   1.924   3.362 -0.0258 -0.1492  0.1464
 4744SOL    HW125694   0.712   1.978   3.372 -0.7560  1.0783 -0.7126
 4744SOL    HW225695   0.580   1.962   3.432 -2.2631  0.4852 -1.9062
 4745SOL     OW25696   0.493   0.808   7.000 -0.0648 -0.2286  0.3839
 4745SOL    HW125697   0.487   0.903   6.989 -0.9170 -0.5010 -1.4331
 4745SOL    HW225698   0.423   0.777   7.058 -0.8297 -0.2969 -0.5831
 4746SOL     OW25699   3.600   3.873   3.366  0.0421 -0.1754  0.4970
 4746SOL    HW125700   3.586   3.785   3.333  0.8429  0.4406 -1.4825
 4746SOL    HW225701   3.537   3.930   3.322  0.9440 -0.0802 -0.6644
 4747SOL     OW25702   1.027   3.553   4.819  0.0321 -0.1007  0.0242
 4747SOL    HW125703   0.932   3.548   4.831  0.0383 -0.4227 -0.0621
 4747SOL    HW225704   1.036   3.581   4.728 -0.0383  0.7061  0.2689
 4748SOL     OW25705   2.134   4.623   6.874  0.1907  0.4295  0.3027
 4748SOL    HW125706   2.171   4.604   6.961 -0.0176 -0.9775  0.0743
 4748SOL    HW225707   2.062   4.669   6.917  0.4655 -0.2445  1.4842
 4749SOL     OW25708   2.065   1.411   9.631  0.1352 -0.2322 -0.2879
 4749SOL    HW125709   2.049   1.505   9.633 -2.0641 -0.6096 -0.5852
 4749SOL    HW225710   2.021   1.384   9.551 -0.1313 -1.0087  0.1285
 4750SOL     OW25711   0.618   0.743   9.558  0.2661 -0.1369 -0.1203
 4750SOL    HW125712   0.631   0.832   9.525  1.4718  0.0658  0.8782
 4750SOL    HW225713   0.532   0.753   9.598  0.7540  2.7243  0.2085
 4751SOL     OW25714   3.227   3.631  13.818 -0.5785 -0.5052 -0.1404
 4751SOL    HW125715   3.222   3.684  13.738  1.0227  0.3759  0.3426
 4751SOL    HW225716   3.284   3.690  13.868 -0.8347  1.0752 -1.6979
 4752SOL     OW25717   2.102   1.348   4.692 -0.5564  0.8139 -0.0988
 4752SOL    HW125718   2.127   1.439   4.705  2.7569 -0.1273 -0.1036
 4752SOL    HW225719   2.145   1.335   4.607 -1.1020 -1.3793 -0.0481
 4753SOL     OW25720   1.333   3.104   7.454 -0.4032 -0.3055 -0.0374
 4753SOL    HW125721   1.260   3.069   7.506 -0.4891 -0.3656 -0.1974
 4753SOL    HW225722   1.334   3.196   7.479 -1.5298 -0.5240  0.8242
 4754SOL     OW25723   1.713   1.193   2.391  1.2617  0.3307  0.2524
 4754SOL    HW125724   1.748   1.267   2.342  0.2897  0.1963 -0.6527
 4754SOL    HW225725   1.738   1.124   2.330 -1.9297 -0.2269 -0.4097
 4755SOL     OW25726   3.751   1.315  10.324  0.2833 -0.2206 -0.3375
 4755SOL    HW125727   3.692   1.251  10.286  0.7395 -1.4298  0.9668
 4755SOL    HW225728   3.729   1.300  10.416 -1.7172 -0.2116 -0.8106
 4756SOL     OW25729   0.279   4.237  15.123  0.7793  0.5088 -0.3114
 4756SOL    HW125730   0.350   4.244  15.060  0.9999 -0.3899 -0.1653
 4756SOL    HW225731   0.330   4.242  15.204 -0.9672 -0.1193  0.8569
 4757SOL     OW25732   2.839   0.784   6.062 -0.2567 -0.6623 -0.3092
 4757SOL    HW125733   2.827   0.879   6.059 -0.3472 -0.6383  0.6229
 4757SOL    HW225734   2.872   0.763   5.975  0.2482 -0.5610 -0.1437
 4758SOL     OW25735   0.544   2.515   6.800  0.3238  0.4654  0.5412
 4758SOL    HW125736   0.578   2.591   6.848 -1.1138  1.7768 -0.5254
 4758SOL    HW225737   0.482   2.556   6.739  0.3086 -0.8765 -0.3415
 4759SOL     OW25738   3.387   0.732   9.962 -0.7932  0.2192  0.5000
 4759SOL    HW125739   3.383   0.662   9.897  1.0410 -0.6580  1.3622
 4759SOL    HW225740   3.368   0.683  10.042 -1.1163  0.5394  0.6220
 4760SOL     OW25741   3.120   1.849  12.281 -0.2137 -0.3185 -0.1531
 4760SOL    HW125742   3.067   1.770  12.276  0.3127 -0.7905  1.7680
 4760SOL    HW225743   3.200   1.805  12.252  1.5465  2.3025  0.7025
 4761SOL     OW25744   4.034   2.588  14.947  0.0800  0.4359  0.2037
 4761SOL    HW125745   4.116   2.586  14.996 -0.0251 -0.9280  0.3101
 4761SOL    HW225746   4.070   2.545  14.869  0.8309 -0.4023  1.0221
 4762SOL     OW25747   4.096   4.595   4.169 -0.1916  0.0516 -0.0604
 4762SOL    HW125748   4.175   4.580   4.221  0.4360  3.0187 -0.1333
 4762SOL    HW225749   4.027   4.553   4.220  1.0133 -3.1112 -1.0731
 4763SOL     OW25750   1.708   2.677  10.885  0.3172  0.7193 -0.4263
 4763SOL    HW125751   1.769   2.751  10.886 -0.5787  1.4593  0.1414
 4763SOL    HW225752   1.626   2.727  10.894 -0.1612  0.0237 -0.9471
 4764SOL     OW25753   4.141   3.621   7.853  0.1370  0.1184 -0.3290
 4764SOL    HW125754   4.126   3.713   7.872  3.0401  0.5956 -0.4718
 4764SOL    HW225755   4.139   3.623   7.757  1.8352 -0.3058 -0.3653
 4765SOL     OW25756   0.256   0.748   6.302  0.4030  0.2801  0.1811
 4765SOL    HW125757   0.229   0.828   6.256 -3.6369 -1.2968 -0.1752
 4765SOL    HW225758   0.333   0.778   6.351  0.2253  0.9983  0.0293
 4766SOL     OW25759   0.226   1.117  15.417  0.0944  0.0902  0.3123
 4766SOL    HW125760   0.205   1.197  15.370 -1.3952 -0.4088  0.1134
 4766SOL    HW225761   0.138   1.080  15.420  0.2512 -0.5370 -2.2268
 4767SOL     OW25762   1.006   3.352   2.457  0.4011  0.1383 -0.5227
 4767SOL    HW125763   1.002   3.418   2.388  0.3817 -0.0574 -0.7090
 4767SOL    HW225764   0.922   3.306   2.453 -0.6627  2.0133  0.1674
 4768SOL     OW25765   1.547   4.370   5.316  0.3380  0.7725 -0.2630
 4768SOL    HW125766   1.561   4.275   5.317  2.3810  1.0949  1.6186
 4768SOL    HW225767   1.503   4.382   5.233  1.7855 -0.9993 -1.2972
 4769SOL     OW25768   3.714   2.412   8.100 -0.3304  0.2896  0.0088
 4769SOL    HW125769   3.749   2.340   8.048  0.1537  0.0035  0.7275
 4769SOL    HW225770   3.659   2.356   8.155 -1.7278  1.0432 -0.6346
 4770SOL     OW25771   3.325   2.829   2.309 -0.6866 -0.1981  0.3675
 4770SOL    HW125772   3.295   2.884   2.382 -2.1596  0.3406 -0.6488
 4770SOL    HW225773   3.239   2.826   2.267  0.3705 -1.1626 -1.7376
 4771SOL     OW25774   3.594   3.084  14.135 -0.1990 -0.5510 -0.2644
 4771SOL    HW125775   3.558   2.997  14.118 -0.6337 -0.6045  0.9206
 4771SOL    HW225776   3.517   3.124  14.177 -0.2847 -1.1214  0.1168
 4772SOL     OW25777   0.777   4.602   6.799  0.0685 -0.1779 -0.1741
 4772SOL    HW125778   0.769   4.697   6.791  1.4778 -0.1919 -1.8911
 4772SOL    HW225779   0.859   4.596   6.848  0.1926 -0.4186 -0.4081
 4773SOL     OW25780   1.855   3.389  14.086  0.5176  0.1019  0.6992
 4773SOL    HW125781   1.820   3.322  14.145 -0.6262  1.0315  1.0711
 4773SOL    HW225782   1.779   3.447  14.083  0.1502 -0.3584  1.1062
 4774SOL     OW25783   0.074   2.190  13.350  0.8592 -0.1869  0.3353
 4774SOL    HW125784   0.021   2.261  13.313  1.1971 -0.5840 -0.8991
 4774SOL    HW225785   0.021   2.152  13.421  0.5090 -1.0488 -0.3978
 4775SOL     OW25786   2.812   2.927   7.428  0.2631  0.2612  0.2116
 4775SOL    HW125787   2.739   2.876   7.463  0.3139  1.3876  1.9874
 4775SOL    HW225788   2.765   2.984   7.367  1.2333  0.1102 -0.6910
 4776SOL     OW25789   2.904   0.722   8.961  0.0466 -0.5853 -0.5420
 4776SOL    HW125790   2.997   0.719   8.940  0.7551  1.3903  2.3929
 4776SOL    HW225791   2.891   0.633   8.993  1.0129 -0.4692  0.1671
 4777SOL     OW25792   0.645   3.313  11.206 -0.2402  0.3082 -0.2281
 4777SOL    HW125793   0.623   3.396  11.165 -1.1888 -0.2232 -0.8065
 4777SOL    HW225794   0.646   3.325  11.301  2.9238  1.2150 -0.3768
 4778SOL     OW25795   0.359   2.830   3.351 -0.3046 -0.0467 -0.0776
 4778SOL    HW125796   0.408   2.896   3.303 -0.4012 -1.7896 -2.5731
 4778SOL    HW225797   0.273   2.861   3.325  0.1854 -0.3030 -1.9796
 4779SOL     OW25798   4.588   0.032  15.868 -0.4414  0.3892  0.2103
 4779SOL    HW125799   4.606   0.111  15.920 -1.7009  0.6390  0.2782
 4779SOL    HW225800   4.541   0.063  15.791 -1.0662  0.6037  0.6716
 4780SOL     OW25801   1.928   3.014   2.491 -0.1097  0.1237 -0.6411
 4780SOL    HW125802   1.846   3.059   2.511  0.2434  0.2547  0.5023
 4780SOL    HW225803   1.931   3.023   2.395 -2.7778  2.8624 -0.4576
 4781SOL     OW25804   0.595   0.647   7.651  1.1399 -0.3317  0.7774
 4781SOL    HW125805   0.595   0.645   7.747  2.2719 -0.8551  0.7658
 4781SOL    HW225806   0.686   0.639   7.623  0.8812  1.0078 -0.4213
 4782SOL     OW25807   0.231   4.358  12.933 -0.4232 -0.2523  0.2220
 4782SOL    HW125808   0.243   4.386  12.842 -0.9359 -1.5995 -0.2658
 4782SOL    HW225809   0.168   4.423  12.966 -1.2974 -1.4025  0.8508
 4783SOL     OW25810   2.845   2.152   0.318 -0.7754 -0.4035  0.4376
 4783SOL    HW125811   2.935   2.183   0.323 -1.4243  1.5846 -0.0960
 4783SOL    HW225812   2.853   2.062   0.348 -0.2426  0.6048  3.3182
 4784SOL     OW25813   2.737   2.684  16.771  0.4986  0.0304  0.6212
 4784SOL    HW125814   2.832   2.681  16.759  0.3095 -4.0457  0.2831
 4784SOL    HW225815   2.735   2.641  16.856  0.7970  0.5455  0.8924
 4785SOL     OW25816   3.043   4.105   4.924  0.5771 -0.4407 -0.0956
 4785SOL    HW125817   2.951   4.129   4.920  0.8426  0.5376 -0.1853
 4785SOL    HW225818   3.034   4.018   4.884  0.8261 -0.3631 -0.3195
 4786SOL     OW25819   1.910   0.122   7.856  0.4315  0.3468 -0.0594
 4786SOL    HW125820   1.949   0.143   7.941  2.6544 -1.5189 -0.6325
 4786SOL    HW225821   1.891   0.029   7.864  3.1709 -0.2322 -0.2245
 4787SOL     OW25822   0.432   0.485   3.511  0.0392  0.0173  0.7221
 4787SOL    HW125823   0.426   0.453   3.421  0.8780 -0.4717  0.8351
 4787SOL    HW225824   0.477   0.568   3.499 -0.5748  0.7449  3.5038
 4788SOL     OW25825   4.110   0.245  13.514 -0.7689 -0.4692 -0.2898
 4788SOL    HW125826   4.095   0.299  13.437  3.0885 -0.9202 -1.3643
 4788SOL    HW225827   4.075   0.166  13.473  1.2071 -0.8252 -1.2907
 4789SOL     OW25828   1.286   2.914   4.702  0.3908  0.8069  0.1401
 4789SOL    HW125829   1.262   2.873   4.785  0.3179  1.1833  0.3039
 4789SOL    HW225830   1.199   2.930   4.666  0.6867 -1.5404 -1.6408
 4790SOL     OW25831   1.507   1.992   4.063  0.1483 -0.2209 -0.3137
 4790SOL    HW125832   1.567   1.942   4.008 -0.2814 -1.5196  0.3981
 4790SOL    HW225833   1.424   2.000   4.016 -0.8009 -1.1579  1.1940
 4791SOL     OW25834   0.647   1.272   9.526 -0.0811 -0.6264 -0.0436
 4791SOL    HW125835   0.642   1.316   9.611  0.1687 -0.3524 -0.1745
 4791SOL    HW225836   0.719   1.328   9.497  0.4303  0.2746  2.9036
 4792SOL     OW25837   3.766   2.321  11.638 -0.4161  0.0900 -0.0486
 4792SOL    HW125838   3.784   2.402  11.590  1.1109 -0.0917  0.2058
 4792SOL    HW225839   3.852   2.288  11.666 -0.5606  0.2554  0.5881
 4793SOL     OW25840   4.207   1.394   6.778 -0.4021 -0.0026 -0.2314
 4793SOL    HW125841   4.237   1.308   6.807 -1.3375 -0.5376 -0.8243
 4793SOL    HW225842   4.286   1.431   6.740 -0.4924  0.0645 -0.3562
 4794SOL     OW25843   0.977   3.823  13.500 -0.0724  0.5689  0.1115
 4794SOL    HW125844   0.909   3.773  13.546  0.4416  1.2020  1.5529
 4794SOL    HW225845   0.992   3.900  13.555 -2.8065  1.0370  0.2111
 4795SOL     OW25846   2.175   4.544  17.158 -0.2039  0.1251  0.2093
 4795SOL    HW125847   2.173   4.468  17.215 -2.3482 -0.7706 -1.0617
 4795SOL    HW225848   2.123   4.616  17.193  0.0815 -0.7278  2.3847
 4796SOL     OW25849   1.530   4.619   8.654 -0.1385  0.5188  0.2811
 4796SOL    HW125850   1.483   4.638   8.573 -0.6620  0.9820  0.6969
 4796SOL    HW225851   1.468   4.638   8.725  1.2474 -2.0283  2.1866
 4797SOL     OW25852   0.231   4.694   5.205 -0.4956 -0.1595 -0.2767
 4797SOL    HW125853   0.137   4.693   5.223 -0.3746  0.3304  0.3701
 4797SOL    HW225854   0.241   4.607   5.243 -1.9436 -0.2625 -0.1383
 4798SOL     OW25855   3.871   2.759  16.788 -0.0022 -0.4276 -0.1346
 4798SOL    HW125856   3.894   2.672  16.756 -1.8139 -1.1314  0.4968
 4798SOL    HW225857   3.797   2.772  16.728  0.9379 -2.0960 -1.6558
 4799SOL     OW25858   1.449   2.780  10.840 -0.0870 -0.5897 -0.7133
 4799SOL    HW125859   1.439   2.874  10.852 -0.0278 -0.7627  0.7401
 4799SOL    HW225860   1.363   2.739  10.837 -0.4519  0.0129  1.3862
 4800SOL     OW25861   0.619   4.031   7.189 -0.2404  0.2801  0.0278
 4800SOL    HW125862   0.591   4.041   7.097  1.4829  0.8736 -0.4311
 4800SOL    HW225863   0.605   3.939   7.211 -0.2915 -0.0652 -1.4072
 4801SOL     OW25864   0.729   2.797   4.420  0.2372 -0.3256  0.0978
 4801SOL    HW125865   0.634   2.799   4.409  0.4549  1.1846 -1.4915
 4801SOL    HW225866   0.741   2.873   4.477 -2.6722 -2.0216  2.9656
 4802SOL     OW25867   1.338   4.696   1.959 -0.5486 -0.1588  0.9128
 4802SOL    HW125868   1.310   4.635   1.890  3.3238  0.6403 -1.3977
 4802SOL    HW225869   1.377   4.636   2.023 -1.4156 -1.7995 -0.0842
 4803SOL     OW25870   2.971   0.383   5.140  0.4275 -0.2954 -0.4645
 4803SOL    HW125871   2.933   0.450   5.197  0.7878 -1.9337  1.7130
 4803SOL    HW225872   3.017   0.320   5.195  0.5476  0.2739  0.0900
 4804SOL     OW25873   3.811   3.746   2.258  0.1443  0.0371 -0.1850
 4804SOL    HW125874   3.765   3.717   2.338  0.6720 -0.0369  0.0929
 4804SOL    HW225875   3.885   3.686   2.268  0.4321  0.3320 -0.5846
 4805SOL     OW25876   2.501   1.098  13.892 -0.1624 -0.5680  0.1794
 4805SOL    HW125877   2.428   1.100  13.953 -0.3134 -0.2684 -0.0145
 4805SOL    HW225878   2.457   1.080  13.809  0.4577 -2.4866  0.2588
 4806SOL     OW25879   0.784   3.942   0.593 -1.0979  0.5238 -0.0625
 4806SOL    HW125880   0.876   3.966   0.581 -1.5237  2.3867  0.3269
 4806SOL    HW225881   0.772   3.874   0.528  1.2771  1.2796 -1.2904
 4807SOL     OW25882   2.209   3.904   8.531  0.1187  0.2581  0.0083
 4807SOL    HW125883   2.270   3.898   8.604 -1.6730 -1.4735  1.3681
 4807SOL    HW225884   2.270   3.897   8.458 -1.2814  0.1431 -1.1412
 4808SOL     OW25885   3.279   4.376   6.652  0.3503 -0.0167 -0.2312
 4808SOL    HW125886   3.254   4.323   6.576 -1.7990  0.9834 -0.2055
 4808SOL    HW225887   3.370   4.347   6.661  0.2505 -0.1848  0.2108
 4809SOL     OW25888   3.532   4.239   7.040 -0.2872  0.3403  0.2170
 4809SOL    HW125889   3.517   4.153   7.080  1.9177  0.7077  1.8254
 4809SOL    HW225890   3.485   4.299   7.098  4.0615  0.9112  3.1669
 4810SOL     OW25891   2.763   2.357   8.884  0.7969 -0.4306  0.8859
 4810SOL    HW125892   2.723   2.444   8.890  0.1850 -0.7201  0.9847
 4810SOL    HW225893   2.691   2.303   8.916  0.9505 -1.2519 -0.1769
 4811SOL     OW25894   1.473   2.795   8.402  0.6245  0.0843 -0.0534
 4811SOL    HW125895   1.521   2.714   8.386  0.5885 -0.0230  0.3764
 4811SOL    HW225896   1.454   2.770   8.493  0.6074  0.8120  0.1436
 4812SOL     OW25897   2.261   0.859   5.811 -0.0763 -0.1411 -0.6705
 4812SOL    HW125898   2.266   0.765   5.794  1.4902  0.2364 -2.3096
 4812SOL    HW225899   2.296   0.902   5.733 -0.1438  0.0550 -0.5921
 4813SOL     OW25900   4.013   2.196   4.170  1.0108 -0.4389  0.3629
 4813SOL    HW125901   4.088   2.247   4.201  0.2139  1.5901 -1.0437
 4813SOL    HW225902   3.974   2.188   4.257  2.1912  0.9444  1.0274
 4814SOL     OW25903   2.942   3.362   9.377  0.1277 -0.5531  0.0210
 4814SOL    HW125904   3.005   3.307   9.332  0.6505  1.5105 -1.7486
 4814SOL    HW225905   2.998   3.438   9.395 -0.9214 -0.0082  1.0194
 4815SOL     OW25906   3.799   2.439   2.177  0.4338 -0.1941 -0.8420
 4815SOL    HW125907   3.797   2.350   2.142  0.4366 -0.8043  0.7220
 4815SOL    HW225908   3.749   2.489   2.112 -1.5676 -2.0684 -0.7509
 4816SOL     OW25909   3.866   4.554  16.970 -0.0795  0.4723  0.9387
 4816SOL    HW125910   3.914   4.497  17.029  1.0634 -0.2499 -0.6805
 4816SOL    HW225911   3.794   4.492  16.959  0.0661  0.2935  0.9974
 4817SOL     OW25912   2.360   3.656  16.002 -0.2980 -0.2668 -0.1569
 4817SOL    HW125913   2.337   3.567  16.028 -1.1849  0.0843  0.2650
 4817SOL    HW225914   2.277   3.703  16.012  0.0730  0.2617  0.4854
 4818SOL     OW25915   0.718   0.411   9.148 -0.7584 -0.5494  0.3521
 4818SOL    HW125916   0.698   0.453   9.232  2.3981  0.5687  0.5555
 4818SOL    HW225917   0.633   0.405   9.104 -0.6106 -0.2465  0.0159
 4819SOL     OW25918   3.244   1.623   8.456  0.0460 -0.4371 -0.2156
 4819SOL    HW125919   3.149   1.636   8.460  0.5517  3.0953  0.0452
 4819SOL    HW225920   3.248   1.550   8.518 -1.0662 -1.3904 -1.2556
 4820SOL     OW25921   2.336   3.861   4.522 -0.0298  0.0827 -0.0614
 4820SOL    HW125922   2.246   3.892   4.534  0.2228  1.4485 -1.8059
 4820SOL    HW225923   2.373   3.919   4.456 -0.4522  0.9969  0.5011
 4821SOL     OW25924   2.362   1.576   9.767  0.5121  0.5867 -0.4701
 4821SOL    HW125925   2.306   1.503   9.793  0.7084 -0.1361 -2.1026
 4821SOL    HW225926   2.333   1.634   9.838 -1.0640 -1.7189  0.7801
 4822SOL     OW25927   0.903   4.009   5.340  0.2116 -0.3146 -0.4046
 4822SOL    HW125928   0.926   3.960   5.419 -1.4693  3.5962  2.5022
 4822SOL    HW225929   0.989   4.003   5.298  0.3731  1.5429 -0.3329
 4823SOL     OW25930   0.481   4.099   7.594 -0.2405 -0.1192 -0.5967
 4823SOL    HW125931   0.406   4.115   7.651 -0.2047  2.3100 -1.2192
 4823SOL    HW225932   0.439   4.114   7.510 -1.5013  0.6730  0.1780
 4824SOL     OW25933   0.125   2.603   4.064  0.5111  0.4500 -0.1447
 4824SOL    HW125934   0.104   2.541   4.134  1.9521  0.8251  0.6023
 4824SOL    HW225935   0.039   2.602   4.022  0.6512  1.8434 -0.4776
 4825SOL     OW25936   1.370   0.543   4.786 -0.0571  0.2756  0.4416
 4825SOL    HW125937   1.429   0.485   4.833 -2.2569 -0.4819  2.3097
 4825SOL    HW225938   1.434   0.612   4.770  1.4268 -1.2432 -0.1242
 4826SOL     OW25939   1.530   1.350   2.807  0.2327 -0.1919  0.2493
 4826SOL    HW125940   1.553   1.326   2.896  0.8488  2.5029  0.8142
 4826SOL    HW225941   1.436   1.368   2.810  0.7135  2.0423  2.1433
 4827SOL     OW25942   4.232   3.067   5.559  0.7080  0.0837  0.4687
 4827SOL    HW125943   4.298   3.120   5.603 -1.9873  3.2336  0.7031
 4827SOL    HW225944   4.230   3.096   5.468  0.0505 -1.6511 -0.0732
 4828SOL     OW25945   2.866   3.584  14.917 -0.0372  0.9086  0.0368
 4828SOL    HW125946   2.941   3.590  14.977 -0.3624 -1.2262  0.6432
 4828SOL    HW225947   2.891   3.632  14.838 -0.5750 -0.9312 -1.2287
 4829SOL     OW25948   3.220   4.706   9.357 -0.1314 -0.0517  0.3992
 4829SOL    HW125949   3.206   4.645   9.284 -1.5162  0.5613  0.1581
 4829SOL    HW225950   3.201   0.062   9.309  0.1417  0.1652  0.6546
 4830SOL     OW25951   3.965   2.291   7.725  0.3221 -0.0669  0.2156
 4830SOL    HW125952   4.031   2.357   7.747  1.4166 -1.4510  1.1380
 4830SOL    HW225953   4.024   2.228   7.682 -0.5069 -0.1623 -0.7728
 4831SOL     OW25954   2.825   2.439   2.329  0.1646  0.4633  0.5246
 4831SOL    HW125955   2.778   2.380   2.271  0.1517 -0.6559  1.6533
 4831SOL    HW225956   2.843   2.385   2.407 -2.4941  0.3162  1.0216
 4832SOL     OW25957   0.208   3.094   8.912 -0.5272 -0.2299  0.0141
 4832SOL    HW125958   0.225   3.129   8.825 -0.4175 -0.8489 -0.2174
 4832SOL    HW225959   0.293   3.055   8.933  0.4165  0.8497 -1.8795
 4833SOL     OW25960   0.858   2.236   7.127 -0.1613 -0.1706 -0.1399
 4833SOL    HW125961   0.803   2.256   7.051 -1.4385 -0.0066  0.8275
 4833SOL    HW225962   0.883   2.326   7.150  0.9558 -0.4385 -0.3331
 4834SOL     OW25963   3.674   1.707   4.279  0.2595  0.0440 -0.5721
 4834SOL    HW125964   3.742   1.731   4.342 -1.8162  2.4645  0.7541
 4834SOL    HW225965   3.728   1.683   4.203  2.3804  2.7157  0.1079
 4835SOL     OW25966   3.380   1.497   6.749 -0.0877 -0.1793  0.3373
 4835SOL    HW125967   3.336   1.490   6.833  0.3640  1.4081  0.7023
 4835SOL    HW225968   3.372   1.404   6.728 -0.2849 -0.6003  2.2616
 4836SOL     OW25969   4.711   2.930   1.528  0.3268  0.0884  0.1150
 4836SOL    HW125970   0.023   3.016   1.550  1.1829 -0.8360  2.2741
 4836SOL    HW225971   0.000   2.889   1.613 -2.2941 -1.8548 -0.4136
 4837SOL     OW25972   0.751   2.772   6.430 -0.2312 -0.9181  0.2136
 4837SOL    HW125973   0.798   2.694   6.458  0.1372 -0.0465  1.9742
 4837SOL    HW225974   0.670   2.722   6.417 -1.5216  0.5056  2.6639
 4838SOL     OW25975   3.440   3.659   5.614 -0.5715  0.0138 -0.0199
 4838SOL    HW125976   3.501   3.608   5.667  0.2390  0.0181 -0.9475
 4838SOL    HW225977   3.365   3.652   5.674  0.1480 -0.0830  0.8568
 4839SOL     OW25978   3.367   3.536   2.313  0.7736 -0.2390 -0.3331
 4839SOL    HW125979   3.419   3.457   2.330 -0.7033 -0.4927  2.8248
 4839SOL    HW225980   3.276   3.516   2.335 -0.0634  1.6732 -2.0528
 4840SOL     OW25981   4.494   1.871   5.735 -0.3392 -0.9104  0.2312
 4840SOL    HW125982   4.523   1.962   5.738  2.5315 -1.7959 -0.2630
 4840SOL    HW225983   4.467   1.858   5.826  0.5939 -0.8665  0.5148
 4841SOL     OW25984   3.428   4.280   1.928 -0.0616  0.4387 -0.0073
 4841SOL    HW125985   3.348   4.235   1.900  1.0090  0.4901 -3.1477
 4841SOL    HW225986   3.398   4.370   1.940 -0.1451  0.2778  0.9585
 4842SOL     OW25987   2.795   1.608   8.130 -0.2524 -0.6214  0.1451
 4842SOL    HW125988   2.729   1.663   8.090  0.4310 -0.5277 -0.8499
 4842SOL    HW225989   2.777   1.518   8.101 -2.3888 -0.0491 -0.2655
 4843SOL     OW25990   3.988   3.893   8.869  0.1527  0.5885  0.1837
 4843SOL    HW125991   3.921   3.897   8.801  2.5560 -0.9746 -2.2762
 4843SOL    HW225992   4.049   3.958   8.832  0.8871  0.1905  0.6970
 4844SOL     OW25993   0.343   1.432   7.808  0.2368  0.4346  0.3712
 4844SOL    HW125994   0.321   1.359   7.750  0.6467 -1.3542  2.4678
 4844SOL    HW225995   0.274   1.424   7.874  0.2473 -2.0045  0.0750
 4845SOL     OW25996   2.471   4.065   6.884  0.1015 -0.4814  0.5322
 4845SOL    HW125997   2.545   4.071   6.825 -1.1982 -2.6569 -1.3448
 4845SOL    HW225998   2.429   4.148   6.863  0.2449 -0.7998 -1.0141
 4846SOL     OW25999   4.333   4.238   7.349  0.1067 -0.2191 -0.3671
 4846SOL    HW126000   4.298   4.149   7.348 -0.9347  0.1895  0.2217
 4846SOL    HW226001   4.250   4.283   7.336 -0.2078 -1.1438 -1.5884
 4847SOL     OW26002   2.394   1.788   5.587 -0.0353 -0.1910  0.1631
 4847SOL    HW126003   2.420   1.724   5.521 -0.8112 -0.4307  0.0848
 4847SOL    HW226004   2.479   1.788   5.632 -0.2325 -2.2749  0.5575
 4848SOL     OW26005   0.725   3.503   4.045 -0.0648  0.2189 -1.0344
 4848SOL    HW126006   0.645   3.554   4.039 -0.1651 -0.0821 -2.3306
 4848SOL    HW226007   0.792   3.559   4.006  1.4977  1.3328  3.1617
 4849SOL     OW26008   1.148   3.839  16.608  0.2285 -0.0673  0.2238
 4849SOL    HW126009   1.203   3.814  16.534 -0.8166 -0.1619 -0.5253
 4849SOL    HW226010   1.207   3.887  16.667 -1.1353  0.9690  0.7368
 4850SOL     OW26011   4.719   3.814   6.018 -0.0680  0.3445 -0.1781
 4850SOL    HW126012   4.662   3.888   6.039 -0.2476  0.0883  0.2460
 4850SOL    HW226013   4.674   3.749   6.073  2.8300  0.7306  2.6385
 4851SOL     OW26014   1.337   0.785  14.728 -0.2752 -0.6291 -0.9095
 4851SOL    HW126015   1.342   0.771  14.633 -0.4570 -3.2848 -0.5152
 4851SOL    HW226016   1.423   0.751  14.753 -0.4093 -1.1529 -1.1672
 4852SOL     OW26017   4.678   3.740  13.266  0.2080  0.2077 -0.8996
 4852SOL    HW126018   4.656   3.671  13.204 -0.1877  1.0972 -1.7398
 4852SOL    HW226019   4.723   3.800  13.207  0.5927  0.4123 -0.4010
 4853SOL     OW26020   3.887   2.198   6.020  0.4710  0.1986 -0.2138
 4853SOL    HW126021   3.977   2.170   6.038 -0.4157 -1.7150  1.2786
 4853SOL    HW226022   3.900   2.219   5.928  0.8451  1.8449  0.2133
 4854SOL     OW26023   0.827   3.441   8.541  0.1086  0.1609  0.4689
 4854SOL    HW126024   0.856   3.494   8.467 -0.0811  0.8430  0.8859
 4854SOL    HW226025   0.840   3.486   8.624 -0.4040 -0.4760  0.8947
 4855SOL     OW26026   1.594   0.727   7.433 -0.8067  0.4925  0.6057
 4855SOL    HW126027   1.579   0.656   7.370 -1.7685  0.4050  0.9469
 4855SOL    HW226028   1.625   0.672   7.504  0.6346  0.2059 -0.2333
 4856SOL     OW26029   0.929   0.742   3.634 -0.7320 -0.2629  0.0876
 4856SOL    HW126030   0.848   0.711   3.675 -0.1490 -2.3338 -0.3186
 4856SOL    HW226031   0.919   0.693   3.552 -1.8248  0.3825 -0.1629
 4857SOL     OW26032   1.425   1.631   3.498  0.6620  0.2691 -0.1011
 4857SOL    HW126033   1.451   1.597   3.584  1.1269 -0.2944 -0.4641
 4857SOL    HW226034   1.448   1.723   3.515 -0.5643  0.1233  2.3822
 4858SOL     OW26035   3.592   1.773   6.591 -0.2600 -0.2404  0.2225
 4858SOL    HW126036   3.597   1.677   6.599  2.0960  0.0088  1.5338
 4858SOL    HW226037   3.620   1.779   6.500 -1.0702 -4.1920 -0.3153
 4859SOL     OW26038   2.485   1.517   8.259  0.0773 -0.0161 -0.6836
 4859SOL    HW126039   2.515   1.443   8.312  1.1496  0.9707  0.0858
 4859SOL    HW226040   2.556   1.515   8.194  2.3977  2.9057  1.7559
 4860SOL     OW26041   2.023   2.463   2.615 -0.0525  0.0846  0.1100
 4860SOL    HW126042   1.963   2.531   2.646 -0.9316 -0.3331 -0.6738
 4860SOL    HW226043   1.978   2.428   2.538 -1.4624  1.3857  0.3411
 4861SOL     OW26044   0.237   0.094   9.481 -0.1903  0.1176  0.5211
 4861SOL    HW126045   0.286   0.163   9.525 -0.8750  0.8934  0.0759
 4861SOL    HW226046   0.212   0.129   9.396  1.3345  0.0903  0.0712
 4862SOL     OW26047   2.889   1.755   5.779 -0.5728  0.0529  0.0097
 4862SOL    HW126048   2.874   1.771   5.872 -0.1655 -0.1182  0.1065
 4862SOL    HW226049   2.937   1.672   5.783  0.1925  0.4062 -2.0473
 4863SOL     OW26050   4.165   1.889   2.215 -0.2450  0.7734  0.3143
 4863SOL    HW126051   4.157   1.796   2.195  1.6546  0.5286  0.7229
 4863SOL    HW226052   4.171   1.922   2.126  1.1261 -1.1921 -0.3226
 4864SOL     OW26053   2.018   0.985   0.281 -0.4879 -0.6715 -0.3349
 4864SOL    HW126054   1.956   0.972   0.353  2.0195  3.7432  2.6421
 4864SOL    HW226055   2.088   0.925   0.308 -0.5061 -0.6833 -0.3132
 4865SOL     OW26056   0.843   1.301  13.339  0.0658 -0.3484 -0.4860
 4865SOL    HW126057   0.784   1.282  13.265  1.7443  0.2317 -1.9677
 4865SOL    HW226058   0.790   1.262  13.409  1.3646  1.3623  1.4363
 4866SOL     OW26059   4.483   4.003  15.654  0.2294  0.2526  0.1609
 4866SOL    HW126060   4.511   3.988  15.564 -2.4021 -1.9859 -0.2717
 4866SOL    HW226061   4.472   4.097  15.664 -0.1459  0.0263  1.9724
 4867SOL     OW26062   1.396   0.925   3.807 -0.7535 -0.5430  0.2511
 4867SOL    HW126063   1.302   0.910   3.793 -0.6406 -0.4935 -0.5720
 4867SOL    HW226064   1.450   0.862   3.760  0.2068 -0.3222  1.0790
 4868SOL     OW26065   1.524   0.189   4.011  0.0026  0.7324  0.2069
 4868SOL    HW126066   1.518   0.115   3.951 -0.8467 -0.5947  1.9066
 4868SOL    HW226067   1.524   0.147   4.097 -1.9085  1.7628  0.7262
 4869SOL     OW26068   1.399   4.494  12.178 -0.0109  0.4437 -1.2619
 4869SOL    HW126069   1.438   4.508  12.264  1.9756 -0.8228 -1.9301
 4869SOL    HW226070   1.383   4.586  12.158 -0.0069  0.6889 -0.0915
 4870SOL     OW26071   1.442   4.191   3.545  0.1367  0.3646  0.4737
 4870SOL    HW126072   1.389   4.271   3.547  0.4409  0.5985 -0.5061
 4870SOL    HW226073   1.383   4.123   3.579 -1.0056  0.6196 -0.9672
 4871SOL     OW26074   1.954   0.343   5.734  0.3372  0.6343  0.8640
 4871SOL    HW126075   2.045   0.334   5.763  0.3052  1.0028  1.0788
 4871SOL    HW226076   1.912   0.364   5.818  1.0478  0.8033  1.1759
 4872SOL     OW26077   1.663   1.557   4.629  0.1465  0.3204 -0.6577
 4872SOL    HW126078   1.732   1.492   4.613 -0.4605 -0.4356 -0.1769
 4872SOL    HW226079   1.706   1.636   4.593 -1.1855  0.4325 -1.9926
 4873SOL     OW26080   2.094   2.632   8.425 -0.3144  0.3260  0.0349
 4873SOL    HW126081   2.007   2.593   8.412 -0.7381  1.7524 -1.4563
 4873SOL    HW226082   2.134   2.568   8.482 -0.0040  0.5445  0.0595
 4874SOL     OW26083   1.967   2.333  11.030 -0.1185  0.6553  0.3766
 4874SOL    HW126084   1.900   2.336  11.097 -0.8684 -1.7460 -0.2533
 4874SOL    HW226085   1.931   2.263  10.976 -1.6120  1.8146 -0.1111
 4875SOL     OW26086   2.379   0.031   8.929  0.7661 -0.1326  0.0463
 4875SOL    HW126087   2.290   0.022   8.962  0.7522 -0.8317 -0.1688
 4875SOL    HW226088   2.415   4.675   8.967  1.0480  1.0399  2.2402
 4876SOL     OW26089   2.470   2.076   6.694  0.4774 -0.5568 -0.2588
 4876SOL    HW126090   2.463   2.118   6.780  4.6655 -2.4406  0.9794
 4876SOL    HW226091   2.557   2.037   6.707  0.1802 -0.9117  0.6406
 4877SOL     OW26092   3.664   1.061   8.581 -0.1359  0.4793  0.5212
 4877SOL    HW126093   3.709   0.977   8.590 -0.2779  0.3555  0.0844
 4877SOL    HW226094   3.656   1.094   8.670 -0.5073  1.7728  0.0006
 4878SOL     OW26095   0.688   1.744   9.558  0.2683  0.6664  0.5410
 4878SOL    HW126096   0.668   1.838   9.560 -0.9001  0.4537 -1.6314
 4878SOL    HW226097   0.777   1.744   9.521  0.2402 -0.4169  0.4621
 4879SOL     OW26098   3.256   3.916   4.981 -0.1588  0.2894 -0.1920
 4879SOL    HW126099   3.232   3.937   5.071 -0.4424 -0.7542 -0.0257
 4879SOL    HW226100   3.280   3.823   4.982  1.3133  0.7034  2.6616
 4880SOL     OW26101   1.235   2.804   6.497  0.0171  0.0329  0.1580
 4880SOL    HW126102   1.222   2.888   6.541 -3.0817 -0.4838  0.2498
 4880SOL    HW226103   1.203   2.752   6.571 -1.1890 -2.0848 -1.8385
 4881SOL     OW26104   0.246   0.210   8.061  0.3593  0.4111  0.1591
 4881SOL    HW126105   0.155   0.181   8.052  0.9032 -0.8442 -1.2669
 4881SOL    HW226106   0.235   0.295   8.103  1.8260  0.6105  0.1514
 4882SOL     OW26107   1.182   3.875  11.154 -0.5087  0.0858  0.0019
 4882SOL    HW126108   1.141   3.789  11.147 -0.5481  0.1862 -1.0364
 4882SOL    HW226109   1.232   3.883  11.073 -0.5629 -2.1525 -0.2585
 4883SOL     OW26110   1.689   1.564   2.750 -0.5082  0.5101 -0.3394
 4883SOL    HW126111   1.771   1.518   2.730 -0.2769  1.3388 -1.3076
 4883SOL    HW226112   1.637   1.485   2.766 -0.5342  0.5743 -0.1129
 4884SOL     OW26113   0.466   3.758  17.117  0.1673 -0.4085  0.1802
 4884SOL    HW126114   0.556   3.725  17.122  0.3821  0.0578 -0.5595
 4884SOL    HW226115   0.459   3.842  17.072  0.0292 -1.6862 -2.1934
 4885SOL     OW26116   2.312   2.755   2.062 -0.2134  0.6363  0.3168
 4885SOL    HW126117   2.240   2.714   2.013 -0.3449  0.9769  0.2292
 4885SOL    HW226118   2.277   2.844   2.067  0.0589  0.6898  1.1129
 4886SOL     OW26119   3.212   3.495   9.848  1.0586 -0.2720 -0.2544
 4886SOL    HW126120   3.235   3.425   9.787  1.8159  1.9610 -2.5585
 4886SOL    HW226121   3.242   3.463   9.933  1.3003 -1.6083 -0.8614
 4887SOL     OW26122   0.578   2.756   3.946 -0.4275 -0.8416  0.5656
 4887SOL    HW126123   0.646   2.717   4.001 -0.7052 -0.7675  0.9581
 4887SOL    HW226124   0.593   2.850   3.954 -0.4981 -0.8534  0.8407
 4888SOL     OW26125   2.983   3.872   5.912  0.2668  0.3750 -0.3686
 4888SOL    HW126126   3.062   3.907   5.954  0.6924 -0.6085 -0.3319
 4888SOL    HW226127   2.999   3.893   5.820 -0.7324 -0.8050 -0.8068
 4889SOL     OW26128   3.718   0.095   0.907  0.0231 -0.1077  0.1265
 4889SOL    HW126129   3.637   0.108   0.957 -1.0094  1.5547 -1.9879
 4889SOL    HW226130   3.777   0.159   0.948 -0.5576  1.2800 -1.2018
 4890SOL     OW26131   2.472   3.010   8.677  0.0758  0.3547  0.4362
 4890SOL    HW126132   2.426   3.005   8.593 -0.8504  0.0307  0.9617
 4890SOL    HW226133   2.494   3.102   8.669 -2.7972  0.8409 -1.7748
 4891SOL     OW26134   1.668   2.246   2.151  0.1863 -0.2402 -0.2687
 4891SOL    HW126135   1.653   2.152   2.152  1.8404 -0.5367 -2.1417
 4891SOL    HW226136   1.763   2.243   2.160  0.2290  0.8930 -0.3495
 4892SOL     OW26137   3.450   0.150  16.348 -0.1780  0.3382 -0.6787
 4892SOL    HW126138   3.386   0.093  16.305  0.2582  0.6074 -1.7051
 4892SOL    HW226139   3.410   0.163  16.434 -0.9103 -2.1464 -0.6552
 4893SOL     OW26140   4.606   0.472  14.028  0.3104  0.2721  0.0782
 4893SOL    HW126141   4.585   0.383  14.058  2.5411 -0.1398  0.4830
 4893SOL    HW226142   4.540   0.525  14.071 -1.1822 -0.5804 -1.1520
 4894SOL     OW26143   0.055   3.625  11.262 -0.2072 -0.4461 -0.2893
 4894SOL    HW126144   0.149   3.639  11.265 -0.0268 -1.6963  0.0821
 4894SOL    HW226145   0.041   3.653  11.172 -0.2336  0.8115  0.1001
 4895SOL     OW26146   4.019   4.131   6.850  0.0826 -0.8819 -0.4374
 4895SOL    HW126147   3.952   4.183   6.894  1.1191  0.7656 -0.8077
 4895SOL    HW226148   4.090   4.137   6.914  0.4571  2.4325 -1.1482
 4896SOL     OW26149   2.849   2.159   4.549  0.3846 -0.0587 -0.5174
 4896SOL    HW126150   2.919   2.223   4.560  0.0536  0.5218 -1.7216
 4896SOL    HW226151   2.896   2.077   4.559 -1.4789 -1.3605 -2.3639
 4897SOL     OW26152   1.711   0.718   5.720 -0.1528 -0.2094 -0.0640
 4897SOL    HW126153   1.804   0.698   5.732  0.2464  3.6045  3.3701
 4897SOL    HW226154   1.706   0.708   5.625 -1.8840 -1.3007  0.1451
 4898SOL     OW26155   3.838   0.827  11.149  0.4511 -0.3891  0.1708
 4898SOL    HW126156   3.926   0.787  11.146  1.3818  1.5875  1.5158
 4898SOL    HW226157   3.810   0.798  11.062  0.2102  0.8980 -0.1769
 4899SOL     OW26158   2.734   0.054  16.875 -0.0875  0.1231  0.2495
 4899SOL    HW126159   2.699   0.051  16.786  2.1406  1.0099 -0.6556
 4899SOL    HW226160   2.827   0.070  16.862 -0.3204  0.3613 -1.0875
 4900SOL     OW26161   0.606   2.531   1.065  0.2660  0.1211  0.5340
 4900SOL    HW126162   0.675   2.539   1.131 -1.6958 -0.6704  2.6911
 4900SOL    HW226163   0.529   2.513   1.119 -0.2510  0.5238 -0.0659
 4901SOL     OW26164   0.477   1.497   7.185  0.1767  0.3397  0.4126
 4901SOL    HW126165   0.492   1.507   7.279  1.1718 -2.0436  0.5150
 4901SOL    HW226166   0.558   1.523   7.142  0.1365 -1.7034 -0.9168
 4902SOL     OW26167   0.437   2.754   2.583  0.0594  0.6013 -0.1487
 4902SOL    HW126168   0.347   2.727   2.562 -0.8397  2.5394  1.2644
 4902SOL    HW226169   0.425   2.845   2.609 -1.1638  0.3437  0.2062
 4903SOL     OW26170   0.711   1.596   5.022 -0.3789  0.0448  0.1352
 4903SOL    HW126171   0.705   1.691   5.012  2.1188  0.2852  0.9839
 4903SOL    HW226172   0.795   1.590   5.066 -0.7913  1.7416  1.1604
 4904SOL     OW26173   2.112   4.293  11.754  0.7939 -0.4534 -0.0846
 4904SOL    HW126174   2.137   4.249  11.835  0.4670  1.3553  1.0102
 4904SOL    HW226175   2.150   4.234  11.689 -0.0912 -0.4845 -0.5897
 4905SOL     OW26176   4.019   3.156   4.807  0.3127 -0.0489  1.0501
 4905SOL    HW126177   3.951   3.091   4.823 -0.9495  0.8596 -0.7070
 4905SOL    HW226178   3.973   3.223   4.755  0.5963  1.3327  2.5593
 4906SOL     OW26179   0.975   0.011  17.330  0.4832  0.5143 -0.7055
 4906SOL    HW126180   1.052   0.004  17.386 -0.1314 -1.4691 -0.1103
 4906SOL    HW226181   0.918   4.667  17.366  2.2755 -1.1911 -1.1287
 4907SOL     OW26182   0.859   4.105  14.611  0.5221 -0.1424 -0.0355
 4907SOL    HW126183   0.855   4.199  14.629 -0.3966  0.5637 -3.8932
 4907SOL    HW226184   0.775   4.089  14.654  1.0074  1.5817  1.5765
 4908SOL     OW26185   4.116   0.673  15.814 -0.3157 -0.4125  0.3717
 4908SOL    HW126186   4.181   0.736  15.847 -0.0845 -1.0842  1.2101
 4908SOL    HW226187   4.095   0.624  15.893  0.0925  0.5822  1.1070
 4909SOL     OW26188   0.624   0.698  10.185  0.2110  0.6114  0.4651
 4909SOL    HW126189   0.556   0.744  10.235  0.0809 -0.1112  0.9606
 4909SOL    HW226190   0.689   0.764  10.162  0.9907  0.2218  1.5102
 4910SOL     OW26191   1.317   0.546   6.384  0.3880 -1.2480  0.1890
 4910SOL    HW126192   1.326   0.639   6.361  2.5511 -0.9608  2.2561
 4910SOL    HW226193   1.229   0.538   6.347  0.4631 -1.1160 -0.0172
 4911SOL     OW26194   1.843   1.487   0.979 -0.6943  0.0768  0.4650
 4911SOL    HW126195   1.831   1.446   0.893  0.5837  0.5981  0.0455
 4911SOL    HW226196   1.898   1.562   0.960  1.0012 -0.8458  1.7106
 4912SOL     OW26197   3.127   3.632  15.834 -0.1790 -0.2399 -0.6287
 4912SOL    HW126198   3.203   3.685  15.811 -0.3545 -0.3662 -1.4881
 4912SOL    HW226199   3.052   3.689  15.818 -0.5121 -0.1590  1.1880
 4913SOL     OW26200   3.804   1.696   1.071  0.1754 -0.3353 -0.2252
 4913SOL    HW126201   3.790   1.773   1.126 -2.5442 -0.6155 -0.5181
 4913SOL    HW226202   3.876   1.648   1.112  1.4024  1.1796 -0.5870
 4914SOL     OW26203   2.912   3.261   9.073 -0.4847  0.4857 -0.2573
 4914SOL    HW126204   2.878   3.215   8.996 -0.8494  0.3808 -0.0356
 4914SOL    HW226205   2.832   3.269   9.126 -0.4170  0.9689 -0.2235
 4915SOL     OW26206   2.346   3.247   5.289 -0.2365 -0.5801  0.6633
 4915SOL    HW126207   2.255   3.270   5.303 -0.0956  1.0375 -1.1844
 4915SOL    HW226208   2.369   3.266   5.198 -0.5308  0.9925  0.9265
 4916SOL     OW26209   0.398   4.117   3.432  0.3884 -0.0651 -0.2251
 4916SOL    HW126210   0.344   4.167   3.371  0.4980  0.1412 -0.1531
 4916SOL    HW226211   0.485   4.156   3.420 -0.9246  3.2082  0.9130
 4917SOL     OW26212   3.479   1.739   2.072 -0.1813 -0.2494 -0.2053
 4917SOL    HW126213   3.476   1.697   2.158 -4.2304 -0.5761 -0.5103
 4917SOL    HW226214   3.425   1.674   2.027  1.1632 -1.7499  0.3790
 4918SOL     OW26215   3.225   2.708   5.980 -0.6267  0.3080  0.3650
 4918SOL    HW126216   3.257   2.702   6.070 -0.4496  1.8299  0.4092
 4918SOL    HW226217   3.200   2.800   5.988 -1.6610  0.0602 -0.0737
 4919SOL     OW26218   1.161   1.680   3.404  0.1295 -0.8014 -0.0057
 4919SOL    HW126219   1.215   1.759   3.399 -0.5874 -0.3701 -0.8584
 4919SOL    HW226220   1.229   1.620   3.434  0.6254  0.1711  0.8220
 4920SOL     OW26221   4.442   0.086   3.778 -0.0283 -0.0710  0.8922
 4920SOL    HW126222   4.457   0.026   3.705  2.1393  0.0656  1.2145
 4920SOL    HW226223   4.529   0.126   3.788 -0.7830  2.1111 -1.3457
 4921SOL     OW26224   3.861   3.687   4.312 -0.0166  0.0833  0.4915
 4921SOL    HW126225   3.915   3.745   4.259 -2.0402 -1.4998 -3.2352
 4921SOL    HW226226   3.848   3.612   4.254 -0.6029 -0.3394  1.1634
 4922SOL     OW26227   3.330   1.404   8.589  0.1986  0.0596 -0.9897
 4922SOL    HW126228   3.402   1.347   8.564  0.6819  0.9346 -1.6051
 4922SOL    HW226229   3.291   1.345   8.653  0.0698 -0.4888 -1.5753
 4923SOL     OW26230   4.147   4.067   2.399  0.2304  0.3783  0.8019
 4923SOL    HW126231   4.139   4.072   2.494  2.4319 -1.6974  1.1140
 4923SOL    HW226232   4.228   4.117   2.388  0.2032  0.7606  2.3033
 4924SOL     OW26233   1.382   4.127   4.674 -0.3403 -0.1874 -0.1551
 4924SOL    HW126234   1.301   4.087   4.707  1.0391 -1.2936  1.8258
 4924SOL    HW226235   1.415   4.176   4.749 -0.3880 -1.9709  1.0183
 4925SOL     OW26236   0.453   4.224  11.455  0.0790 -0.0094  0.5096
 4925SOL    HW126237   0.501   4.301  11.425 -0.2515 -0.3080 -0.8008
 4925SOL    HW226238   0.466   4.225  11.549 -0.3902 -1.5052  0.5958
 4926SOL     OW26239   0.170   4.429   4.685 -0.2883  0.2519  0.1319
 4926SOL    HW126240   0.226   4.499   4.652 -0.1032 -0.2273 -0.5664
 4926SOL    HW226241   0.093   4.485   4.700 -1.3336 -0.6783 -1.8045
 4927SOL     OW26242   3.585   2.834  16.275  0.3511  0.1767  0.1329
 4927SOL    HW126243   3.668   2.820  16.321  0.9515 -0.4060 -1.1270
 4927SOL    HW226244   3.517   2.792  16.328  0.6428  0.1723  0.5064
 4928SOL     OW26245   2.305   0.409   0.763  0.6043 -0.2762 -0.0613
 4928SOL    HW126246   2.377   0.384   0.821 -1.7061  0.4521  3.1325
 4928SOL    HW226247   2.285   0.500   0.783  1.4814  0.0709 -0.7682
 4929SOL     OW26248   0.680   0.593  13.500 -0.4009 -0.1096  0.3193
 4929SOL    HW126249   0.685   0.687  13.488  1.6751 -0.1312  0.9865
 4929SOL    HW226250   0.593   0.572  13.465 -1.3591 -0.0389  2.6990
 4930SOL     OW26251   2.443   1.792   4.445 -0.3381 -0.5088 -0.4304
 4930SOL    HW126252   2.478   1.714   4.488 -1.2481 -0.3869  0.5271
 4930SOL    HW226253   2.527   1.838   4.447 -1.1292  0.9400 -0.8733
 4931SOL     OW26254   3.451   2.905   7.680 -0.0139 -0.4359  0.3201
 4931SOL    HW126255   3.535   2.873   7.648  0.8652  3.4664 -1.2706
 4931SOL    HW226256   3.472   2.889   7.772  0.6787 -1.3402 -0.0053
 4932SOL     OW26257   0.698   1.566   1.311 -0.1187 -0.3813  0.1202
 4932SOL    HW126258   0.655   1.651   1.308  1.5830  0.5261  1.4505
 4932SOL    HW226259   0.780   1.590   1.353 -0.3540 -2.0224  1.5319
 4933SOL     OW26260   0.651   1.089   2.876 -0.5411 -0.8912  0.1681
 4933SOL    HW126261   0.584   1.065   2.811  0.6897 -0.5918 -1.2084
 4933SOL    HW226262   0.736   1.084   2.832 -0.1203 -0.2297  0.9197
 4934SOL     OW26263   0.495   0.321   4.971 -0.2361  0.0377 -0.7876
 4934SOL    HW126264   0.492   0.413   4.947 -0.9782 -0.0463 -1.0285
 4934SOL    HW226265   0.489   0.272   4.889 -4.6910 -1.5651  0.4488
 4935SOL     OW26266   0.727   4.589   2.980 -0.8636 -0.9191  0.1739
 4935SOL    HW126267   0.770   4.644   3.045 -1.1624  0.1706 -0.5408
 4935SOL    HW226268   0.695   4.515   3.031 -0.2823  1.0383  3.3699
 4936SOL     OW26269   4.332   1.089   3.526 -0.0644  0.3788  0.1958
 4936SOL    HW126270   4.240   1.064   3.519 -0.5505  1.8361  1.5369
 4936SOL    HW226271   4.321   1.183   3.516  1.8527  0.5454 -0.3957
 4937SOL     OW26272   0.473   2.656   7.931  0.0469 -0.1827  0.0382
 4937SOL    HW126273   0.518   2.669   7.847  0.4960  0.0962  0.3251
 4937SOL    HW226274   0.461   2.748   7.955  0.9970  0.1975 -0.9185
 4938SOL     OW26275   4.606   1.831  16.357 -0.1774  0.1619 -0.0233
 4938SOL    HW126276   4.601   1.905  16.417 -0.6062  1.4968 -1.7248
 4938SOL    HW226277   4.699   1.837  16.337 -0.4943  1.8624 -0.9614
 4939SOL     OW26278   2.522   1.364  11.109  0.4850 -0.0975  0.3490
 4939SOL    HW126279   2.440   1.411  11.093  0.2554 -1.5563 -2.8503
 4939SOL    HW226280   2.575   1.442  11.126  2.0217 -0.9712 -0.3748
 4940SOL     OW26281   0.411   1.945  16.166 -0.2807  0.1651 -0.1669
 4940SOL    HW126282   0.371   1.861  16.190 -1.3852  1.2654  1.9058
 4940SOL    HW226283   0.344   1.986  16.111 -0.7693 -0.6510 -0.1699
 4941SOL     OW26284   3.668   4.188   8.650  0.4041 -0.1369  0.1190
 4941SOL    HW126285   3.754   4.147   8.647 -0.4925 -1.8907 -1.5624
 4941SOL    HW226286   3.627   4.147   8.574  0.2272 -2.3218  1.3868
 4942SOL     OW26287   3.857   0.153   9.078  0.0033  0.0633 -0.5905
 4942SOL    HW126288   3.924   0.086   9.073 -0.4090 -0.3470 -0.6205
 4942SOL    HW226289   3.810   0.117   9.003 -0.5618 -0.7538  0.1646
 4943SOL     OW26290   4.027   3.934   0.769 -0.6200 -0.5000 -0.4981
 4943SOL    HW126291   3.933   3.916   0.761 -0.8956 -0.6023  2.8962
 4943SOL    HW226292   4.019   4.029   0.779 -2.3600 -0.6633 -0.2382
 4944SOL     OW26293   0.294   1.330  12.283 -0.0767  0.5385  0.1140
 4944SOL    HW126294   0.220   1.355  12.227 -0.3837  0.4677  0.4946
 4944SOL    HW226295   0.258   1.256  12.332  2.3789 -1.5628 -1.2646
 4945SOL     OW26296   1.229   1.080  13.947 -0.1063 -0.5686 -0.6824
 4945SOL    HW126297   1.250   1.143  13.878 -1.2090 -1.4810 -1.8447
 4945SOL    HW226298   1.247   0.997  13.902 -0.0364 -0.5863 -0.6228
 4946SOL     OW26299   2.642   4.544   5.653 -0.5797  0.2806  0.4772
 4946SOL    HW126300   2.572   4.527   5.716  0.2191 -3.9873  0.1890
 4946SOL    HW226301   2.595   4.606   5.597 -1.1084 -0.1677  0.4193
 4947SOL     OW26302   0.933   4.077   6.759  0.0017  0.6151 -0.5469
 4947SOL    HW126303   0.887   4.160   6.770 -1.3474 -0.5779  2.6664
 4947SOL    HW226304   0.903   4.034   6.839 -2.3636  1.0227 -1.2282
 4948SOL     OW26305   4.576   0.421   0.408 -0.1565  0.3297  0.2768
 4948SOL    HW126306   4.574   0.490   0.342  1.7475 -2.0937 -2.2758
 4948SOL    HW226307   4.483   0.399   0.419 -0.6672  2.4514  0.3374
 4949SOL     OW26308   3.143   3.805  16.974 -0.1562  0.0983  0.5695
 4949SOL    HW126309   3.238   3.791  16.983 -0.1871 -1.0091 -0.6719
 4949SOL    HW226310   3.122   3.872  17.038  1.5265 -0.3382  1.5926
 4950SOL     OW26311   1.137   0.730   5.735 -0.1728  0.0996 -0.8740
 4950SOL    HW126312   1.124   0.693   5.823 -0.9468  2.5357  0.0194
 4950SOL    HW226313   1.233   0.732   5.739 -0.2093 -1.3127  1.0945
 4951SOL     OW26314   1.148   4.252   1.643 -0.1746 -0.0070 -0.1195
 4951SOL    HW126315   1.177   4.335   1.680  1.7745 -0.4562 -0.6543
 4951SOL    HW226316   1.130   4.201   1.722 -0.7012  1.0673  0.4534
 4952SOL     OW26317   1.591   3.796   2.098  0.8984  0.2676  0.0696
 4952SOL    HW126318   1.513   3.797   2.154  1.1679 -0.4027  0.4603
 4952SOL    HW226319   1.604   3.890   2.087 -0.8977  0.3244 -1.5400
 4953SOL     OW26320   3.997   1.228   4.734 -0.4314 -0.1028 -0.5292
 4953SOL    HW126321   4.005   1.133   4.738  1.4488  0.0465 -0.4079
 4953SOL    HW226322   3.985   1.237   4.639  0.7036  0.8257 -0.5880
 4954SOL     OW26323   1.392   3.809   6.024  0.1415  0.2530 -0.4335
 4954SOL    HW126324   1.325   3.852   5.970  0.0667 -0.0977 -0.6222
 4954SOL    HW226325   1.472   3.824   5.974  0.4877 -0.7190 -0.1785
 4955SOL     OW26326   0.851   0.051   4.142  0.0480 -0.2117  0.0828
 4955SOL    HW126327   0.823   4.694   4.185 -0.6576  0.3406  0.6686
 4955SOL    HW226328   0.806   0.044   4.058 -0.0988 -1.6011  0.2658
 4956SOL     OW26329   2.768   3.878   8.973 -0.1660  0.3781  0.0286
 4956SOL    HW126330   2.846   3.907   8.926 -1.5772  0.9931 -1.9189
 4956SOL    HW226331   2.771   3.785   8.947 -0.6167  0.5344 -0.5903
 4957SOL     OW26332   3.062   3.585   5.962  0.2158  0.8078  0.0869
 4957SOL    HW126333   3.013   3.554   5.886 -0.9679 -0.5826  1.4023
 4957SOL    HW226334   3.022   3.671   5.974 -1.9141 -0.2131  0.2797
 4958SOL     OW26335   1.366   2.285   4.868  0.1008  0.5361 -0.3136
 4958SOL    HW126336   1.395   2.208   4.818 -0.4456 -0.5395  1.0149
 4958SOL    HW226337   1.416   2.270   4.948 -1.5596  0.7697  0.7771
 4959SOL     OW26338   3.131   3.408   1.748 -0.1815 -0.0072 -0.0518
 4959SOL    HW126339   3.117   3.391   1.841 -2.7774  1.3518 -0.1898
 4959SOL    HW226340   3.080   3.333   1.717  0.2674  0.5848 -2.1577
 4960SOL     OW26341   0.596   2.015   9.524  0.0859  0.2001  0.2369
 4960SOL    HW126342   0.608   2.061   9.606  0.7314 -2.3327  1.5687
 4960SOL    HW226343   0.671   2.044   9.473  0.4540 -1.4596 -0.1892
 4961SOL     OW26344   3.782   3.588   7.306 -0.0812 -0.1856 -0.4267
 4961SOL    HW126345   3.770   3.535   7.385 -1.7568 -1.9673 -1.8891
 4961SOL    HW226346   3.809   3.523   7.242  2.4423  1.1322 -0.7108
 4962SOL     OW26347   0.167   0.927   5.551  0.4010 -0.0448  0.3778
 4962SOL    HW126348   0.116   0.960   5.476  1.2417  0.3947  0.0033
 4962SOL    HW226349   0.103   0.873   5.596  0.3951 -0.9468 -0.7191
 4963SOL     OW26350   0.714   2.469   8.700  0.3927  0.1409  0.1199
 4963SOL    HW126351   0.727   2.506   8.787  1.1255  2.4465 -0.9811
 4963SOL    HW226352   0.621   2.486   8.684  0.4917  0.1257 -0.4803
 4964SOL     OW26353   2.849   2.235  17.629 -0.2584  0.1563  0.3085
 4964SOL    HW126354   2.821   2.317  17.669  0.1331 -1.0246  3.0517
 4964SOL    HW226355   2.940   2.240  17.657 -0.0957 -0.8324 -0.0558
 4965SOL     OW26356   0.567   4.359  11.905 -0.8141 -0.0114  0.0766
 4965SOL    HW126357   0.609   4.411  11.836 -0.7501  1.8455  1.5132
 4965SOL    HW226358   0.572   4.433  11.966  3.0482  0.3410 -0.7081
 4966SOL     OW26359   0.525   2.600   9.693 -0.6330  0.2180 -0.4246
 4966SOL    HW126360   0.581   2.649   9.754 -0.4258 -1.2432  0.5821
 4966SOL    HW226361   0.581   2.523   9.682 -0.4675  0.5419 -1.8111
 4967SOL     OW26362   1.326   0.993  13.221  0.1218  0.2693 -0.2749
 4967SOL    HW126363   1.389   1.040  13.277  0.8146 -0.8472 -0.1035
 4967SOL    HW226364   1.243   1.039  13.232  0.2968  0.2557  1.1440
 4968SOL     OW26365   1.805   1.326   8.802 -0.5263  0.4854  0.6134
 4968SOL    HW126366   1.853   1.303   8.723 -0.1771  0.0874  0.9459
 4968SOL    HW226367   1.851   1.402   8.836  0.8056 -0.2475  0.4538
 4969SOL     OW26368   4.106   2.465   8.093 -0.4511 -0.8439 -0.2791
 4969SOL    HW126369   4.026   2.516   8.108 -0.6866 -1.0306 -0.9064
 4969SOL    HW226370   4.083   2.374   8.110 -0.4883 -0.7963 -0.0782
 4970SOL     OW26371   0.741   0.129   1.042 -0.0749  0.5570  0.1342
 4970SOL    HW126372   0.836   0.125   1.056  0.4530 -1.9783 -4.2502
 4970SOL    HW226373   0.723   0.044   1.002 -0.2065  0.3522  0.6307
 4971SOL     OW26374   3.750   2.302   5.323 -0.1089  0.2739  0.5657
 4971SOL    HW126375   3.669   2.332   5.280  2.0827  4.3675 -0.7354
 4971SOL    HW226376   3.796   2.266   5.248  1.5496 -0.3196  1.8827
 4972SOL     OW26377   1.347   4.313   5.549 -0.0475 -0.2065  0.2590
 4972SOL    HW126378   1.311   4.323   5.637 -0.7523  1.1846 -0.1881
 4972SOL    HW226379   1.277   4.365   5.509  0.8979  0.1645 -0.9399
 4973SOL     OW26380   4.425   2.219  12.726 -0.1303  0.0221 -0.2896
 4973SOL    HW126381   4.465   2.305  12.711 -0.4686  0.1860 -0.2532
 4973SOL    HW226382   4.463   2.214  12.814 -0.7399  0.6025  0.0046
 4974SOL     OW26383   3.170   0.088   3.390 -0.4124 -0.7387 -0.5037
 4974SOL    HW126384   3.169   0.158   3.325  0.4834  0.7289  1.0832
 4974SOL    HW226385   3.079   0.060   3.388 -0.7663  0.4156  0.0692
 4975SOL     OW26386   1.122   3.477  11.345  0.1106 -0.1300 -0.0651
 4975SOL    HW126387   1.130   3.499  11.438 -0.8686  1.9689 -0.4921
 4975SOL    HW226388   1.039   3.430  11.343 -1.2577  2.2597  0.7679
 4976SOL     OW26389   0.536   0.450  15.920 -0.0134 -0.1863 -0.4076
 4976SOL    HW126390   0.559   0.543  15.917  0.4971 -0.2510  1.4901
 4976SOL    HW226391   0.500   0.435  16.007  0.0571 -0.0399 -0.3528
 4977SOL     OW26392   3.356   3.675   5.134 -0.3936 -0.2288  0.1044
 4977SOL    HW126393   3.262   3.680   5.153 -0.3950  1.5830 -0.3423
 4977SOL    HW226394   3.370   3.585   5.106 -0.0870  0.4340 -1.8556
 4978SOL     OW26395   4.459   0.672   8.130  0.8929 -0.1217  0.1952
 4978SOL    HW126396   4.398   0.746   8.131  3.1479  1.7216  1.0523
 4978SOL    HW226397   4.536   0.701   8.179 -0.2756  0.9552  1.3963
 4979SOL     OW26398   1.113   3.677   7.806 -0.0630  1.0982  0.2076
 4979SOL    HW126399   1.067   3.672   7.722  0.1802  3.1222 -0.0505
 4979SOL    HW226400   1.198   3.643   7.779 -0.1087  1.5618 -0.5213
 4980SOL     OW26401   3.547   4.646  11.105 -0.6345 -0.0881 -0.5960
 4980SOL    HW126402   3.479   4.711  11.092  0.4629  1.2265  0.2290
 4980SOL    HW226403   3.547   4.638  11.201  0.6083  1.9015 -0.4389
 4981SOL     OW26404   4.236   2.090   3.553  0.0139  0.0770  0.0042
 4981SOL    HW126405   4.315   2.128   3.591 -0.0463 -0.7834  0.9779
 4981SOL    HW226406   4.247   1.996   3.562 -2.8936 -0.2004  0.7248
 4982SOL     OW26407   3.153   0.261   9.302 -0.4428  0.1032 -0.2071
 4982SOL    HW126408   3.198   0.279   9.219  0.3658 -2.4677 -0.3345
 4982SOL    HW226409   3.136   0.349   9.334 -0.0134  0.2671 -0.4334
 4983SOL     OW26410   3.178   1.695   7.609  0.0069  0.2774 -0.2405
 4983SOL    HW126411   3.129   1.706   7.527 -0.8704 -1.8313 -0.0070
 4983SOL    HW226412   3.167   1.782   7.647  0.8709 -0.6232  2.0656
 4984SOL     OW26413   0.312   1.397  11.432 -0.1318 -0.2046  0.4005
 4984SOL    HW126414   0.276   1.481  11.405  2.7184  0.9943  0.3309
 4984SOL    HW226415   0.360   1.408  11.513  0.6634  0.7741 -0.2148
 4985SOL     OW26416   2.292   3.746   8.292  1.2179 -0.9623 -0.1304
 4985SOL    HW126417   2.265   3.690   8.364 -1.8650  1.4339  0.5758
 4985SOL    HW226418   2.385   3.756   8.311  0.8758 -1.0713  1.5649
 4986SOL     OW26419   0.314   3.653  10.327 -0.5881  0.0973  0.2130
 4986SOL    HW126420   0.294   3.566  10.293 -0.5475 -1.2625  3.6896
 4986SOL    HW226421   0.320   3.640  10.422  1.9451  1.1385  0.1877
 4987SOL     OW26422   1.907   2.095   5.458 -0.0476  0.4363 -0.3442
 4987SOL    HW126423   1.835   2.110   5.519  0.9087 -0.3495  0.9627
 4987SOL    HW226424   1.861   2.071   5.377  0.9609  0.3449 -0.8967
 4988SOL     OW26425   1.354   3.688  16.427  0.1288 -0.6424  0.4006
 4988SOL    HW126426   1.371   3.594  16.433  0.2103 -0.5748  1.3244
 4988SOL    HW226427   1.406   3.721  16.354 -0.5238 -0.5074 -0.0024
 4989SOL     OW26428   0.752   3.653   8.366  0.1955  0.2186  0.2024
 4989SOL    HW126429   0.657   3.659   8.359  0.1534 -1.9364 -1.0423
 4989SOL    HW226430   0.761   3.630   8.274  0.2163 -1.4291  0.6233
 4990SOL     OW26431   3.527   0.848   4.884 -0.1421 -0.1370  0.5136
 4990SOL    HW126432   3.579   0.805   4.952  0.9237 -1.5113 -1.1834
 4990SOL    HW226433   3.525   0.939   4.914 -0.0713 -0.5159  1.6969
 4991SOL     OW26434   4.318   0.706   0.327  0.7898  0.0871  0.0089
 4991SOL    HW126435   4.381   0.675   0.262  1.8449  0.2329  0.9565
 4991SOL    HW226436   4.338   0.799   0.339  0.8889  0.0191  0.3677
 4992SOL     OW26437   2.865   1.184   4.424  0.0970 -0.4539 -0.2238
 4992SOL    HW126438   2.843   1.197   4.331  1.5266  2.3331 -0.1945
 4992SOL    HW226439   2.796   1.227   4.473 -0.0433 -1.5216  0.5092
 4993SOL     OW26440   0.766   2.872   0.131 -0.0594 -0.0970 -0.0659
 4993SOL    HW126441   0.784   2.794   0.078 -2.0715 -1.4811  1.2705
 4993SOL    HW226442   0.784   2.848   0.222 -1.6056 -0.4839  0.1377
 4994SOL     OW26443   4.713   2.247  11.856  0.4039 -0.5263 -0.8832
 4994SOL    HW126444   4.683   2.338  11.864  0.5366 -0.4894 -0.8067
 4994SOL    HW226445   0.083   2.259  11.854  0.6226 -2.2979 -0.4886
 4995SOL     OW26446   0.607   0.167   8.677 -0.0172  0.4686  1.0343
 4995SOL    HW126447   0.683   0.125   8.718  0.5557 -0.6601 -1.1499
 4995SOL    HW226448   0.649   0.247   8.645 -0.6099  0.2693 -0.2323
 4996SOL     OW26449   2.565   2.016   1.119 -0.5829 -0.3634 -0.0703
 4996SOL    HW126450   2.621   2.004   1.042 -2.0061 -2.0752 -0.8464
 4996SOL    HW226451   2.573   1.928   1.156  1.1756  0.3241  1.1345
 4997SOL     OW26452   1.140   4.633   9.037  0.2342  0.0260 -0.3356
 4997SOL    HW126453   1.048   4.646   9.011 -0.0159 -1.1252 -0.0370
 4997SOL    HW226454   1.151   4.639   9.132  0.3894 -3.7202 -0.0963
 4998SOL     OW26455   2.183   0.530  11.108  0.0458 -0.1515  0.1527
 4998SOL    HW126456   2.215   0.514  11.197 -0.3337 -1.2525  0.0959
 4998SOL    HW226457   2.102   0.581  11.116  0.0101 -0.2006  0.1045
 4999SOL     OW26458   2.667   0.673   4.585 -0.7612  0.5652 -0.2463
 4999SOL    HW126459   2.577   0.704   4.584 -1.0522 -0.2738  0.0522
 4999SOL    HW226460   2.715   0.749   4.552 -0.6251  0.0975 -1.1152
 5000SOL     OW26461   2.207   1.335   8.406  0.0163 -0.0518  0.1582
 5000SOL    HW126462   2.159   1.360   8.327 -0.1911 -0.7349  0.0705
 5000SOL    HW226463   2.277   1.279   8.373  1.3996  2.3177 -0.9700
 5001SOL     OW26464   0.098   3.258   0.627  0.0848 -0.2394 -0.2452
 5001SOL    HW126465   0.109   3.352   0.611 -0.7663 -0.5248 -2.4676
 5001SOL    HW226466   0.166   3.249   0.694 -0.7676 -0.5368  0.5682
 5002SOL     OW26467   4.627   2.761   8.806  0.0803  0.0571  0.3766
 5002SOL    HW126468   4.660   2.846   8.834  0.2593 -0.0017  0.3392
 5002SOL    HW226469   4.696   2.730   8.748 -2.6699 -0.8833 -2.3884
 5003SOL     OW26470   3.784   2.373  16.854  0.0752  0.1684 -0.3296
 5003SOL    HW126471   3.776   2.316  16.777  2.5896 -1.2312  0.4400
 5003SOL    HW226472   3.822   2.435  16.792  0.2158  2.5525  2.2032
 5004SOL     OW26473   4.318   2.160   8.681  0.2084  0.1721 -0.2985
 5004SOL    HW126474   4.305   2.195   8.769 -2.5013  0.2181 -0.7277
 5004SOL    HW226475   4.286   2.070   8.683  1.3111 -0.1513  2.6771
 5005SOL     OW26476   3.863   3.434   4.641 -0.4218 -0.1985 -0.0722
 5005SOL    HW126477   3.876   3.379   4.564 -0.2309  1.2914 -1.1109
 5005SOL    HW226478   3.815   3.371   4.696  0.2468  0.0753  0.8243
 5006SOL     OW26479   0.930   2.065  15.059  0.6383  0.1083  0.0171
 5006SOL    HW126480   0.986   1.997  15.097  1.0014  0.2370 -0.2859
 5006SOL    HW226481   0.884   2.100  15.135 -3.7797 -1.1776 -2.0914
 5007SOL     OW26482   2.229   3.775   1.194 -0.2672 -0.3163  0.1811
 5007SOL    HW126483   2.178   3.819   1.263 -1.4664 -1.5340  0.0696
 5007SOL    HW226484   2.293   3.839   1.163 -1.3320  0.1078 -1.1895
 5008SOL     OW26485   4.694   2.935  12.267 -0.3463  0.2111  0.1082
 5008SOL    HW126486   0.023   2.891  12.202 -1.4099  0.3555 -0.8588
 5008SOL    HW226487   0.004   3.025  12.267  1.4188 -0.4592  1.1461
 5009SOL     OW26488   1.334   1.338   2.457 -0.0067 -0.3566 -0.1629
 5009SOL    HW126489   1.367   1.352   2.546 -2.5284 -3.0920  1.2335
 5009SOL    HW226490   1.326   1.432   2.443  0.3471 -0.4074 -0.6679
 5010SOL     OW26491   2.308   4.452   2.979 -0.1695  0.0291  0.1284
 5010SOL    HW126492   2.250   4.448   2.903 -0.0387 -3.8203  0.2048
 5010SOL    HW226493   2.255   4.513   3.029 -1.5393 -1.5974  0.6596
 5011SOL     OW26494   2.803   1.538   8.655  0.0604  0.0662  0.3139
 5011SOL    HW126495   2.768   1.605   8.713 -0.4220  1.4493 -1.5863
 5011SOL    HW226496   2.860   1.490   8.716  0.1533 -0.3735 -0.1189
 5012SOL     OW26497   2.570   1.470   8.566 -0.2840  0.5715  0.1013
 5012SOL    HW126498   2.663   1.484   8.583 -0.0975 -1.2931  0.6411
 5012SOL    HW226499   2.535   1.439   8.650  1.0156  0.3785  0.5787
 5013SOL     OW26500   2.561   1.348   6.210  0.0385  0.3941 -0.1777
 5013SOL    HW126501   2.580   1.441   6.217  0.5127  0.3261 -0.5406
 5013SOL    HW226502   2.476   1.335   6.252  0.9361 -2.0031  0.8939
 5014SOL     OW26503   0.031   2.484  12.905 -0.1127  0.6020  0.3109
 5014SOL    HW126504   4.670   2.511  12.871  1.2722  2.5609 -1.5959
 5014SOL    HW226505   0.085   2.512  12.832  0.5617  0.6141  0.8118
 5015SOL     OW26506   1.701   4.061   4.145 -0.5976  0.0233  0.4398
 5015SOL    HW126507   1.663   4.019   4.222  2.3489  0.0124  1.8920
 5015SOL    HW226508   1.790   4.028   4.157 -0.1527  1.4423  1.0216
 5016SOL     OW26509   0.973   3.151  10.008  0.1916  0.6500 -0.0988
 5016SOL    HW126510   1.034   3.078  10.010 -1.7364 -0.9830 -0.6560
 5016SOL    HW226511   0.982   3.172   9.915 -1.2085 -0.6268 -0.5288
 5017SOL     OW26512   0.824   1.210   9.057 -0.0742 -0.0894  0.1475
 5017SOL    HW126513   0.813   1.136   9.118  1.8029 -0.4671  0.0157
 5017SOL    HW226514   0.907   1.240   9.094 -0.1857 -0.2301  0.5139
 5018SOL     OW26515   0.520   4.487  16.757 -0.0221  0.4643 -0.2294
 5018SOL    HW126516   0.499   4.568  16.711  1.7736  1.3946  0.5882
 5018SOL    HW226517   0.478   4.501  16.843 -0.5748  0.1664 -0.4501
 5019SOL     OW26518   4.126   0.715   5.553 -0.1738 -0.4986 -0.8872
 5019SOL    HW126519   4.154   0.709   5.462  4.2175 -0.4087  0.4681
 5019SOL    HW226520   4.049   0.771   5.542 -0.1887  0.0373  1.9183
 5020SOL     OW26521   1.616   3.505  11.382  0.3606 -0.5821 -0.0247
 5020SOL    HW126522   1.683   3.570  11.362 -0.7346  1.1255  1.7581
 5020SOL    HW226523   1.646   3.482  11.469 -1.2523  0.2304  0.7611
 5021SOL     OW26524   2.641   3.865   2.005  0.3316  0.6216 -0.3277
 5021SOL    HW126525   2.711   3.923   2.036  0.3335  0.3304  0.2031
 5021SOL    HW226526   2.687   3.792   1.964  1.2012  0.5868  0.7001
 5022SOL     OW26527   3.670   2.574  15.392  0.2734 -1.2534 -0.7703
 5022SOL    HW126528   3.645   2.504  15.452  0.9017 -2.5497 -2.0063
 5022SOL    HW226529   3.698   2.641  15.454  0.0678 -2.3817  0.5456
 5023SOL     OW26530   3.588   1.314   8.532  0.2900 -0.5756  0.0492
 5023SOL    HW126531   3.610   1.222   8.548  0.1506 -0.1337  2.6685
 5023SOL    HW226532   3.676   1.348   8.516  0.1188  1.0437  2.6199
 5024SOL     OW26533   0.519   4.150   6.243  0.3203 -0.0199  0.0466
 5024SOL    HW126534   0.475   4.115   6.166 -0.1106  0.6039  0.0160
 5024SOL    HW226535   0.577   4.075   6.261 -0.2543 -0.7943 -1.3299
 5025SOL     OW26536   0.647   0.704   8.575 -0.4143 -0.2812  0.3233
 5025SOL    HW126537   0.645   0.781   8.632  0.8557 -0.3582  0.4768
 5025SOL    HW226538   0.625   0.749   8.494  1.6434  1.4019  0.6920
 5026SOL     OW26539   0.120   4.432   6.864  0.0250  0.2458 -0.3232
 5026SOL    HW126540   0.036   4.478   6.854  0.7262  1.5901  0.1260
 5026SOL    HW226541   0.126   4.391   6.778  0.3587  0.4982 -0.4193
 5027SOL     OW26542   0.017   3.597  10.225 -0.3360  0.3036 -0.2451
 5027SOL    HW126543   0.083   3.665  10.209  0.2104 -0.3412 -0.7226
 5027SOL    HW226544   0.074   3.524  10.248  0.6710  0.9657 -0.6799
 5028SOL     OW26545   0.119   3.181   2.641  0.1221 -0.0866 -0.5577
 5028SOL    HW126546   0.153   3.094   2.664 -3.6860 -2.2561 -3.2566
 5028SOL    HW226547   0.026   3.158   2.641 -0.0724  0.7098 -0.4479
 5029SOL     OW26548   1.613   2.728   0.297  0.1350  0.5988  0.2423
 5029SOL    HW126549   1.671   2.679   0.354 -2.0195 -2.4157 -0.1756
 5029SOL    HW226550   1.680   2.760   0.237  0.8723 -0.4718  0.5102
 5030SOL     OW26551   2.629   2.473   2.864 -0.6200  0.3824 -0.1305
 5030SOL    HW126552   2.716   2.508   2.885 -0.7064 -1.1913  2.7461
 5030SOL    HW226553   2.611   2.528   2.787 -2.5956  0.4298  0.3844
 5031SOL     OW26554   0.092   4.288   2.283 -0.7118 -0.1295 -0.1663
 5031SOL    HW126555   0.096   4.369   2.335 -1.6755  1.1792 -2.1217
 5031SOL    HW226556   0.005   4.292   2.243  0.1577  2.3166 -1.8066
 5032SOL     OW26557   4.444   4.300  15.419  0.3375  0.5276 -0.6032
 5032SOL    HW126558   4.390   4.357  15.474 -0.8647 -0.5435 -0.6886
 5032SOL    HW226559   4.376   4.262  15.363  2.4840 -0.1453 -2.7446
 5033SOL     OW26560   4.686   0.018  16.761  0.6983 -0.0311  0.0276
 5033SOL    HW126561   4.692   0.044  16.853 -0.3836  0.2242  0.0296
 5033SOL    HW226562   4.680   4.647  16.767  1.1852 -0.2797 -3.2660
 5034SOL     OW26563   3.311   1.074   5.368  0.2895 -0.5916  0.2214
 5034SOL    HW126564   3.330   1.024   5.289  0.1629 -0.1616 -0.0780
 5034SOL    HW226565   3.400   1.109   5.375  0.3034 -0.7151  0.7227
 5035SOL     OW26566   4.381   3.521   4.996  0.2547 -0.1995  0.0739
 5035SOL    HW126567   4.398   3.489   4.908  1.3699 -1.3441  0.7022
 5035SOL    HW226568   4.432   3.460   5.049 -1.1961 -1.3795  0.1070
 5036SOL     OW26569   1.465   1.354   9.967  0.1630  0.0354  0.5238
 5036SOL    HW126570   1.535   1.309  10.015  0.6302 -0.8856 -1.0035
 5036SOL    HW226571   1.513   1.428   9.929 -0.5025  1.0413  1.6556
 5037SOL     OW26572   1.650   3.519   7.421  0.8650  0.0912  0.7303
 5037SOL    HW126573   1.621   3.498   7.332  0.6875  2.2722  0.2813
 5037SOL    HW226574   1.601   3.599   7.435  0.8128  0.1514  0.1796
 5038SOL     OW26575   0.801   2.480   2.707  0.6059 -0.0714 -0.0032
 5038SOL    HW126576   0.717   2.487   2.753  1.4928  2.5259  1.1978
 5038SOL    HW226577   0.776   2.402   2.657  0.7100 -0.2338  0.1985
 5039SOL     OW26578   1.153   4.023   5.118  0.0365 -0.2455  0.0396
 5039SOL    HW126579   1.181   4.106   5.156  0.1522  0.0350 -0.6568
 5039SOL    HW226580   1.226   4.008   5.058 -0.4729  0.5802 -0.7850
 5040SOL     OW26581   0.532   4.329   0.214  0.1902 -0.1396  0.2953
 5040SOL    HW126582   0.478   4.274   0.270 -1.2758 -0.7836 -1.7504
 5040SOL    HW226583   0.618   4.287   0.222  0.9555  1.6197  1.3166
 5041SOL     OW26584   3.454   2.367  14.098 -0.2096  0.0408  0.0057
 5041SOL    HW126585   3.523   2.342  14.158  0.1514  0.2992 -0.3025
 5041SOL    HW226586   3.399   2.289  14.096 -0.9019  0.5676 -2.1537
 5042SOL     OW26587   2.110   4.701   3.330 -0.1382 -0.6416 -0.0026
 5042SOL    HW126588   2.030   4.678   3.377 -1.1691  0.9420 -0.9932
 5042SOL    HW226589   2.167   4.707   3.407 -1.7581  0.3403  1.1145
 5043SOL     OW26590   3.844   0.434   9.390  0.2816  0.1257  0.3954
 5043SOL    HW126591   3.832   0.528   9.373  0.4119  0.0272 -0.2506
 5043SOL    HW226592   3.768   0.395   9.347  0.1255 -0.1667  0.9375
 5044SOL     OW26593   0.519   3.974   3.705 -0.0180 -0.1896 -0.2910
 5044SOL    HW126594   0.502   3.903   3.644  1.0653 -1.0894  0.4513
 5044SOL    HW226595   0.451   4.038   3.684  0.8247  0.1005 -2.1451
 5045SOL     OW26596   2.127   1.162   9.202  0.2608 -0.4136  0.1204
 5045SOL    HW126597   2.073   1.188   9.277 -0.8484 -1.6679 -0.2570
 5045SOL    HW226598   2.126   1.241   9.147  1.7293 -1.4229 -1.3737
 5046SOL     OW26599   3.907   4.073   8.586  0.0551 -0.3254  0.0363
 5046SOL    HW126600   3.869   3.987   8.600 -1.9343  0.6705  0.7204
 5046SOL    HW226601   3.981   4.048   8.531 -1.9004  0.4225 -2.9516
 5047SOL     OW26602   3.041   2.768   3.373  0.0909  0.3491 -0.0156
 5047SOL    HW126603   2.949   2.770   3.347 -0.3418  2.1194  1.5954
 5047SOL    HW226604   3.058   2.862   3.385 -0.1153  0.5849 -1.5469
 5048SOL     OW26605   3.619   0.389   8.456  0.3796  0.1643  0.4875
 5048SOL    HW126606   3.526   0.377   8.440  0.8680 -1.2198 -1.3256
 5048SOL    HW226607   3.624   0.371   8.550 -2.4610  1.0828  0.7932
 5049SOL     OW26608   1.948   3.936   4.235 -0.7761  0.5860  0.2586
 5049SOL    HW126609   1.938   3.899   4.147  2.9690 -2.1187  0.9780
 5049SOL    HW226610   2.004   4.010   4.212  2.3676 -2.0007 -0.4456
 5050SOL     OW26611   3.044   3.380   4.745 -0.5493 -0.0257 -0.4517
 5050SOL    HW126612   3.059   3.327   4.823  2.1660 -1.5451 -1.9955
 5050SOL    HW226613   2.966   3.339   4.708 -0.0870 -2.7789  1.6834
 5051SOL     OW26614   0.470   4.018  10.734  0.1545 -0.2248  0.1915
 5051SOL    HW126615   0.420   3.952  10.686 -2.6052  0.9146  1.5451
 5051SOL    HW226616   0.532   3.970  10.789 -0.1997  1.6603  2.2304
 5052SOL     OW26617   1.675   3.397   4.713  0.2478  0.0591  0.2090
 5052SOL    HW126618   1.583   3.400   4.739 -0.3249 -0.7687 -1.7303
 5052SOL    HW226619   1.662   3.344   4.634 -0.9182  0.6320  0.0188
 5053SOL     OW26620   3.444   4.280   4.519 -0.0287 -0.1563  0.4092
 5053SOL    HW126621   3.486   4.351   4.568 -0.4275 -0.5674  1.3353
 5053SOL    HW226622   3.385   4.243   4.585  0.5817 -0.3916  0.8192
 5054SOL     OW26623   3.866   3.761  17.496  0.6547 -0.4070 -0.1191
 5054SOL    HW126624   3.813   3.840  17.502 -1.2097 -1.8613  2.6941
 5054SOL    HW226625   3.931   3.786  17.431 -1.2046  1.5661 -1.1978
 5055SOL     OW26626   1.864   1.304   1.196 -0.2405 -0.7429  0.4350
 5055SOL    HW126627   1.826   1.345   1.119  1.9743  0.5965  0.0511
 5055SOL    HW226628   1.959   1.317   1.189 -0.1152 -0.5584  2.5640
 5056SOL     OW26629   3.418   4.552   8.075 -0.0200 -0.0191 -0.1583
 5056SOL    HW126630   3.485   4.574   8.139 -0.2120 -1.0108  0.3834
 5056SOL    HW226631   3.462   4.574   7.993 -0.2239  0.5351 -0.1165
 5057SOL     OW26632   4.011   1.246   3.240  0.4270 -0.2703 -0.1108
 5057SOL    HW126633   3.980   1.336   3.237 -0.6130 -0.5700  1.4572
 5057SOL    HW226634   3.958   1.225   3.317  0.6080 -1.5909 -0.3387
 5058SOL     OW26635   2.144   0.583   2.704  0.5158  0.3971  0.0698
 5058SOL    HW126636   2.086   0.529   2.649  0.5424  0.2330  0.2029
 5058SOL    HW226637   2.147   0.660   2.647 -0.8293 -0.0565 -0.6259
 5059SOL     OW26638   0.456   2.652   7.151  0.0419  0.1619 -0.1301
 5059SOL    HW126639   0.423   2.562   7.154 -2.0783  0.9726  0.6741
 5059SOL    HW226640   0.458   2.665   7.246 -0.1638  2.4300 -0.4371
 5060SOL     OW26641   3.620   2.609  15.805 -0.3411  0.1267  0.0412
 5060SOL    HW126642   3.659   2.607  15.892 -0.0450 -1.2295 -0.1116
 5060SOL    HW226643   3.620   2.704  15.805  0.5880  0.1259 -1.7708
 5061SOL     OW26644   1.514   2.504   6.382 -0.2582 -0.0270 -0.2775
 5061SOL    HW126645   1.596   2.477   6.423 -0.3966 -1.4876 -0.9600
 5061SOL    HW226646   1.552   2.528   6.297  1.1608  1.4447  0.7841
 5062SOL     OW26647   4.379   2.707   0.325  0.3803 -0.4612 -0.3326
 5062SOL    HW126648   4.397   2.742   0.237 -0.2385 -1.3082 -0.7980
 5062SOL    HW226649   4.414   2.777   0.381  1.7347 -2.6922  1.5849
 5063SOL     OW26650   4.034   2.452   8.863 -0.4225  0.1342 -0.0429
 5063SOL    HW126651   4.095   2.381   8.883  1.0427  1.8131  1.5032
 5063SOL    HW226652   4.070   2.518   8.923 -0.8111 -0.0217  0.3607
 5064SOL     OW26653   2.568   3.176   0.737 -0.1176 -0.3078 -0.6647
 5064SOL    HW126654   2.590   3.149   0.826 -0.3732 -2.2445 -1.1885
 5064SOL    HW226655   2.541   3.268   0.740  1.0988  0.0309 -0.1025
 5065SOL     OW26656   0.089   0.648  14.232  0.4324  0.1875 -0.4443
 5065SOL    HW126657   0.072   0.713  14.300 -0.2235  0.7888 -1.1764
 5065SOL    HW226658   0.047   0.688  14.155 -1.8876 -1.1520  0.1118
 5066SOL     OW26659   3.270   1.846  16.968  0.4250 -0.3868  0.1394
 5066SOL    HW126660   3.230   1.872  16.885 -0.0874  2.6181  1.3503
 5066SOL    HW226661   3.359   1.812  16.956  0.2646 -0.3852 -1.0448
 5067SOL     OW26662   2.114   2.058  14.202  0.1595  0.7099  0.1287
 5067SOL    HW126663   2.172   1.993  14.241 -1.1106  0.7622  2.1008
 5067SOL    HW226664   2.035   2.021  14.241 -0.6606  1.4433 -0.8358
 5068SOL     OW26665   3.684   3.894   9.615 -0.3449 -0.1503 -0.4440
 5068SOL    HW126666   3.765   3.941   9.635 -2.5382  3.5206 -0.1971
 5068SOL    HW226667   3.610   3.953   9.631  0.1924  0.3572  0.2069
 5069SOL     OW26668   4.370   4.246   3.029  0.6037 -0.2926  0.8187
 5069SOL    HW126669   4.408   4.188   2.964 -1.3762  0.6796 -1.1867
 5069SOL    HW226670   4.286   4.203   3.045  0.4388  0.4295  1.9538
 5070SOL     OW26671   4.521   1.402   8.640  0.0112  0.2901 -0.1811
 5070SOL    HW126672   4.466   1.357   8.704 -0.1603 -0.2794 -0.7177
 5070SOL    HW226673   4.611   1.383   8.667 -1.1223  0.1431  3.3591
 5071SOL     OW26674   1.175   4.371   7.305  0.2626  0.1458 -0.1478
 5071SOL    HW126675   1.109   4.392   7.371 -0.2731  0.2480 -0.7101
 5071SOL    HW226676   1.225   4.452   7.296  0.5918  0.1064  1.4070
 5072SOL     OW26677   3.596   4.493   5.129  0.0088 -0.0804  0.9803
 5072SOL    HW126678   3.662   4.552   5.166  1.3421 -0.5742 -0.6033
 5072SOL    HW226679   3.656   4.438   5.079  0.4490  0.0159  1.3991
 5073SOL     OW26680   4.165   0.522   4.947 -0.1098 -0.0126  0.5827
 5073SOL    HW126681   4.243   0.488   4.992 -0.5370 -1.4099  0.2928
 5073SOL    HW226682   4.210   0.553   4.869  0.1266 -0.0138  0.7170
 5074SOL     OW26683   0.517   2.661   6.391  0.0771  0.5336  0.5184
 5074SOL    HW126684   0.509   2.567   6.381 -0.0939  0.4334  1.5981
 5074SOL    HW226685   0.428   2.688   6.414 -0.6948 -1.8492  0.2387
 5075SOL     OW26686   0.548   1.754   5.668  0.2028  0.3604  0.0791
 5075SOL    HW126687   0.566   1.757   5.762  1.5899  5.0266 -0.3074
 5075SOL    HW226688   0.536   1.848   5.653  1.7723  0.1072 -2.7282
 5076SOL     OW26689   0.959   1.483   0.848 -0.0751 -0.2834  0.1474
 5076SOL    HW126690   0.892   1.440   0.793  0.6429  1.0053 -1.7111
 5076SOL    HW226691   1.000   1.546   0.789 -1.0031  0.8968  0.7676
 5077SOL     OW26692   4.532   2.080   7.117 -0.2624  0.1877 -0.0978
 5077SOL    HW126693   4.460   2.057   7.175 -0.3178  2.2033  0.6288
 5077SOL    HW226694   4.596   2.010   7.128 -1.4101 -0.9519 -0.6534
 5078SOL     OW26695   1.692   2.606   8.657  0.3913 -0.1206 -0.0913
 5078SOL    HW126696   1.684   2.701   8.668  2.0948 -0.3300  2.8659
 5078SOL    HW226697   1.638   2.581   8.732  1.2140 -0.2853  0.4409
 5079SOL     OW26698   0.239   1.207   5.798  0.1501 -0.2934  0.0572
 5079SOL    HW126699   0.186   1.278   5.762  1.6292  1.3406  1.1468
 5079SOL    HW226700   0.332   1.229   5.788 -0.1071  1.0339  0.6690
 5080SOL     OW26701   1.085   2.088   5.006 -0.0860  0.3800  0.1150
 5080SOL    HW126702   1.087   2.182   5.025  1.3137  0.5087 -0.7178
 5080SOL    HW226703   0.996   2.067   5.033 -0.6468  2.4596 -0.1093
 5081SOL     OW26704   3.434   3.386  16.534  0.3864  0.1950 -0.2847
 5081SOL    HW126705   3.489   3.458  16.565  0.3448  1.4503 -3.1279
 5081SOL    HW226706   3.373   3.364  16.604  0.6710 -0.3381 -0.2051
 5082SOL     OW26707   2.575   3.621   1.449 -0.4985 -0.9164 -0.2109
 5082SOL    HW126708   2.520   3.606   1.372 -2.4822 -0.6181  1.1662
 5082SOL    HW226709   2.658   3.583   1.420 -0.8353 -2.2959  0.6362
 5083SOL     OW26710   4.605   2.876  15.131  0.4777 -0.3426  0.0499
 5083SOL    HW126711   4.659   2.899  15.055 -0.3641  1.2823 -0.0544
 5083SOL    HW226712   4.514   2.892  15.106  0.0672 -1.3944  0.8881
 5084SOL     OW26713   4.447   1.479   5.210 -0.0100  0.5470 -0.6437
 5084SOL    HW126714   4.541   1.467   5.194 -0.0476  1.1361 -1.2648
 5084SOL    HW226715   4.421   1.455   5.121 -0.5205 -0.2847 -0.2762
 5085SOL     OW26716   2.617   1.835   5.708  0.0760 -0.2264 -0.3177
 5085SOL    HW126717   2.614   1.839   5.803  0.1376 -0.2826 -0.3130
 5085SOL    HW226718   2.710   1.813   5.706  0.7666  2.6097  0.9062
 5086SOL     OW26719   3.285   0.332   6.038  0.3066 -0.3412 -0.5453
 5086SOL    HW126720   3.240   0.318   5.955 -0.1235  1.3875 -0.6008
 5086SOL    HW226721   3.378   0.346   6.019  0.6177  0.6112  1.6746
 5087SOL     OW26722   2.402   2.988   7.186 -0.0977 -0.5016  0.1213
 5087SOL    HW126723   2.431   3.026   7.104  0.0832  0.6454  0.7230
 5087SOL    HW226724   2.408   2.894   7.165 -1.2976 -0.3650 -0.8584
 5088SOL     OW26725   1.063   0.429  10.509 -0.2379  0.4904 -0.6742
 5088SOL    HW126726   0.968   0.445  10.511 -0.3037 -0.0586  0.5543
 5088SOL    HW226727   1.091   0.426  10.600  1.4923  0.6332 -1.1986
 5089SOL     OW26728   3.275   2.179   2.274 -0.3791  0.2011  0.3324
 5089SOL    HW126729   3.248   2.233   2.201 -0.8010  1.4231  1.3891
 5089SOL    HW226730   3.368   2.200   2.278 -0.5351  1.1215 -1.0990
 5090SOL     OW26731   1.173   1.526   8.629 -0.5101  0.8056  0.0863
 5090SOL    HW126732   1.226   1.586   8.577 -1.3267 -0.0608 -1.7334
 5090SOL    HW226733   1.107   1.504   8.564  1.0963  1.7412 -1.8480
 5091SOL     OW26734   1.126   0.415   5.463 -0.2115 -0.6302 -0.2196
 5091SOL    HW126735   1.184   0.447   5.533  0.8888  0.6638 -1.7234
 5091SOL    HW226736   1.040   0.451   5.486  0.2946  0.0303  0.6251
 5092SOL     OW26737   1.562   1.825   5.791 -0.8272  0.4209 -0.8566
 5092SOL    HW126738   1.606   1.793   5.870 -0.6366  0.8592 -0.7879
 5092SOL    HW226739   1.641   1.844   5.739 -0.6727  1.5916 -0.1864
 5093SOL     OW26740   1.014   1.289  14.394  0.0519  0.3404 -0.3027
 5093SOL    HW126741   1.060   1.255  14.317  1.2887 -1.2664  1.1380
 5093SOL    HW226742   1.017   1.213  14.452 -1.4562  0.9937  0.6322
 5094SOL     OW26743   4.185   0.177   8.514 -0.1181 -0.1853 -0.0692
 5094SOL    HW126744   4.242   0.120   8.566  1.6133 -0.9222 -2.7640
 5094SOL    HW226745   4.189   0.256   8.569 -0.2461 -0.4695  0.3502
 5095SOL     OW26746   3.493   4.134   5.465  0.2371  0.2575 -0.3099
 5095SOL    HW126747   3.522   4.054   5.509 -1.1319 -0.2346 -0.3052
 5095SOL    HW226748   3.412   4.107   5.421 -0.6031  0.7558  0.9460
 5096SOL     OW26749   0.810   3.186   8.992  0.3243 -0.5426 -0.7192
 5096SOL    HW126750   0.758   3.185   8.912 -0.6372 -0.9818 -0.0773
 5096SOL    HW226751   0.878   3.125   8.964  0.3906 -0.0970 -1.5372
 5097SOL     OW26752   2.068   3.287   5.333 -0.3212  0.0785  0.0354
 5097SOL    HW126753   1.980   3.270   5.368  0.7609 -2.2114  1.5875
 5097SOL    HW226754   2.059   3.245   5.248  1.4534  0.5711 -0.3990
 5098SOL     OW26755   1.459   2.167   7.407 -0.3739  0.0833  0.0781
 5098SOL    HW126756   1.405   2.088   7.398 -0.3883  0.0734  0.2431
 5098SOL    HW226757   1.426   2.209   7.487  1.6024  0.3952  0.7146
 5099SOL     OW26758   1.974   0.495   0.610 -0.3903  0.5267 -0.1396
 5099SOL    HW126759   1.988   0.456   0.697 -1.6078 -1.7429 -0.9407
 5099SOL    HW226760   1.879   0.504   0.621 -0.2681 -0.6994  1.9999
 5100SOL     OW26761   2.503   0.400   5.495  0.3738  0.0116 -0.2475
 5100SOL    HW126762   2.459   0.399   5.410  1.7835 -0.2381 -0.9703
 5100SOL    HW226763   2.449   0.466   5.538 -0.6866 -0.9369 -0.1021
 5101SOL     OW26764   3.039   1.736  17.057 -0.5509 -0.3381  0.2058
 5101SOL    HW126765   3.114   1.767  17.007  0.3755 -2.7941  0.0641
 5101SOL    HW226766   3.006   1.802  17.117  1.3762 -0.6379  1.5926
 5102SOL     OW26767   2.564   3.752   8.132  0.0726 -0.1846  0.1154
 5102SOL    HW126768   2.573   3.804   8.053  1.0294  1.6404  1.4312
 5102SOL    HW226769   2.630   3.773   8.198  0.5012 -2.6991  0.4780
 5103SOL     OW26770   2.313   2.456  17.162 -0.1606  0.1103  0.3879
 5103SOL    HW126771   2.244   2.520  17.141 -0.9707 -1.3163 -1.3012
 5103SOL    HW226772   2.374   2.515  17.207 -1.4857  0.5823  1.5565
 5104SOL     OW26773   0.483   4.144   4.441  0.0989 -0.0990 -0.0210
 5104SOL    HW126774   0.397   4.120   4.475  1.1961 -1.7848  1.5893
 5104SOL    HW226775   0.466   4.144   4.347 -0.0865 -0.8242  0.0078
 5105SOL     OW26776   4.101   4.182   0.920  0.0505 -0.0885 -0.0617
 5105SOL    HW126777   4.044   4.250   0.884 -0.6362 -0.7385 -0.2137
 5105SOL    HW226778   4.159   4.161   0.847 -2.3053 -1.9664 -1.4148
 5106SOL     OW26779   1.641   3.110   4.655  0.0343 -0.6008 -0.3930
 5106SOL    HW126780   1.564   3.105   4.711  1.4726 -0.7814  1.5641
 5106SOL    HW226781   1.703   3.088   4.725 -1.1789 -0.1239  0.8308
 5107SOL     OW26782   2.178   3.933  14.791  0.2762 -0.5426 -0.2667
 5107SOL    HW126783   2.257   3.937  14.736  1.5174 -0.8785  1.5119
 5107SOL    HW226784   2.146   3.849  14.758  0.5533 -1.2164  1.1991
 5108SOL     OW26785   2.479   1.821   3.293  0.4004 -0.1268  0.9289
 5108SOL    HW126786   2.461   1.819   3.200 -1.3168  1.2993  1.2583
 5108SOL    HW226787   2.417   1.751   3.313  0.6889 -0.9444 -1.0106
 5109SOL     OW26788   2.165   3.385   8.753  0.3088  0.2995  0.6410
 5109SOL    HW126789   2.213   3.404   8.833 -1.2128 -1.4141  1.9760
 5109SOL    HW226790   2.078   3.393   8.792 -0.9589  2.7553 -2.7185
 5110SOL     OW26791   2.947   0.554   3.153  0.2798 -0.5622  0.5390
 5110SOL    HW126792   2.924   0.633   3.201 -0.8901 -0.4130 -0.2786
 5110SOL    HW226793   2.925   0.495   3.225  3.7140 -0.4304  1.7357
 5111SOL     OW26794   4.215   0.549   0.541 -0.4590  0.1452 -0.5866
 5111SOL    HW126795   4.253   0.466   0.513 -0.9779 -0.8318  1.5675
 5111SOL    HW226796   4.260   0.621   0.497  0.4307 -1.0988 -1.7019
 5112SOL     OW26797   1.516   2.011   6.927 -0.0714 -0.0681  0.2022
 5112SOL    HW126798   1.542   2.059   7.006  0.6621 -0.6935  0.3433
 5112SOL    HW226799   1.454   2.076   6.894  2.2756  2.0033 -0.1821
 5113SOL     OW26800   2.167   1.623   4.667  0.3404 -0.1749  0.1550
 5113SOL    HW126801   2.118   1.679   4.727  0.5445 -1.2223  1.3035
 5113SOL    HW226802   2.127   1.642   4.582  0.0540  3.2366  1.0158
 5114SOL     OW26803   2.629   4.361   3.060  0.1473 -0.5064 -0.2503
 5114SOL    HW126804   2.601   4.435   3.113 -0.0546 -3.1689  3.4021
 5114SOL    HW226805   2.605   4.396   2.975  0.2875 -0.0648 -0.1107
 5115SOL     OW26806   2.417   1.709   8.804  0.2198  0.2542  0.1783
 5115SOL    HW126807   2.393   1.634   8.749 -0.1080 -1.3257  2.4851
 5115SOL    HW226808   2.345   1.711   8.867 -0.8539 -1.6026 -0.9776
 5116SOL     OW26809   1.831   0.809   7.263  0.2247 -0.0580 -0.3184
 5116SOL    HW126810   1.837   0.872   7.334 -0.1929 -0.0912 -0.2526
 5116SOL    HW226811   1.876   0.740   7.311 -0.5321 -0.5482 -0.3095
 5117SOL     OW26812   0.336   3.613   7.363 -0.2277  0.1887 -0.0926
 5117SOL    HW126813   0.276   3.662   7.419 -1.5114 -1.5591  0.0844
 5117SOL    HW226814   0.392   3.571   7.428  0.2733 -0.7893 -1.1552
 5118SOL     OW26815   3.837   0.124  10.412  0.6318 -0.9226  0.1774
 5118SOL    HW126816   3.909   0.069  10.382  0.1921 -1.0126 -0.7037
 5118SOL    HW226817   3.859   0.119  10.505  0.6471  0.6189  0.2531
 5119SOL     OW26818   2.236   1.533   6.408  0.6352  0.2347 -0.2308
 5119SOL    HW126819   2.320   1.494   6.429  0.9449  1.5401  0.9680
 5119SOL    HW226820   2.225   1.584   6.488  3.2195 -1.4233  1.1602
 5120SOL     OW26821   1.940   1.374   1.646 -0.1784 -0.3963 -0.0212
 5120SOL    HW126822   1.907   1.464   1.653 -0.5258 -0.5550  0.3840
 5120SOL    HW226823   1.997   1.370   1.723  0.1557 -0.3571 -0.2679
 5121SOL     OW26824   1.669   1.688  14.220 -0.1542  0.0527 -0.4441
 5121SOL    HW126825   1.746   1.689  14.277 -0.7493  1.0341  0.3363
 5121SOL    HW226826   1.631   1.773  14.244  1.9857 -0.1455  3.7433
 5122SOL     OW26827   1.227   4.092   8.438  0.5445 -0.2639 -0.0521
 5122SOL    HW126828   1.201   4.183   8.450  0.3819 -0.3553  0.2688
 5122SOL    HW226829   1.160   4.049   8.490  0.4840 -0.6779 -0.4706
 5123SOL     OW26830   2.522   3.841  15.443  0.3077 -0.2262  1.0588
 5123SOL    HW126831   2.530   3.865  15.351  0.9564 -0.5307  1.0345
 5123SOL    HW226832   2.544   3.926  15.482  0.3429  0.1694  0.1850
 5124SOL     OW26833   1.398   3.544   4.817  0.0714 -0.3019 -0.3518
 5124SOL    HW126834   1.309   3.523   4.847  0.8585 -1.9850  0.8065
 5124SOL    HW226835   1.386   3.624   4.766 -0.2773  0.8483  1.5386
 5125SOL     OW26836   0.590   1.327   2.421  0.1042  0.3453  0.4165
 5125SOL    HW126837   0.649   1.321   2.496 -0.2593 -0.4440  0.6438
 5125SOL    HW226838   0.594   1.417   2.391  0.2272  0.3079  0.3229
 5126SOL     OW26839   1.669   3.139   2.784 -0.4147 -0.4119  0.4863
 5126SOL    HW126840   1.717   3.111   2.862 -0.7289 -0.6850  0.5824
 5126SOL    HW226841   1.667   3.234   2.790 -0.8671 -0.2475 -2.0528
 5127SOL     OW26842   0.230   3.581   4.838  0.0451 -0.2545  0.7127
 5127SOL    HW126843   0.261   3.539   4.918 -0.9494 -2.4121 -0.0281
 5127SOL    HW226844   0.135   3.580   4.849  0.2805  1.1132  2.8109
 5128SOL     OW26845   2.597   3.680  15.917  0.2001  1.0123  0.1969
 5128SOL    HW126846   2.629   3.769  15.934 -2.9235  2.4810 -1.7696
 5128SOL    HW226847   2.510   3.683  15.956  0.3911 -0.9227  0.7718
 5129SOL     OW26848   0.724   1.767  13.017  0.3879 -0.4934 -0.6657
 5129SOL    HW126849   0.735   1.699  13.083 -0.4710  0.7289  0.7445
 5129SOL    HW226850   0.629   1.774  13.015  0.6458  2.5486 -2.1208
 5130SOL     OW26851   2.671   2.813   0.617 -0.1248 -0.3652 -0.7011
 5130SOL    HW126852   2.738   2.813   0.548  0.0947  2.8675 -0.4870
 5130SOL    HW226853   2.726   2.777   0.687 -1.9863  0.4173  1.1623
 5131SOL     OW26854   1.826   2.971   0.000 -0.0650  0.2068  0.0243
 5131SOL    HW126855   1.892   2.904   0.018 -0.0781  0.1883  0.0032
 5131SOL    HW226856   1.842   3.030   0.074 -0.4010  0.5610 -0.1881
 5132SOL     OW26857   1.648   3.994   4.708 -0.1005  0.8217 -0.3906
 5132SOL    HW126858   1.659   3.913   4.658 -0.5248 -0.3038  1.3393
 5132SOL    HW226859   1.565   4.020   4.669 -0.3939  0.8104  0.2224
 5133SOL     OW26860   0.694   1.110   6.322 -0.1145 -0.2067  0.0896
 5133SOL    HW126861   0.604   1.141   6.314 -0.5900 -1.2951  1.3404
 5133SOL    HW226862   0.742   1.193   6.317 -0.4057  0.0017  0.7369
 5134SOL     OW26863   0.794   0.180  13.476 -0.2633  0.0939 -0.6698
 5134SOL    HW126864   0.774   0.107  13.534 -3.6240  0.5635 -1.2091
 5134SOL    HW226865   0.872   0.146  13.431  0.3507 -1.1198  1.3504
 5135SOL     OW26866   3.468   4.310   5.814  0.1894  0.2254 -0.3144
 5135SOL    HW126867   3.511   4.313   5.728  1.7049  1.2286  0.4696
 5135SOL    HW226868   3.543   4.329   5.870 -0.1697  1.6320 -0.3053
 5136SOL     OW26869   1.891   4.137  16.022  0.8249  0.1029 -0.3455
 5136SOL    HW126870   1.859   4.100  16.104  2.0374 -1.0571 -0.3885
 5136SOL    HW226871   1.949   4.207  16.049 -1.3598  1.2994  1.1721
 5137SOL     OW26872   2.245   2.051   6.994 -0.1102  0.1112  0.6835
 5137SOL    HW126873   2.176   2.066   7.059 -0.3747 -0.1625  0.4710
 5137SOL    HW226874   2.215   2.113   6.927 -2.0287  0.7509  2.1541
 5138SOL     OW26875   2.392   3.148  13.932  0.4161  1.2132 -0.0409
 5138SOL    HW126876   2.341   3.142  13.851 -0.3852 -1.3319  0.6466
 5138SOL    HW226877   2.460   3.086  13.908 -0.2484  1.0412 -1.4740
 5139SOL     OW26878   1.540   3.279   4.292 -0.4439  0.8700  0.3591
 5139SOL    HW126879   1.601   3.207   4.308 -1.7714  0.0267  1.6176
 5139SOL    HW226880   1.569   3.327   4.215 -0.3619 -0.5983 -0.5226
 5140SOL     OW26881   1.729   0.395   4.734 -0.0176  0.0601  0.2308
 5140SOL    HW126882   1.742   0.319   4.677 -1.2751  1.6554 -2.1909
 5140SOL    HW226883   1.634   0.395   4.744 -0.0283  0.6078  0.1384
 5141SOL     OW26884   4.098   0.968   9.980 -0.5614 -0.1982 -0.0752
 5141SOL    HW126885   4.144   0.932  10.056 -2.9596 -1.8404  0.6247
 5141SOL    HW226886   4.080   0.889   9.929  0.2675  1.6101 -3.1952
 5142SOL     OW26887   0.889   4.424  15.142 -0.2967 -0.0393 -0.2807
 5142SOL    HW126888   0.903   4.450  15.051 -1.3580  2.4610  0.2659
 5142SOL    HW226889   0.794   4.435  15.143 -0.0388  2.2853 -0.0320
 5143SOL     OW26890   2.943   3.892   7.345 -0.1853 -0.0300 -0.0392
 5143SOL    HW126891   3.020   3.922   7.296 -0.9463  2.8597  0.5305
 5143SOL    HW226892   2.968   3.801   7.357  1.5614  0.3646 -0.6442
 5144SOL     OW26893   0.755   4.466   7.262  0.0311  0.2042 -0.0434
 5144SOL    HW126894   0.733   4.544   7.211 -0.1515  0.4873  0.4630
 5144SOL    HW226895   0.760   4.398   7.194 -2.4076 -0.2604  0.2303
 5145SOL     OW26896   3.970   2.316  13.357  0.5655  0.3642  0.2575
 5145SOL    HW126897   3.902   2.349  13.415  0.2193 -0.2757  0.2142
 5145SOL    HW226898   4.051   2.340  13.402 -0.6206  1.3229  1.8908
 5146SOL     OW26899   1.713   3.651   3.070 -0.3106 -0.4774  0.3930
 5146SOL    HW126900   1.634   3.669   3.121  0.7551 -0.1959  1.9407
 5146SOL    HW226901   1.732   3.558   3.072 -0.5417 -0.5605 -1.3870
 5147SOL     OW26902   0.688   4.143  13.526  0.0445  0.3912 -0.3111
 5147SOL    HW126903   0.665   4.163  13.617  0.2373 -1.1153  0.0762
 5147SOL    HW226904   0.617   4.192  13.486 -0.8644 -0.6984 -0.0430
 5148SOL     OW26905   3.961   2.695   7.928  0.6790  0.7003 -0.4197
 5148SOL    HW126906   3.985   2.602   7.922  1.4102  0.8896 -0.3478
 5148SOL    HW226907   4.042   2.735   7.897  0.8015  0.2041 -0.7386
 5149SOL     OW26908   2.207   1.965   2.734 -0.6899 -0.3082 -0.0617
 5149SOL    HW126909   2.280   1.953   2.674 -1.1802 -0.4652 -0.6357
 5149SOL    HW226910   2.241   1.948   2.822 -0.2600 -0.0063 -0.1720
 5150SOL     OW26911   3.545   3.430   4.478 -0.0788 -0.2613  0.2823
 5150SOL    HW126912   3.585   3.417   4.564  0.2220 -2.2990 -0.1650
 5150SOL    HW226913   3.548   3.524   4.463  2.1249 -0.5077 -0.8125
 5151SOL     OW26914   2.501   3.900  13.241 -0.2978  0.9680  0.5299
 5151SOL    HW126915   2.445   3.888  13.318  0.1391  0.1823  0.7236
 5151SOL    HW226916   2.567   3.958  13.278  0.3531  0.0837  0.7623
 5152SOL     OW26917   4.462   4.160   1.888 -0.5885 -0.7864 -0.7766
 5152SOL    HW126918   4.429   4.239   1.845  3.2476  0.8431 -0.7267
 5152SOL    HW226919   4.549   4.161   1.848 -0.6709  1.6501 -0.9239
 5153SOL     OW26920   3.458   1.459  12.294  0.4573 -0.4119  0.2380
 5153SOL    HW126921   3.429   1.550  12.293 -1.8049 -1.1348  0.7987
 5153SOL    HW226922   3.544   1.467  12.336 -0.2509 -1.3948  1.8518
 5154SOL     OW26923   1.372   0.788   6.711  0.0520  0.3109  0.0141
 5154SOL    HW126924   1.442   0.848   6.735 -1.0041  1.4932  0.1684
 5154SOL    HW226925   1.293   0.832   6.744  0.2012 -0.3898  1.3063
 5155SOL     OW26926   3.127   1.005   5.957  0.2289  0.8520  0.2543
 5155SOL    HW126927   3.125   0.932   6.018  0.0346  0.0012 -0.7804
 5155SOL    HW226928   3.041   1.042   5.977 -0.0037  0.6028 -0.2882
 5156SOL     OW26929   1.050   2.474   2.802  0.7936 -0.1689 -0.1995
 5156SOL    HW126930   1.062   2.569   2.791  2.8582 -0.5115 -0.7760
 5156SOL    HW226931   0.957   2.465   2.781  0.5261  0.8224  0.5267
 5157SOL     OW26932   1.183   2.478  14.826 -0.0188  0.5758  0.3333
 5157SOL    HW126933   1.152   2.434  14.905 -4.7485  0.5610 -1.5361
 5157SOL    HW226934   1.168   2.404  14.768 -1.3703 -0.2135  1.6852
 5158SOL     OW26935   2.948   0.711   6.289  0.2831 -0.4559 -0.2911
 5158SOL    HW126936   2.905   0.743   6.210 -1.1117 -1.7986 -0.0868
 5158SOL    HW226937   2.884   0.642   6.307  2.1966 -1.9464  0.7391
 5159SOL     OW26938   4.597   1.591   7.989 -0.3247 -0.1379 -0.6768
 5159SOL    HW126939   4.529   1.652   7.960  0.2593  0.9857  0.3080
 5159SOL    HW226940   4.640   1.638   8.061  0.3357 -1.8257  0.0286
 5160SOL     OW26941   3.874   3.707   4.585 -0.0857 -0.5329 -0.1201
 5160SOL    HW126942   3.845   3.616   4.592  0.0966 -0.5061  1.0951
 5160SOL    HW226943   3.876   3.716   4.490 -0.8898  0.3678 -0.0494
 5161SOL     OW26944   1.010   0.838   7.736 -0.0075 -0.4195 -0.2726
 5161SOL    HW126945   1.043   0.753   7.706  2.6209  0.2498  0.7447
 5161SOL    HW226946   0.931   0.843   7.682  1.0414 -0.8300 -1.8398
 5162SOL     OW26947   2.390   0.184   3.476  0.1881 -0.1826 -0.1903
 5162SOL    HW126948   2.433   0.105   3.443 -2.2852 -1.8076  0.5263
 5162SOL    HW226949   2.397   0.231   3.393 -0.9832  0.8481  0.2922
 5163SOL     OW26950   2.476   2.198  14.298  0.2079 -0.1843  0.6834
 5163SOL    HW126951   2.511   2.287  14.297  0.6582 -0.3726 -0.1335
 5163SOL    HW226952   2.413   2.197  14.371  0.7248  2.0477  1.1810
 5164SOL     OW26953   2.721   2.641   8.359 -0.0620 -0.1571  0.2631
 5164SOL    HW126954   2.741   2.667   8.269 -1.5439  1.0730  0.2942
 5164SOL    HW226955   2.639   2.592   8.350  0.0836 -0.2667 -0.4406
 5165SOL     OW26956   1.286   0.054  12.171  0.1492 -0.2942  0.0617
 5165SOL    HW126957   1.346   0.113  12.127  1.1684 -1.5913 -0.2866
 5165SOL    HW226958   1.213   0.061  12.108 -0.1638  0.2150  0.4786
 5166SOL     OW26959   1.185   1.890   3.655  0.0281 -0.3012 -0.6903
 5166SOL    HW126960   1.216   1.980   3.642 -0.7227  0.3529  1.9248
 5166SOL    HW226961   1.126   1.887   3.580 -0.1574  0.4907 -0.5792
 5167SOL     OW26962   1.291   0.522   7.250  0.3181 -0.4143  0.0918
 5167SOL    HW126963   1.200   0.518   7.218  0.4726 -0.6459 -0.3241
 5167SOL    HW226964   1.327   0.594   7.198 -0.8488  0.0303 -0.1105
 5168SOL     OW26965   1.847   2.961   7.248  0.0646 -0.5387 -0.0393
 5168SOL    HW126966   1.766   2.972   7.198  0.2566  0.7397 -0.0701
 5168SOL    HW226967   1.856   3.044   7.295 -1.4982  0.5103 -1.5959
 5169SOL     OW26968   0.536   2.109  15.427 -0.8565  0.7503  0.1145
 5169SOL    HW126969   0.585   2.157  15.494 -0.1134  1.0310 -0.6377
 5169SOL    HW226970   0.535   2.023  15.469  0.8406  0.2821 -0.8135
 5170SOL     OW26971   2.331   3.721   8.891  0.3096  0.2993 -0.3442
 5170SOL    HW126972   2.363   3.755   8.975 -0.6080  0.0898  0.0820
 5170SOL    HW226973   2.335   3.800   8.837  1.7771  1.0070  0.7726
 5171SOL     OW26974   1.898   3.992   4.595  0.1692 -0.0821  0.1590
 5171SOL    HW126975   1.819   4.024   4.640 -0.1469  0.6516 -0.9148
 5171SOL    HW226976   1.898   3.901   4.626  1.0224 -0.0323  0.2872
 5172SOL     OW26977   2.942   3.515   5.350  1.0863  0.9187 -0.4862
 5172SOL    HW126978   3.003   3.445   5.329  0.7246  0.2129  0.7871
 5172SOL    HW226979   2.898   3.479   5.427 -2.7465 -0.7051 -3.4302
 5173SOL     OW26980   0.568   3.654  15.045 -0.5203 -0.1306 -0.3732
 5173SOL    HW126981   0.497   3.623  14.989 -0.8518  1.0794 -0.6148
 5173SOL    HW226982   0.526   3.734  15.077 -0.5367 -1.1120  2.0586
 5174SOL     OW26983   4.532   2.526   9.915  0.1238 -0.1159 -0.5830
 5174SOL    HW126984   4.569   2.516   9.828 -0.3264 -2.7325 -0.5001
 5174SOL    HW226985   4.456   2.583   9.902  1.1209  1.2317 -0.3937
 5175SOL     OW26986   4.633   0.388   8.253  0.7554  0.1280 -0.9357
 5175SOL    HW126987   4.570   0.329   8.296 -1.1689  2.4357 -0.5867
 5175SOL    HW226988   4.611   0.374   8.161 -0.4385 -1.1861 -0.4547
 5176SOL     OW26989   0.085   4.464   0.226  1.4904  0.5045  0.0124
 5176SOL    HW126990   0.030   4.532   0.187 -0.0491 -1.7006 -1.7103
 5176SOL    HW226991   0.150   4.457   0.156  1.4243  2.4333 -0.2418
 5177SOL     OW26992   0.078   0.217   2.773  0.2582 -0.0664  0.0447
 5177SOL    HW126993   0.161   0.169   2.781  1.1346  1.6414  1.1161
 5177SOL    HW226994   0.100   0.280   2.841 -3.6418  0.0425  1.1530
 5178SOL     OW26995   3.530   2.437   7.057  0.1288 -0.0451 -0.1559
 5178SOL    HW126996   3.569   2.421   7.143  1.7264  1.0553 -0.6694
 5178SOL    HW226997   3.577   2.370   7.007 -0.5897  0.2102 -1.1785
 5179SOL     OW26998   1.965   4.536   7.353  0.3405 -0.5383 -0.0291
 5179SOL    HW126999   1.944   4.594   7.425  0.3509  0.0485 -0.4983
 5179SOL    HW227000   2.016   4.591   7.293 -1.1682 -0.2520 -1.0772
 5180SOL     OW27001   3.867   2.196   6.548  0.1744 -0.1640  0.2080
 5180SOL    HW127002   3.883   2.102   6.561 -0.3218 -0.2280  0.3227
 5180SOL    HW227003   3.928   2.241   6.607  0.9860  1.4357 -1.8273
 5181SOL     OW27004   3.938   3.863   2.855  0.1849 -0.2009  0.1456
 5181SOL    HW127005   3.922   3.936   2.794  0.8834  0.5787  0.9018
 5181SOL    HW227006   3.877   3.793   2.832  0.1044 -0.0169 -0.2196
 5182SOL     OW27007   2.546   3.895   5.920  0.0967  0.2045 -0.0292
 5182SOL    HW127008   2.620   3.938   5.964  2.2404 -1.7236 -1.7771
 5182SOL    HW227009   2.509   3.834   5.984 -0.5243  1.8807  1.2225
 5183SOL     OW27010   3.869   1.602   8.773  0.0040  0.1342  0.0037
 5183SOL    HW127011   3.807   1.621   8.703  0.6694  2.3626  0.0325
 5183SOL    HW227012   3.865   1.685   8.820 -2.9819 -0.6191  1.0630
 5184SOL     OW27013   4.510   0.126   4.680 -0.2059  0.0389 -0.4800
 5184SOL    HW127014   4.566   0.160   4.610  0.7241  0.0500  0.2750
 5184SOL    HW227015   4.425   0.116   4.637  0.0516 -0.6022 -0.8407
 5185SOL     OW27016   2.785   0.994   5.070 -0.3020  0.1303  0.5244
 5185SOL    HW127017   2.764   0.904   5.096  0.0642  0.1086  0.7459
 5185SOL    HW227018   2.711   1.018   5.014 -1.6211  1.4588  2.8412
 5186SOL     OW27019   0.620   4.678   8.336  0.0881 -0.3100 -0.2747
 5186SOL    HW127020   0.670   4.674   8.417  0.5216  1.1472 -0.4697
 5186SOL    HW227021   0.630   0.045   8.311 -1.6923 -0.2420 -0.8029
 5187SOL     OW27022   3.980   2.709   3.239 -0.0534 -0.6834 -0.2986
 5187SOL    HW127023   4.058   2.764   3.235  0.0829 -0.7884  0.9027
 5187SOL    HW227024   4.000   2.652   3.313 -1.0299 -1.4031 -0.5855
 5188SOL     OW27025   2.283   3.475  11.895 -0.7518  0.4838  0.1469
 5188SOL    HW127026   2.307   3.521  11.814 -0.3095  0.8289  0.4742
 5188SOL    HW227027   2.198   3.434  11.880  0.5682 -2.9006  2.0416
 5189SOL     OW27028   2.263   3.647   2.225 -0.1891  0.3171  0.0747
 5189SOL    HW127029   2.306   3.712   2.169  0.1210  1.0257  1.1306
 5189SOL    HW227030   2.331   3.647   2.292 -1.1233  1.0512  1.0359
 5190SOL     OW27031   0.974   3.484  15.330 -0.2079 -0.0343  0.3098
 5190SOL    HW127032   0.883   3.497  15.302  0.5779  2.3822 -1.1630
 5190SOL    HW227033   1.036   3.535  15.278 -1.2845  0.4989 -0.4464
 5191SOL     OW27034   1.181   3.306   6.201 -0.5973  0.1551 -0.0789
 5191SOL    HW127035   1.148   3.223   6.236 -4.1407  1.5663 -0.0313
 5191SOL    HW227036   1.115   3.366   6.237  0.4162  2.3235 -1.8424
 5192SOL     OW27037   3.461   3.065   7.011 -0.1534  0.9104 -0.2221
 5192SOL    HW127038   3.491   2.989   7.060  0.0589 -1.1496 -3.5231
 5192SOL    HW227039   3.454   3.028   6.923  1.0975  0.4743 -0.1452
 5193SOL     OW27040   4.699   3.873   2.121 -0.0711  0.3459 -0.4318
 5193SOL    HW127041   0.042   3.878   2.189 -0.3298  1.3226 -0.2417
 5193SOL    HW227042   4.635   3.815   2.162  0.9086  0.1504  0.8064
 5194SOL     OW27043   1.568   0.125   0.988  0.1995 -0.4220  0.3036
 5194SOL    HW127044   1.646   0.157   1.033  1.1391  0.8775 -2.3213
 5194SOL    HW227045   1.601   0.079   0.911 -2.0987 -0.5718 -0.6096
 5195SOL     OW27046   2.391   2.274   5.631  0.3000  0.5975  0.1376
 5195SOL    HW127047   2.405   2.191   5.676  2.1002  1.6856  1.5492
 5195SOL    HW227048   2.329   2.240   5.566 -1.1095 -3.0158  3.3963
 5196SOL     OW27049   3.500   1.396  17.513  0.2043  0.1243  0.0610
 5196SOL    HW127050   3.499   1.438  17.427 -1.2421 -0.0700 -0.0148
 5196SOL    HW227051   3.460   1.313  17.487 -0.4108  0.5088 -0.2194
 5197SOL     OW27052   3.522   1.128  10.764  0.1136  0.2699  0.3557
 5197SOL    HW127053   3.504   1.195  10.831  0.0802  1.8242 -1.2075
 5197SOL    HW227054   3.432   1.104  10.739 -0.0285 -0.3355  1.4648
 5198SOL     OW27055   2.529   2.826  14.692 -0.3316  0.5706 -0.9964
 5198SOL    HW127056   2.558   2.893  14.754  0.2540 -0.4353 -0.1808
 5198SOL    HW227057   2.595   2.829  14.623  1.0341 -2.2013  0.1905
 5199SOL     OW27058   3.119   2.639   7.922 -0.2102  0.2165 -0.0793
 5199SOL    HW127059   3.039   2.661   7.874 -0.0965 -1.6361 -1.1382
 5199SOL    HW227060   3.164   2.723   7.923  3.6245 -1.8382  0.6863
 5200SOL     OW27061   4.412   0.173   9.110 -0.6595  0.2500 -0.4602
 5200SOL    HW127062   4.373   0.086   9.121  0.7522 -0.5031 -1.4346
 5200SOL    HW227063   4.356   0.198   9.035  0.3925  1.2920 -0.8961
 5201SOL     OW27064   2.912   3.256   4.438  0.8281  0.2164 -0.3370
 5201SOL    HW127065   2.938   3.232   4.349  3.4373 -1.0121  0.7318
 5201SOL    HW227066   2.838   3.199   4.457  1.3337  0.2795  1.8077
 5202SOL     OW27067   2.547   1.896   8.669  0.0187  0.6311  0.4864
 5202SOL    HW127068   2.539   1.867   8.578 -1.3731 -2.0645  1.4705
 5202SOL    HW227069   2.482   1.840   8.712  0.3706 -0.9183 -1.0209
 5203SOL     OW27070   4.690   0.607  16.891  1.0256 -0.0617  0.4727
 5203SOL    HW127071   4.628   0.556  16.838  1.1253  0.1737  0.1323
 5203SOL    HW227072   4.663   0.588  16.981 -0.2893  0.1090  0.1236
 5204SOL     OW27073   2.147   3.515   1.232 -0.1785  0.3580  0.3306
 5204SOL    HW127074   2.197   3.485   1.307 -2.1701 -0.4066  1.3444
 5204SOL    HW227075   2.196   3.597   1.224 -0.0117  0.0109 -2.3618
 5205SOL     OW27076   3.727   1.004   1.852  0.2591  0.3576 -0.7439
 5205SOL    HW127077   3.756   1.068   1.787  1.4720 -0.4522 -1.0097
 5205SOL    HW227078   3.733   1.064   1.927 -1.0205  4.3055 -3.7815
 5206SOL     OW27079   3.681   3.314   4.194 -0.2778  0.2610 -0.2459
 5206SOL    HW127080   3.630   3.313   4.275 -2.5709  2.4881 -1.6402
 5206SOL    HW227081   3.730   3.396   4.186 -2.6730  1.7253 -0.2177
 5207SOL     OW27082   0.602   3.053   2.964  0.4135  0.1907 -0.0696
 5207SOL    HW127083   0.662   2.979   2.952  1.0477  0.7292 -0.2018
 5207SOL    HW227084   0.670   3.121   2.960 -0.4662  0.9469 -1.8272
 5208SOL     OW27085   3.566   3.133  14.945 -0.6021  0.5301 -0.4183
 5208SOL    HW127086   3.525   3.212  14.981  1.9036  1.8016 -0.3590
 5208SOL    HW227087   3.486   3.085  14.923  0.3501 -0.3394 -1.9963
 5209SOL     OW27088   4.583   0.777   7.768  0.0832 -0.1725 -0.6678
 5209SOL    HW127089   4.673   0.747   7.760 -0.9397 -3.0010 -1.7284
 5209SOL    HW227090   4.585   0.843   7.837  1.4423  0.1993 -1.0658
 5210SOL     OW27091   3.655   1.383   6.298  0.3909  0.0935  0.1259
 5210SOL    HW127092   3.608   1.426   6.368  0.2677  0.4792 -0.1912
 5210SOL    HW227093   3.675   1.299   6.339 -0.0847  0.0298  0.2178
 5211SOL     OW27094   0.216   4.068   7.749  0.6012 -0.7452 -0.1715
 5211SOL    HW127095   0.180   4.006   7.813 -0.2970 -1.7318 -1.6377
 5211SOL    HW227096   0.136   4.095   7.703  0.1997 -0.6254  0.5847
 5212SOL     OW27097   2.750   3.554   4.666 -0.7079  0.1561  0.8347
 5212SOL    HW127098   2.687   3.618   4.634 -1.5178 -1.2718 -0.4109
 5212SOL    HW227099   2.755   3.568   4.761  2.6280 -0.1101  0.7147
 5213SOL     OW27100   4.124   4.111  11.422 -0.9248 -0.5407 -0.1298
 5213SOL    HW127101   4.122   4.142  11.332 -2.4733 -3.2113 -1.0184
 5213SOL    HW227102   4.211   4.131  11.457 -0.6636 -0.1747 -1.0027
 5214SOL     OW27103   4.471   2.016   0.111  0.7407  0.1994 -0.0772
 5214SOL    HW127104   4.556   2.030   0.155  1.0405  0.4954 -0.7505
 5214SOL    HW227105   4.407   1.996   0.179 -0.4392 -0.8637 -1.5298
 5215SOL     OW27106   3.047   1.613   3.355 -0.2201 -0.1695 -0.1050
 5215SOL    HW127107   2.995   1.624   3.276 -2.0388  0.7960  1.2148
 5215SOL    HW227108   3.031   1.699   3.394 -4.5926 -1.2634  0.5507
 5216SOL     OW27109   3.568   4.066  10.737 -0.9651  0.5015  0.6463
 5216SOL    HW127110   3.579   3.983  10.690 -1.7092 -0.4918  2.2160
 5216SOL    HW227111   3.600   4.042  10.824 -2.6908 -0.4363  1.0299
 5217SOL     OW27112   0.327   2.817   1.047  0.0340 -0.0316  0.4573
 5217SOL    HW127113   0.411   2.819   1.000 -0.8520 -0.2781 -1.1509
 5217SOL    HW227114   0.272   2.772   0.983  1.9880 -1.7543  0.0010
 5218SOL     OW27115   3.956   4.700   0.196  0.3564 -0.1421  0.1431
 5218SOL    HW127116   4.014   0.009   0.265  0.2138  1.8344 -0.6971
 5218SOL    HW227117   3.937   4.611   0.226 -0.3672 -0.3225 -0.8732
 5219SOL     OW27118   3.960   0.284   3.893  0.0435 -0.4029 -0.4030
 5219SOL    HW127119   3.911   0.323   3.820 -2.1286 -2.6371 -0.1467
 5219SOL    HW227120   4.042   0.258   3.852  1.2466  1.1409  0.9805
 5220SOL     OW27121   3.898   3.534   6.240  0.5819 -0.1750  0.1301
 5220SOL    HW127122   3.929   3.614   6.198  1.1823  0.2181  1.3249
 5220SOL    HW227123   3.855   3.569   6.318 -0.5802 -3.0173  0.7768
 5221SOL     OW27124   0.363   1.380   4.756  0.1210  0.0635  0.0840
 5221SOL    HW127125   0.433   1.388   4.821 -0.5060 -1.6089  0.9490
 5221SOL    HW227126   0.406   1.340   4.681 -0.2473  0.5160 -0.3743
 5222SOL     OW27127   2.264   0.953   6.513  0.3483  0.2085 -0.0755
 5222SOL    HW127128   2.199   0.888   6.541 -1.2364  0.8782 -2.2383
 5222SOL    HW227129   2.224   1.027   6.560  0.0759  0.1616 -0.2323
 5223SOL     OW27130   1.000   0.229   2.628  0.2503 -0.2251  0.1144
 5223SOL    HW127131   1.005   0.276   2.544  0.0044 -0.7411 -0.1885
 5223SOL    HW227132   1.096   0.228   2.624  0.2787 -0.0393  0.7838
 5224SOL     OW27133   4.675   0.197   8.545  0.4084  0.2308  0.3977
 5224SOL    HW127134   4.670   0.106   8.514  2.9405 -0.4913  2.1249
 5224SOL    HW227135   4.595   0.232   8.507  0.7710  1.1596  0.5022
 5225SOL     OW27136   1.531   3.723  13.912 -1.1199  0.5153 -0.0180
 5225SOL    HW127137   1.583   3.750  13.988 -0.7850 -3.8718  1.2953
 5225SOL    HW227138   1.504   3.636  13.939  1.2768 -0.5656 -1.1115
 5226SOL     OW27139   1.254   3.553   8.092 -0.1072 -0.4629  0.0599
 5226SOL    HW127140   1.159   3.558   8.086  0.0422 -0.0846 -1.9121
 5226SOL    HW227141   1.276   3.643   8.068  0.2208 -0.6170 -0.2154
 5227SOL     OW27142   0.688   2.656   2.025 -0.1244  0.3005 -0.3429
 5227SOL    HW127143   0.741   2.597   1.971  0.0646 -0.9915  1.2433
 5227SOL    HW227144   0.689   2.735   1.971  2.0148  0.3166 -0.2917
 5228SOL     OW27145   4.279   3.486  15.324  0.1996 -0.7408 -0.1139
 5228SOL    HW127146   4.272   3.565  15.377  0.0109 -0.4034 -0.6441
 5228SOL    HW227147   4.205   3.500  15.265  1.5587 -1.1417 -1.9159
 5229SOL     OW27148   1.230   4.408  10.593 -0.3310 -0.2822 -0.3505
 5229SOL    HW127149   1.175   4.342  10.551 -2.6860  2.2144 -1.1477
 5229SOL    HW227150   1.262   4.466  10.524  0.3601  0.0459  0.2468
 5230SOL     OW27151   3.655   3.311  15.875 -0.6699  0.6229  0.1826
 5230SOL    HW127152   3.568   3.351  15.878 -0.7337  0.2122  3.4121
 5230SOL    HW227153   3.647   3.280  15.784 -1.6643  1.5696 -0.0489
 5231SOL     OW27154   2.358   0.084   9.503 -0.4820  0.8671  0.0823
 5231SOL    HW127155   2.354   0.017   9.435  1.1561  0.0280  0.8030
 5231SOL    HW227156   2.287   0.055   9.560 -1.2129 -0.0350 -1.2963
 5232SOL     OW27157   1.343   1.822   8.972 -0.1073  0.1457  0.1233
 5232SOL    HW127158   1.313   1.734   8.994 -0.1926  0.3678  0.8974
 5232SOL    HW227159   1.385   1.846   9.054  0.8383  0.1682 -0.3632
 5233SOL     OW27160   2.707   0.734   9.149  0.0802  0.5080  0.4680
 5233SOL    HW127161   2.765   0.739   9.073  0.1726  3.2368  0.7429
 5233SOL    HW227162   2.691   0.827   9.162 -1.9316  0.4210 -1.2664
 5234SOL     OW27163   1.065   4.334  16.129 -0.1702 -0.6158 -0.1841
 5234SOL    HW127164   1.123   4.367  16.060  1.4699  1.4164  2.1553
 5234SOL    HW227165   1.050   4.244  16.101 -1.1411 -0.0058 -1.6275
 5235SOL     OW27166   0.601   3.533   1.895 -0.3941  0.0725  0.4260
 5235SOL    HW127167   0.535   3.602   1.889 -0.6889 -0.0424  2.4295
 5235SOL    HW227168   0.680   3.572   1.858 -2.9955  1.9012 -3.2609
 5236SOL     OW27169   3.257   4.435   7.643  0.3978  1.0257 -0.2863
 5236SOL    HW127170   3.188   4.464   7.703  0.5222  1.9602 -0.6018
 5236SOL    HW227171   3.204   4.379   7.586  0.4611 -0.4146  1.0783
 5237SOL     OW27172   4.281   1.958  12.688 -0.1484  0.2014  0.3307
 5237SOL    HW127173   4.359   1.909  12.663 -0.7327 -2.1806  3.1878
 5237SOL    HW227174   4.315   2.040  12.724 -1.5976 -0.2584  2.7007
 5238SOL     OW27175   0.055   3.694   5.185 -0.2399 -0.1277  0.4139
 5238SOL    HW127176   0.086   3.709   5.274 -0.5863  0.9083  0.3589
 5238SOL    HW227177   0.003   3.614   5.186 -1.1412  0.4263 -1.3784
 5239SOL     OW27178   2.095   4.124   2.428 -0.2544  0.1357 -0.0552
 5239SOL    HW127179   2.148   4.048   2.403 -1.6778 -1.2887  1.2794
 5239SOL    HW227180   2.030   4.075   2.478  3.2699 -1.8389  2.6099
 5240SOL     OW27181   1.222   1.911   1.898  0.1398  0.2241  0.1037
 5240SOL    HW127182   1.217   1.861   1.979  0.1634 -0.0403 -0.0601
 5240SOL    HW227183   1.168   1.856   1.841  0.5852 -0.2026  0.0967
 5241SOL     OW27184   3.795   0.554   6.174 -0.0929  0.2171 -0.2422
 5241SOL    HW127185   3.707   0.534   6.205  0.7705 -0.6401  1.6862
 5241SOL    HW227186   3.850   0.506   6.236  0.2267 -0.9707 -1.4635
 5242SOL     OW27187   2.158   1.819  11.052 -0.2882 -0.4624 -0.4343
 5242SOL    HW127188   2.211   1.847  10.978  1.9133  0.3184  1.4343
 5242SOL    HW227189   2.134   1.728  11.034  0.6333 -0.7864 -0.0087
 5243SOL     OW27190   2.758   1.706  17.230  0.0412 -0.3311  0.2629
 5243SOL    HW127191   2.791   1.637  17.173 -0.2204 -0.6910  0.5480
 5243SOL    HW227192   2.790   1.681  17.317 -0.4795 -0.5287  0.3969
 5244SOL     OW27193   2.628   0.338   3.180  0.3138 -0.5304 -0.3647
 5244SOL    HW127194   2.556   0.385   3.222  1.6678 -0.7111  2.1911
 5244SOL    HW227195   2.609   0.353   3.088 -1.8295  0.0286  0.1780
 5245SOL     OW27196   4.297   4.142  17.293  0.6420 -0.3103  0.3492
 5245SOL    HW127197   4.293   4.073  17.227  0.5667 -0.5751  0.6333
 5245SOL    HW227198   4.306   4.081  17.366  0.1852 -1.5774 -0.6453
 5246SOL     OW27199   4.066   4.498   3.264 -0.1426  0.0471  0.4964
 5246SOL    HW127200   4.083   4.573   3.321 -1.6768  1.0793 -0.4210
 5246SOL    HW227201   3.975   4.515   3.241  0.9579  2.0975 -2.2817
 5247SOL     OW27202   4.016   0.739   8.409 -0.0621 -0.7388  0.7047
 5247SOL    HW127203   3.937   0.759   8.359 -0.3403 -2.7965  0.3026
 5247SOL    HW227204   4.025   0.825   8.450  2.3623 -0.9395  0.5745
 5248SOL     OW27205   0.968   4.066   6.299  0.1031 -0.5755 -0.8915
 5248SOL    HW127206   0.971   4.007   6.223  4.6157 -0.6899 -0.6306
 5248SOL    HW227207   0.892   4.029   6.343 -1.7426  2.6540 -1.3854
 5249SOL     OW27208   3.849   4.255   2.573 -0.0557 -0.1571 -0.0477
 5249SOL    HW127209   3.835   4.294   2.659 -1.4652  1.0425 -0.8274
 5249SOL    HW227210   3.896   4.326   2.530 -2.2432  1.2004 -0.1881
 5250SOL     OW27211   1.926   1.179  10.607 -0.0681  0.4060 -0.1993
 5250SOL    HW127212   1.867   1.255  10.610 -0.9957 -0.3222 -0.0824
 5250SOL    HW227213   1.866   1.109  10.631  0.1075  0.1032 -0.6559
 5251SOL     OW27214   3.417   3.229  16.233 -0.5159 -0.0498 -0.0529
 5251SOL    HW127215   3.367   3.153  16.204 -1.7247  0.9875 -0.7025
 5251SOL    HW227216   3.485   3.227  16.166  0.0697  1.0272  0.5073
 5252SOL     OW27217   1.339   1.628   1.749  0.5206 -0.3329  0.0032
 5252SOL    HW127218   1.286   1.701   1.718 -0.1333 -0.3405  1.0991
 5252SOL    HW227219   1.270   1.564   1.768 -1.8937  1.9386 -1.1608
 5253SOL     OW27220   3.377   0.104   3.067 -0.8726 -0.0211 -0.3214
 5253SOL    HW127221   3.421   0.092   2.983 -0.0369 -1.7780  0.3709
 5253SOL    HW227222   3.351   0.017   3.096  1.9888  0.1334  2.7397
 5254SOL     OW27223   0.285   0.814   5.239 -0.3579 -0.4643 -0.1804
 5254SOL    HW127224   0.231   0.760   5.182 -0.3329 -0.9854  0.2972
 5254SOL    HW227225   0.311   0.741   5.295  1.3816 -1.3333 -2.0844
 5255SOL     OW27226   4.013   1.309  16.784 -0.0623  0.1500 -0.2606
 5255SOL    HW127227   3.918   1.322  16.791 -0.3272 -1.4941 -0.8452
 5255SOL    HW227228   4.020   1.227  16.834  3.8331  0.2757 -0.6282
 5256SOL     OW27229   3.018   3.691   7.973  0.2594 -0.5355  0.4702
 5256SOL    HW127230   2.989   3.629   7.907 -2.3130 -1.1151  2.1361
 5256SOL    HW227231   2.955   3.762   7.985  0.2624 -0.4723  0.0964
 5257SOL     OW27232   3.867   0.458   1.363  0.2777 -0.2101 -0.0124
 5257SOL    HW127233   3.948   0.507   1.380  0.6848  0.1394 -3.0463
 5257SOL    HW227234   3.806   0.499   1.425 -1.1588 -0.7806 -1.0516
 5258SOL     OW27235   1.497   0.342   6.429  0.3528  0.2460  1.4324
 5258SOL    HW127236   1.549   0.379   6.359 -1.4773 -1.1527 -0.6611
 5258SOL    HW227237   1.413   0.386   6.419  1.2656  1.7962  0.6747
 5259SOL     OW27238   2.301   1.386  12.886 -0.2290  0.4282  0.9267
 5259SOL    HW127239   2.212   1.357  12.869  0.5679 -1.2010 -0.4972
 5259SOL    HW227240   2.346   1.303  12.906  1.8071  0.9495 -1.4487
 5260SOL     OW27241   0.386   0.854   3.504  0.5158  0.1921  0.2927
 5260SOL    HW127242   0.374   0.811   3.589 -0.2324 -0.4807 -0.1493
 5260SOL    HW227243   0.373   0.777   3.448 -2.5223  1.1656 -0.3181
 5261SOL     OW27244   4.479   2.296   3.954 -0.2917 -0.0042  0.3449
 5261SOL    HW127245   4.520   2.319   3.871 -0.3231 -0.9731  0.0602
 5261SOL    HW227246   4.388   2.274   3.932  0.5866 -2.7704 -0.5392
 5262SOL     OW27247   3.398   2.456   8.208 -0.1167  0.2394  0.4520
 5262SOL    HW127248   3.333   2.469   8.139  0.3600 -2.5466 -0.5182
 5262SOL    HW227249   3.452   2.535   8.207  1.1469 -0.6032  0.4059
 5263SOL     OW27250   0.435   0.709   3.720  0.2092 -0.4157  0.1362
 5263SOL    HW127251   0.529   0.707   3.705  0.0850  0.0700 -0.6919
 5263SOL    HW227252   0.431   0.639   3.785  0.7200  0.8601  1.5451
 5264SOL     OW27253   2.468   4.117   3.832 -0.2563  0.3418 -0.3530
 5264SOL    HW127254   2.394   4.176   3.812 -0.7423 -0.1874 -0.1142
 5264SOL    HW227255   2.528   4.188   3.854  0.2919 -0.3377  0.3240
 5265SOL     OW27256   3.349   2.638  14.137 -0.1220 -0.7173  0.7281
 5265SOL    HW127257   3.379   2.551  14.160  1.0953 -0.0698  1.5650
 5265SOL    HW227258   3.272   2.653  14.193 -0.5572  0.8062 -0.2548
 5266SOL     OW27259   3.739   2.497   0.279  0.0228 -0.2497 -0.1618
 5266SOL    HW127260   3.729   2.410   0.239  1.9565 -0.2297 -0.6741
 5266SOL    HW227261   3.650   2.511   0.312  0.4458  0.3841  0.7038
 5267SOL     OW27262   3.553   1.464  16.347 -0.2633  0.1478  0.0706
 5267SOL    HW127263   3.581   1.483  16.437 -0.1367  0.9033 -0.1281
 5267SOL    HW227264   3.640   1.466  16.308  0.8336 -0.8542  2.4514
 5268SOL     OW27265   4.259   4.485   8.984  0.0424  0.7345 -0.3396
 5268SOL    HW127266   4.324   4.424   9.017 -0.3015  0.9911  0.8110
 5268SOL    HW227267   4.184   4.431   9.008  1.3421 -1.1230 -0.4232
 5269SOL     OW27268   3.556   2.660   8.736  0.3076 -0.3187  0.1444
 5269SOL    HW127269   3.566   2.569   8.765 -2.8840 -0.8165 -0.3295
 5269SOL    HW227270   3.469   2.669   8.774  0.5108  0.9639  0.3039
 5270SOL     OW27271   3.066   1.612   3.813 -0.6611  0.1872 -0.2254
 5270SOL    HW127272   3.011   1.553   3.761  2.8398 -2.0404 -1.3510
 5270SOL    HW227273   3.115   1.659   3.746  1.0899  0.9763  1.6211
 5271SOL     OW27274   1.328   3.018   5.530 -0.2491  0.1498 -0.3210
 5271SOL    HW127275   1.322   3.112   5.546 -1.1093  0.1714 -0.7961
 5271SOL    HW227276   1.381   2.986   5.603 -0.2635  1.7309  0.3882
 5272SOL     OW27277   3.339   2.155   0.106 -0.3974 -0.1831  0.1307
 5272SOL    HW127278   3.346   2.132   0.199 -0.6868  0.7515  0.3796
 5272SOL    HW227279   3.332   2.069   0.065 -0.4984 -0.0664 -0.0959
 5273SOL     OW27280   3.235   0.500   3.571  0.3847 -0.0667  0.4156
 5273SOL    HW127281   3.223   0.427   3.630 -0.4988 -2.6303 -2.9222
 5273SOL    HW227282   3.181   0.466   3.500 -1.0065 -2.4902  2.6649
 5274SOL     OW27283   4.066   1.916   0.974 -0.1792 -0.0996  0.4590
 5274SOL    HW127284   3.973   1.895   0.986 -0.2477 -0.0631 -0.0193
 5274SOL    HW227285   4.073   1.925   0.879 -2.0772 -2.0632  0.1185
 5275SOL     OW27286   1.672   3.812  10.279  0.7800 -0.5484 -0.0050
 5275SOL    HW127287   1.646   3.720  10.276  2.1112 -0.9505  0.8009
 5275SOL    HW227288   1.590   3.849  10.246 -0.1371 -1.5421  1.1615
 5276SOL     OW27289   3.550   2.263   2.842  0.4804 -0.1125 -0.0955
 5276SOL    HW127290   3.610   2.304   2.780 -0.8713  0.5636 -0.9569
 5276SOL    HW227291   3.607   2.220   2.906  1.7143  0.7494 -0.6293
 5277SOL     OW27292   2.383   2.608  10.980  0.0462  0.3979 -0.5446
 5277SOL    HW127293   2.421   2.618  10.893  0.6586 -1.5412 -0.4891
 5277SOL    HW227294   2.444   2.657  11.035 -1.2773 -1.1382  2.3202
 5278SOL     OW27295   1.201   2.779   0.619  0.4291 -0.5609  0.3585
 5278SOL    HW127296   1.125   2.766   0.563 -0.6914 -0.7336  1.9091
 5278SOL    HW227297   1.258   2.710   0.586  0.5480 -0.1349 -0.3196
 5279SOL     OW27298   1.284   0.358  16.792 -0.7958  0.0364 -0.4991
 5279SOL    HW127299   1.273   0.451  16.770  0.9632  0.5783  0.9030
 5279SOL    HW227300   1.380   0.356  16.789 -0.6389  5.6354 -0.5115
 5280SOL     OW27301   2.267   3.942   2.365  1.0137  0.0826  0.1291
 5280SOL    HW127302   2.317   3.864   2.388  0.1886  0.4461  3.0601
 5280SOL    HW227303   2.290   3.950   2.272  2.1651 -0.6544  0.3506
 5281SOL     OW27304   0.251   4.010   2.916  0.0422 -0.2217 -0.1892
 5281SOL    HW127305   0.199   4.077   2.959 -0.1840  1.4321 -3.0244
 5281SOL    HW227306   0.339   4.003   2.955  0.7844  1.3512 -1.6040
 5282SOL     OW27307   2.183   2.642   0.503 -0.2565  0.4970  0.2251
 5282SOL    HW127308   2.236   2.713   0.465  0.6883 -0.7289 -0.7308
 5282SOL    HW227309   2.220   2.635   0.591 -0.1507 -1.7347  0.0016
 5283SOL     OW27310   0.664   3.494   9.694  0.1545 -0.3552 -0.6476
 5283SOL    HW127311   0.579   3.535   9.679 -0.2590 -0.9508  0.0536
 5283SOL    HW227312   0.672   3.479   9.788  3.4962  0.7929 -0.7616
 5284SOL     OW27313   3.013   1.644   7.086 -0.2368 -0.6038 -0.4619
 5284SOL    HW127314   2.925   1.682   7.086  0.2136  0.4506  0.8704
 5284SOL    HW227315   2.988   1.553   7.071  0.9488 -0.9610 -0.2732
 5285SOL     OW27316   1.759   1.777   1.441 -0.0631 -0.1324  0.3061
 5285SOL    HW127317   1.785   1.735   1.359  0.7381  2.2163 -0.6389
 5285SOL    HW227318   1.691   1.722   1.479  0.4319 -0.1232  1.2023
 5286SOL     OW27319   2.604   2.202  11.792 -0.1696 -0.1000  0.3801
 5286SOL    HW127320   2.625   2.294  11.780 -1.7743  0.2581  0.3158
 5286SOL    HW227321   2.600   2.153  11.710  1.7036 -1.3104  1.0114
 5287SOL     OW27322   2.038   1.515   6.675  0.0440 -0.0286 -0.3281
 5287SOL    HW127323   2.118   1.474   6.709 -1.0195 -1.7196  0.1523
 5287SOL    HW227324   2.049   1.605   6.704 -1.1983  0.9378 -2.8799
 5288SOL     OW27325   2.830   2.455   7.440  0.5313  0.1704  0.2866
 5288SOL    HW127326   2.790   2.470   7.526  0.0574  0.4453  0.0228
 5288SOL    HW227327   2.920   2.464   7.469 -0.1757 -0.2586  2.6108
 5289SOL     OW27328   3.106   1.368   2.153  0.3555  0.5582  0.2480
 5289SOL    HW127329   3.067   1.445   2.194 -2.0198 -1.5422  1.9409
 5289SOL    HW227330   3.159   1.338   2.227 -0.6390  2.2916  1.6655
 5290SOL     OW27331   4.560   3.147   4.188 -0.3110 -0.5188 -0.2648
 5290SOL    HW127332   4.590   3.107   4.106 -1.3015  0.2378 -0.9822
 5290SOL    HW227333   4.633   3.203   4.214 -1.0409  0.4744 -0.4020
 5291SOL     OW27334   4.227   2.322  11.118 -0.2808 -0.2787 -0.6007
 5291SOL    HW127335   4.170   2.298  11.045 -0.6405  0.5331 -0.5926
 5291SOL    HW227336   4.314   2.324  11.077 -0.1582  1.8900 -0.2357
 5292SOL     OW27337   2.885   4.042   3.949  0.1986 -0.4340 -0.0603
 5292SOL    HW127338   2.886   4.079   4.037 -0.0400  0.8302 -0.5819
 5292SOL    HW227339   2.842   4.111   3.898 -2.4030 -1.9469  0.0992
 5293SOL     OW27340   3.779   4.444   8.966 -0.0196 -0.2245  0.5679
 5293SOL    HW127341   3.824   4.512   9.016 -0.3208 -0.2953  0.9351
 5293SOL    HW227342   3.698   4.484   8.934  1.1718  0.6991 -1.2700
 5294SOL     OW27343   1.948   4.090   3.132 -0.1525 -0.5291 -0.4160
 5294SOL    HW127344   1.903   4.099   3.216 -2.4885 -0.3273 -1.7183
 5294SOL    HW227345   1.936   3.998   3.109 -1.2480  0.1366 -2.4442
 5295SOL     OW27346   3.132   2.228   7.287  0.3114 -0.1149  0.2307
 5295SOL    HW127347   3.217   2.201   7.321 -0.3876 -2.6596 -0.0065
 5295SOL    HW227348   3.174   2.308   7.256 -1.1323 -0.0843 -1.6819
 5296SOL     OW27349   0.175   1.317  15.219  0.2715 -0.1974  0.7740
 5296SOL    HW127350   0.133   1.308  15.133  2.6125 -0.6746 -0.3362
 5296SOL    HW227351   0.269   1.306  15.204  0.7656  3.8535  0.8020
 5297SOL     OW27352   1.136   3.626  15.174 -0.1457 -0.1064 -0.0771
 5297SOL    HW127353   1.215   3.586  15.139  0.7512  0.3089  1.4628
 5297SOL    HW227354   1.129   3.710  15.128  1.0251  0.5968  1.0328
 5298SOL     OW27355   2.844   0.073   3.759 -0.0402 -0.2163  0.3122
 5298SOL    HW127356   2.776   0.035   3.703 -0.5396 -1.4678  1.7271
 5298SOL    HW227357   2.784   0.116   3.820 -0.4864 -1.5947  0.8550
 5299SOL     OW27358   3.205   0.301   3.745  0.3585  0.7210  0.4195
 5299SOL    HW127359   3.233   0.223   3.792 -0.2195 -0.0032 -0.4359
 5299SOL    HW227360   3.143   0.337   3.809 -0.1810  1.1471 -0.3259
 5300SOL     OW27361   1.012   3.137   7.919  0.6826  0.7989 -0.2037
 5300SOL    HW127362   1.045   3.145   8.008 -0.9465 -1.2684  0.5992
 5300SOL    HW227363   1.031   3.220   7.876 -0.4122  2.0658  1.7577
 5301SOL     OW27364   0.126   1.573   6.602 -0.2790  0.3794  0.1884
 5301SOL    HW127365   0.068   1.515   6.553 -0.4910  0.6061  0.1755
 5301SOL    HW227366   0.216   1.559   6.572 -0.0411 -1.0055  1.5490
 5302SOL     OW27367   0.654   0.216  15.861 -0.2489 -0.6383  0.5114
 5302SOL    HW127368   0.610   0.299  15.878  3.1774  1.0144  1.3715
 5302SOL    HW227369   0.588   0.171  15.914  0.0983 -2.6436 -0.7640
 5303SOL     OW27370   0.864   0.920   3.880 -0.1969  0.1609  0.0155
 5303SOL    HW127371   0.801   0.877   3.823  0.8264 -0.3158 -0.7479
 5303SOL    HW227372   0.841   0.878   3.963 -2.3120  0.3142 -0.4921
 5304SOL     OW27373   2.607   1.255   7.536 -0.1518  0.6304 -0.1024
 5304SOL    HW127374   2.584   1.334   7.488 -1.1447  0.5639  0.2697
 5304SOL    HW227375   2.700   1.274   7.523 -0.0984  2.0069  2.2183
 5305SOL     OW27376   2.217   1.321   5.141  0.8063  0.2503 -0.1884
 5305SOL    HW127377   2.137   1.269   5.133 -0.4041  2.0933 -0.2806
 5305SOL    HW227378   2.190   1.401   5.094  1.6049 -0.7033 -2.2976
 5306SOL     OW27379   4.638   4.693   1.257 -0.4430  0.0711 -0.2336
 5306SOL    HW127380   4.597   0.018   1.328  1.1403  1.3346 -0.1920
 5306SOL    HW227381   4.558   4.653   1.224  0.8919 -1.4272 -1.6819
 5307SOL     OW27382   4.299   4.586   7.793  0.3106  0.2445 -0.0851
 5307SOL    HW127383   4.210   4.609   7.818  0.5067  0.7037  0.1950
 5307SOL    HW227384   4.272   4.517   7.733 -1.0089 -0.1783  1.0001
 5308SOL     OW27385   1.695   3.407   2.782 -0.1684  0.3316 -0.0764
 5308SOL    HW127386   1.661   3.497   2.788  1.7931  1.0941 -0.4509
 5308SOL    HW227387   1.769   3.417   2.723  1.7190  0.7200  2.3372
 5309SOL     OW27388   0.927   3.760   5.072  0.4172  0.0179  0.0411
 5309SOL    HW127389   0.993   3.730   5.135  1.4317 -0.5445 -1.2965
 5309SOL    HW227390   0.874   3.811   5.133 -1.3681 -0.6149 -0.9724
 5310SOL     OW27391   1.822   2.731   1.757  0.8817 -0.3183 -0.6130
 5310SOL    HW127392   1.868   2.803   1.801 -0.4294  1.8968 -2.8532
 5310SOL    HW227393   1.869   2.705   1.678  1.4396  1.6057 -0.9219
 5311SOL     OW27394   2.432   1.353   3.069 -0.0417  0.1179  0.5191
 5311SOL    HW127395   2.352   1.317   3.031 -0.5901  0.8859  0.9328
 5311SOL    HW227396   2.424   1.448   3.060 -0.5095  0.1657  1.4626
 5312SOL     OW27397   0.762   0.085   9.121  0.0032  0.3534  0.2831
 5312SOL    HW127398   0.733   0.120   9.205 -2.4221  1.5868 -1.0760
 5312SOL    HW227399   0.833   0.143   9.095  2.3786 -2.6448  0.0704
 5313SOL     OW27400   0.190   2.870   7.794 -0.2342 -0.1817  0.1636
 5313SOL    HW127401   0.169   2.952   7.749  1.4973  0.8537  1.2173
 5313SOL    HW227402   0.262   2.896   7.852 -1.3192 -0.6535  1.7195
 5314SOL     OW27403   2.767   1.229   4.172 -0.1479 -0.2365 -0.4467
 5314SOL    HW127404   2.729   1.292   4.112  0.3239 -1.1808 -1.7413
 5314SOL    HW227405   2.719   1.151   4.145 -0.5500 -0.8748  2.1194
 5315SOL     OW27406   0.938   2.386  16.033 -0.3553  0.0459  0.2532
 5315SOL    HW127407   0.990   2.444  16.089  0.1893  0.1705 -0.3925
 5315SOL    HW227408   0.996   2.313  16.053 -1.6372 -0.9908  0.2181
 5316SOL     OW27409   2.194   3.563   8.538 -0.3500 -0.2861 -0.3949
 5316SOL    HW127410   2.179   3.502   8.610 -0.4802 -2.1723 -2.0252
 5316SOL    HW227411   2.113   3.614   8.534  0.5131  1.1090 -0.0172
 5317SOL     OW27412   1.772   3.036   7.584  0.3081  0.4389 -0.0832
 5317SOL    HW127413   1.711   3.102   7.551 -1.4938 -2.1023 -1.8763
 5317SOL    HW227414   1.834   3.101   7.616  1.5676 -1.6085  1.5976
 5318SOL     OW27415   0.338   1.641   9.774  0.0665  0.6279 -0.4556
 5318SOL    HW127416   0.366   1.659   9.863  0.0642 -2.9061  0.2543
 5318SOL    HW227417   0.276   1.569   9.791  1.2695  0.2355  2.2049
 5319SOL     OW27418   2.960   2.463   4.817 -0.6741 -0.2703  0.2674
 5319SOL    HW127419   2.982   2.377   4.852  1.0804 -0.0862 -0.3835
 5319SOL    HW227420   2.982   2.463   4.724  2.1933 -0.1694  0.9438
 5320SOL     OW27421   4.040   1.828   5.407 -0.1107  0.0235 -0.4979
 5320SOL    HW127422   4.007   1.745   5.441  0.5674  0.0326  0.1886
 5320SOL    HW227423   4.119   1.824   5.462 -0.6536 -0.0911  0.2674
 5321SOL     OW27424   4.008   4.489   8.045  0.6894  0.3214 -0.2721
 5321SOL    HW127425   3.914   4.476   8.048  0.3790  2.0384 -2.1176
 5321SOL    HW227426   4.023   4.552   7.975  0.4466 -0.1584 -0.7487
 5322SOL     OW27427   3.572   2.567   6.133  0.0120  0.0096  0.0004
 5322SOL    HW127428   3.642   2.618   6.091  0.2068 -0.8589 -0.7119
 5322SOL    HW227429   3.576   2.608   6.219 -2.2717 -2.1514  1.1036
 5323SOL     OW27430   3.364   2.049  11.407 -1.0966 -0.5780 -1.0518
 5323SOL    HW127431   3.359   2.131  11.457  0.8875 -0.3172 -1.2822
 5323SOL    HW227432   3.390   2.080  11.320 -0.0818 -0.7431 -0.8102
 5324SOL     OW27433   1.512   1.573   6.747  0.1845  0.3214 -0.2164
 5324SOL    HW127434   1.467   1.647   6.707 -3.2959 -2.1390 -0.8733
 5324SOL    HW227435   1.569   1.541   6.677 -1.3786 -0.1631 -1.2751
 5325SOL     OW27436   2.563   2.840  14.398 -0.1325  0.0126 -0.3276
 5325SOL    HW127437   2.492   2.785  14.432  0.3064  1.1289  2.3603
 5325SOL    HW227438   2.581   2.798  14.314  1.9977  2.3088 -1.0164
 5326SOL     OW27439   3.677   1.098   2.842  0.1436 -0.6246  0.2524
 5326SOL    HW127440   3.738   1.075   2.912 -1.9100 -0.1098  2.2243
 5326SOL    HW227441   3.620   1.022   2.833 -2.7530  1.5586 -0.1116
 5327SOL     OW27442   2.657   0.746  16.500 -0.4673  0.2485 -0.3346
 5327SOL    HW127443   2.609   0.789  16.571  1.5274  0.7091  0.7461
 5327SOL    HW227444   2.620   0.658  16.498  0.4613 -0.1625  0.1617
 5328SOL     OW27445   4.265   4.157   4.286  0.2833  0.0110 -0.0403
 5328SOL    HW127446   4.291   4.114   4.205 -0.6781 -2.2824  0.8622
 5328SOL    HW227447   4.330   4.227   4.292  0.0118  0.1949  0.8263
 5329SOL     OW27448   2.759   2.138  10.319 -0.4813 -0.3517 -0.1831
 5329SOL    HW127449   2.689   2.199  10.342  0.1104  0.1610  0.2819
 5329SOL    HW227450   2.767   2.090  10.402 -1.1687  1.2966  0.8412
 5330SOL     OW27451   1.815   2.155  14.880 -0.2762  0.3744  0.3992
 5330SOL    HW127452   1.761   2.112  14.946 -0.2249 -1.1381 -0.5520
 5330SOL    HW227453   1.858   2.217  14.940  1.8055  0.3037 -0.9987
 5331SOL     OW27454   1.880   2.826   3.324 -0.3946  0.4536  0.5194
 5331SOL    HW127455   1.954   2.882   3.346 -0.0320  0.3551 -0.4472
 5331SOL    HW227456   1.823   2.901   3.308 -2.5542 -1.1603  0.6623
 5332SOL     OW27457   2.391   2.932   6.696 -0.0989  0.0455 -0.0901
 5332SOL    HW127458   2.300   2.921   6.670  1.1487 -3.1118 -3.1872
 5332SOL    HW227459   2.439   2.907   6.616 -0.6700  0.2725 -0.5007
 5333SOL     OW27460   3.632   2.970   8.304 -0.1153 -0.2723 -0.1600
 5333SOL    HW127461   3.705   2.941   8.250  0.4659  0.8009  0.0697
 5333SOL    HW227462   3.558   2.960   8.244 -0.3156 -1.1715  0.2304
 5334SOL     OW27463   2.878   0.099  16.401 -0.2819  0.4778 -0.5234
 5334SOL    HW127464   2.958   0.052  16.424  0.2454  0.9396 -1.4287
 5334SOL    HW227465   2.842   0.043  16.332  1.5775  1.1819 -2.0713
 5335SOL     OW27466   1.802   3.132   3.461 -0.4554 -0.1679  0.8144
 5335SOL    HW127467   1.823   3.164   3.548 -0.2071 -0.0813  0.7235
 5335SOL    HW227468   1.889   3.107   3.430  0.3877  2.6825  0.9341
 5336SOL     OW27469   4.098   1.619   6.132  0.1898  0.3604 -0.1900
 5336SOL    HW127470   4.151   1.692   6.162 -0.7651  0.5497  1.0519
 5336SOL    HW227471   4.127   1.595   6.044  0.2489 -0.2905  0.0058
 5337SOL     OW27472   2.335   0.576   0.218 -0.4609  0.6416  0.2673
 5337SOL    HW127473   2.313   0.545   0.130  0.2173 -0.4113  0.4589
 5337SOL    HW227474   2.269   0.640   0.243 -3.0664 -0.7856 -2.8825
 5338SOL     OW27475   4.514   2.355   8.653  1.0950  0.0348 -0.2474
 5338SOL    HW127476   4.444   2.292   8.667  0.2650  1.4288  1.8245
 5338SOL    HW227477   4.583   2.293   8.631  0.6196 -0.6005  0.0748
 5339SOL     OW27478   2.913   4.586   4.760 -0.1184 -0.2448 -0.5342
 5339SOL    HW127479   3.006   4.606   4.751 -0.4229  0.1699 -2.6064
 5339SOL    HW227480   2.888   4.668   4.803 -0.1244 -0.6346  0.2209
 5340SOL     OW27481   0.073   2.982   4.315 -0.2933  0.6933 -0.3495
 5340SOL    HW127482   0.011   2.999   4.243 -0.7025  1.7002  0.2383
 5340SOL    HW227483   0.079   2.887   4.311 -1.5955  0.6576 -1.4423
 5341SOL     OW27484   3.512   1.857  17.277 -0.1542 -0.1888 -0.0646
 5341SOL    HW127485   3.591   1.889  17.322  0.3221 -1.3538 -0.0644
 5341SOL    HW227486   3.513   1.895  17.189 -1.8022 -1.2859 -0.5345
 5342SOL     OW27487   3.979   0.702   9.235 -0.4756 -0.4954 -0.0793
 5342SOL    HW127488   3.892   0.741   9.242  0.1184  0.5069  1.6144
 5342SOL    HW227489   3.982   0.677   9.142  2.2545 -0.5484 -0.0010
 5343SOL     OW27490   4.541   2.517   4.430  0.7164 -0.1190  0.1100
 5343SOL    HW127491   4.512   2.599   4.471 -0.2951 -2.0627  3.2386
 5343SOL    HW227492   4.515   2.454   4.496  1.4122  0.4960  0.9711
 5344SOL     OW27493   0.619   3.614   3.109  0.1826 -0.0769 -0.1100
 5344SOL    HW127494   0.580   3.600   3.022 -0.2974 -2.0351  0.4052
 5344SOL    HW227495   0.544   3.659   3.148  0.9434  1.2225 -0.1866
 5345SOL     OW27496   0.453   2.596   8.650 -0.3455  0.2492  0.4129
 5345SOL    HW127497   0.392   2.544   8.598  2.3491  0.5366 -3.0792
 5345SOL    HW227498   0.407   2.606   8.733 -0.5612 -1.2251  0.4701
 5346SOL     OW27499   4.638   2.812  10.946 -0.1671  0.6211  0.1882
 5346SOL    HW127500   4.585   2.824  11.025 -0.5553 -1.1203  0.1808
 5346SOL    HW227501   4.719   2.784  10.989  0.7711 -0.0153 -2.0008
 5347SOL     OW27502   4.506   0.462  16.752 -0.5637 -0.0968  0.3561
 5347SOL    HW127503   4.567   0.388  16.752  1.6434  1.6996 -0.4420
 5347SOL    HW227504   4.452   0.445  16.674  0.4081 -0.2557 -0.2900
 5348SOL     OW27505   0.655   0.922   8.977 -0.5688 -0.2190  0.2831
 5348SOL    HW127506   0.702   0.843   9.004  0.7231  0.9741  1.5739
 5348SOL    HW227507   0.663   0.967   9.062 -3.2789  0.1375  0.3381
 5349SOL     OW27508   1.377   3.543   6.510 -0.6293 -0.0642  0.6705
 5349SOL    HW127509   1.287   3.511   6.515 -0.7650  0.1909 -0.1058
 5349SOL    HW227510   1.372   3.621   6.455 -1.0424  0.2995  1.2275
 5350SOL     OW27511   0.123   3.462   8.694  0.9557  0.0362 -0.1847
 5350SOL    HW127512   0.125   3.558   8.684  1.4536 -0.1810 -2.3374
 5350SOL    HW227513   0.098   3.445   8.603 -2.6433  2.5940  0.3272
 5351SOL     OW27514   0.237   3.170  15.236 -0.3093  0.2854  0.2545
 5351SOL    HW127515   0.149   3.131  15.233 -0.1291 -0.0807 -0.3860
 5351SOL    HW227516   0.216   3.218  15.316  1.7637  1.6151  0.0035
 5352SOL     OW27517   0.766   0.674   5.570 -0.1785 -0.4578 -0.2300
 5352SOL    HW127518   0.709   0.670   5.494 -1.6217  0.4568  0.8091
 5352SOL    HW227519   0.810   0.589   5.571  0.8599  0.0849  0.4469
 5353SOL     OW27520   3.706   4.267   1.919  0.3322  0.5760 -0.4023
 5353SOL    HW127521   3.611   4.262   1.933  0.2576  0.2636 -1.0542
 5353SOL    HW227522   3.733   4.176   1.930 -0.0242  0.4967 -0.1779
 5354SOL     OW27523   0.317   4.181   8.983 -0.7259  0.8290  0.0679
 5354SOL    HW127524   0.326   4.242   9.056 -0.9617  0.3841  0.4677
 5354SOL    HW227525   0.386   4.212   8.925  0.6112  0.2513  1.3651
 5355SOL     OW27526   1.064   0.346   6.656 -0.2303 -0.2145  0.2429
 5355SOL    HW127527   1.138   0.407   6.653 -0.6443  0.2568 -0.2350
 5355SOL    HW227528   0.995   0.398   6.695 -0.4341  0.0488 -0.4705
 5356SOL     OW27529   3.371   3.327   1.011 -0.0754 -1.2166 -0.2327
 5356SOL    HW127530   3.403   3.412   1.041 -1.8276  0.0488 -1.9195
 5356SOL    HW227531   3.446   3.269   1.015  0.8180 -0.0259  0.3740
 5357SOL     OW27532   3.340   1.903   8.822 -0.3150  0.1028  0.1206
 5357SOL    HW127533   3.373   1.815   8.803  0.2615  0.5403 -0.9291
 5357SOL    HW227534   3.404   1.933   8.886  0.3027 -1.7415  0.3822
 5358SOL     OW27535   0.265   1.505   9.488  0.0103  0.0601  0.2343
 5358SOL    HW127536   0.262   1.422   9.440 -0.7973  0.7094 -0.8241
 5358SOL    HW227537   0.324   1.472   9.556 -3.1603  0.9712  3.3832
 5359SOL     OW27538   1.783   2.142   0.424  0.2378  0.0580  0.4315
 5359SOL    HW127539   1.830   2.091   0.358  1.3403  0.8040  0.6233
 5359SOL    HW227540   1.796   2.228   0.384 -0.2812 -0.2270 -0.3512
 5360SOL     OW27541   1.691   4.223   0.289  0.1442  0.3859 -0.2215
 5360SOL    HW127542   1.718   4.194   0.202 -0.8673 -0.1523 -0.3568
 5360SOL    HW227543   1.607   4.179   0.302 -0.1822  0.9082 -0.5599
 5361SOL     OW27544   0.805   4.239   9.691  0.1602 -0.1297 -0.0795
 5361SOL    HW127545   0.766   4.326   9.701 -0.4202 -0.3038 -0.8248
 5361SOL    HW227546   0.761   4.179   9.751 -0.5190 -0.1306 -0.5745
 5362SOL     OW27547   4.248   3.017   3.921 -0.1100  0.3616  0.2255
 5362SOL    HW127548   4.204   3.080   3.979  1.2761 -1.3754  3.1302
 5362SOL    HW227549   4.176   2.981   3.869  0.8178 -0.1186 -0.7225
 5363SOL     OW27550   0.560   2.386  10.009  0.0440 -0.2208  0.0908
 5363SOL    HW127551   0.594   2.367  10.097  1.5928  0.7067 -0.2941
 5363SOL    HW227552   0.610   2.462   9.976 -1.4329  0.1512 -1.2852
 5364SOL     OW27553   3.650   2.196   1.564 -0.3906 -0.8946 -0.4295
 5364SOL    HW127554   3.652   2.275   1.618 -3.5644 -0.2230 -1.3105
 5364SOL    HW227555   3.704   2.129   1.607 -1.2870 -0.4874  1.3401
 5365SOL     OW27556   4.692   1.519   7.407 -0.3093  0.0332  0.1409
 5365SOL    HW127557   0.058   1.507   7.434 -0.0965 -0.9866 -1.0139
 5365SOL    HW227558   4.641   1.514   7.488  0.2977 -1.1752  0.4485
 5366SOL     OW27559   2.224   1.633  14.555  0.1334 -0.4965 -0.0681
 5366SOL    HW127560   2.310   1.600  14.581  0.3245  0.3488  0.3596
 5366SOL    HW227561   2.217   1.570  14.483  0.0761 -0.0173 -0.4787
 5367SOL     OW27562   3.674   2.538  17.027  0.1906 -0.3664 -0.1034
 5367SOL    HW127563   3.764   2.567  17.043 -0.3740  1.2937  0.0633
 5367SOL    HW227564   3.709   2.476  16.963  0.2347 -0.0368 -0.4002
 5368SOL     OW27565   2.312   3.569  17.123 -0.0331  0.7838 -0.2669
 5368SOL    HW127566   2.235   3.592  17.071  1.2496  2.7452 -1.2809
 5368SOL    HW227567   2.278   3.592  17.209 -0.9477 -2.0125  0.1203
 5369SOL     OW27568   1.187   1.555   2.091 -0.0573  0.1193  0.0260
 5369SOL    HW127569   1.139   1.573   2.172 -2.0310  0.7454 -1.2962
 5369SOL    HW227570   1.244   1.632   2.089 -0.4051  0.3862  0.3609
 5370SOL     OW27571   2.056   1.781   7.072  0.2324  0.5820  0.3555
 5370SOL    HW127572   2.102   1.733   7.141  1.1563  0.1623 -0.5530
 5370SOL    HW227573   1.969   1.744   7.086  0.5640 -1.0891 -2.0372
 5371SOL     OW27574   1.642   1.648   8.115  0.3043  0.1136  0.2266
 5371SOL    HW127575   1.657   1.579   8.179  2.9896  0.4406 -0.0465
 5371SOL    HW227576   1.606   1.609   8.035 -0.0232 -1.5606  1.2050
 5372SOL     OW27577   2.815   0.521   7.070 -0.6528 -0.5414  0.5926
 5372SOL    HW127578   2.812   0.601   7.122  1.6871 -0.1564  0.1149
 5372SOL    HW227579   2.908   0.506   7.053  0.0100  3.3614  0.8474
 5373SOL     OW27580   1.276   2.217   3.228  0.3219  0.4320 -0.7144
 5373SOL    HW127581   1.238   2.140   3.184 -0.3191  0.8010 -0.8052
 5373SOL    HW227582   1.238   2.286   3.173  2.4971  1.6933 -0.6145
 5374SOL     OW27583   0.997   2.408  11.940  0.3907  0.4298  0.6564
 5374SOL    HW127584   0.995   2.342  11.871  1.4735  1.4231 -0.3457
 5374SOL    HW227585   0.906   2.436  11.937 -0.0298 -1.0754 -0.3012
 5375SOL     OW27586   0.364   1.125   4.106  0.2095  0.1311  0.2392
 5375SOL    HW127587   0.382   1.033   4.084  1.1061 -0.1495  2.1055
 5375SOL    HW227588   0.393   1.129   4.198  0.5365 -0.2817  0.1569
 5376SOL     OW27589   3.113   0.093   4.821 -0.4683 -0.2794 -0.4767
 5376SOL    HW127590   3.166   0.087   4.742 -0.6234  1.1183 -0.6821
 5376SOL    HW227591   3.045   0.154   4.793  0.9138  2.0263  1.2936
 5377SOL     OW27592   1.961   3.980   8.900  0.0876 -0.6404  0.2531
 5377SOL    HW127593   1.971   3.895   8.942  1.2803 -1.8442 -2.4516
 5377SOL    HW227594   2.041   4.030   8.914  0.6799 -0.8859 -2.2524
 5378SOL     OW27595   3.974   2.122   2.686 -0.2190  0.0642 -0.3566
 5378SOL    HW127596   4.027   2.116   2.606  1.0461  1.2798  0.4107
 5378SOL    HW227597   3.900   2.065   2.662  1.5965 -2.6953  0.5864
 5379SOL     OW27598   0.523   1.280  12.113  0.8702  0.3523 -0.3025
 5379SOL    HW127599   0.447   1.317  12.158  1.4119  1.5504 -0.3707
 5379SOL    HW227600   0.476   1.210  12.069 -0.7560  1.8602 -0.9808
 5380SOL     OW27601   0.591   4.564   4.952 -0.0487 -0.3195 -0.3674
 5380SOL    HW127602   0.499   4.538   4.956 -0.0906 -0.1412 -0.1675
 5380SOL    HW227603   0.640   4.487   4.981  1.9486  1.4382  1.0129
 5381SOL     OW27604   4.342   3.696  13.632 -0.1308 -0.2668  0.2158
 5381SOL    HW127605   4.330   3.660  13.720  0.6596 -1.3164 -0.0979
 5381SOL    HW227606   4.257   3.739  13.629 -0.8864 -1.8977 -1.2179
 5382SOL     OW27607   2.212   3.254   8.368 -0.4848  0.0511  1.0506
 5382SOL    HW127608   2.172   3.305   8.438 -1.3576 -0.6014  1.0322
 5382SOL    HW227609   2.148   3.193   8.332  0.6329 -1.2342  1.2285
 5383SOL     OW27610   3.608   0.823   6.356 -1.1993 -0.3253 -0.0599
 5383SOL    HW127611   3.666   0.785   6.422 -3.2079 -2.3720  0.5239
 5383SOL    HW227612   3.678   0.854   6.298  0.0248 -1.2996  0.9120
 5384SOL     OW27613   0.538   2.724   3.679 -0.1956  0.4482 -0.6252
 5384SOL    HW127614   0.537   2.727   3.775  0.9722  1.5215 -0.6526
 5384SOL    HW227615   0.632   2.717   3.662 -0.4313 -4.1736 -0.0855
 5385SOL     OW27616   1.018   1.142   7.384 -0.1588  0.0711  0.4069
 5385SOL    HW127617   1.007   1.126   7.478 -0.1326  0.5623  0.4948
 5385SOL    HW227618   1.035   1.236   7.389  2.6138 -0.3895 -0.1911
 5386SOL     OW27619   2.689   2.067  12.232  0.2371 -0.2594 -0.3419
 5386SOL    HW127620   2.656   2.086  12.320  0.4360 -1.8068  0.0670
 5386SOL    HW227621   2.778   2.043  12.259 -0.0194 -1.6634 -0.7726
 5387SOL     OW27622   1.414   3.625   3.635 -0.3794  0.6250  0.1045
 5387SOL    HW127623   1.336   3.672   3.665  0.0115  0.1639  1.8588
 5387SOL    HW227624   1.477   3.632   3.708  0.4046  1.1528 -0.6274
 5388SOL     OW27625   2.089   3.493   6.759 -0.0345 -0.0110  0.0553
 5388SOL    HW127626   2.070   3.559   6.826 -0.8549 -1.4244  1.1999
 5388SOL    HW227627   2.010   3.441   6.773  0.2372 -0.3933  0.1542
 5389SOL     OW27628   1.542   1.163  13.003 -0.3497 -0.2219  0.3561
 5389SOL    HW127629   1.489   1.107  13.059  0.8938 -0.4821  1.2658
 5389SOL    HW227630   1.618   1.105  12.996  0.0855  0.2754  0.9519
 5390SOL     OW27631   2.864   2.095   2.758 -0.5581  0.7722 -0.2617
 5390SOL    HW127632   2.919   2.114   2.834  0.6326  0.7468 -1.1148
 5390SOL    HW227633   2.891   2.005   2.738  1.8455  1.1775  1.1107
 5391SOL     OW27634   4.521   3.467  15.157 -0.0904  0.0361  0.0474
 5391SOL    HW127635   4.441   3.490  15.202  1.4039  2.6793  1.3403
 5391SOL    HW227636   4.528   3.387  15.209  1.6017  0.5636  0.6337
 5392SOL     OW27637   0.588   1.350   6.528 -0.0640 -0.3476 -0.0570
 5392SOL    HW127638   0.542   1.427   6.561  1.7252  1.1318 -1.0153
 5392SOL    HW227639   0.680   1.370   6.547 -0.5850  0.1466  1.8629
 5393SOL     OW27640   3.376   4.358  14.540  0.3305 -0.2421  0.1652
 5393SOL    HW127641   3.317   4.424  14.577  1.3308  1.4616 -1.2839
 5393SOL    HW227642   3.458   4.406  14.532 -0.5765  1.4837  1.2387
 5394SOL     OW27643   3.701   1.493  13.542  0.0719  0.3910 -0.5778
 5394SOL    HW127644   3.636   1.496  13.613 -2.0775  1.8196 -2.6016
 5394SOL    HW227645   3.788   1.493  13.583 -0.5547 -1.7873  0.7718
 5395SOL     OW27646   0.257   2.399   8.314  0.3334  0.2702  0.3503
 5395SOL    HW127647   0.192   2.329   8.304  0.3766  0.4954 -1.5284
 5395SOL    HW227648   0.228   2.441   8.233  3.3926 -0.3562 -1.0538
 5396SOL     OW27649   2.691   1.476  10.337 -0.1530 -0.0701 -0.3077
 5396SOL    HW127650   2.762   1.434  10.387  0.0797  0.9454  0.2129
 5396SOL    HW227651   2.659   1.407  10.279 -0.2507  0.4967 -0.9283
 5397SOL     OW27652   4.388   0.092   8.687 -0.5357  0.3209 -0.3811
 5397SOL    HW127653   4.359   0.150   8.757 -1.8292 -1.4445  0.5688
 5397SOL    HW227654   4.473   0.064   8.721 -0.0245  2.3913  0.0242
 5398SOL     OW27655   1.369   1.842   0.105  0.1620 -0.0200 -0.0664
 5398SOL    HW127656   1.319   1.783   0.161 -0.1973  0.7069  0.3798
 5398SOL    HW227657   1.368   1.811   0.015  0.8693 -2.4810  0.7680
 5399SOL     OW27658   1.530   0.371   4.925 -0.0566  0.1491 -0.4889
 5399SOL    HW127659   1.511   0.317   5.002  3.1879  1.8801  1.5277
 5399SOL    HW227660   1.606   0.424   4.950 -0.7576  0.2175  1.5485
 5400SOL     OW27661   3.276   2.707   7.155  0.0042 -0.0654  0.5497
 5400SOL    HW127662   3.253   2.785   7.206 -0.0229  0.8052 -0.7997
 5400SOL    HW227663   3.299   2.752   7.073  0.2501 -0.8002  0.2151
 5401SOL     OW27664   0.239   0.548   6.510  0.0971  0.5756 -0.4077
 5401SOL    HW127665   0.205   0.631   6.477 -0.8236  0.1107 -0.6536
 5401SOL    HW227666   0.294   0.523   6.436 -0.4407 -1.4876 -0.1159
 5402SOL     OW27667   2.144   4.108   4.547  0.3221  0.1015  0.1068
 5402SOL    HW127668   2.055   4.074   4.558  0.8083 -1.1482  0.1859
 5402SOL    HW227669   2.122   4.187   4.497  3.1937 -0.0331 -1.3063
 5403SOL     OW27670   4.553   3.683  11.013 -0.1279 -0.2823  0.3282
 5403SOL    HW127671   4.551   3.608  11.073  0.5796  0.0439  0.7608
 5403SOL    HW227672   4.648   3.688  11.002 -0.0369 -1.4967  0.5408
 5404SOL     OW27673   1.962   4.278   6.357 -0.0240  0.1770 -0.0504
 5404SOL    HW127674   1.951   4.336   6.433 -0.2124 -1.1037  0.8998
 5404SOL    HW227675   1.872   4.254   6.334  0.6305 -1.4052 -0.9687
 5405SOL     OW27676   4.060   0.575   8.176 -0.0578  0.3611  0.2872
 5405SOL    HW127677   4.059   0.526   8.259 -0.0958 -0.5472 -0.2501
 5405SOL    HW227678   4.086   0.658   8.216  1.1628 -0.6125  1.5455
 5406SOL     OW27679   0.784   3.157   7.109 -0.5576  0.6656  0.2843
 5406SOL    HW127680   0.865   3.140   7.157 -1.1730 -1.7945  0.4891
 5406SOL    HW227681   0.718   3.190   7.170 -0.9029 -1.2473  0.9635
 5407SOL     OW27682   1.283   4.602  15.998 -1.1839 -0.4068 -0.3851
 5407SOL    HW127683   1.259   4.693  15.981  0.9513  0.1117 -0.5413
 5407SOL    HW227684   1.199   4.569  15.965 -1.1658  0.6127 -1.4186
 5408SOL     OW27685   0.097   3.370   6.032  0.1263 -0.1585 -0.3160
 5408SOL    HW127686   0.084   3.291   5.981  0.5525  0.6283 -1.6474
 5408SOL    HW227687   0.137   3.437   5.976 -0.7756  0.0752 -0.6971
 5409SOL     OW27688   2.406   1.702   3.049  0.4439  0.4694  0.5359
 5409SOL    HW127689   2.331   1.710   2.990 -0.1054  0.8234  1.2844
 5409SOL    HW227690   2.351   1.688   3.125  1.5222 -3.7299  0.5324
 5410SOL     OW27691   0.393   3.379   8.856 -0.2015 -0.8975  0.1844
 5410SOL    HW127692   0.369   3.329   8.934 -0.7488  0.1958  0.7253
 5410SOL    HW227693   0.328   3.450   8.856  2.1231  1.2093  2.2472
 5411SOL     OW27694   2.602   1.999   8.335 -0.0988  0.2654 -0.2573
 5411SOL    HW127695   2.657   1.921   8.325  0.1789  0.2919  0.9851
 5411SOL    HW227696   2.576   2.008   8.243  0.9105 -0.5586 -0.6191
 5412SOL     OW27697   3.884   1.556   2.654 -0.6915 -0.4484 -0.0349
 5412SOL    HW127698   3.820   1.614   2.612  1.7850  1.4214 -1.2297
 5412SOL    HW227699   3.909   1.608   2.731  1.2564  0.3712 -1.2198
 5413SOL     OW27700   1.265   0.335   4.166  0.1970  0.5538  0.0223
 5413SOL    HW127701   1.327   0.273   4.128 -0.1143  0.9147 -1.0767
 5413SOL    HW227702   1.322   0.412   4.159 -1.9529  2.0537 -1.2079
 5414SOL     OW27703   1.630   3.232   6.693  0.9589  0.3842 -0.1402
 5414SOL    HW127704   1.579   3.304   6.730 -0.6441 -0.0416 -1.5373
 5414SOL    HW227705   1.597   3.230   6.603  1.7216  0.4767 -0.4209
 5415SOL     OW27706   1.661   0.447   6.240  0.0442  0.0138  0.5058
 5415SOL    HW127707   1.739   0.498   6.217 -0.0317 -1.2062 -2.4772
 5415SOL    HW227708   1.589   0.504   6.212 -0.2831 -1.1405 -1.0260
 5416SOL     OW27709   1.219   1.503  10.603  0.1305 -0.0518  0.4433
 5416SOL    HW127710   1.235   1.410  10.587  0.7294  0.2578 -0.7560
 5416SOL    HW227711   1.276   1.543  10.537  1.9881  1.2512  2.8247
 5417SOL     OW27712   3.068   4.316   9.466 -0.0100  0.4862  0.6498
 5417SOL    HW127713   3.090   4.273   9.383 -1.5104 -2.0392  1.5575
 5417SOL    HW227714   3.043   4.402   9.430 -3.2922 -0.2799  1.0770
 5418SOL     OW27715   2.457   1.221   5.987  0.0076 -0.1969  0.3141
 5418SOL    HW127716   2.378   1.187   6.030 -0.2135 -0.6366 -0.4354
 5418SOL    HW227717   2.501   1.248   6.068  2.3080 -3.5023  0.1720
 5419SOL     OW27718   1.848   2.551   0.802 -0.3097 -0.6295  0.2615
 5419SOL    HW127719   1.872   2.616   0.736 -1.2639  0.7012  1.2124
 5419SOL    HW227720   1.799   2.485   0.752 -1.5894  0.2267  0.3845
 5420SOL     OW27721   4.028   2.787   2.627 -0.2835  0.6147  0.6764
 5420SOL    HW127722   4.064   2.830   2.549  1.6937  0.5013  1.5460
 5420SOL    HW227723   4.086   2.711   2.633 -0.8900  0.0382 -0.7309
 5421SOL     OW27724   0.749   4.365   5.468 -0.1033 -0.3014  0.3160
 5421SOL    HW127725   0.662   4.359   5.429 -0.1695 -0.9474  0.5799
 5421SOL    HW227726   0.759   4.458   5.447 -1.4594  0.3136  2.4493
 5422SOL     OW27727   0.160   4.428   6.582 -0.3852 -0.3181  0.3510
 5422SOL    HW127728   0.124   4.484   6.514  2.0580  1.6784  0.6846
 5422SOL    HW227729   0.236   4.391   6.537 -0.6368 -2.6635  1.8215
 5423SOL     OW27730   0.289   1.252  14.115  0.6912 -0.8012 -0.2362
 5423SOL    HW127731   0.352   1.246  14.043 -0.8594  0.2716 -1.7115
 5423SOL    HW227732   0.227   1.188  14.080  0.0021  0.4222 -1.2979
 5424SOL     OW27733   1.324   4.073   7.949  0.0148 -0.0454  0.1484
 5424SOL    HW127734   1.383   4.147   7.933  0.1419 -0.2566 -0.3614
 5424SOL    HW227735   1.251   4.110   7.999  0.0436  1.9958 -1.3397
 5425SOL     OW27736   3.300   1.896   2.292  0.6649  0.2479 -0.3233
 5425SOL    HW127737   3.245   1.855   2.225 -0.1920  2.9904 -1.2756
 5425SOL    HW227738   3.275   1.988   2.292 -0.2354  0.0097  1.1859
 5426SOL     OW27739   2.192   0.614   3.512 -0.5251  0.2032  0.0289
 5426SOL    HW127740   2.205   0.709   3.518  0.1202  0.0624  0.8514
 5426SOL    HW227741   2.275   0.590   3.553 -0.6670  2.0340  1.3565
 5427SOL     OW27742   3.931   1.928   6.615 -0.1235  0.1980 -0.2730
 5427SOL    HW127743   3.970   1.841   6.610 -1.1196 -0.2431 -0.2117
 5427SOL    HW227744   3.904   1.924   6.707  1.3607  1.3474  0.2271
 5428SOL     OW27745   3.516   1.452   2.484 -0.3121 -0.7744  0.4256
 5428SOL    HW127746   3.570   1.420   2.556  0.1346  0.6484  0.7299
 5428SOL    HW227747   3.439   1.397   2.472 -0.7045 -0.1625  0.1312
 5429SOL     OW27748   2.717   1.248   0.123  0.0972 -0.2893  0.8315
 5429SOL    HW127749   2.772   1.170   0.111 -1.5931 -1.8703  3.1614
 5429SOL    HW227750   2.644   1.234   0.063 -1.8380  2.2493  2.6116
 5430SOL     OW27751   1.085   1.148  13.270 -0.4899  0.4820  0.3702
 5430SOL    HW127752   1.152   1.212  13.249 -2.1268  1.8205 -0.8133
 5430SOL    HW227753   1.006   1.196  13.294 -0.9399  0.4874 -1.0860
 5431SOL     OW27754   1.579   2.585  10.631  0.2092 -0.2765 -0.1298
 5431SOL    HW127755   1.516   2.529  10.677  1.4801 -3.5244 -2.3127
 5431SOL    HW227756   1.593   2.655  10.695  0.3503 -0.4344  0.0118
 5432SOL     OW27757   2.675   1.486   4.891  0.2793  0.6615  0.4832
 5432SOL    HW127758   2.602   1.544   4.870  0.6260  0.0980 -2.3093
 5432SOL    HW227759   2.648   1.450   4.976  2.6118  0.1392  0.9967
 5433SOL     OW27760   3.926   4.620   7.564  0.3756 -0.4268  0.0760
 5433SOL    HW127761   3.966   4.657   7.485  1.6051  1.9341  1.8013
 5433SOL    HW227762   3.853   4.681   7.574 -0.3688 -1.4438  0.8699
 5434SOL     OW27763   3.220   1.788   9.407  0.5599 -0.1039 -0.1692
 5434SOL    HW127764   3.223   1.768   9.314 -2.1457  0.9892 -0.4922
 5434SOL    HW227765   3.309   1.810   9.434  1.0308  1.3114 -2.9671
 5435SOL     OW27766   3.059   1.049  16.546 -0.1114 -0.5452 -0.3345
 5435SOL    HW127767   3.144   1.083  16.518 -0.2022 -0.7285 -0.8318
 5435SOL    HW227768   2.999   1.123  16.549  0.2107 -0.3035  0.2008
 5436SOL     OW27769   3.187   0.382   2.555  0.5047  0.5834 -0.0500
 5436SOL    HW127770   3.220   0.369   2.466  1.8071  0.0562  0.5141
 5436SOL    HW227771   3.152   0.472   2.554  1.5253  0.9607 -1.5017
 5437SOL     OW27772   1.162   4.506   2.612 -0.7400  0.0085 -0.0519
 5437SOL    HW127773   1.169   4.427   2.559  0.9065  0.6597 -0.8078
 5437SOL    HW227774   1.213   4.558   2.550  0.1432 -0.0287  0.6520
 5438SOL     OW27775   4.610   0.366   7.929  0.5137 -0.5498  0.5150
 5438SOL    HW127776   4.695   0.398   7.959  0.6959  1.7009 -2.4188
 5438SOL    HW227777   4.637   0.309   7.857 -0.1682  0.2274 -0.3563
 5439SOL     OW27778   4.123   4.160  12.664  0.3175  0.1532  0.6195
 5439SOL    HW127779   4.117   4.118  12.749  1.0859  0.3280  0.7560
 5439SOL    HW227780   4.211   4.192  12.685  1.7341 -3.0108 -0.6314
 5440SOL     OW27781   1.482   1.177   3.843 -0.0165 -0.3943  0.0547
 5440SOL    HW127782   1.450   1.192   3.754  2.3683 -0.4569 -0.8146
 5440SOL    HW227783   1.456   1.085   3.846  1.6579 -0.8223  1.4887
 5441SOL     OW27784   1.549   1.462   3.706  1.0456  0.0669 -0.1771
 5441SOL    HW127785   1.553   1.373   3.740 -0.0368 -0.5712 -1.6793
 5441SOL    HW227786   1.571   1.517   3.781  1.8642  1.0284 -1.1275
 5442SOL     OW27787   0.778   3.914  17.421  0.1215  0.6262 -0.1287
 5442SOL    HW127788   0.688   3.888  17.405  0.1056  1.0145 -0.6827
 5442SOL    HW227789   0.788   3.957  17.336  2.6396  0.4894  0.0757
 5443SOL     OW27790   3.434   1.602  17.358  0.0160 -0.2761  0.2073
 5443SOL    HW127791   3.475   1.681  17.323 -1.3842  0.1833 -0.3880
 5443SOL    HW227792   3.389   1.567  17.281  0.2089 -1.3928  0.5995
 5444SOL     OW27793   1.091   3.033   1.396 -0.4919  0.1252  0.4131
 5444SOL    HW127794   1.014   2.979   1.415 -1.0355  0.6772 -0.2647
 5444SOL    HW227795   1.118   2.997   1.312 -2.0451 -1.9489  0.8003
 5445SOL     OW27796   1.375   4.681   8.917  0.1201  0.4330  0.0629
 5445SOL    HW127797   1.290   4.662   8.957 -0.6592  1.5875 -1.0331
 5445SOL    HW227798   1.437   4.661   8.987  1.2706  2.0460 -0.4925
 5446SOL     OW27799   1.020   2.498   9.954 -0.3373  0.1510 -0.2426
 5446SOL    HW127800   1.086   2.556   9.992 -0.8320 -0.2548  1.2377
 5446SOL    HW227801   1.051   2.411   9.981  1.8449  1.9811  3.2910
 5447SOL     OW27802   3.293   1.824  11.809  0.8720  0.1616 -0.3136
 5447SOL    HW127803   3.312   1.914  11.781  0.4116  0.3163 -0.1255
 5447SOL    HW227804   3.355   1.830  11.882  0.0318  3.1789  0.1589
 5448SOL     OW27805   2.407   2.056   5.781  0.3819 -0.5428  0.3617
 5448SOL    HW127806   2.425   1.965   5.759  0.9554 -0.7144  1.5041
 5448SOL    HW227807   2.483   2.073   5.837  0.7254  0.4877 -0.4166
 5449SOL     OW27808   3.800   2.099   0.914 -0.2546  0.2542  0.7163
 5449SOL    HW127809   3.764   2.187   0.904 -1.3199 -0.6562 -3.2076
 5449SOL    HW227810   3.860   2.085   0.841 -1.7909 -1.3079 -0.2506
 5450SOL     OW27811   4.669   0.769   3.657  0.2074 -0.0367  0.1085
 5450SOL    HW127812   4.709   0.812   3.581 -1.7012 -0.2397 -1.0067
 5450SOL    HW227813   0.018   0.763   3.718  2.0784 -0.4563 -2.1898
 5451SOL     OW27814   2.571   0.567   9.632 -0.2214  0.1298 -0.0868
 5451SOL    HW127815   2.587   0.599   9.543  3.4104 -0.1016  0.4972
 5451SOL    HW227816   2.479   0.541   9.621 -0.3769  0.6572 -0.0634
 5452SOL     OW27817   0.099   0.582  13.870 -0.1568  0.0171  0.1269
 5452SOL    HW127818   0.053   0.563  13.952 -0.0059  1.6765  0.5892
 5452SOL    HW227819   0.038   0.545  13.806  0.3969  0.1301 -0.4728
 5453SOL     OW27820   0.756   3.810   6.801  0.2848 -0.4547  0.2629
 5453SOL    HW127821   0.807   3.794   6.880 -0.2040 -1.0367  0.4612
 5453SOL    HW227822   0.781   3.734   6.748 -0.1976  0.4984 -1.3313
 5454SOL     OW27823   2.198   4.259   5.175 -0.1846 -0.8325 -0.0625
 5454SOL    HW127824   2.278   4.260   5.226 -1.5005 -1.8527  2.0288
 5454SOL    HW227825   2.157   4.173   5.186  3.0372 -2.4239 -0.6678
 5455SOL     OW27826   0.146   3.039   4.728  0.3859  0.0647  0.8994
 5455SOL    HW127827   0.100   3.067   4.807  1.2809  0.5996  1.2256
 5455SOL    HW227828   0.138   2.943   4.733 -0.7170  0.1528  0.7253
 5456SOL     OW27829   3.997   2.595   3.483 -0.8179  0.0280  0.9619
 5456SOL    HW127830   3.982   2.650   3.560  2.0123  0.9500  0.8603
 5456SOL    HW227831   4.045   2.523   3.522  1.1267  1.2617  0.8878
 5457SOL     OW27832   3.029   3.650   5.137 -0.0072 -0.1505  0.3254
 5457SOL    HW127833   2.967   3.723   5.129  0.6721  0.1285 -2.2588
 5457SOL    HW227834   2.988   3.597   5.206  0.2043 -1.2494 -0.4017
 5458SOL     OW27835   4.570   2.996   6.584  0.4559 -0.3134 -0.3573
 5458SOL    HW127836   4.585   2.962   6.496 -0.6728  1.0355 -1.0642
 5458SOL    HW227837   4.488   2.953   6.607  1.1291 -2.0597 -1.2079
 5459SOL     OW27838   2.107   2.571   2.232  0.8264 -0.1849 -0.6765
 5459SOL    HW127839   2.172   2.600   2.296  1.0981  1.6044 -1.7717
 5459SOL    HW227840   2.079   2.655   2.195  0.3427  0.0657  0.2336
 5460SOL     OW27841   0.082   0.020   3.529  0.1437 -0.2421  0.5601
 5460SOL    HW127842   0.162   0.073   3.523  0.2673 -0.4818  0.0652
 5460SOL    HW227843   0.116   4.665   3.571  0.6618  0.6133  1.7780
 5461SOL     OW27844   1.604   3.395   5.479 -0.0392  0.5518 -0.0106
 5461SOL    HW127845   1.543   3.333   5.518  0.0469 -1.5817 -3.2744
 5461SOL    HW227846   1.577   3.462   5.541  1.3428  0.3970  0.7490
 5462SOL     OW27847   1.032   1.376   8.828  0.7543  0.5260 -1.0297
 5462SOL    HW127848   1.106   1.322   8.855 -0.1245 -0.6195 -0.8843
 5462SOL    HW227849   1.069   1.430   8.758 -0.4911  2.3816 -0.2329
 5463SOL     OW27850   4.297   2.716  12.631  0.2408  0.1551 -0.7588
 5463SOL    HW127851   4.229   2.780  12.649  0.5990  0.3149  0.0258
 5463SOL    HW227852   4.368   2.778  12.651 -0.5563  0.6108  0.6480
 5464SOL     OW27853   4.026   2.459  15.281 -0.5909  0.4316 -0.4191
 5464SOL    HW127854   3.991   2.381  15.238  1.5045  1.1184 -3.3567
 5464SOL    HW227855   4.073   2.495  15.206 -1.5539 -0.5782 -1.5116
 5465SOL     OW27856   2.432   1.135  12.770  0.3268  0.0799 -0.1618
 5465SOL    HW127857   2.517   1.106  12.804  0.3978  1.3039  0.7064
 5465SOL    HW227858   2.384   1.052  12.770 -2.0159  1.4496  1.2695
 5466SOL     OW27859   3.521   0.518   2.040 -0.8374 -0.0120 -0.1595
 5466SOL    HW127860   3.460   0.584   2.073 -0.7386  1.2286 -2.4665
 5466SOL    HW227861   3.599   0.562   2.008 -1.0842 -0.0994 -0.8785
 5467SOL     OW27862   2.718   4.330  11.158  0.2737 -0.2307  0.5408
 5467SOL    HW127863   2.770   4.410  11.165 -3.1132  2.4391 -5.1931
 5467SOL    HW227864   2.633   4.360  11.189  1.2333  1.6054  1.3381
 5468SOL     OW27865   2.179   3.151   7.150 -0.1152 -0.0083  0.2857
 5468SOL    HW127866   2.245   3.093   7.188  2.4823  3.1498  0.6629
 5468SOL    HW227867   2.232   3.183   7.076  0.2914 -0.2244  0.4831
 5469SOL     OW27868   0.978   0.165   7.862 -0.4603 -0.4259 -0.0623
 5469SOL    HW127869   1.014   0.229   7.923 -3.2382 -0.1752  1.3290
 5469SOL    HW227870   1.012   0.208   7.783  1.2059 -0.4636  0.6330
 5470SOL     OW27871   3.513   2.426  16.566  0.2217  0.7191  0.3803
 5470SOL    HW127872   3.609   2.418  16.565  0.1647  0.0561  0.3584
 5470SOL    HW227873   3.504   2.504  16.512 -1.2946  0.3982  0.1629
 5471SOL     OW27874   4.542   0.365   4.886  0.0781 -0.1891 -0.1725
 5471SOL    HW127875   4.456   0.324   4.897  0.1736  0.2626  2.3677
 5471SOL    HW227876   4.587   0.299   4.835 -2.6367 -1.2026 -1.2368
 5472SOL     OW27877   1.853   0.910   4.479  0.2399 -0.1810 -0.1343
 5472SOL    HW127878   1.903   0.837   4.441 -0.8666 -0.4082 -1.1705
 5472SOL    HW227879   1.861   0.887   4.572  0.6689 -0.6468 -0.2861
 5473SOL     OW27880   0.520   0.371   3.012  0.5653 -0.1479  0.2217
 5473SOL    HW127881   0.508   0.387   2.918  0.9482 -0.7502  0.0730
 5473SOL    HW227882   0.589   0.431   3.039  0.1177 -1.0915  3.4234
 5474SOL     OW27883   3.084   3.481   3.130  0.1000 -0.1846  0.6164
 5474SOL    HW127884   2.998   3.464   3.093  0.9233 -1.8106 -0.5489
 5474SOL    HW227885   3.091   3.402   3.182  3.5558  1.9516  3.3959
 5475SOL     OW27886   0.795   0.447  17.255 -0.2755  0.1250  0.5118
 5475SOL    HW127887   0.850   0.380  17.215  0.3585  0.0475  1.5081
 5475SOL    HW227888   0.748   0.483  17.180 -0.1277 -0.7899 -0.0132
 5476SOL     OW27889   1.679   0.296   3.653  0.5431 -0.4965  0.2200
 5476SOL    HW127890   1.617   0.232   3.617  0.0269 -1.2575  2.4953
 5476SOL    HW227891   1.769   0.268   3.634  0.4992 -0.0728 -0.6158
 5477SOL     OW27892   4.677   3.149   6.804 -0.8135 -0.6296  0.7428
 5477SOL    HW127893   4.637   3.071   6.766 -0.8437 -0.0265 -0.4554
 5477SOL    HW227894   4.612   3.217   6.793 -0.2054 -0.3291 -0.9705
 5478SOL     OW27895   0.313   0.674  12.699  0.2779  0.1495 -0.2073
 5478SOL    HW127896   0.357   0.677  12.614 -0.6531 -3.2301 -0.8420
 5478SOL    HW227897   0.377   0.707  12.762  1.1098  0.6376 -1.3101
 5479SOL     OW27898   4.409   0.928   8.516 -0.7987  0.0585  0.4565
 5479SOL    HW127899   4.448   0.939   8.430  0.6162 -0.3509  1.0502
 5479SOL    HW227900   4.435   0.837   8.532 -0.7651 -0.2149 -1.1723
 5480SOL     OW27901   2.022   3.500   7.360 -0.1117  0.3508  0.6927
 5480SOL    HW127902   2.013   3.586   7.319 -0.8779 -0.2703 -0.4244
 5480SOL    HW227903   1.971   3.497   7.442  0.1083  1.9288  0.8860
 5481SOL     OW27904   2.131   1.390   1.848 -0.1224  0.4754  0.0159
 5481SOL    HW127905   2.221   1.384   1.814  0.0615  0.7537  0.4561
 5481SOL    HW227906   2.139   1.466   1.905  1.9058 -0.1956  0.6422
 5482SOL     OW27907   2.285   2.815  15.077  0.2586  0.3835  0.4951
 5482SOL    HW127908   2.357   2.759  15.049  0.3563  1.0699 -0.6234
 5482SOL    HW227909   2.315   2.863  15.155  1.1836  1.8825 -0.8009
 5483SOL     OW27910   2.156   2.670   1.822 -0.1984  1.1359  0.2501
 5483SOL    HW127911   2.089   2.607   1.847 -0.0386  0.7056 -0.3943
 5483SOL    HW227912   2.208   2.618   1.761 -0.6294 -0.2768  1.1032
 5484SOL     OW27913   4.632   2.489  11.832  0.5178  0.4138 -0.4214
 5484SOL    HW127914   4.578   2.558  11.872 -0.7394 -0.3234 -0.8245
 5484SOL    HW227915   4.570   2.456  11.767  0.8629 -0.5122 -0.2801
 5485SOL     OW27916   3.525   2.973   5.660 -0.2042 -0.5660 -0.7646
 5485SOL    HW127917   3.441   3.008   5.629  0.4276  1.2541 -0.3717
 5485SOL    HW227918   3.499   2.891   5.703  1.4076 -1.0135 -0.6449
 5486SOL     OW27919   0.444   0.611   9.333  0.6688  0.1329 -0.2266
 5486SOL    HW127920   0.389   0.580   9.405  1.2662 -1.4553 -0.4543
 5486SOL    HW227921   0.531   0.604   9.372  0.6378 -1.7219 -0.5095
 5487SOL     OW27922   1.617   2.127   7.162  0.1813 -0.3475 -0.1926
 5487SOL    HW127923   1.670   2.205   7.145 -0.2335 -0.0687 -0.2169
 5487SOL    HW227924   1.550   2.168   7.217  1.0659  0.1005  0.5577
 5488SOL     OW27925   1.201   4.231   2.055 -0.6559  0.2616 -0.1226
 5488SOL    HW127926   1.212   4.174   2.132 -2.2117  0.0235 -0.0761
 5488SOL    HW227927   1.176   4.154   2.004  0.7346 -0.1893 -0.1327
 5489SOL     OW27928   1.682   0.756   5.398  0.5135  0.4076 -0.2615
 5489SOL    HW127929   1.611   0.811   5.430  0.1415  0.5750 -1.3457
 5489SOL    HW227930   1.628   0.679   5.381 -0.7721  1.0411  0.9793
 5490SOL     OW27931   4.468   2.607  11.189 -0.1571 -0.3534  0.1728
 5490SOL    HW127932   4.524   2.671  11.233  0.6919 -0.6297 -0.4995
 5490SOL    HW227933   4.532   2.557  11.138  1.0898  0.3407  1.0809
 5491SOL     OW27934   3.211   2.824   6.622 -0.1510 -0.1154  0.1141
 5491SOL    HW127935   3.161   2.775   6.557 -1.7757 -0.7149  1.8140
 5491SOL    HW227936   3.250   2.888   6.563 -0.8117  0.7541  0.6178
 5492SOL     OW27937   4.675   0.617   4.937  0.6386  0.3852  0.3462
 5492SOL    HW127938   4.626   0.540   4.968  2.4926 -0.0483  2.2125
 5492SOL    HW227939   4.670   0.599   4.843 -2.6755  1.5908  0.3088
 5493SOL     OW27940   2.832   1.531  13.997 -0.1782 -0.1678  0.3146
 5493SOL    HW127941   2.912   1.583  14.006 -1.4934  1.6567  1.3071
 5493SOL    HW227942   2.772   1.558  14.066 -1.7723 -0.8927 -0.7966
 5494SOL     OW27943   2.928   4.162  15.855  0.1764  0.0116  0.4360
 5494SOL    HW127944   2.997   4.217  15.893 -0.1606 -0.9322  2.4213
 5494SOL    HW227945   2.849   4.167  15.909 -0.4347  0.6808 -0.5132
 5495SOL     OW27946   4.709   2.247   4.774 -0.1397  0.5801  0.3327
 5495SOL    HW127947   4.647   2.264   4.845 -2.7892 -0.0760 -1.7980
 5495SOL    HW227948   4.717   2.337   4.743  2.2746  0.8509  1.7756
 5496SOL     OW27949   2.565   1.281   5.085  0.3790 -0.3910 -0.5815
 5496SOL    HW127950   2.560   1.200   5.036  0.3465 -0.7425  0.0054
 5496SOL    HW227951   2.553   1.253   5.175  0.6297 -1.8423 -1.0046
 5497SOL     OW27952   2.667   0.026   7.093 -0.3792 -0.2663 -0.0486
 5497SOL    HW127953   2.756   0.060   7.081  0.2696 -1.3726  1.6263
 5497SOL    HW227954   2.641   0.096   7.153  1.6876  0.7907 -0.3864
 5498SOL     OW27955   1.850   4.681   4.452 -0.2920  0.2307  0.1837
 5498SOL    HW127956   1.869   4.590   4.475  1.3293  0.1412 -1.5299
 5498SOL    HW227957   1.932   4.719   4.482 -0.6088  0.3851  0.8558
 5499SOL     OW27958   1.228   2.733   5.304  0.4697  0.2164 -0.3174
 5499SOL    HW127959   1.219   2.698   5.215  1.1057  0.6188 -0.5432
 5499SOL    HW227960   1.267   2.819   5.290  0.2168  0.4077  0.1641
 5500SOL     OW27961   4.195   2.571   2.579  0.1824 -0.4120  0.1436
 5500SOL    HW127962   4.153   2.495   2.539 -0.2077 -0.8361  1.3363
 5500SOL    HW227963   4.226   2.621   2.504  3.0221 -1.1672  0.8218
 5501SOL     OW27964   3.072   3.708  11.428 -0.1952  0.3304 -0.1512
 5501SOL    HW127965   3.087   3.796  11.461  0.3346  0.2364 -0.1434
 5501SOL    HW227966   3.017   3.670  11.497 -0.0430 -0.4305 -0.4497
 5502SOL     OW27967   3.710   3.952   5.050 -0.1340 -0.1526  0.1591
 5502SOL    HW127968   3.735   3.862   5.071  0.9726  0.6294  2.1902
 5502SOL    HW227969   3.641   3.961   5.116 -0.4534  2.9200 -0.5909
 5503SOL     OW27970   3.597   3.748   4.207 -0.5035  0.0366 -0.1717
 5503SOL    HW127971   3.686   3.712   4.208  0.1061  1.5169 -0.9560
 5503SOL    HW227972   3.577   3.726   4.298 -1.0986  0.3743 -0.2189
 5504SOL     OW27973   3.300   1.542   0.967 -0.6172  0.7534  0.7557
 5504SOL    HW127974   3.344   1.613   1.013  0.1551  0.4503  0.4878
 5504SOL    HW227975   3.259   1.507   1.046 -1.4455 -0.8480 -0.3762
 5505SOL     OW27976   2.874   3.230   7.455  0.2020 -0.6448  0.0281
 5505SOL    HW127977   2.794   3.180   7.470  0.9856 -1.3476  1.7850
 5505SOL    HW227978   2.923   3.224   7.537 -1.6879 -1.2971  1.1083
 5506SOL     OW27979   0.994   3.576   2.279 -0.3714 -0.3282 -0.0229
 5506SOL    HW127980   0.908   3.606   2.248 -1.2638 -0.8240  1.9989
 5506SOL    HW227981   1.044   3.640   2.229 -0.8642  0.0282 -0.0521
 5507SOL     OW27982   3.520   2.936   2.083 -0.6141  0.3584 -0.0200
 5507SOL    HW127983   3.474   3.000   2.137  1.1033 -0.1875  2.0443
 5507SOL    HW227984   3.612   2.953   2.105 -0.7774  2.0311 -0.5948
 5508SOL     OW27985   1.268   3.038   4.028 -0.0612  0.1470 -0.0586
 5508SOL    HW127986   1.283   2.945   4.045  0.1335  0.1884 -0.0114
 5508SOL    HW227987   1.259   3.066   4.119 -1.0861  0.0428 -0.1308
 5509SOL     OW27988   2.240   3.581  11.187 -0.4137  0.3663 -0.1889
 5509SOL    HW127989   2.328   3.601  11.154 -0.1184 -0.1487  0.2763
 5509SOL    HW227990   2.194   3.658  11.152  1.5696  1.8439  0.4364
 5510SOL     OW27991   1.694   2.440   9.792  0.1768  0.1984 -0.6533
 5510SOL    HW127992   1.781   2.438   9.833 -0.1256  1.5393  0.0660
 5510SOL    HW227993   1.713   2.498   9.718 -0.4387 -0.4743 -1.3416
 5511SOL     OW27994   3.192   0.682   5.177 -0.0123 -0.0898  0.4230
 5511SOL    HW127995   3.171   0.591   5.158  2.6189 -0.2640 -1.6929
 5511SOL    HW227996   3.158   0.673   5.266  0.8691 -0.4687  0.7199
 5512SOL     OW27997   1.106   2.491   4.023  0.1076  0.0171 -0.1163
 5512SOL    HW127998   1.033   2.491   3.961 -0.4103 -0.7436  0.5079
 5512SOL    HW227999   1.146   2.576   4.003 -0.2549 -0.1725 -1.6929
 5513SOL     OW28000   2.797   2.224   1.671  0.2613 -0.3858  0.3428
 5513SOL    HW128001   2.803   2.276   1.751 -1.7022 -0.3008  0.4416
 5513SOL    HW228002   2.702   2.213   1.661  0.1064  1.9017 -0.8869
 5514SOL     OW28003   3.105   1.414   1.870  0.1895  0.1448  0.6554
 5514SOL    HW128004   3.056   1.333   1.853 -1.3286  1.4291 -1.1735
 5514SOL    HW228005   3.097   1.428   1.964 -1.1664  0.9209  0.4323
 5515SOL     OW28006   3.553   2.662   0.805  0.6847 -0.0213 -0.9081
 5515SOL    HW128007   3.606   2.643   0.727  0.4198  0.6190 -1.2514
 5515SOL    HW228008   3.494   2.726   0.764  1.3988  0.2120 -1.5815
 5516SOL     OW28009   2.266   3.530   5.545  0.4834 -0.3870 -0.2769
 5516SOL    HW128010   2.241   3.447   5.584 -0.8450  0.4032  0.5481
 5516SOL    HW228011   2.253   3.594   5.615  2.0849 -0.6334  0.2311
 5517SOL     OW28012   0.485   0.207   6.862 -0.2786  0.3146 -0.2469
 5517SOL    HW128013   0.455   0.294   6.889  0.1016  0.2080  0.5259
 5517SOL    HW228014   0.483   0.167   6.949 -1.1351 -0.3426 -0.5742
 5518SOL     OW28015   4.516   2.092   6.843 -0.4452 -0.3524 -0.1193
 5518SOL    HW128016   4.454   2.091   6.916 -0.9829  4.5039 -0.4997
 5518SOL    HW228017   4.603   2.093   6.883 -0.0997  0.6751 -0.8996
 5519SOL     OW28018   3.281   0.572  14.948  0.8384 -0.5049  0.5018
 5519SOL    HW128019   3.361   0.624  14.960  1.1151 -1.0950  1.1671
 5519SOL    HW228020   3.319   0.484  14.945  1.8700 -0.1381  2.7386
 5520SOL     OW28021   3.876   1.305  13.847  0.1977  0.5245  0.1215
 5520SOL    HW128022   3.822   1.286  13.771  0.3606 -2.6025  0.7712
 5520SOL    HW228023   3.959   1.269  13.814 -0.9655 -0.3952 -1.7728
 5521SOL     OW28024   4.297   4.433  15.642  0.2587 -0.0420  0.3328
 5521SOL    HW128025   4.291   4.515  15.692  1.1646  0.7131 -0.7753
 5521SOL    HW228026   4.239   4.460  15.569 -0.1708 -1.8588  0.0134
 5522SOL     OW28027   1.216   0.932   8.873  0.3560 -0.1540  0.2114
 5522SOL    HW128028   1.246   1.008   8.822 -0.7033 -0.2064 -0.4878
 5522SOL    HW228029   1.277   0.872   8.830  1.8595  0.9471  0.7859
 5523SOL     OW28030   0.889   2.859   1.438 -0.2274 -0.0291 -0.2870
 5523SOL    HW128031   0.943   2.788   1.472 -1.5146 -0.0646  1.6659
 5523SOL    HW228032   0.866   2.838   1.348 -0.1881 -0.2298 -0.2491
 5524SOL     OW28033   3.555   2.778  17.173 -0.0349 -0.8150  0.1113
 5524SOL    HW128034   3.620   2.756  17.106  1.9177  1.1698  1.3342
 5524SOL    HW228035   3.610   2.773  17.251 -2.5581  2.1566  2.0896
 5525SOL     OW28036   1.437   3.896  10.195 -0.3906  0.1121 -1.0397
 5525SOL    HW128037   1.389   3.882  10.114  0.9427 -0.2104 -1.7757
 5525SOL    HW228038   1.370   3.933  10.253  0.2547  2.6716 -1.9450
 5526SOL     OW28039   2.881   1.880   6.003  0.1511  0.3156  0.4236
 5526SOL    HW128040   2.786   1.891   6.006 -0.0084  1.0994 -6.2709
 5526SOL    HW228041   2.912   1.953   6.056 -0.7073  0.7299  0.3475
 5527SOL     OW28042   2.612   1.887  11.749 -0.0131 -0.0397 -0.0071
 5527SOL    HW128043   2.608   1.957  11.684 -0.0330 -1.2694 -1.3181
 5527SOL    HW228044   2.599   1.922  11.838  0.6925  1.8283 -0.6430
 5528SOL     OW28045   0.457   2.095   5.196  0.2280 -0.7249  0.1185
 5528SOL    HW128046   0.503   2.122   5.116 -1.0015 -1.0127 -0.6925
 5528SOL    HW228047   0.526   2.095   5.262 -0.1861  0.7413  0.5516
 5529SOL     OW28048   4.198   3.898   6.489  0.7448  0.6168 -0.7208
 5529SOL    HW128049   4.211   3.804   6.497  3.0628  0.9585 -0.4762
 5529SOL    HW228050   4.289   3.926   6.496  1.5742 -1.7720 -1.8363
 5530SOL     OW28051   1.243   1.153  17.602 -0.0563  0.3334 -0.0695
 5530SOL    HW128052   1.203   1.239  17.592  0.0192  0.3905  0.1228
 5530SOL    HW228053   1.166   1.104  17.631 -0.4822  1.2230  0.2843
 5531SOL     OW28054   2.256   0.955   9.612 -0.0022  0.1616  0.1953
 5531SOL    HW128055   2.267   0.958   9.517  0.7445 -2.0013  0.2166
 5531SOL    HW228056   2.339   0.999   9.629  1.1078 -1.9254  0.1907
 5532SOL     OW28057   4.463   0.404  16.179  0.3877 -0.5816  0.2007
 5532SOL    HW128058   4.518   0.445  16.112  0.8008 -0.7925  0.4106
 5532SOL    HW228059   4.443   0.477  16.237 -0.1270 -0.0303 -0.6684
 5533SOL     OW28060   1.865   3.334   6.802 -0.2237  0.6784 -0.7463
 5533SOL    HW128061   1.895   3.254   6.847 -0.7337  1.4807  1.0063
 5533SOL    HW228062   1.782   3.307   6.763  0.5193 -0.6703 -1.4130
 5534SOL     OW28063   2.733   0.369  16.591  0.2751 -0.4457  0.1767
 5534SOL    HW128064   2.715   0.295  16.649  1.3565 -0.0782  0.9809
 5534SOL    HW228065   2.825   0.385  16.610  0.9175 -2.7950 -0.9235
 5535SOL     OW28066   3.673   3.589   1.758 -0.3756 -0.4313 -0.6780
 5535SOL    HW128067   3.660   3.495   1.757 -2.7937 -0.1097  0.7598
 5535SOL    HW228068   3.764   3.599   1.787 -0.9522  0.1716  0.9461
 5536SOL     OW28069   4.375   1.902   2.422 -0.1484  0.0442  0.8077
 5536SOL    HW128070   4.307   1.896   2.355 -0.5996 -0.6764  1.3272
 5536SOL    HW228071   4.396   1.808   2.423  0.9627  0.2667 -1.6719
 5537SOL     OW28072   2.922   1.966   8.883  0.0581  0.2820 -0.2470
 5537SOL    HW128073   2.960   1.961   8.795  0.6312 -0.2239  0.0322
 5537SOL    HW228074   2.962   1.887   8.918 -0.2897  0.2612  0.1138
 5538SOL     OW28075   2.403   1.943  16.917 -0.2345  0.3103  0.4359
 5538SOL    HW128076   2.490   1.908  16.936  0.4608  1.2114 -1.0631
 5538SOL    HW228077   2.413   1.938  16.822  1.4580  0.5388  0.6051
 5539SOL     OW28078   4.491   0.952   1.616  0.2529 -0.0566 -0.0068
 5539SOL    HW128079   4.452   0.875   1.574  2.0933 -2.9536  3.5992
 5539SOL    HW228080   4.524   1.005   1.543  0.6721  2.5782  2.0812
 5540SOL     OW28081   3.987   0.955   6.629 -0.1859 -0.4954 -0.1480
 5540SOL    HW128082   4.073   0.981   6.659 -0.1906 -2.3530  1.5025
 5540SOL    HW228083   3.933   0.960   6.708  1.3232  0.0920  0.8351
 5541SOL     OW28084   1.879   4.419  14.221 -0.5407  0.2253  0.2477
 5541SOL    HW128085   1.786   4.411  14.200 -0.0680 -0.8729 -1.4411
 5541SOL    HW228086   1.862   4.476  14.296 -1.1298  1.2571 -0.6566
 5542SOL     OW28087   3.524   2.903   3.264  0.3369  0.2535 -0.4751
 5542SOL    HW128088   3.607   2.949   3.264  0.3595  0.2075 -1.5626
 5542SOL    HW228089   3.503   2.918   3.356 -0.8463  1.8356 -1.0131
 5543SOL     OW28090   3.994   1.966   8.251 -0.3523 -0.1872  0.7566
 5543SOL    HW128091   3.986   1.980   8.346  0.6579 -1.2454  0.9963
 5543SOL    HW228092   4.072   1.911   8.246  0.4454  1.1200 -0.9469
 5544SOL     OW28093   4.288   0.585   4.072 -0.2487  0.2493 -0.5788
 5544SOL    HW128094   4.278   0.495   4.101  0.6585 -0.3575 -2.1342
 5544SOL    HW228095   4.214   0.591   4.012  0.0457  0.4117 -0.9279
 5545SOL     OW28096   0.702   3.665  10.668 -0.3235  0.9125  0.1381
 5545SOL    HW128097   0.784   3.696  10.706 -0.2031 -0.2000  0.7946
 5545SOL    HW228098   0.717   3.703  10.581 -1.9467  0.3251 -0.3990
 5546SOL     OW28099   0.027   4.297   4.489  0.5805  0.4242 -0.2636
 5546SOL    HW128100   0.005   4.220   4.542 -0.3971 -1.2433 -3.0997
 5546SOL    HW228101   0.080   4.346   4.552  2.0110 -0.7031 -0.5998
 5547SOL     OW28102   4.131   2.548  10.348  0.8282  1.2401  0.1115
 5547SOL    HW128103   4.041   2.556  10.317  0.4958 -0.9299  0.4738
 5547SOL    HW228104   4.165   2.637  10.345  0.4177  1.3459 -1.3023
 5548SOL     OW28105   2.388   2.812  16.911  0.9773 -0.3965  0.0927
 5548SOL    HW128106   2.455   2.747  16.933 -0.4164 -2.0103 -0.4692
 5548SOL    HW228107   2.446   2.878  16.872  0.5606 -0.4521 -0.6031
 5549SOL     OW28108   3.133   1.031   3.191  0.0886 -0.3363 -0.7080
 5549SOL    HW128109   3.217   1.021   3.146  2.3990  2.2260  3.0190
 5549SOL    HW228110   3.134   1.124   3.213  0.1686 -0.2814 -0.9474
 5550SOL     OW28111   0.967   4.690   1.970 -0.1634  0.0196  0.4455
 5550SOL    HW128112   0.997   4.602   1.995 -0.5058  0.1318  1.2654
 5550SOL    HW228113   0.946   4.721   2.058  1.3864 -0.6242  1.0527
 5551SOL     OW28114   1.982   2.451   1.884  0.3741  0.6236  0.0494
 5551SOL    HW128115   1.965   2.357   1.883  0.1849  0.6627 -0.4731
 5551SOL    HW228116   1.900   2.478   1.925  0.7963  0.1988  1.1607
 5552SOL     OW28117   0.428   2.911   7.973 -0.0764  0.0726 -0.5008
 5552SOL    HW128118   0.384   2.903   8.058  0.7859 -0.7174 -0.1391
 5552SOL    HW228119   0.510   2.947   8.005  0.3916  1.4323 -3.1947
 5553SOL     OW28120   1.293   3.824   4.949 -0.4147 -0.3299  0.4071
 5553SOL    HW128121   1.215   3.795   4.998 -0.4345 -1.8306 -0.5148
 5553SOL    HW228122   1.369   3.789   4.997 -1.4867 -1.5835  1.2062
 5554SOL     OW28123   1.792   0.211   4.982 -0.2488 -0.5596  0.3802
 5554SOL    HW128124   1.873   0.177   5.020  0.2811  0.5171  0.2108
 5554SOL    HW228125   1.823   0.231   4.893 -0.1075 -2.2493  0.0473
 5555SOL     OW28126   1.517   4.026  12.332 -0.4611  0.6330  0.3505
 5555SOL    HW128127   1.610   4.007  12.329 -0.2623  1.5800  0.2848
 5555SOL    HW228128   1.506   4.105  12.386  2.6159  1.7662 -0.6984
 5556SOL     OW28129   1.196   4.366   5.759 -0.3786 -0.0789 -0.0619
 5556SOL    HW128130   1.116   4.419   5.765 -0.6959 -0.8034  2.1931
 5556SOL    HW228131   1.235   4.369   5.846  3.3891  1.5183 -1.8460
 5557SOL     OW28132   3.985   3.286   6.255  0.2834 -0.3812  0.3063
 5557SOL    HW128133   4.070   3.295   6.211  0.6490 -1.4663  0.7819
 5557SOL    HW228134   3.967   3.377   6.276  1.1805 -0.1933  0.2885
 5558SOL     OW28135   3.845   1.184  15.107  0.4930  0.5919  0.1041
 5558SOL    HW128136   3.874   1.107  15.059 -0.0794  0.0192  0.6940
 5558SOL    HW228137   3.770   1.217  15.058 -0.9679 -0.7064  1.4916
 5559SOL     OW28138   1.082   4.055   3.355  0.2280 -0.6234 -0.3480
 5559SOL    HW128139   1.142   4.032   3.284  2.5663  1.9202  0.8026
 5559SOL    HW228140   1.133   4.043   3.435  2.2711 -2.1479 -1.8833
 5560SOL     OW28141   3.616   2.491   3.127 -0.5611 -0.0261  0.1504
 5560SOL    HW128142   3.613   2.405   3.085  1.0162  0.5296 -1.0855
 5560SOL    HW228143   3.640   2.474   3.219 -2.2800 -1.9438  0.2522
 5561SOL     OW28144   4.495   2.913   0.463  0.3695  0.3424 -0.1656
 5561SOL    HW128145   4.418   2.962   0.492  0.3253  0.4600 -0.4851
 5561SOL    HW228146   4.565   2.946   0.519  0.6734  0.5135 -0.6443
 5562SOL     OW28147   0.834   1.454  16.828  0.4592 -0.6474 -0.1491
 5562SOL    HW128148   0.879   1.466  16.744  0.5600  0.4463  0.0667
 5562SOL    HW228149   0.864   1.367  16.854  0.1626 -0.4898  0.7281
 5563SOL     OW28150   0.324   3.370   0.273 -0.0772  0.0324  0.3739
 5563SOL    HW128151   0.349   3.456   0.239  0.3462 -0.5454 -0.7541
 5563SOL    HW228152   0.314   3.395   0.365  0.5422  0.0045  0.4483
 5564SOL     OW28153   1.695   0.139  15.863 -0.2242  0.0019  0.3653
 5564SOL    HW128154   1.622   0.083  15.892 -0.4093 -1.2357 -2.5006
 5564SOL    HW228155   1.749   0.123  15.940  1.9197 -1.1798 -1.3823
 5565SOL     OW28156   2.494   3.300   6.654 -0.0430 -0.5879  0.0155
 5565SOL    HW128157   2.576   3.266   6.618  0.8694 -0.5887  2.1089
 5565SOL    HW228158   2.509   3.301   6.748 -0.0137 -0.0693  0.0070
 5566SOL     OW28159   0.421   0.734   3.258 -0.0965  0.1192 -0.3509
 5566SOL    HW128160   0.432   0.781   3.175  1.2435 -0.0791 -0.2891
 5566SOL    HW228161   0.499   0.678   3.265 -0.5094 -0.2876  0.8873
 5567SOL     OW28162   3.054   0.435  13.179  0.2188  0.4467  0.6107
 5567SOL    HW128163   3.121   0.385  13.226  1.0411  2.1039  1.2061
 5567SOL    HW228164   2.977   0.415  13.232 -0.1211  0.3138  0.0599
 5568SOL     OW28165   1.724   2.181   9.819 -0.0291  0.5080  0.3226
 5568SOL    HW128166   1.632   2.156   9.810  0.2296 -0.9420  1.6180
 5568SOL    HW228167   1.710   2.274   9.802 -0.6361  0.2088 -0.8588
 5569SOL     OW28168   1.727   0.653  11.830 -0.1189  0.2055  0.0512
 5569SOL    HW128169   1.741   0.580  11.889 -2.8994 -1.5956 -1.4778
 5569SOL    HW228170   1.803   0.700  11.863  0.7171 -1.2259  0.1326
 5570SOL     OW28171   1.389   4.119  15.691 -0.3013 -0.2389  0.3502
 5570SOL    HW128172   1.319   4.182  15.675 -1.0549 -1.0040  0.6021
 5570SOL    HW228173   1.371   4.061  15.617 -3.5961  1.4668 -0.2172
 5571SOL     OW28174   3.810   1.963   1.146 -0.2699  0.1055 -0.3985
 5571SOL    HW128175   3.798   2.017   1.068 -2.2142  0.5129  0.1771
 5571SOL    HW228176   3.844   2.033   1.202 -1.2352 -1.2112  1.8415
 5572SOL     OW28177   2.493   3.868   4.838 -0.9111  0.0282 -0.1036
 5572SOL    HW128178   2.420   3.838   4.892 -0.0435  0.2070  1.1766
 5572SOL    HW228179   2.438   3.924   4.783  1.1992 -0.1711 -2.4122
 5573SOL     OW28180   3.418   1.015   3.073 -0.2438  0.1747  0.1215
 5573SOL    HW128181   3.414   0.930   3.029 -1.0737  0.1584  0.2377
 5573SOL    HW228182   3.384   1.075   3.006 -1.3589 -1.8079 -1.0618
 5574SOL     OW28183   0.469   3.190   6.148  1.3104 -0.2488 -0.1100
 5574SOL    HW128184   0.436   3.113   6.101 -1.1492 -0.2766  1.6340
 5574SOL    HW228185   0.555   3.197   6.108  1.9727 -2.6627  0.8966
 5575SOL     OW28186   3.822   1.023   7.068 -0.1436  0.0143  0.1791
 5575SOL    HW128187   3.823   0.942   7.018 -1.2285  0.1723 -0.1003
 5575SOL    HW228188   3.890   1.077   7.027  1.2358 -1.0812  1.0310
 5576SOL     OW28189   3.819   4.398   5.810 -0.4841  0.0176  0.5809
 5576SOL    HW128190   3.827   4.491   5.788  0.9349 -0.8216 -2.4656
 5576SOL    HW228191   3.771   4.361   5.736 -0.5591  2.0587 -0.4006
 5577SOL     OW28192   0.213   1.909  13.015  0.8476 -0.2145 -0.1389
 5577SOL    HW128193   0.279   1.843  12.997  2.3809  1.3704 -0.3299
 5577SOL    HW228194   0.182   1.875  13.098 -2.5516  1.9434 -0.5121
 5578SOL     OW28195   2.310   2.904   6.072  0.8740 -0.0854 -0.4314
 5578SOL    HW128196   2.289   2.832   6.131  0.7610  0.4788  0.2320
 5578SOL    HW228197   2.224   2.898   6.032  1.3992  0.6335 -1.6608
 5579SOL     OW28198   0.638   3.147   9.197 -0.8689 -0.3111 -0.6810
 5579SOL    HW128199   0.577   3.216   9.169 -1.7558  0.8233  3.9966
 5579SOL    HW228200   0.690   3.145   9.117  0.9715  3.9571  0.3944
 5580SOL     OW28201   2.221   3.339   1.425 -0.0246  0.1250  0.6433
 5580SOL    HW128202   2.154   3.275   1.400  1.7346 -2.1253  1.7258
 5580SOL    HW228203   2.200   3.365   1.514  1.3388  2.3761  0.3093
 5581SOL     OW28204   0.086   4.518   5.575  0.0043  0.3596  0.2369
 5581SOL    HW128205   0.011   4.577   5.566 -1.9403 -1.9186  1.5378
 5581SOL    HW228206   0.079   4.487   5.665 -1.9782  0.9883  0.2980
 5582SOL     OW28207   3.729   0.775   9.286 -0.1611  0.6208  0.2637
 5582SOL    HW128208   3.736   0.769   9.381  1.1817 -0.4691  0.0927
 5582SOL    HW228209   3.637   0.803   9.283 -0.5663 -0.8872 -1.4183
 5583SOL     OW28210   2.051   2.831   5.990 -0.1354 -0.6466 -0.2133
 5583SOL    HW128211   2.021   2.905   6.043 -1.4891 -1.9398  0.8365
 5583SOL    HW228212   2.080   2.768   6.055 -0.0193  1.9126  2.2225
 5584SOL     OW28213   2.032   0.769   6.737 -0.1810  0.1361  0.6103
 5584SOL    HW128214   2.118   0.761   6.778  0.3577  0.1153 -0.5075
 5584SOL    HW228215   2.042   0.715   6.658  0.6697 -1.1406  1.5944
 5585SOL     OW28216   2.581   1.895  17.554  0.5149 -0.7774 -0.2284
 5585SOL    HW128217   2.506   1.837  17.546 -0.8776  1.0600 -0.4227
 5585SOL    HW228218   2.590   1.914  17.461 -5.6752  0.3989 -0.5591
 5586SOL     OW28219   0.404   1.108   6.971 -0.2669  0.0513  0.1369
 5586SOL    HW128220   0.452   1.148   6.899 -1.0288 -0.8878 -0.8810
 5586SOL    HW228221   0.414   1.166   7.047 -0.4770  0.8035 -0.4032
 5587SOL     OW28222   3.399   1.739   4.542  0.1290 -0.0686  0.3550
 5587SOL    HW128223   3.351   1.689   4.475 -2.1727 -0.8732  2.5991
 5587SOL    HW228224   3.423   1.664   4.596 -1.0068 -0.5401  0.2057
 5588SOL     OW28225   2.848   1.151   6.939  0.2226 -0.5023  0.3766
 5588SOL    HW128226   2.757   1.127   6.951  0.0892 -0.6225 -0.8440
 5588SOL    HW228227   2.869   1.091   6.868  0.2937  1.1779 -1.0169
 5589SOL     OW28228   4.075   1.825  10.631 -0.6518 -0.2817  0.3646
 5589SOL    HW128229   4.040   1.913  10.621 -1.4803 -0.8202 -1.4657
 5589SOL    HW228230   4.154   1.845  10.682 -1.0218  1.1187  0.3622
 5590SOL     OW28231   3.291   2.089   7.586  0.1373  0.1260  0.0503
 5590SOL    HW128232   3.271   2.014   7.642  0.6307 -0.7446 -0.9248
 5590SOL    HW228233   3.204   2.128   7.578 -0.2899 -0.8286 -0.0062
 5591SOL     OW28234   1.477   3.373  10.740  0.0675  0.4844  0.6624
 5591SOL    HW128235   1.423   3.418  10.675  1.1084  1.0384  0.1868
 5591SOL    HW228236   1.541   3.442  10.756  0.6467 -0.2080  1.3132
 5592SOL     OW28237   2.206   0.685   4.949 -0.8976 -0.4038 -0.8666
 5592SOL    HW128238   2.169   0.773   4.951  0.4670  0.1161  0.8237
 5592SOL    HW228239   2.279   0.700   5.008 -0.0369 -2.9219 -1.2771
 5593SOL     OW28240   1.952   1.236  16.533 -0.0251  0.7569 -0.0335
 5593SOL    HW128241   2.022   1.281  16.580  0.3775  1.6221 -1.4944
 5593SOL    HW228242   1.881   1.299  16.521 -0.8182  0.3122  2.2597
 5594SOL     OW28243   4.444   1.820   5.995 -0.3823  0.0341 -0.3292
 5594SOL    HW128244   4.452   1.727   6.018  1.5192  0.1128 -0.6453
 5594SOL    HW228245   4.349   1.828   5.986 -0.4433  0.8560  0.9474
 5595SOL     OW28246   2.993   3.933   3.204 -0.5259 -0.2747 -0.4774
 5595SOL    HW128247   2.936   4.004   3.174 -0.1171  0.7028  1.0283
 5595SOL    HW228248   2.956   3.852   3.169  0.3269 -0.5472 -0.7424
 5596SOL     OW28249   1.024   3.326   6.711  0.1658  0.2008  0.0079
 5596SOL    HW128250   1.068   3.363   6.635 -0.9299  2.5493  0.5306
 5596SOL    HW228251   1.088   3.272   6.758 -0.2904 -0.1916  0.1869
 5597SOL     OW28252   1.519   2.199   3.377 -0.4267 -0.2850  0.5217
 5597SOL    HW128253   1.445   2.209   3.317  0.0255  1.1136  0.2046
 5597SOL    HW228254   1.576   2.143   3.324  2.5740  0.8595  2.5279
 5598SOL     OW28255   2.575   3.272   5.811  0.2108  0.2085  0.2483
 5598SOL    HW128256   2.649   3.215   5.830 -0.5166 -0.6809  0.4395
 5598SOL    HW228257   2.518   3.196   5.794 -2.4167  1.9800  1.0740
 5599SOL     OW28258   0.699   3.535  15.291  0.0768 -0.0961  0.0399
 5599SOL    HW128259   0.662   3.543  15.203  1.0120 -0.1388 -0.3520
 5599SOL    HW228260   0.645   3.467  15.332 -1.5675  1.7754  0.9867
 5600SOL     OW28261   4.387   1.365   2.525  0.3034  0.1308  0.0111
 5600SOL    HW128262   4.433   1.292   2.566 -0.7629 -1.3328 -1.3869
 5600SOL    HW228263   4.328   1.308   2.475  0.0005  0.1961  0.2873
 5601SOL     OW28264   1.327   0.884   8.383 -0.1892  0.6413 -0.5238
 5601SOL    HW128265   1.341   0.886   8.289  1.2377  1.1226 -0.2916
 5601SOL    HW228266   1.409   0.916   8.419  0.3210 -2.4279  1.0057
 5602SOL     OW28267   1.610   1.903  13.142  0.2029 -0.0176  0.0893
 5602SOL    HW128268   1.525   1.912  13.100 -0.8579 -1.7385  1.8916
 5602SOL    HW228269   1.670   1.922  13.071  1.7995 -1.3210  1.0742
 5603SOL     OW28270   3.963   4.597   9.212 -0.1581  0.1414 -0.3336
 5603SOL    HW128271   3.897   4.609   9.280  0.8434  2.4534  0.2185
 5603SOL    HW228272   4.040   4.647   9.240 -1.5723  1.2910  1.5675
 5604SOL     OW28273   0.565   1.910   1.138 -0.7422 -0.2175 -0.2641
 5604SOL    HW128274   0.541   1.899   1.046 -1.1616  0.2771 -0.2156
 5604SOL    HW228275   0.532   1.999   1.152 -1.3904 -0.8212  2.0761
 5605SOL     OW28276   0.356   4.092   8.036 -0.1804 -0.1382 -0.0934
 5605SOL    HW128277   0.273   4.140   8.038 -0.0638  0.0405  0.3934
 5605SOL    HW228278   0.404   4.160   8.083 -1.7523  1.4250 -0.7576
 5606SOL     OW28279   4.449   2.295   2.798  0.2418 -0.3467 -0.4773
 5606SOL    HW128280   4.390   2.258   2.864  2.5886 -2.3126  0.5187
 5606SOL    HW228281   4.511   2.337   2.857  1.1163 -1.6554 -0.4676
 5607SOL     OW28282   4.626   0.701  17.497  0.0140 -0.0191  0.1473
 5607SOL    HW128283   4.696   0.644  17.532  0.1622  1.1692  1.8086
 5607SOL    HW228284   4.673   0.772  17.453 -1.0224  0.0437 -0.8374
 5608SOL     OW28285   2.481   1.117   9.644  0.0918 -0.3279  0.1382
 5608SOL    HW128286   2.539   1.190   9.669  0.0155 -0.7422  1.5564
 5608SOL    HW228287   2.548   1.061   9.605 -0.2161 -0.2073 -0.5630
 5609SOL     OW28288   2.733   2.433   0.759  0.4325 -0.0742  0.7928
 5609SOL    HW128289   2.740   2.392   0.672 -1.0202 -0.2526  0.7632
 5609SOL    HW228290   2.773   2.371   0.819  0.4710  0.3860  1.2359
 5610SOL     OW28291   3.632   1.476   3.421 -0.2572 -0.0331 -0.1861
 5610SOL    HW128292   3.723   1.447   3.435  0.1937  0.7994 -1.3316
 5610SOL    HW228293   3.644   1.568   3.397 -1.2207  0.1560  0.0847
 5611SOL     OW28294   4.283   1.781   7.227 -0.4845  0.5631 -0.1597
 5611SOL    HW128295   4.299   1.812   7.316 -0.3805 -2.2547  0.8150
 5611SOL    HW228296   4.248   1.861   7.188 -1.3487  0.4239  0.3288
 5612SOL     OW28297   1.128   0.357   4.578  0.1090  0.8187  0.0658
 5612SOL    HW128298   1.044   0.329   4.615 -0.1231  0.2128 -0.9337
 5612SOL    HW228299   1.161   0.422   4.639  0.2538  0.9148 -0.1168
 5613SOL     OW28300   1.639   0.010   6.866 -0.1370 -0.3903 -0.4761
 5613SOL    HW128301   1.587   0.084   6.898  1.6311  0.4994  0.3311
 5613SOL    HW228302   1.610   4.670   6.931 -0.4300  1.1132  0.8735
 5614SOL     OW28303   2.663   2.508  10.885 -0.0564  0.0017 -0.2591
 5614SOL    HW128304   2.589   2.455  10.856  0.0061 -0.9373  1.2706
 5614SOL    HW228305   2.697   2.444  10.947 -0.0245 -1.5812 -1.9162
 5615SOL     OW28306   1.794   2.063  13.611  0.1792  0.1118  0.3590
 5615SOL    HW128307   1.767   2.010  13.686  3.8274 -2.4443 -0.1613
 5615SOL    HW228308   1.736   2.031  13.541  0.2419  0.7622  0.0024
 5616SOL     OW28309   1.856   3.111   8.428  0.2835  0.1359  0.4965
 5616SOL    HW128310   1.911   3.176   8.473  0.2052 -0.3283  1.2608
 5616SOL    HW228311   1.768   3.128   8.460 -0.3021  3.1093 -2.7006
 5617SOL     OW28312   0.356   2.728   1.603  0.2145 -0.5798  0.6445
 5617SOL    HW128313   0.331   2.650   1.554 -3.8462  0.3779  1.2305
 5617SOL    HW228314   0.265   2.750   1.622 -0.4972 -0.2561 -3.1995
 5618SOL     OW28315   3.165   1.589  11.809  0.1015 -0.0736  0.2709
 5618SOL    HW128316   3.203   1.529  11.745  0.2703  0.5815 -0.2492
 5618SOL    HW228317   3.217   1.668  11.791 -1.4383  0.7828 -0.4417
 5619SOL     OW28318   2.083   2.899   0.114  0.3821  0.2836  0.0948
 5619SOL    HW128319   2.162   2.885   0.062 -0.2752  0.8793 -1.0628
 5619SOL    HW228320   2.109   2.970   0.173  1.7222  0.1168 -0.2996
 5620SOL     OW28321   2.516   0.771   8.881  0.9196 -0.1625 -0.1889
 5620SOL    HW128322   2.469   0.748   8.961  1.2389  2.7399  0.8331
 5620SOL    HW228323   2.476   0.856   8.865 -1.3109 -1.7024 -2.8457
 5621SOL     OW28324   0.879   0.522   5.348 -0.1673  0.4222  0.7089
 5621SOL    HW128325   0.790   0.554   5.334  0.2018  2.4963  3.0504
 5621SOL    HW228326   0.865   0.442   5.397  1.3426  0.6064  1.4271
 5622SOL     OW28327   2.086   1.641   5.299 -0.6785 -0.3008 -0.4900
 5622SOL    HW128328   2.096   1.546   5.310  0.7151 -0.2756 -1.5263
 5622SOL    HW228329   2.152   1.672   5.361  0.0470  0.7949 -1.8001
 5623SOL     OW28330   1.489   3.276   6.460  0.1443 -0.4361 -0.0613
 5623SOL    HW128331   1.562   3.268   6.398 -2.1989 -1.0996 -2.7319
 5623SOL    HW228332   1.487   3.371   6.472 -1.3054 -0.2871 -1.3613
 5624SOL     OW28333   1.671   2.873   8.667  0.2229 -0.0725  0.3272
 5624SOL    HW128334   1.728   2.860   8.591 -1.5292  2.1711 -1.3588
 5624SOL    HW228335   1.721   2.943   8.709 -0.4856  0.8866 -0.4402
 5625SOL     OW28336   4.707   3.019  15.583  0.4692  0.1535 -0.2142
 5625SOL    HW128337   4.675   3.093  15.634  0.8184 -0.3467  0.7297
 5625SOL    HW228338   0.065   3.001  15.628  0.9834 -1.4758 -1.7782
 5626SOL     OW28339   2.591   0.013   0.164 -0.8514 -0.7691  0.5054
 5626SOL    HW128340   2.523   4.684   0.205 -0.2311 -2.1637 -0.2814
 5626SOL    HW228341   2.664   0.002   0.225 -1.7752 -1.0053  1.5632
 5627SOL     OW28342   1.337   4.214   7.112 -0.3125 -0.0165 -0.2990
 5627SOL    HW128343   1.345   4.119   7.114 -1.2623 -0.0523  2.7742
 5627SOL    HW228344   1.332   4.241   7.204 -2.7947 -0.8591 -0.1890
 5628SOL     OW28345   2.104   1.693   1.880  0.0689 -0.3105 -0.2321
 5628SOL    HW128346   2.052   1.764   1.920  1.4594 -0.1425  1.3017
 5628SOL    HW228347   2.041   1.641   1.830  0.2067 -2.1457  1.4957
 5629SOL     OW28348   3.810   3.176  13.225 -0.3379  0.1219 -0.3722
 5629SOL    HW128349   3.883   3.198  13.167 -0.2048  0.3027 -0.1361
 5629SOL    HW228350   3.768   3.257  13.251 -2.0286 -0.2704 -1.8916
 5630SOL     OW28351   2.069   3.706   9.033 -0.2357 -0.0375 -0.4372
 5630SOL    HW128352   2.125   3.719   8.956  0.1967  0.2123 -0.0822
 5630SOL    HW228353   2.130   3.665   9.094 -0.0215  3.6255  1.8041
 5631SOL     OW28354   2.498   4.329   5.042 -0.4075  0.2314 -0.1751
 5631SOL    HW128355   2.425   4.297   4.989  0.9053 -0.2228 -1.7200
 5631SOL    HW228356   2.466   4.408   5.087  0.9541  0.2926  0.7029
 5632SOL     OW28357   1.040   1.777  13.209 -0.1706 -0.2376  0.6404
 5632SOL    HW128358   0.957   1.788  13.255 -1.1476  0.2266 -1.2783
 5632SOL    HW228359   1.027   1.794  13.116  1.7991  1.2888  0.6366
 5633SOL     OW28360   0.833   2.558   3.913  0.0409 -0.1878  0.0849
 5633SOL    HW128361   0.797   2.500   3.846 -0.1833 -2.1327  1.8658
 5633SOL    HW228362   0.797   2.513   3.990 -1.0286  1.0991  0.3411
 5634SOL     OW28363   0.917   4.386   1.344 -0.2520  0.0477 -0.2763
 5634SOL    HW128364   0.911   4.478   1.372  0.9465  0.1091 -0.2434
 5634SOL    HW228365   0.825   4.361   1.350 -0.5453  1.0578 -0.4981
 5635SOL     OW28366   3.239   4.345  15.188  0.4308  0.1794 -0.0774
 5635SOL    HW128367   3.262   4.417  15.129 -2.8626  1.2408 -0.0134
 5635SOL    HW228368   3.147   4.336  15.163  0.2066  1.2674  0.3634
 5636SOL     OW28369   0.054   2.468   6.927  0.5134  0.0556  0.0893
 5636SOL    HW128370   4.699   2.519   6.944 -0.3277 -0.7764 -1.3746
 5636SOL    HW228371   0.031   2.396   6.986 -0.5189 -1.2577 -1.9274
 5637SOL     OW28372   0.785   0.375   8.600  0.2689  0.5194 -0.1734
 5637SOL    HW128373   0.852   0.312   8.573 -0.1803  0.4086 -1.0228
 5637SOL    HW228374   0.828   0.452   8.637 -0.7263  0.8618  0.2761
 5638SOL     OW28375   0.516   0.006  16.979  0.3383  0.7545  0.1086
 5638SOL    HW128376   0.522   0.099  16.958  0.6685  1.1431  1.8696
 5638SOL    HW228377   0.605   4.720  17.014 -0.0295 -2.4936  0.0940
 5639SOL     OW28378   0.686   0.570   1.345 -0.1778  0.2101  0.4255
 5639SOL    HW128379   0.765   0.573   1.399 -0.1550 -1.4615  0.4988
 5639SOL    HW228380   0.699   0.497   1.284 -1.1645  1.1552 -0.9203
 5640SOL     OW28381   2.849   0.401   9.617  0.6088  0.1075 -0.1391
 5640SOL    HW128382   2.802   0.474   9.656  2.2658  0.2293  1.6495
 5640SOL    HW228383   2.939   0.415   9.648  1.1799 -0.8542 -1.3589
 5641SOL     OW28384   3.272   0.591   8.498 -0.6068 -0.1332  0.0620
 5641SOL    HW128385   3.329   0.584   8.421  1.3911  0.5326  1.4727
 5641SOL    HW228386   3.334   0.634   8.556 -0.2885  0.8608 -1.0156
 5642SOL     OW28387   3.158   4.193   1.095 -0.2853  0.3751  0.2138
 5642SOL    HW128388   3.100   4.121   1.068  1.2091 -1.1142  0.9366
 5642SOL    HW228389   3.091   4.235   1.149  1.0876  1.7118  0.8774
 5643SOL     OW28390   1.840   1.076  15.692 -0.4292 -0.2092  0.7341
 5643SOL    HW128391   1.899   1.017  15.738 -1.4089  0.2250  2.5477
 5643SOL    HW228392   1.777   1.103  15.758 -1.2832  1.3488 -0.7267
 5644SOL     OW28393   3.178   1.711   0.739 -0.5033 -0.5648 -0.1797
 5644SOL    HW128394   3.221   1.644   0.793 -0.6277 -0.5126 -0.0180
 5644SOL    HW228395   3.166   1.656   0.661 -0.5116  0.7609 -1.1060
 5645SOL     OW28396   1.359   2.726  17.099  0.1056  0.1722 -0.0128
 5645SOL    HW128397   1.442   2.749  17.139  0.1497  1.3372 -0.7538
 5645SOL    HW228398   1.302   2.803  17.110  1.1746  0.4908  3.0273
 5646SOL     OW28399   3.225   1.727   3.628  0.4255  0.5414  0.2574
 5646SOL    HW128400   3.306   1.744   3.580 -0.0382 -0.4967 -0.8996
 5646SOL    HW228401   3.169   1.764   3.560 -1.1737 -1.6696  0.3462
 5647SOL     OW28402   0.689   2.172   8.781  0.1379  0.6075  0.1210
 5647SOL    HW128403   0.691   2.121   8.701  1.2565 -0.3756  0.7788
 5647SOL    HW228404   0.604   2.146   8.817 -0.7160 -0.6654 -2.8173
 5648SOL     OW28405   1.726   2.134  11.727  0.4296 -0.5487 -0.3793
 5648SOL    HW128406   1.726   2.185  11.809 -1.0000  0.3872 -0.9539
 5648SOL    HW228407   1.727   2.046  11.763 -0.0331 -0.8787 -1.1708
 5649SOL     OW28408   0.661   1.745   6.901  0.0427  0.2134 -0.9693
 5649SOL    HW128409   0.688   1.695   6.978 -1.0129 -1.0105 -1.3977
 5649SOL    HW228410   0.742   1.767   6.855  0.0824  1.9507 -0.0691
 5650SOL     OW28411   4.157   0.252   9.578 -0.4106 -0.7155 -0.7933
 5650SOL    HW128412   4.121   0.261   9.490 -2.3777 -0.2076  0.0759
 5650SOL    HW228413   4.206   0.170   9.587  0.6614 -0.1114 -1.0503
 5651SOL     OW28414   4.328   1.356   3.482  0.5733  0.5873  0.1968
 5651SOL    HW128415   4.334   1.317   3.395  0.7468 -0.7554  0.8042
 5651SOL    HW228416   4.287   1.439   3.460  0.1900 -0.2839 -2.4288
 5652SOL     OW28417   0.591   1.967  10.626  0.2383 -0.6256 -0.2146
 5652SOL    HW128418   0.674   2.014  10.633  0.3743 -0.8915 -0.0712
 5652SOL    HW228419   0.527   2.037  10.645 -1.6308 -2.6875  1.0977
 5653SOL     OW28420   3.413   2.357  17.656  0.3490 -0.1884  0.0340
 5653SOL    HW128421   3.377   2.284   0.007 -0.9015  0.6404  0.3301
 5653SOL    HW228422   3.450   2.300  17.588 -1.2221  0.0432 -1.0248
 5654SOL     OW28423   0.904   0.712  14.394 -0.0911 -0.1814 -0.5026
 5654SOL    HW128424   0.997   0.707  14.370  0.7158 -0.2125  2.5649
 5654SOL    HW228425   0.862   0.681  14.314  1.4452 -3.0113 -0.2106
 5655SOL     OW28426   3.138   4.658   4.443 -0.1217 -0.2056  0.0118
 5655SOL    HW128427   3.161   4.569   4.471  2.0791 -0.2170 -1.7752
 5655SOL    HW228428   3.053   4.662   4.486  0.1234  1.4901  0.3363
 5656SOL     OW28429   4.661   0.504   4.324  0.3566 -0.0346  0.3824
 5656SOL    HW128430   4.610   0.426   4.303  1.3360 -0.4664 -0.3847
 5656SOL    HW228431   4.637   0.559   4.249  0.4049  0.3114  0.6184
 5657SOL     OW28432   3.778   4.271   3.295 -0.0267  0.6126  0.9400
 5657SOL    HW128433   3.779   4.366   3.289  3.1127  0.5201 -0.3464
 5657SOL    HW228434   3.749   4.259   3.385  0.9247 -1.9925  0.9293
 5658SOL     OW28435   2.558   0.883  17.206 -0.2027  0.1996  0.2727
 5658SOL    HW128436   2.587   0.838  17.127 -2.1581 -0.5104 -0.0171
 5658SOL    HW228437   2.631   0.945  17.218 -0.3346 -0.0212  2.2866
 5659SOL     OW28438   2.093   3.328  17.150 -0.3206 -0.2223 -0.1866
 5659SOL    HW128439   2.188   3.335  17.139 -0.6161  0.6411 -2.2742
 5659SOL    HW228440   2.075   3.265  17.080 -0.8224  0.7855 -0.9615
 5660SOL     OW28441   3.676   4.004   2.865  0.0358 -0.0273 -0.1263
 5660SOL    HW128442   3.708   4.053   2.940  0.6922 -2.1814  1.0110
 5660SOL    HW228443   3.605   4.060   2.836  2.5213  2.9865 -0.3745
 5661SOL     OW28444   2.197   1.457   2.343 -0.4298 -0.2395  0.1487
 5661SOL    HW128445   2.176   1.450   2.436  0.2720  1.1231  0.4075
 5661SOL    HW228446   2.256   1.531   2.329  0.0498 -0.0371  3.2247
 5662SOL     OW28447   0.793   0.217   3.006 -0.6978 -0.5690 -0.3932
 5662SOL    HW128448   0.740   0.226   2.927 -0.4326 -0.6177 -0.5766
 5662SOL    HW228449   0.872   0.174   2.974 -0.5230 -1.7350  1.5848
 5663SOL     OW28450   2.846   2.505  17.253 -0.5626 -0.3977 -0.0088
 5663SOL    HW128451   2.817   2.416  17.231 -0.1175 -0.0564 -1.9700
 5663SOL    HW228452   2.792   2.520  17.330 -2.4683  0.9583 -1.6189
 5664SOL     OW28453   4.222   0.861  12.580 -0.2962  0.0436 -0.0376
 5664SOL    HW128454   4.263   0.858  12.493  0.9248 -1.7905  0.6080
 5664SOL    HW228455   4.260   0.945  12.607  0.6733 -0.8465  1.3233
 5665SOL     OW28456   1.666   2.165   5.545 -0.3756 -0.2385 -0.0804
 5665SOL    HW128457   1.628   2.094   5.596 -0.7318  0.1248  0.1669
 5665SOL    HW228458   1.603   2.168   5.472 -2.8003  0.4685  2.0422
 5666SOL     OW28459   1.705   3.931  14.355 -0.2836  0.4226  0.6955
 5666SOL    HW128460   1.645   3.977  14.414  1.0251  1.1046  1.5087
 5666SOL    HW228461   1.709   3.849  14.403  1.7723  0.3445  0.3749
 5667SOL     OW28462   2.770   1.780   7.161 -1.0001  0.4465  0.2484
 5667SOL    HW128463   2.806   1.864   7.132 -4.0438  2.1069  1.2645
 5667SOL    HW228464   2.700   1.762   7.098  0.5856 -1.0625 -1.0853
 5668SOL     OW28465   2.094   1.869   0.352  0.0348 -1.0613 -0.0121
 5668SOL    HW128466   2.043   1.893   0.275  2.0845 -2.2418 -1.7370
 5668SOL    HW228467   2.099   1.951   0.401 -0.2544 -2.4497  2.3653
 5669SOL     OW28468   3.355   4.472  10.744  0.4592 -0.0114  0.1665
 5669SOL    HW128469   3.409   4.490  10.822  0.7817 -0.2826  0.0035
 5669SOL    HW228470   3.363   4.553  10.693 -0.9621  0.0481  0.0478
 5670SOL     OW28471   4.115   1.305  14.243 -0.0246 -0.5947 -0.0105
 5670SOL    HW128472   4.166   1.384  14.257 -0.3255 -0.4182  0.0955
 5670SOL    HW228473   4.072   1.336  14.163  0.2324  2.1497  0.9227
 5671SOL     OW28474   0.028   2.011   7.915  0.0059 -0.7741 -0.1926
 5671SOL    HW128475   0.093   1.948   7.947 -0.0698 -0.6596  0.1968
 5671SOL    HW228476   0.012   1.983   7.825 -1.1276 -0.3010 -0.1371
 5672SOL     OW28477   3.346   2.989   2.844 -0.2107  0.2412 -0.3121
 5672SOL    HW128478   3.312   2.995   2.755  0.1495  1.2357 -0.3792
 5672SOL    HW228479   3.435   2.956   2.827  0.1074  0.3652  1.0616
 5673SOL     OW28480   2.415   0.213   4.113 -0.2684 -0.3912  0.0371
 5673SOL    HW128481   2.346   0.152   4.088 -1.6347  1.3062 -0.3111
 5673SOL    HW228482   2.449   0.230   4.025  0.2319 -0.0127  0.3023
 5674SOL     OW28483   0.253   2.303   7.855  0.1087 -0.1809 -0.3597
 5674SOL    HW128484   0.277   2.225   7.805  0.9776  0.6506 -1.2430
 5674SOL    HW228485   0.338   2.333   7.885 -0.5819  2.3045 -0.9020
 5675SOL     OW28486   0.697   4.690   7.097 -0.0444 -0.5688  0.3870
 5675SOL    HW128487   0.613   0.011   7.090  1.0882  1.4142 -0.2739
 5675SOL    HW228488   0.690   4.621   7.031 -0.6126 -0.5319  0.4136
 5676SOL     OW28489   3.075   0.716  12.638  0.0909 -0.4229  0.2130
 5676SOL    HW128490   3.168   0.698  12.631 -0.4815 -2.6851 -1.8719
 5676SOL    HW228491   3.053   0.750  12.551  0.1116 -1.3584 -0.1566
 5677SOL     OW28492   2.793   3.099   6.695 -0.1619  0.0779 -0.2355
 5677SOL    HW128493   2.759   3.061   6.614  1.2688 -1.5241 -0.0809
 5677SOL    HW228494   2.824   3.022   6.744 -0.3744  0.9833  1.3396
 5678SOL     OW28495   1.985   2.578   4.176  0.1611  0.3600  0.3908
 5678SOL    HW128496   2.065   2.544   4.137 -0.7572 -0.2573 -0.9609
 5678SOL    HW228497   1.995   2.669   4.202 -2.6104  1.6426 -3.0611
 5679SOL     OW28498   4.608   0.659   4.053 -0.3956 -0.6900  0.1029
 5679SOL    HW128499   4.582   0.727   3.991 -0.6798 -0.7940  0.1080
 5679SOL    HW228500   4.604   0.581   3.998  3.2828 -0.9543  0.2372
 5680SOL     OW28501   2.685   0.423   4.712 -0.3179 -0.1503  0.0965
 5680SOL    HW128502   2.756   0.412   4.775 -0.4639 -2.4742 -0.1400
 5680SOL    HW228503   2.703   0.514   4.691 -1.4373 -0.1990 -1.0322
 5681SOL     OW28504   2.140   2.064  11.638 -1.0014  0.6049  0.2944
 5681SOL    HW128505   2.212   2.106  11.685 -1.4096  1.9378 -0.2785
 5681SOL    HW228506   2.066   2.083  11.695 -1.6281  0.7489 -0.5649
 5682SOL     OW28507   3.879   4.069   3.685  0.0601  0.0638 -0.1206
 5682SOL    HW128508   3.821   4.137   3.652 -1.6121 -1.5187 -0.4429
 5682SOL    HW228509   3.890   4.010   3.610  1.2284  0.1808 -0.0401
 5683SOL     OW28510   3.008   1.924   5.582 -0.2193 -0.5886  0.4369
 5683SOL    HW128511   3.018   1.984   5.656 -2.6347  3.5905 -2.5989
 5683SOL    HW228512   2.986   1.841   5.623 -0.8515 -0.5567  0.1578
 5684SOL     OW28513   0.079   2.065   6.861  0.2903  0.5114 -0.6924
 5684SOL    HW128514   0.127   2.104   6.788  1.8647  1.7706  0.9883
 5684SOL    HW228515   0.088   1.974   6.834 -1.1197  0.6888 -1.7503
 5685SOL     OW28516   4.424   0.491  14.598  0.0225 -0.3161 -0.3551
 5685SOL    HW128517   4.367   0.417  14.576 -0.1727 -0.3354  0.2281
 5685SOL    HW228518   4.504   0.447  14.627  0.0585 -0.3272 -0.4703
 5686SOL     OW28519   2.202   1.693   7.275 -0.2558 -0.0053 -0.1037
 5686SOL    HW128520   2.136   1.659   7.337  0.3859 -2.7702 -0.9232
 5686SOL    HW228521   2.261   1.724   7.344 -0.4320  0.1349 -0.0144
 5687SOL     OW28522   2.162   3.560   7.093  0.0297 -0.6644  0.1923
 5687SOL    HW128523   2.111   3.555   7.174 -0.0515 -0.1068  0.1760
 5687SOL    HW228524   2.105   3.614   7.038  0.1088  0.0461  0.8034
 5688SOL     OW28525   4.558   3.414   3.171  0.0581 -0.2711 -0.1909
 5688SOL    HW128526   4.613   3.393   3.247  1.6682 -0.0942 -1.3208
 5688SOL    HW228527   4.550   3.509   3.182 -1.1557 -0.1453 -2.2499
 5689SOL     OW28528   1.035   4.667   3.436 -0.5761  0.2186  0.2475
 5689SOL    HW128529   1.086   4.655   3.517  0.1199 -1.0216 -0.3807
 5689SOL    HW228530   1.093   0.006   3.393  0.7309 -1.3310 -0.2558
 5690SOL     OW28531   1.549   3.126   5.935  0.0697  0.0914 -0.1992
 5690SOL    HW128532   1.617   3.068   5.902 -2.5013 -3.3767  0.6659
 5690SOL    HW228533   1.602   3.172   6.001  0.2178 -0.3281 -0.0242
 5691SOL     OW28534   0.643   2.244   2.027  0.2341 -0.0869 -0.0880
 5691SOL    HW128535   0.617   2.289   2.108 -1.4958 -0.0932 -0.6319
 5691SOL    HW228536   0.673   2.157   2.054 -2.4177 -0.9121  0.2181
 5692SOL     OW28537   4.440   2.468  14.692 -0.2646  0.4120  0.3951
 5692SOL    HW128538   4.518   2.427  14.655 -2.5420 -1.1981 -2.6643
 5692SOL    HW228539   4.471   2.541  14.745  0.4395  0.0990  0.4148
 5693SOL     OW28540   2.000   3.420   2.339  0.3855  0.7810 -0.5832
 5693SOL    HW128541   1.984   3.515   2.339  1.0369  0.8926  0.5099
 5693SOL    HW228542   1.933   3.388   2.279  1.9489 -3.7836  0.1072
 5694SOL     OW28543   3.522   0.860  10.922 -0.8933 -0.5966  0.2661
 5694SOL    HW128544   3.608   0.822  10.902  0.5783  0.9316  3.6182
 5694SOL    HW228545   3.477   0.846  10.839 -0.3737  0.0154 -0.1170
 5695SOL     OW28546   1.542   0.716   3.712  0.1782 -0.5656  0.6364
 5695SOL    HW128547   1.554   0.638   3.657  0.8833  1.3319 -1.9373
 5695SOL    HW228548   1.560   0.687   3.801 -2.7886  2.2232  2.1137
 5696SOL     OW28549   2.556   0.792   1.903  0.1011  0.0016  0.3071
 5696SOL    HW128550   2.468   0.786   1.938  0.1107 -0.9474  0.1536
 5696SOL    HW228551   2.534   0.839   1.822 -0.1785  0.3117  0.5638
 5697SOL     OW28552   0.788   0.432   4.900  0.2610 -0.4628  0.4105
 5697SOL    HW128553   0.778   0.526   4.918 -0.8496 -0.1087 -2.1042
 5697SOL    HW228554   0.752   0.436   4.811 -1.9441 -2.3141  1.2111
 5698SOL     OW28555   0.055   0.258   6.133  0.2293  0.0233 -0.0712
 5698SOL    HW128556   0.104   0.339   6.118 -1.7153  0.8640 -1.9187
 5698SOL    HW228557   4.724   0.283   6.207 -0.5295 -0.7926 -0.3727
 5699SOL     OW28558   4.700   4.657   5.231  0.3120  0.1353 -0.0994
 5699SOL    HW128559   4.612   4.682   5.260  1.1993  0.2473  2.5014
 5699SOL    HW228560   4.688   4.569   5.196  2.0840 -0.2392  0.2403
 5700SOL     OW28561   2.546   2.507   5.506 -0.5877  0.0984  0.5314
 5700SOL    HW128562   2.632   2.465   5.510 -1.7804 -2.7353 -4.2943
 5700SOL    HW228563   2.489   2.431   5.492  1.5091 -1.4719  0.4723
 5701SOL     OW28564   4.628   4.590   6.818 -0.2551  0.9062 -0.3344
 5701SOL    HW128565   4.582   4.656   6.870  0.3906  1.2709 -0.2154
 5701SOL    HW228566   4.566   4.524   6.789  0.3544  0.2286 -0.1094
 5702SOL     OW28567   3.189   3.183  13.428  0.3738  0.2403  0.3992
 5702SOL    HW128568   3.171   3.103  13.380 -0.1483  0.9585 -0.6105
 5702SOL    HW228569   3.104   3.215  13.397  1.4377 -0.6040 -3.3879
 5703SOL     OW28570   1.636   1.632   6.514  0.1771  0.4169 -0.3338
 5703SOL    HW128571   1.694   1.707   6.526 -0.3067  0.7421 -0.0254
 5703SOL    HW228572   1.611   1.649   6.423 -0.2273  0.9056 -0.1333
 5704SOL     OW28573   0.913   3.704  17.516 -0.5794  0.2755  0.1743
 5704SOL    HW128574   0.854   3.635  17.485 -0.4580  0.7846 -1.2179
 5704SOL    HW228575   0.875   3.784  17.481  1.0336 -0.6333 -3.7345
 5705SOL     OW28576   4.321   0.553   2.058 -0.0640 -0.2955  0.0029
 5705SOL    HW128577   4.348   0.562   1.967  0.5129 -1.9803  0.0159
 5705SOL    HW228578   4.352   0.632   2.104  0.0210  0.4690 -1.3757
 5706SOL     OW28579   1.035   3.994  12.296 -0.2331  0.0034  0.3198
 5706SOL    HW128580   1.088   3.998  12.376  2.9631 -1.4430 -1.6876
 5706SOL    HW228581   1.104   4.003  12.231  0.1788 -1.2734  0.5603
 5707SOL     OW28582   4.675   3.526   5.702 -0.3275 -0.0365 -0.2208
 5707SOL    HW128583   0.020   3.459   5.700 -0.5431 -0.3116  1.3669
 5707SOL    HW228584   4.722   3.605   5.726  0.0332 -0.3888  0.2360
 5708SOL     OW28585   0.036   0.297   0.672 -0.2756 -0.3850 -0.3066
 5708SOL    HW128586   0.065   0.282   0.582  1.3832 -0.4247  0.2302
 5708SOL    HW228587   4.665   0.293   0.664 -0.2883 -2.4928  0.8300
 5709SOL     OW28588   3.623   4.446   3.792 -0.2136  0.3339  0.0167
 5709SOL    HW128589   3.574   4.528   3.785 -0.1912  0.4178  0.8869
 5709SOL    HW228590   3.554   4.399   3.840 -0.8454  0.8097 -0.4145
 5710SOL     OW28591   1.182   2.998   3.122 -0.3294 -0.0299  0.2709
 5710SOL    HW128592   1.157   3.050   3.197 -0.3205 -1.9962  1.6312
 5710SOL    HW228593   1.163   3.064   3.055 -0.2875  0.4702  0.7526
 5711SOL     OW28594   0.097   2.323   1.259 -0.5035 -0.6721 -0.4600
 5711SOL    HW128595   0.090   2.246   1.314  1.7395  0.5319  1.5111
 5711SOL    HW228596   0.009   2.337   1.226  0.6189  1.4997 -2.5983
 5712SOL     OW28597   3.192   2.773   2.925 -0.8051  0.1734  0.0246
 5712SOL    HW128598   3.248   2.850   2.912  1.0136 -0.6986  2.8038
 5712SOL    HW228599   3.255   2.706   2.952  0.1773  1.0435 -0.1276
 5713SOL     OW28600   4.214   1.046   4.760 -0.5020 -0.0385 -0.5154
 5713SOL    HW128601   4.199   0.986   4.833 -1.8091  0.3404 -0.4732
 5713SOL    HW228602   4.257   1.118   4.806 -1.6717  0.5507 -0.3440
 5714SOL     OW28603   2.897   1.532   9.229  0.1256  0.3362 -0.1988
 5714SOL    HW128604   2.848   1.546   9.310 -2.7812  1.8257 -2.2260
 5714SOL    HW228605   2.981   1.507   9.268 -0.1392  0.3488  0.3837
 5715SOL     OW28606   3.365   1.469   4.196 -0.1287  0.8681 -1.0449
 5715SOL    HW128607   3.456   1.456   4.172 -0.3670  0.9374 -1.9949
 5715SOL    HW228608   3.331   1.488   4.109 -2.3076 -2.5494 -0.9754
 5716SOL     OW28609   1.013   3.958   2.916 -0.4497  0.2640 -0.3372
 5716SOL    HW128610   1.091   3.990   2.870 -1.2015  1.2951 -0.8969
 5716SOL    HW228611   0.960   4.037   2.908 -1.7280 -0.6519 -0.8918
 5717SOL     OW28612   4.175   2.579   3.050  0.1549  0.9431 -0.7458
 5717SOL    HW128613   4.099   2.620   3.090  0.2782  0.2658  0.1881
 5717SOL    HW228614   4.229   2.657   3.041  0.9653  0.6624  1.9529
 5718SOL     OW28615   4.137   2.972   2.232  0.1338 -0.4049 -0.3767
 5718SOL    HW128616   4.231   2.954   2.229 -0.1049 -1.4636 -1.6050
 5718SOL    HW228617   4.136   3.062   2.264  1.1651 -1.2900  2.0952
 5719SOL     OW28618   3.103   2.272  10.499  0.0777 -0.7817 -0.4350
 5719SOL    HW128619   3.100   2.357  10.543  0.4046  0.1172 -2.1550
 5719SOL    HW228620   3.079   2.205  10.564 -1.0749 -0.8184 -0.9008
 5720SOL     OW28621   3.433   2.321  10.675 -0.1974  0.2420  0.2981
 5720SOL    HW128622   3.490   2.251  10.710 -1.3991 -0.0505  1.6825
 5720SOL    HW228623   3.412   2.368  10.756 -1.3855 -1.0364  0.7293
 5721SOL     OW28624   3.513   0.331   8.107  0.0822 -0.1961 -0.3694
 5721SOL    HW128625   3.596   0.357   8.147  0.0271  0.5331 -0.7193
 5721SOL    HW228626   3.451   0.320   8.179 -2.5528  2.4305 -2.2358
 5722SOL     OW28627   2.417   4.646  15.547 -0.4725 -0.0831  0.2361
 5722SOL    HW128628   2.430   4.620  15.638  0.2520 -1.6844 -0.3408
 5722SOL    HW228629   2.507   4.650  15.516 -0.9159  0.3002 -1.0070
 5723SOL     OW28630   2.864   4.659   3.319 -0.0408 -0.5099 -0.1424
 5723SOL    HW128631   2.918   4.597   3.369 -0.5229 -0.4161  0.4980
 5723SOL    HW228632   2.826   4.600   3.254  2.1550  0.7908 -2.6125
 5724SOL     OW28633   4.443   0.696  11.304  0.0085 -0.2004 -0.6349
 5724SOL    HW128634   4.517   0.754  11.289  0.6751 -0.2340  2.3531
 5724SOL    HW228635   4.411   0.739  11.384 -1.0254 -1.5699 -0.3094
 5725SOL     OW28636   0.642   2.453   4.102 -0.4390 -0.3105 -0.0606
 5725SOL    HW128637   0.607   2.450   4.190 -2.8204  1.1450 -0.9703
 5725SOL    HW228638   0.566   2.470   4.046 -0.1770 -1.4472 -0.7658
 5726SOL     OW28639   3.024   1.453   6.488 -0.2492 -0.4605 -0.3855
 5726SOL    HW128640   2.969   1.410   6.423  1.1297 -0.2259 -1.6817
 5726SOL    HW228641   3.107   1.408   6.473  0.0173 -0.1092  0.0283
 5727SOL     OW28642   2.081   1.520   2.595  0.5061  0.2629 -0.3205
 5727SOL    HW128643   2.089   1.609   2.629  0.3182 -0.4888  1.6934
 5727SOL    HW228644   2.012   1.477   2.646  0.0901 -1.7940 -2.6274
 5728SOL     OW28645   1.489   3.980  15.252 -0.0445 -0.5367  0.0983
 5728SOL    HW128646   1.584   3.978  15.260 -0.0170  0.5461 -0.0818
 5728SOL    HW228647   1.479   3.940  15.166 -0.2325 -0.2555 -0.0080
 5729SOL     OW28648   3.017   0.248   6.457  0.3935  0.8617  0.1884
 5729SOL    HW128649   3.094   0.273   6.508  1.2803  0.6857 -1.0656
 5729SOL    HW228650   3.043   0.297   6.379 -1.6620  1.4005 -0.1606
 5730SOL     OW28651   0.769   3.811   3.514 -0.0559 -0.6961 -0.3320
 5730SOL    HW128652   0.761   3.717   3.501  1.8068 -0.9152 -0.0200
 5730SOL    HW228653   0.686   3.837   3.475  0.5421  1.2472 -0.3674
 5731SOL     OW28654   0.173   0.599   1.434 -0.6164 -0.4196 -0.1982
 5731SOL    HW128655   0.160   0.506   1.413 -2.6869  0.1690 -1.5857
 5731SOL    HW228656   0.267   0.606   1.445 -0.5397  0.9350 -1.7925
 5732SOL     OW28657   0.859   0.834   2.533  0.1479 -0.6447 -0.3693
 5732SOL    HW128658   0.778   0.786   2.515  0.0792 -0.3385 -0.8786
 5732SOL    HW228659   0.896   0.848   2.446  0.3786  0.2575 -0.1249
 5733SOL     OW28660   1.574   0.933   7.696  0.5093  0.2227  0.0466
 5733SOL    HW128661   1.611   0.844   7.700  1.2091  0.5567  1.1359
 5733SOL    HW228662   1.487   0.914   7.730  0.1847  1.3447 -0.1712
 5734SOL     OW28663   4.548   3.484   8.196  0.6186  0.0388  0.6286
 5734SOL    HW128664   4.613   3.541   8.236 -1.1878  1.5148  1.4477
 5734SOL    HW228665   4.525   3.524   8.112  2.6929 -2.5129 -1.1689
 5735SOL     OW28666   1.413   3.210   0.744 -0.5532 -0.0221 -0.1740
 5735SOL    HW128667   1.393   3.124   0.707 -2.9532  0.6813 -0.5326
 5735SOL    HW228668   1.463   3.248   0.672  3.7150 -0.9327  2.2983
 5736SOL     OW28669   2.020   3.718   6.906  0.1323  0.6619  0.3527
 5736SOL    HW128670   1.939   3.765   6.885 -2.0570 -1.8198  3.1671
 5736SOL    HW228671   2.085   3.787   6.892  1.4489 -0.7486 -0.4729
 5737SOL     OW28672   0.632   2.299   6.623 -0.1921  0.6704  0.0042
 5737SOL    HW128673   0.618   2.376   6.678 -2.4343 -0.0515  0.4674
 5737SOL    HW228674   0.545   2.264   6.602 -0.1403  0.8041 -0.4471
 5738SOL     OW28675   2.738   1.432   1.835 -0.8236  0.0738 -0.1444
 5738SOL    HW128676   2.661   1.375   1.834  0.1034 -1.1383 -2.4724
 5738SOL    HW228677   2.799   1.359   1.846  1.5678  2.2608  1.0694
 5739SOL     OW28678   0.808   1.952   7.101  0.3891  0.1896  0.6960
 5739SOL    HW128679   0.863   1.944   7.023  0.5063 -0.7353  0.8755
 5739SOL    HW228680   0.824   2.043   7.126  1.0214 -0.2698  1.9478
 5740SOL     OW28681   1.065   4.580   4.772  0.2755  0.3314  0.1025
 5740SOL    HW128682   1.048   4.665   4.813  1.2615 -0.1759  1.5436
 5740SOL    HW228683   1.109   4.546   4.849 -0.4438  2.2400  1.3582
 5741SOL     OW28684   0.681   3.611   5.571  0.4062  0.1995  0.2428
 5741SOL    HW128685   0.729   3.598   5.652 -0.6318 -2.8991  0.3771
 5741SOL    HW228686   0.746   3.661   5.521  0.5988 -0.9673 -0.6760
 5742SOL     OW28687   2.282   0.561   6.019  0.2973 -0.5076 -0.5386
 5742SOL    HW128688   2.299   0.469   6.003  2.2266  0.3714 -3.4170
 5742SOL    HW228689   2.373   0.588   6.023  0.5042 -1.3440  0.2684
 5743SOL     OW28690   3.285   0.678  14.192 -0.7755  0.9224 -0.3211
 5743SOL    HW128691   3.248   0.756  14.152 -0.4343  1.1896 -0.1168
 5743SOL    HW228692   3.372   0.712  14.210  0.3780 -1.3683 -1.5489
 5744SOL     OW28693   1.580   3.889   7.859  0.0424  0.2307  0.2881
 5744SOL    HW128694   1.556   3.812   7.809 -0.2324  0.6081 -0.1633
 5744SOL    HW228695   1.629   3.844   7.928 -0.7113 -0.5819  0.2984
 5745SOL     OW28696   3.119   3.613   8.258  0.0227 -0.2286  0.5439
 5745SOL    HW128697   3.097   3.630   8.167  1.0278  1.1370  0.5643
 5745SOL    HW228698   3.206   3.651   8.251 -0.3702  0.9087  1.6976
 5746SOL     OW28699   4.335   4.251   2.329 -0.0526  0.1601 -0.2892
 5746SOL    HW128700   4.362   4.315   2.394  0.5820 -0.2569 -0.1482
 5746SOL    HW228701   4.416   4.246   2.278  0.1861  0.0176  0.1055
 5747SOL     OW28702   2.983   1.688   8.523 -1.2465 -0.0710 -0.7354
 5747SOL    HW128703   2.935   1.612   8.558 -1.7342 -0.4101 -2.1404
 5747SOL    HW228704   2.980   1.754   8.592  1.0773  0.7990 -1.4641
 5748SOL     OW28705   4.704   0.102   7.185  0.1562  0.1510 -0.0812
 5748SOL    HW128706   4.643   0.116   7.113 -2.4319 -1.0188  1.8926
 5748SOL    HW228707   0.033   0.030   7.151 -0.6241  0.8144 -2.6797
 5749SOL     OW28708   3.747   0.200   5.507 -0.0984 -0.4563  0.2681
 5749SOL    HW128709   3.792   0.212   5.423  0.0490 -0.0322  0.4089
 5749SOL    HW228710   3.718   0.112   5.484 -0.0500 -1.0745  2.5907
 5750SOL     OW28711   0.224   2.609  12.171  0.6538  0.1116  0.0919
 5750SOL    HW128712   0.141   2.650  12.148 -0.0913 -1.4800 -0.0790
 5750SOL    HW228713   0.249   2.546  12.103 -0.1413 -0.9389  0.7814
 5751SOL     OW28714   0.530   4.049   3.041 -0.1510  0.2528 -0.2275
 5751SOL    HW128715   0.571   3.979   2.990  0.2790  0.8319 -0.6803
 5751SOL    HW228716   0.597   4.076   3.104 -1.5203 -1.4413  1.9728
 5752SOL     OW28717   4.474   1.908   7.430  0.1063  0.0219 -0.0037
 5752SOL    HW128718   4.526   1.918   7.510 -0.4429  2.2982  0.0599
 5752SOL    HW228719   4.532   1.849   7.382 -0.5124 -0.3514 -0.2908
 5753SOL     OW28720   4.016   0.807  13.256  0.0440  0.2935 -0.6683
 5753SOL    HW128721   4.048   0.855  13.179  0.3260 -0.9777 -1.3439
 5753SOL    HW228722   3.952   0.868  13.291 -1.2619 -1.4273 -0.0721
 5754SOL     OW28723   3.346   1.234   6.684 -0.4303  0.0112 -0.2438
 5754SOL    HW128724   3.281   1.167   6.659 -0.4391 -0.1248  0.1512
 5754SOL    HW228725   3.398   1.186   6.748 -2.8345  0.9153  2.3443
 5755SOL     OW28726   0.256   0.258   6.535 -0.0841  0.2255  0.7711
 5755SOL    HW128727   0.179   0.202   6.526 -0.4685  0.7425  0.8018
 5755SOL    HW228728   0.217   0.346   6.543 -0.5057 -0.1729  2.8919
 5756SOL     OW28729   3.022   1.850   0.034  0.1193 -0.1101  0.6445
 5756SOL    HW128730   2.950   1.910   0.016  0.2171 -0.3752 -0.6159
 5756SOL    HW228731   2.990   1.801   0.109 -1.5690  0.9676  0.6342
 5757SOL     OW28732   0.859   0.566   0.768  0.2336  0.0164 -0.5650
 5757SOL    HW128733   0.835   0.483   0.728 -0.6326  0.0189 -0.0545
 5757SOL    HW228734   0.773   0.605   0.783  0.0062 -0.6045 -0.2361
 5758SOL     OW28735   4.386   2.745   2.950  0.5839 -0.3661  0.2420
 5758SOL    HW128736   4.465   2.746   3.005  0.5722 -0.0211  0.2482
 5758SOL    HW228737   4.418   2.704   2.869  2.8668  2.3159 -0.2140
 5759SOL     OW28738   2.421   1.601   4.861 -0.5232 -0.2324  0.0776
 5759SOL    HW128739   2.328   1.620   4.856 -0.4374  0.5429  1.4951
 5759SOL    HW228740   2.462   1.671   4.810 -0.1350 -0.1081  0.5670
 5760SOL     OW28741   1.792   3.309   8.028 -0.0712  0.3918  0.1797
 5760SOL    HW128742   1.842   3.340   8.104 -0.7025  2.4180 -0.2281
 5760SOL    HW228743   1.825   3.219   8.034 -0.1238  0.4356  1.1511
 5761SOL     OW28744   4.506   0.607   7.586  0.7176  0.0155 -0.1373
 5761SOL    HW128745   4.531   0.673   7.650  0.6973  0.2044 -0.3264
 5761SOL    HW228746   4.555   0.623   7.505  1.6929  0.0148  0.4587
 5762SOL     OW28747   3.765   0.045  17.681  0.1220 -0.0782  0.0794
 5762SOL    HW128748   3.815   0.015   0.057 -2.1796 -1.4906  1.0493
 5762SOL    HW228749   3.837   0.074  17.625 -0.3049  0.7601 -0.0424
 5763SOL     OW28750   1.403   4.371  12.711  0.8124 -0.3018  0.4603
 5763SOL    HW128751   1.321   4.408  12.679  0.5700 -0.3614  1.0139
 5763SOL    HW228752   1.462   4.443  12.689 -1.9679  1.7917 -0.1278
 5764SOL     OW28753   3.724   2.868   7.579 -0.0902 -0.4264  0.0355
 5764SOL    HW128754   3.756   2.899   7.664  0.4877 -1.2931  0.1424
 5764SOL    HW228755   3.766   2.782   7.571 -1.0401 -0.7725 -1.1791
 5765SOL     OW28756   0.198   4.715   2.598 -0.1057  0.0930 -0.1338
 5765SOL    HW128757   0.122   4.657   2.597  1.9548 -2.6023  0.5351
 5765SOL    HW228758   0.237   4.697   2.683  0.3325  0.7352 -0.1968
 5766SOL     OW28759   2.826   2.950  15.585  0.6561 -0.1429  0.2452
 5766SOL    HW128760   2.902   2.915  15.540  0.3726  0.0695 -0.3938
 5766SOL    HW228761   2.852   3.042  15.594  0.1418 -0.1537  2.0510
 5767SOL     OW28762   0.102   2.223   3.629 -0.1967  0.2666  0.2342
 5767SOL    HW128763   0.182   2.253   3.671  0.3719 -0.3017 -0.4313
 5767SOL    HW228764   0.120   2.244   3.537 -0.3216 -2.0060 -0.3144
 5768SOL     OW28765   0.225   0.127   4.986  1.2463 -0.9110  0.4517
 5768SOL    HW128766   0.238   0.051   5.042  0.0912 -1.7201 -0.3749
 5768SOL    HW228767   0.296   0.119   4.923  0.7815 -0.4811 -0.1331
 5769SOL     OW28768   4.462   2.070   4.986  0.0363 -0.3651  0.4130
 5769SOL    HW128769   4.422   2.050   5.070  0.1131  0.0329  0.5409
 5769SOL    HW228770   4.556   2.055   4.997  0.4132  1.5115 -0.2239
 5770SOL     OW28771   2.338   1.039   7.102 -0.1555  0.7588  0.3171
 5770SOL    HW128772   2.304   0.951   7.114  1.5057  0.2227  1.0779
 5770SOL    HW228773   2.321   1.065   7.193  2.9295  0.6533  0.9278
 5771SOL     OW28774   3.091   0.959   8.956  0.0685  0.5233 -0.5077
 5771SOL    HW128775   3.131   0.875   8.931 -2.6923 -1.2532  1.0507
 5771SOL    HW228776   3.034   0.982   8.882 -2.5142 -1.2164  0.9351
 5772SOL     OW28777   2.277   0.773   7.072  0.0846  0.4878  0.6657
 5772SOL    HW128778   2.270   0.680   7.093  2.0943  0.4659  1.3000
 5772SOL    HW228779   2.190   0.802   7.098  0.4203  1.8998  0.2337
 5773SOL     OW28780   2.120   4.222   0.535 -0.6107  0.1609 -0.5125
 5773SOL    HW128781   2.155   4.307   0.508  0.3638  0.2351  0.9581
 5773SOL    HW228782   2.067   4.262   0.604 -2.2306 -1.2009 -0.9650
 5774SOL     OW28783   1.040   2.233  16.403 -0.1833  0.0142 -0.6425
 5774SOL    HW128784   1.055   2.139  16.407 -1.9778 -0.2328  0.6094
 5774SOL    HW228785   1.068   2.254  16.315  1.9371 -2.6075 -0.5881
 5775SOL     OW28786   0.209   0.256   7.270 -0.3915 -0.5420  0.5126
 5775SOL    HW128787   0.253   0.182   7.312 -0.5044 -1.4734 -0.9865
 5775SOL    HW228788   0.124   0.218   7.251 -0.0962 -1.0147  0.1352
 5776SOL     OW28789   2.739   2.229  16.929 -0.2686  0.0125  0.2348
 5776SOL    HW128790   2.821   2.277  16.942 -1.3222  1.4363  1.6873
 5776SOL    HW228791   2.716   2.223  17.022  0.3511  1.0729  0.4518
 5777SOL     OW28792   4.631   3.848   4.542  0.5756 -0.0115 -0.4212
 5777SOL    HW128793   4.580   3.818   4.467  0.2643 -2.2536  0.7130
 5777SOL    HW228794   4.723   3.835   4.520  1.2664  1.2194  1.7048
 5778SOL     OW28795   4.281   2.131   0.856 -0.2053  0.4750  0.0648
 5778SOL    HW128796   4.357   2.184   0.833 -0.7004  2.1167  2.1888
 5778SOL    HW228797   4.249   2.108   0.769 -3.3633  0.2578  1.2601
 5779SOL     OW28798   3.784   1.164  15.504  0.1907  0.1577  0.1469
 5779SOL    HW128799   3.807   1.185  15.594 -1.8276  0.4636  0.5759
 5779SOL    HW228800   3.872   1.164  15.466  0.8351  0.1573  1.6770
 5780SOL     OW28801   2.902   4.576   5.458  0.1054  0.4631 -0.3993
 5780SOL    HW128802   2.880   4.598   5.549  2.5680 -0.0196  0.3184
 5780SOL    HW228803   2.995   4.600   5.461  0.6733 -1.9493  1.7597
 5781SOL     OW28804   4.172   3.326   3.904 -0.5445 -0.7833 -0.0186
 5781SOL    HW128805   4.178   3.362   3.992  1.8187 -0.0969 -0.4657
 5781SOL    HW228806   4.262   3.339   3.873  0.0155 -1.6752  1.2241
 5782SOL     OW28807   0.677   3.338  11.878 -0.4250  0.2901 -0.5753
 5782SOL    HW128808   0.737   3.275  11.837 -1.5777 -1.1319 -0.1062
 5782SOL    HW228809   0.705   3.339  11.969  0.7373  1.0797 -0.9505
 5783SOL     OW28810   3.377   1.833   5.637  0.1840 -0.0930 -0.1958
 5783SOL    HW128811   3.302   1.870   5.683  2.1227  3.1471  0.3940
 5783SOL    HW228812   3.338   1.751   5.606  0.8376  0.6911 -3.1063
 5784SOL     OW28813   0.710   2.752  10.160  0.7752 -0.3123 -0.2129
 5784SOL    HW128814   0.680   2.797  10.238 -0.6540 -1.5231 -0.0635
 5784SOL    HW228815   0.679   2.664  10.181  2.6627 -1.0225 -0.3210
 5785SOL     OW28816   0.463   3.986  16.246  0.6217  0.0966  0.3433
 5785SOL    HW128817   0.536   3.932  16.275  2.0017  1.3501 -0.8133
 5785SOL    HW228818   0.501   4.074  16.239 -2.6036  1.4226 -0.6145
 5786SOL     OW28819   2.946   1.785  13.821  0.2233  0.0196 -0.4493
 5786SOL    HW128820   2.888   1.836  13.879  0.2089 -1.7592  1.1008
 5786SOL    HW228821   2.995   1.742  13.891  0.3109 -0.0597 -0.5604
 5787SOL     OW28822   0.567   2.320   4.601 -0.4160  0.4223 -0.4593
 5787SOL    HW128823   0.504   2.255   4.632 -0.6136  1.2603  0.9256
 5787SOL    HW228824   0.578   2.367   4.683 -0.3778  2.4574 -1.6276
 5788SOL     OW28825   2.990   4.377   8.492  0.4793 -0.1106 -0.7055
 5788SOL    HW128826   2.897   4.394   8.506  0.3008 -3.2131  1.9385
 5788SOL    HW228827   2.994   4.330   8.408  2.6333 -0.3590 -0.4716
 5789SOL     OW28828   2.358   3.225   1.747 -0.4755  0.4483  0.3053
 5789SOL    HW128829   2.434   3.183   1.705 -1.0419 -0.1458 -0.1179
 5789SOL    HW228830   2.362   3.308   1.699 -0.1495 -0.5060 -1.3047
 5790SOL     OW28831   3.088   1.287  11.979  0.1781 -0.0497  0.0619
 5790SOL    HW128832   3.120   1.303  11.890 -1.1648 -0.0611 -0.4219
 5790SOL    HW228833   3.036   1.208  11.964  1.6328 -0.5114 -2.5357
 5791SOL     OW28834   2.299   1.929   6.534 -0.1330 -0.4162 -0.2095
 5791SOL    HW128835   2.363   1.978   6.585  0.6247 -1.9347  0.2951
 5791SOL    HW228836   2.309   1.836   6.555 -1.7239 -0.8484 -1.3191
 5792SOL     OW28837   3.102   3.361   2.258  0.4409  0.0514 -0.2668
 5792SOL    HW128838   3.092   3.450   2.293 -2.1586  0.1822 -1.3865
 5792SOL    HW228839   3.130   3.314   2.336 -1.0189  0.4585  0.5065
 5793SOL     OW28840   2.361   1.553   0.075  0.1216 -0.4556  0.3811
 5793SOL    HW128841   2.378   1.467   0.112  1.4778 -0.6141 -0.5952
 5793SOL    HW228842   2.396   1.597   0.153 -1.1648 -0.7364  1.1246
 5794SOL     OW28843   0.310   2.634  16.639 -0.2261 -0.2570  0.8028
 5794SOL    HW128844   0.226   2.590  16.652 -0.3420 -1.0419 -2.6293
 5794SOL    HW228845   0.363   2.586  16.702  0.3205 -0.1060  0.4599
 5795SOL     OW28846   3.598   2.879   2.782  0.4452 -0.2621 -0.3705
 5795SOL    HW128847   3.589   2.822   2.705 -0.1563 -0.1230 -0.4036
 5795SOL    HW228848   3.624   2.810   2.843 -0.0695  0.0919  0.2471
 5796SOL     OW28849   0.790   1.140   6.765  0.0709  0.0314 -0.1611
 5796SOL    HW128850   0.848   1.065   6.753  1.9344  1.4102  0.2374
 5796SOL    HW228851   0.851   1.214   6.764  1.6670 -1.2827  0.6772
 5797SOL     OW28852   2.269   4.217   7.839  0.0701 -0.2972 -0.7906
 5797SOL    HW128853   2.317   4.147   7.794  0.6746  1.1874 -2.4746
 5797SOL    HW228854   2.210   4.241   7.767 -0.8859  0.7085  0.3371
 5798SOL     OW28855   0.174   3.585   2.959 -0.0145  0.4463  0.3219
 5798SOL    HW128856   0.142   3.661   3.008 -0.9058 -0.3349  0.9173
 5798SOL    HW228857   0.134   3.516   3.011  2.3975 -1.1629  0.0648
 5799SOL     OW28858   3.472   4.280  16.074 -0.6703 -0.0619  0.8887
 5799SOL    HW128859   3.425   4.280  15.990  0.7297 -0.2330  0.1056
 5799SOL    HW228860   3.489   4.373  16.089 -0.7537 -0.1059  1.2567
 5800SOL     OW28861   0.898   2.209   6.746 -0.3153  0.2502  0.1027
 5800SOL    HW128862   0.874   2.292   6.788 -1.1888 -0.9435  1.9676
 5800SOL    HW228863   0.863   2.142   6.805  0.8070 -0.1620  0.2907
 5801SOL     OW28864   3.798   1.983   7.739 -0.2859 -0.1011 -0.6881
 5801SOL    HW128865   3.760   1.947   7.658 -0.9629  2.1911 -1.3922
 5801SOL    HW228866   3.723   2.041   7.755 -0.4441 -0.3152 -0.6552
 5802SOL     OW28867   3.068   0.995   4.969 -0.2715  0.6974 -0.6202
 5802SOL    HW128868   2.983   0.989   5.012 -0.8229  0.8851 -1.6753
 5802SOL    HW228869   3.047   1.019   4.878 -0.4779 -1.6639 -1.2048
 5803SOL     OW28870   1.486   0.364   7.437  0.5533 -0.2006 -0.5691
 5803SOL    HW128871   1.452   0.433   7.379  0.0258  0.3454  0.3955
 5803SOL    HW228872   1.575   0.399   7.444  1.1719 -1.9657  0.3551
 5804SOL     OW28873   0.328   2.636   8.891 -0.1036 -0.7454  0.2186
 5804SOL    HW128874   0.363   2.685   8.966 -1.8874 -0.3907  0.8256
 5804SOL    HW228875   0.322   2.706   8.825  0.7667 -0.3048  0.6096
 5805SOL     OW28876   3.397   1.438   9.205  0.0772 -0.1236 -0.3926
 5805SOL    HW128877   3.419   1.503   9.138  0.4084 -0.6145 -0.7637
 5805SOL    HW228878   3.475   1.444   9.259  0.1227 -1.7622 -0.2572
 5806SOL     OW28879   4.282   4.078   3.828  0.5251 -0.0328  0.0270
 5806SOL    HW128880   4.353   4.033   3.782 -0.1809 -2.3554  1.2030
 5806SOL    HW228881   4.210   4.081   3.765  1.0762  2.1793 -0.4795
 5807SOL     OW28882   2.384   1.653  11.995 -0.2236  0.0527 -0.6003
 5807SOL    HW128883   2.452   1.598  11.958 -1.0033 -1.0462 -0.4159
 5807SOL    HW228884   2.349   1.590  12.058  3.5069 -1.7795 -0.3696
 5808SOL     OW28885   4.489   2.589  13.077 -0.6893 -0.4425  0.0832
 5808SOL    HW128886   4.478   2.684  13.079  0.0387 -0.3931  1.7972
 5808SOL    HW228887   4.481   2.576  12.983 -0.3622 -0.3990  0.0515
 5809SOL     OW28888   0.717   0.420   4.446 -0.4370 -0.5924 -0.1399
 5809SOL    HW128889   0.762   0.352   4.497  0.1854  0.1015  0.2274
 5809SOL    HW228890   0.742   0.499   4.494  0.1834 -1.3000  0.7071
 5810SOL     OW28891   4.023   3.249   6.545 -0.1956  0.4959  0.1107
 5810SOL    HW128892   4.049   3.160   6.520  2.2212  1.3597 -0.3896
 5810SOL    HW228893   4.007   3.292   6.461 -0.2113  0.8281  0.2864
 5811SOL     OW28894   3.433   4.513   0.189  0.3949 -0.6398  0.5884
 5811SOL    HW128895   3.499   4.514   0.119 -1.9787  1.2196 -1.6367
 5811SOL    HW228896   3.485   4.545   0.262 -1.6794  4.2860 -0.0501
 5812SOL     OW28897   0.631   2.884  10.403 -0.6049  0.0350 -0.1214
 5812SOL    HW128898   0.555   2.828  10.420 -0.7078 -0.0438 -0.8495
 5812SOL    HW228899   0.697   2.864  10.470 -0.9792 -0.5430  0.0735
 5813SOL     OW28900   0.821   2.854   3.037  0.1964  0.2780  0.3555
 5813SOL    HW128901   0.899   2.858   2.983  0.0315  0.5449  0.1382
 5813SOL    HW228902   0.769   2.802   2.976  1.8295  0.8222 -1.4735
 5814SOL     OW28903   0.026   3.803   9.937  1.0518  0.1769  0.5746
 5814SOL    HW128904   0.015   3.737   9.870 -1.6229 -0.1705  1.3469
 5814SOL    HW228905   0.117   3.817   9.965  0.9013 -0.8830  1.5787
 5815SOL     OW28906   4.122   4.482  15.445 -0.4397 -0.2565  0.3443
 5815SOL    HW128907   4.161   4.502  15.360 -0.1169  3.0579  1.2930
 5815SOL    HW228908   4.090   4.570  15.463  1.3158  0.3827  0.3867
 5816SOL     OW28909   3.482   2.456  15.244  0.2160  0.5459 -0.0794
 5816SOL    HW128910   3.562   2.494  15.281  1.0865 -0.1668 -1.2452
 5816SOL    HW228911   3.470   2.504  15.162 -1.6866 -0.6029 -0.4726
 5817SOL     OW28912   0.249   2.088   8.371 -0.1957  0.0455  0.2963
 5817SOL    HW128913   0.290   2.024   8.430 -0.4846  0.8083  1.3214
 5817SOL    HW228914   0.310   2.087   8.297 -2.4714  0.3996 -1.5854
 5818SOL     OW28915   0.307   0.907   8.625 -0.4335  0.3842  0.1663
 5818SOL    HW128916   0.234   0.860   8.585  0.7387 -1.1804 -0.1170
 5818SOL    HW228917   0.265   0.988   8.656 -0.2276  0.7325 -0.4807
 5819SOL     OW28918   2.892   1.291   3.242  0.6941 -0.1740 -0.1128
 5819SOL    HW128919   2.922   1.249   3.322  0.8995  2.1814  1.0425
 5819SOL    HW228920   2.967   1.274   3.185  1.1048 -1.6349  0.8600
 5820SOL     OW28921   1.690   2.490   1.550  0.3661  0.3355  0.2128
 5820SOL    HW128922   1.617   2.539   1.587 -1.1210 -2.9306  1.6922
 5820SOL    HW228923   1.681   2.503   1.456 -2.0019  1.4410  0.6022
 5821SOL     OW28924   0.913   4.550  13.205 -0.3082  0.3630 -0.1307
 5821SOL    HW128925   0.968   4.482  13.244 -0.5007  0.5896  0.5484
 5821SOL    HW228926   0.948   4.632  13.240 -0.3637  0.4216 -0.2132
 5822SOL     OW28927   4.009   1.573   6.761 -0.1211 -0.0725 -0.2937
 5822SOL    HW128928   4.027   1.613   6.676  2.9102 -1.4991 -0.3331
 5822SOL    HW228929   4.081   1.511   6.774  0.5424  1.2406  2.3559
 5823SOL     OW28930   3.520   2.398   5.084 -0.7327 -0.3115 -0.2510
 5823SOL    HW128931   3.457   2.462   5.118  0.1813  0.1361  0.6048
 5823SOL    HW228932   3.576   2.456   5.033 -2.5938 -1.2446 -3.3731
 5824SOL     OW28933   3.126   2.168   4.582  0.9149  0.5904 -0.2875
 5824SOL    HW128934   3.134   2.229   4.655  3.2608  0.5643 -0.5143
 5824SOL    HW228935   3.151   2.229   4.512  0.2026 -0.3335 -1.3396
 5825SOL     OW28936   4.641   2.541   5.288 -0.1563  0.2272 -0.4443
 5825SOL    HW128937   4.559   2.575   5.252 -2.2166 -3.6156  0.6177
 5825SOL    HW228938   4.633   2.445   5.287  0.3153  0.1733  0.5644
 5826SOL     OW28939   2.328   2.351  16.912 -0.2710 -0.1778  0.3114
 5826SOL    HW128940   2.280   2.433  16.898  0.8623  0.6431  1.2364
 5826SOL    HW228941   2.345   2.378  17.002 -0.7418 -0.5131  0.5009
 5827SOL     OW28942   4.409   4.357   8.260 -0.5649 -0.0510  0.5272
 5827SOL    HW128943   4.372   4.306   8.188 -0.0873  1.2231 -0.6066
 5827SOL    HW228944   4.473   4.401   8.203 -2.1463 -0.9478 -1.9378
 5828SOL     OW28945   3.609   4.679  16.895  0.1509  0.4761 -0.3851
 5828SOL    HW128946   3.647   4.592  16.891 -2.7969 -0.9401  2.4297
 5828SOL    HW228947   3.683   0.009  16.921  1.6344 -0.6380 -2.2357
 5829SOL     OW28948   0.857   4.376   2.483 -0.1881  0.5065 -0.1289
 5829SOL    HW128949   0.827   4.459   2.447 -2.2200  0.6591  1.8922
 5829SOL    HW228950   0.827   4.383   2.574 -1.0069  0.2724 -0.3789
 5830SOL     OW28951   1.260   2.167   6.597  0.3811 -0.1691  0.1793
 5830SOL    HW128952   1.333   2.161   6.537  0.3648 -1.8302  0.3075
 5830SOL    HW228953   1.243   2.260   6.585  0.8560  0.0210  0.9934
 5831SOL     OW28954   3.812   4.005   7.178  0.2741 -0.1102 -0.0061
 5831SOL    HW128955   3.801   4.011   7.083 -1.0329  1.5227  0.2400
 5831SOL    HW228956   3.722   4.004   7.213  0.2447  0.3448 -0.0696
 5832SOL     OW28957   3.566   0.898   9.746  0.6562 -0.3447  0.1870
 5832SOL    HW128958   3.504   0.830   9.773  1.1859 -0.3030  1.5177
 5832SOL    HW228959   3.567   0.890   9.651  0.5360  0.9204  0.0744
 5833SOL     OW28960   0.188   1.444  16.817  0.3798  0.0891  0.3868
 5833SOL    HW128961   0.164   1.493  16.738  0.2650 -0.4251  0.0968
 5833SOL    HW228962   0.170   1.510  16.884  0.2381 -0.2180  0.6531
 5834SOL     OW28963   0.533   0.133   2.194 -0.6071 -0.1492  0.0424
 5834SOL    HW128964   0.488   0.093   2.119  1.4421  0.9002 -1.7692
 5834SOL    HW228965   0.491   0.098   2.272 -1.4650 -3.5540 -1.9416
 5835SOL     OW28966   1.684   4.211   6.322  0.7557  0.3460  0.1464
 5835SOL    HW128967   1.691   4.116   6.319 -1.9953  0.1936 -1.0887
 5835SOL    HW228968   1.589   4.215   6.330  0.5862 -0.5120 -1.5041
 5836SOL     OW28969   0.964   1.233   2.207 -0.2560  0.6406  0.2503
 5836SOL    HW128970   0.940   1.155   2.156  0.6993  0.8770 -0.5665
 5836SOL    HW228971   0.893   1.296   2.190 -0.8453 -0.4599 -1.3910
 5837SOL     OW28972   3.521   1.887   5.399 -0.3106 -0.5228 -0.2588
 5837SOL    HW128973   3.594   1.841   5.441 -0.2865 -0.2368  0.0075
 5837SOL    HW228974   3.482   1.933   5.473 -0.8088 -0.3733 -0.6197
 5838SOL     OW28975   1.805   3.520   8.460  0.1005  0.3599  0.0040
 5838SOL    HW128976   1.826   3.614   8.454 -0.6600  0.5546  0.3212
 5838SOL    HW228977   1.710   3.525   8.474 -0.1519 -2.0660 -0.9153
 5839SOL     OW28978   4.261   3.119   7.525 -0.1038  0.2560 -0.0573
 5839SOL    HW128979   4.190   3.158   7.473 -1.9339 -1.2053  1.3600
 5839SOL    HW228980   4.218   3.043   7.563 -0.9793 -1.2111 -3.9351
 5840SOL     OW28981   4.421   0.766   5.210  0.0529  0.4223  0.2138
 5840SOL    HW128982   4.338   0.781   5.254 -0.1987 -1.8132  0.5068
 5840SOL    HW228983   4.454   0.681   5.238 -1.5689 -0.7232 -1.2898
 5841SOL     OW28984   1.398   3.580  15.371  0.6164 -0.0029 -0.0982
 5841SOL    HW128985   1.336   3.608  15.439 -0.7077 -1.8109 -0.5694
 5841SOL    HW228986   1.377   3.628  15.291  0.4451 -0.8389 -0.5466
 5842SOL     OW28987   2.768   2.608   0.264  0.1446 -0.3957 -0.2018
 5842SOL    HW128988   2.715   2.583   0.340 -1.1797  0.0253 -1.0073
 5842SOL    HW228989   2.760   2.530   0.209 -0.2733  0.2853 -1.1032
 5843SOL     OW28990   4.349   1.503   4.595  0.1892  0.3896 -0.0057
 5843SOL    HW128991   4.352   1.419   4.640 -1.8675 -0.3068 -1.1521
 5843SOL    HW228992   4.423   1.536   4.646  0.5670 -1.0151  0.3385
 5844SOL     OW28993   3.384   2.080   7.329 -0.4232  0.3144 -0.2143
 5844SOL    HW128994   3.368   2.094   7.422 -1.6496 -2.0889 -0.0431
 5844SOL    HW228995   3.392   1.985   7.318 -0.1011  0.3956 -0.6610
 5845SOL     OW28996   0.297   2.776   3.026  0.2863  0.2392 -0.0488
 5845SOL    HW128997   0.377   2.746   3.069  0.0130 -1.0209 -0.4266
 5845SOL    HW228998   0.286   2.869   3.046  0.4611  0.2465  0.0143
 5846SOL     OW28999   2.182   3.610  17.351 -0.7461  0.2390 -0.3790
 5846SOL    HW129000   2.203   3.690  17.400  1.2678 -1.2987  1.2494
 5846SOL    HW229001   2.090   3.599  17.375 -0.5313  0.2168  0.4529
 5847SOL     OW29002   4.268   4.704  15.723 -0.1872  0.1945  0.2415
 5847SOL    HW129003   4.303   0.068  15.725  0.0690  0.1025 -0.4081
 5847SOL    HW229004   4.179   4.716  15.691 -0.0232  0.4232 -0.1204
 5848SOL     OW29005   4.716   0.372   0.023 -0.7100  0.7857  0.2094
 5848SOL    HW129006   0.006   0.289  17.677 -0.4450  0.7468  0.3656
 5848SOL    HW229007   0.011   0.362   0.116  2.2196  0.3073 -0.4565
 5849SOL     OW29008   3.791   3.688   6.436 -0.2339  0.0840 -0.5902
 5849SOL    HW129009   3.766   3.630   6.509  0.3192 -0.3441 -0.7456
 5849SOL    HW229010   3.813   3.764   6.491  1.0981 -0.2365 -0.6818
 5850SOL     OW29011   1.792   3.609   0.917  0.4494  0.0581  0.2210
 5850SOL    HW129012   1.785   3.662   0.838  1.8860 -0.5273 -0.2815
 5850SOL    HW229013   1.855   3.651   0.975  0.1742 -0.4300  0.8744
 5851SOL     OW29014   1.483   1.396   8.426  0.0929 -0.8693 -0.6876
 5851SOL    HW129015   1.402   1.447   8.422  1.4129  1.2413 -1.0570
 5851SOL    HW229016   1.532   1.444   8.493 -0.5680  0.9482 -1.4847
 5852SOL     OW29017   2.771   3.097   5.847  0.3611  0.1981 -0.1100
 5852SOL    HW129018   2.793   3.109   5.939 -0.4597 -0.6919  0.1998
 5852SOL    HW229019   2.849   3.042   5.836  0.5537  0.6388 -0.9712
 5853SOL     OW29020   2.794   3.596  10.626 -0.2278  0.1033 -0.1415
 5853SOL    HW129021   2.756   3.683  10.617  1.2979  0.9389  1.5434
 5853SOL    HW229022   2.888   3.617  10.627 -0.2160  0.0631 -0.5485
 5854SOL     OW29023   3.060   2.327   5.619 -0.6661 -0.0595  0.1786
 5854SOL    HW129024   3.097   2.394   5.676 -1.1598 -1.7242  2.4689
 5854SOL    HW229025   3.111   2.251   5.645 -1.0690 -0.4016 -0.0380
 5855SOL     OW29026   3.444   2.245   3.398 -0.0356  0.0365 -0.0377
 5855SOL    HW129027   3.349   2.239   3.389 -0.2517 -0.6817  2.8184
 5855SOL    HW229028   3.456   2.340   3.408  0.3344  0.2384 -2.4947
 5856SOL     OW29029   4.469   4.462   7.223 -0.1116  0.0088 -0.0595
 5856SOL    HW129030   4.439   4.396   7.286  0.2902 -2.3219 -2.3103
 5856SOL    HW229031   4.561   4.478   7.244  0.6536  1.3221 -4.5281
 5857SOL     OW29032   2.054   2.535   5.766  0.5691  0.0323  0.1140
 5857SOL    HW129033   2.033   2.514   5.675 -0.7350 -0.3498  0.5033
 5857SOL    HW229034   2.130   2.593   5.754  0.9400 -0.3504  0.6202
 5858SOL     OW29035   2.869   0.709  11.586  0.2533 -0.1122  0.1264
 5858SOL    HW129036   2.904   0.773  11.648  0.8317 -0.4677  0.1625
 5858SOL    HW229037   2.782   0.691  11.624  0.0750  1.8413  0.6768
 5859SOL     OW29038   3.975   0.027   1.649  0.3677  0.1947  0.1199
 5859SOL    HW129039   3.957   4.659   1.668 -1.5433  0.3687 -0.7532
 5859SOL    HW229040   4.067   0.021   1.673  0.7142  0.6743 -1.1382
 5860SOL     OW29041   1.021   0.587  16.538  0.6576 -0.7214 -0.2548
 5860SOL    HW129042   1.033   0.653  16.470  1.7269 -0.7164 -0.0651
 5860SOL    HW229043   0.967   0.524  16.492  1.1831 -1.1695 -0.2546
 5861SOL     OW29044   4.656   4.721  14.409 -0.5198  0.3111 -0.2573
 5861SOL    HW129045   4.676   0.041  14.327  1.2155 -1.2324 -0.6924
 5861SOL    HW229046   0.020   4.714  14.446 -0.7503 -0.3762  0.1700
 5862SOL     OW29047   2.075   2.221  16.615  0.4213  0.0325 -0.5007
 5862SOL    HW129048   2.125   2.201  16.694 -1.5440  2.5572  1.3433
 5862SOL    HW229049   1.992   2.185  16.646 -0.5201 -0.6616 -3.8094
 5863SOL     OW29050   1.779   4.447   0.371 -0.1422 -0.9292 -0.1459
 5863SOL    HW129051   1.726   4.371   0.346 -0.8189 -0.0821 -1.2695
 5863SOL    HW229052   1.789   4.484   0.284 -2.8828 -0.2957 -0.1966
 5864SOL     OW29053   2.673   3.474   4.180 -0.3875  0.2112  0.1535
 5864SOL    HW129054   2.693   3.559   4.219 -0.6320  0.6154 -0.6012
 5864SOL    HW229055   2.594   3.443   4.224  0.0842 -1.0397  0.1383
 5865SOL     OW29056   2.718   0.761   3.748  0.2749 -0.2421 -0.7914
 5865SOL    HW129057   2.745   0.795   3.662  0.0350 -0.7705 -1.0762
 5865SOL    HW229058   2.636   0.808   3.761  0.7928  0.8138 -1.3289
 5866SOL     OW29059   1.758   1.124   5.800  0.0649  0.2702 -0.0363
 5866SOL    HW129060   1.727   1.123   5.891  0.3734  0.3085  0.0669
 5866SOL    HW229061   1.850   1.103   5.810  0.2064  0.1173 -1.6201
 5867SOL     OW29062   1.465   0.461  10.057  0.1442  0.0072 -0.2962
 5867SOL    HW129063   1.551   0.480  10.020 -0.4674  2.6652 -0.3267
 5867SOL    HW229064   1.439   0.539  10.105  0.7765  1.3289 -2.1125
 5868SOL     OW29065   1.154   3.833  15.800  0.0968  0.0191  0.0553
 5868SOL    HW129066   1.216   3.892  15.842 -0.3668 -0.5379  1.5403
 5868SOL    HW229067   1.164   3.757  15.858  0.0850 -0.0410 -0.0220
 5869SOL     OW29068   3.219   2.601   4.961  0.3919  0.1328  0.2487
 5869SOL    HW129069   3.205   2.652   4.881 -3.4234  1.0155  1.4833
 5869SOL    HW229070   3.136   2.555   4.966 -0.1233  0.9465 -0.8304
 5870SOL     OW29071   1.152   4.432   8.854 -0.0996  0.3814  0.0498
 5870SOL    HW129072   1.162   4.466   8.943  0.1039  0.6039 -0.0572
 5870SOL    HW229073   1.118   4.508   8.807  0.6326 -0.9191 -2.5649
 5871SOL     OW29074   3.284   2.075   8.623 -0.4967  0.1171 -0.2957
 5871SOL    HW129075   3.331   2.020   8.559 -0.3784  0.6516 -0.6675
 5871SOL    HW229076   3.314   2.029   8.701  3.3935  0.2408 -1.7011
 5872SOL     OW29077   0.053   0.062   0.495 -0.1554  0.1746 -0.3808
 5872SOL    HW129078   0.029   4.705   0.539 -1.5055  1.5867  1.5066
 5872SOL    HW229079   0.139   0.034   0.462 -0.9921 -0.0443 -2.3925
 5873SOL     OW29080   0.058   4.471   8.418 -0.3729  0.2492 -0.2879
 5873SOL    HW129081   0.092   4.390   8.381 -2.1354 -1.4152  1.7781
 5873SOL    HW229082   0.053   4.449   8.511  1.2870  0.6067 -0.1042
 5874SOL     OW29083   0.231   1.988   4.553 -0.2138 -0.0782  0.2181
 5874SOL    HW129084   0.175   2.061   4.528 -1.2029 -0.3363  1.6437
 5874SOL    HW229085   0.191   1.971   4.638 -0.1633  2.0802  0.6808
 5875SOL     OW29086   1.052   1.339   8.183  0.1100  1.0814  0.0175
 5875SOL    HW129087   1.116   1.409   8.174  2.2977 -0.7266  1.7586
 5875SOL    HW229088   1.100   1.274   8.234 -1.2099 -1.5468 -2.0410
 5876SOL     OW29089   2.059   0.951   3.670  0.1321 -0.8686  0.1383
 5876SOL    HW129090   2.024   0.992   3.748  3.4135  0.2768  0.9728
 5876SOL    HW229091   2.030   0.859   3.671 -2.2980 -0.1175 -2.0231
 5877SOL     OW29092   2.162   0.670   8.768  0.3472 -0.2395  0.3946
 5877SOL    HW129093   2.069   0.656   8.786  0.3721  0.0446  0.7410
 5877SOL    HW229094   2.174   0.765   8.777  2.2599 -0.7082  2.8187
 5878SOL     OW29095   4.558   3.203   2.612  0.0075  0.5322 -0.4972
 5878SOL    HW129096   4.498   3.275   2.595 -0.2612  0.2503 -0.7340
 5878SOL    HW229097   4.513   3.168   2.689 -0.3950  1.3992 -0.3408
 5879SOL     OW29098   0.813   0.034   8.784  0.3615 -0.0659 -0.1456
 5879SOL    HW129099   0.884   0.095   8.801 -0.4602  1.7186 -3.0151
 5879SOL    HW229100   0.822   4.675   8.830 -0.0733  2.4240  4.4257
 5880SOL     OW29101   1.437   4.316   5.005 -0.1829 -0.5832  0.2105
 5880SOL    HW129102   1.437   4.246   5.070  1.1958 -1.7733 -1.0360
 5880SOL    HW229103   1.524   4.346   5.033 -0.0718 -0.6620 -0.0434
 5881SOL     OW29104   1.994   1.103  12.495 -0.2301 -0.1097  0.5079
 5881SOL    HW129105   2.073   1.051  12.508  1.0378  1.2858 -1.5667
 5881SOL    HW229106   2.046   1.184  12.496  1.1645 -0.9962 -1.2709
 5882SOL     OW29107   0.908   4.136  15.802  0.4027 -0.5728  0.6992
 5882SOL    HW129108   0.839   4.082  15.840 -0.1930 -1.0883 -1.1206
 5882SOL    HW229109   0.944   4.082  15.731  0.5249 -1.6165  1.5718
 5883SOL     OW29110   0.050   0.510   5.529 -0.7339  0.0054 -0.8339
 5883SOL    HW129111   0.028   0.593   5.487  1.0320  1.1077  0.4281
 5883SOL    HW229112   0.107   0.470   5.463  0.3311  0.3911 -0.1587
 5884SOL     OW29113   1.748   0.945  15.359  0.1049 -0.2157 -0.0374
 5884SOL    HW129114   1.789   0.907  15.281 -1.3131  1.2059 -1.4873
 5884SOL    HW229115   1.704   0.871  15.401  0.2673 -0.4837 -0.3437
 5885SOL     OW29116   2.970   1.329   9.048  0.1256  0.2663 -0.3717
 5885SOL    HW129117   2.973   1.360   9.139  1.4865 -0.8814 -0.0218
 5885SOL    HW229118   2.877   1.316   9.030  0.2191 -1.3315  0.2781
 5886SOL     OW29119   1.713   2.628   2.321  0.6669  0.1186  0.2811
 5886SOL    HW129120   1.699   2.662   2.409 -3.1621  0.9603 -0.6389
 5886SOL    HW229121   1.653   2.684   2.272 -1.4202 -0.9491  1.6493
 5887SOL     OW29122   0.105   4.459   2.649  0.7556  0.0094  0.1026
 5887SOL    HW129123   0.054   4.434   2.726  0.1819 -0.1885 -0.3447
 5887SOL    HW229124   0.190   4.418   2.669 -0.4933 -1.4075  2.4811
 5888SOL     OW29125   4.722   3.355   3.388  0.4402 -0.2010 -0.0775
 5888SOL    HW129126   4.687   3.278   3.434  0.0963  0.2860  0.4833
 5888SOL    HW229127   0.076   3.364   3.441 -0.8061 -0.1969  1.7984
 5889SOL     OW29128   1.392   3.241   8.857 -1.0154  0.0648 -0.3172
 5889SOL    HW129129   1.432   3.156   8.838  1.9025  1.3584  0.0223
 5889SOL    HW229130   1.377   3.267   8.766  2.1428  0.4106 -0.7519
 5890SOL     OW29131   4.019   3.898   5.803  0.0115  0.1746 -0.0446
 5890SOL    HW129132   3.982   3.889   5.715  2.0548 -1.8096 -0.6906
 5890SOL    HW229133   4.097   3.953   5.795 -0.7226  1.6255  2.9869
 5891SOL     OW29134   0.713   4.602   4.302  0.3237  0.0475 -0.1771
 5891SOL    HW129135   0.780   4.587   4.369  0.5351  0.7117 -0.2362
 5891SOL    HW229136   0.643   4.549   4.339  1.9628 -2.3374 -0.4456
 5892SOL     OW29137   1.856   4.110  12.505 -0.0291 -0.1394 -0.3312
 5892SOL    HW129138   1.863   4.061  12.587  2.0985  1.1368  0.2469
 5892SOL    HW229139   1.858   4.042  12.437 -0.1328 -0.1505 -0.3233
 5893SOL     OW29140   2.368   1.268   3.978  0.1636 -0.0951  0.2411
 5893SOL    HW129141   2.358   1.183   4.021 -0.9864 -0.9915 -1.8526
 5893SOL    HW229142   2.315   1.325   4.034 -0.3575 -1.2647  0.9336
 5894SOL     OW29143   3.805   2.554  11.451  0.4611 -0.2469 -0.6253
 5894SOL    HW129144   3.816   2.633  11.398 -0.0639  1.0557  1.2209
 5894SOL    HW229145   3.782   2.498  11.377 -1.2066 -0.4002  0.0151
 5895SOL     OW29146   4.148   2.757   1.117 -0.6050  0.6087 -0.3147
 5895SOL    HW129147   4.235   2.731   1.149 -0.5504  1.7345  0.4296
 5895SOL    HW229148   4.090   2.683   1.135  0.2993  0.4888  2.0123
 5896SOL     OW29149   3.294   2.894   4.419 -0.3842 -0.1393 -0.3687
 5896SOL    HW129150   3.339   2.812   4.398  1.4913  0.7790  0.1122
 5896SOL    HW229151   3.228   2.901   4.350 -2.1188 -0.6141  1.2112
 5897SOL     OW29152   3.207   1.723   2.496 -0.0127 -0.3373  0.2417
 5897SOL    HW129153   3.234   1.798   2.444  1.7233 -0.5944  0.7650
 5897SOL    HW229154   3.175   1.767   2.575  0.5404 -3.2232  2.1112
 5898SOL     OW29155   3.251   0.023  11.312 -0.0614 -0.0157  0.3754
 5898SOL    HW129156   3.192   0.001  11.240 -0.1138 -0.8492  0.6719
 5898SOL    HW229157   3.256   0.119  11.315 -0.4841 -0.0249  1.2024
 5899SOL     OW29158   0.228   0.104   5.932  0.0163 -0.0169  0.0180
 5899SOL    HW129159   0.232   0.015   5.897 -0.5637  0.1148 -0.3826
 5899SOL    HW229160   0.190   0.087   6.017  0.8814 -1.7975  0.0377
 5900SOL     OW29161   3.976   4.442   2.360  0.3050  0.2634  0.2474
 5900SOL    HW129162   4.043   4.409   2.301  0.4896 -0.0166  0.6131
 5900SOL    HW229163   4.023   4.510   2.408  1.8181 -1.6012  1.4064
 5901SOL     OW29164   2.790   4.207   3.188 -0.6850 -0.1699  0.0983
 5901SOL    HW129165   2.729   4.257   3.135  0.8077  1.1705 -0.3330
 5901SOL    HW229166   2.874   4.229   3.149 -0.8158  1.6282  0.8416
 5902SOL     OW29167   2.364   1.750   0.966 -0.4298  0.2854  0.9430
 5902SOL    HW129168   2.294   1.815   0.974 -0.8641  0.0248 -0.6639
 5902SOL    HW229169   2.412   1.784   0.890  0.0831 -2.4215  0.0616
 5903SOL     OW29170   2.739   3.836   6.843  0.1349  0.3541 -0.7261
 5903SOL    HW129171   2.655   3.792   6.855  1.0528 -1.0409  0.6810
 5903SOL    HW229172   2.743   3.880   6.928 -2.1101  1.5785 -1.2564
 5904SOL     OW29173   2.176   2.147   5.441 -0.0893  0.9637 -0.2933
 5904SOL    HW129174   2.082   2.141   5.423 -0.3854  0.3144  1.4451
 5904SOL    HW229175   2.207   2.195   5.364 -2.4444 -0.9790 -2.4290
 5905SOL     OW29176   1.852   4.501  16.107 -0.2351  0.0597  0.1386
 5905SOL    HW129177   1.838   4.596  16.101  0.9192 -0.0292 -3.8031
 5905SOL    HW229178   1.767   4.466  16.137 -0.6793 -0.2503 -1.4819
 5906SOL     OW29179   0.099   3.678  11.003  0.3199 -0.0523 -0.3943
 5906SOL    HW129180   0.120   3.603  10.948  0.5893 -2.1483  2.5859
 5906SOL    HW229181   0.173   3.735  10.982 -0.0628  0.1315 -1.2489
 5907SOL     OW29182   4.458   0.582   3.596  0.2007  0.0896  0.2769
 5907SOL    HW129183   4.430   0.664   3.556  1.3098  0.1737 -0.3333
 5907SOL    HW229184   4.548   0.614   3.605  0.8926 -0.9749 -2.7157
 5908SOL     OW29185   2.694   1.893   4.422  0.5786  0.0685 -0.1787
 5908SOL    HW129186   2.729   1.978   4.447 -1.5675  0.6329  0.9465
 5908SOL    HW229187   2.772   1.849   4.389  1.5243  1.5796  0.0810
 5909SOL     OW29188   4.010   0.394   3.549 -0.2671 -0.5712 -0.1211
 5909SOL    HW129189   4.052   0.457   3.490 -0.2121 -1.6825 -1.2579
 5909SOL    HW229190   4.095   0.363   3.583  1.4656  1.2458 -2.8141
 5910SOL     OW29191   0.844   1.701   9.296 -0.0148 -0.1450  0.2106
 5910SOL    HW129192   0.783   1.734   9.230  0.3048 -0.0202 -0.0244
 5910SOL    HW229193   0.917   1.756   9.268 -0.0834  0.1138  0.5377
 5911SOL     OW29194   4.338   2.119  17.177 -0.0051 -0.4970 -0.7963
 5911SOL    HW129195   4.390   2.194  17.147  0.4966 -0.0761  1.1357
 5911SOL    HW229196   4.262   2.152  17.225  0.0582  0.0115 -1.0483
 5912SOL     OW29197   3.551   3.227   3.948 -0.6793  0.3859 -0.1410
 5912SOL    HW129198   3.509   3.312   3.937  1.0441  1.4648  1.7333
 5912SOL    HW229199   3.569   3.222   4.042  1.8566 -1.8779 -0.7554
 5913SOL     OW29200   2.809   0.967   0.171 -0.0946  0.3682  0.0938
 5913SOL    HW129201   2.875   0.918   0.221  0.4963  0.8394 -0.2214
 5913SOL    HW229202   2.730   0.912   0.172 -0.5593  1.0378 -0.1058
 5914SOL     OW29203   0.992   4.361   6.299  0.4194 -0.4849 -0.0762
 5914SOL    HW129204   0.994   4.396   6.389 -0.0856 -1.9205  0.4927
 5914SOL    HW229205   0.975   4.269   6.317  0.6039 -0.7070 -1.0921
 5915SOL     OW29206   0.920   2.063  13.214  0.1970 -0.2239 -0.2332
 5915SOL    HW129207   0.880   1.981  13.245  0.4409 -0.4737 -0.5872
 5915SOL    HW229208   0.893   2.118  13.287 -0.2811  0.0250 -0.5938
 5916SOL     OW29209   0.680   1.997   5.756 -0.3537  0.0640 -0.1580
 5916SOL    HW129210   0.773   1.981   5.741 -0.0451  1.9923 -0.2429
 5916SOL    HW229211   0.673   1.986   5.851  3.1321  0.9517  0.1937
 5917SOL     OW29212   3.113   2.389   3.048 -0.0011 -0.5311 -0.2751
 5917SOL    HW129213   3.140   2.445   3.120  0.5504 -1.6028  0.3373
 5917SOL    HW229214   3.171   2.417   2.977 -1.9702  1.1497 -1.2392
 5918SOL     OW29215   3.698   0.743   3.238 -0.1673  0.5291  1.0305
 5918SOL    HW129216   3.618   0.692   3.224  1.1582 -1.1593 -0.3894
 5918SOL    HW229217   3.760   0.671   3.250 -0.0002  0.4116 -0.6180
 5919SOL     OW29218   2.005   1.541   5.599  0.3653  0.1777 -0.2635
 5919SOL    HW129219   1.961   1.625   5.614 -1.9922 -1.1029 -0.0682
 5919SOL    HW229220   1.976   1.511   5.513  0.9947  0.5894 -0.6219
 5920SOL     OW29221   2.579   2.066   3.138  0.0513 -0.1888  0.5256
 5920SOL    HW129222   2.542   2.008   3.071 -1.4751 -1.0324  2.0983
 5920SOL    HW229223   2.573   2.149   3.091 -0.1319 -0.8652 -0.6339
 5921SOL     OW29224   1.688   4.540  13.562  0.0695  0.3838  0.2595
 5921SOL    HW129225   1.707   4.604  13.631  1.0076 -0.8928  1.1696
 5921SOL    HW229226   1.594   4.522  13.570 -0.1445  1.6995  0.7849
 5922SOL     OW29227   1.978   0.550   9.411  0.1060  0.4944  0.2759
 5922SOL    HW129228   2.066   0.568   9.443 -0.0865  0.9268  0.5599
 5922SOL    HW229229   1.942   0.525   9.497  1.1662  1.2129  0.9207
 5923SOL     OW29230   3.747   3.095   2.711  0.2495  0.3167 -0.6539
 5923SOL    HW129231   3.836   3.082   2.744 -0.6116 -2.1811  0.6788
 5923SOL    HW229232   3.711   3.012   2.743  1.1122  0.3013  0.2679
 5924SOL     OW29233   1.655   3.544   4.965 -0.0279  0.0587 -0.4471
 5924SOL    HW129234   1.629   3.528   5.056 -2.9975  1.1187 -1.1181
 5924SOL    HW229235   1.568   3.553   4.927 -0.7382  2.4990  1.7702
 5925SOL     OW29236   0.338   0.861   7.708  0.5194 -0.4236 -0.2502
 5925SOL    HW129237   0.382   0.804   7.771 -1.3715 -3.0629 -1.3436
 5925SOL    HW229238   0.269   0.902   7.760  0.8972 -1.5885  1.1729
 5926SOL     OW29239   0.687   0.521   9.426  0.2303  0.7776 -1.0376
 5926SOL    HW129240   0.741   0.474   9.490 -1.1055 -1.6314 -1.6585
 5926SOL    HW229241   0.680   0.601   9.479 -3.8010 -0.5633  0.5390
 5927SOL     OW29242   2.874   2.544   6.477  0.5172  0.4930 -0.0237
 5927SOL    HW129243   2.913   2.457   6.471 -0.0028  0.2751 -0.1749
 5927SOL    HW229244   2.785   2.528   6.508  0.4620  1.7275  0.4853
 5928SOL     OW29245   4.672   0.437   2.587  0.0131 -0.4056 -0.4856
 5928SOL    HW129246   0.040   0.461   2.578  0.2518 -0.9581  0.4185
 5928SOL    HW229247   4.677   0.350   2.627 -0.3056  0.0043  0.4517
 5929SOL     OW29248   2.391   2.421  10.732  0.5045  0.1498 -0.1462
 5929SOL    HW129249   2.383   2.387  10.643 -0.3184  0.8978 -0.3542
 5929SOL    HW229250   2.306   2.457  10.757  1.3369  1.4531  0.8401
 5930SOL     OW29251   0.624   1.325  12.538  0.0740  0.3081  0.4784
 5930SOL    HW129252   0.616   1.235  12.506 -2.9049  0.7642 -0.0191
 5930SOL    HW229253   0.549   1.372  12.503 -0.0894  0.9589  1.7024
 5931SOL     OW29254   3.204   1.857  13.439 -0.5025 -0.0988 -0.3935
 5931SOL    HW129255   3.250   1.941  13.441  0.6318 -0.8034  3.8408
 5931SOL    HW229256   3.125   1.895  13.400 -1.3527 -0.5731  0.8431
 5932SOL     OW29257   2.691   1.240   4.750 -0.2337 -0.3575 -0.1553
 5932SOL    HW129258   2.650   1.271   4.668 -1.1079  0.7639  0.7029
 5932SOL    HW229259   2.709   1.327   4.786  0.2513  0.0524 -1.3863
 5933SOL     OW29260   1.002   3.849   0.043  0.2094 -0.6218 -0.5816
 5933SOL    HW129261   0.961   3.807  17.667  0.6717 -0.9515 -0.6455
 5933SOL    HW229262   1.079   3.894   0.007  0.5494  0.7124  1.7796
 5934SOL     OW29263   2.056   0.812   6.244 -0.7397 -0.2120 -0.5250
 5934SOL    HW129264   2.095   0.794   6.158 -1.2670 -0.7037 -0.6613
 5934SOL    HW229265   2.039   0.906   6.248 -1.4932 -0.4483  1.4489
 5935SOL     OW29266   2.725   3.852   5.409  0.0363  0.3349 -0.3663
 5935SOL    HW129267   2.654   3.797   5.442 -1.1499  1.2003 -1.5137
 5935SOL    HW229268   2.706   3.938   5.447  2.3938  0.4266  0.6144
 5936SOL     OW29269   0.833   0.506   6.694  0.4395 -0.3049 -0.6703
 5936SOL    HW129270   0.739   0.510   6.676 -0.0415 -1.9098  1.5753
 5936SOL    HW229271   0.867   0.568   6.630  0.1919  2.6466  2.0599
 5937SOL     OW29272   1.905   2.741   0.283 -0.1077 -0.3058  0.9467
 5937SOL    HW129273   1.956   2.813   0.247  0.2150 -0.3238  1.3664
 5937SOL    HW229274   1.919   2.672   0.218 -0.9462  0.3175  0.1157
 5938SOL     OW29275   4.576   0.042   5.846  0.0447  0.4856 -0.4897
 5938SOL    HW129276   4.555   0.013   5.935  1.4464 -0.9528 -0.6237
 5938SOL    HW229277   4.586   0.137   5.850 -0.9904  0.6047 -0.7133
 5939SOL     OW29278   1.414   1.667   3.063  0.0494  0.1368  0.3104
 5939SOL    HW129279   1.456   1.742   3.020  1.1474 -0.9360 -0.5070
 5939SOL    HW229280   1.484   1.636   3.121 -0.9210 -1.3222  0.7022
 5940SOL     OW29281   3.711   3.100   5.494 -0.4165 -0.3959 -0.1810
 5940SOL    HW129282   3.644   3.056   5.547  1.0067  0.0793  1.9904
 5940SOL    HW229283   3.739   3.174   5.547  2.4597 -2.0666  0.6299
 5941SOL     OW29284   3.042   1.860   3.449  0.8287 -0.2771 -0.1558
 5941SOL    HW129285   3.041   1.946   3.491  2.5701  0.2440 -1.1764
 5941SOL    HW229286   2.951   1.850   3.423  0.9413  0.5115 -0.8457
 5942SOL     OW29287   4.490   3.982   8.157  0.5307 -0.2256  0.3088
 5942SOL    HW129288   4.479   4.044   8.084  0.6811 -0.5088  0.0470
 5942SOL    HW229289   4.506   4.044   8.228  0.8765 -0.9925  0.8853
 5943SOL     OW29290   2.820   3.351   1.820 -0.4336  0.2470  0.4901
 5943SOL    HW129291   2.805   3.272   1.873 -0.3541 -0.8389 -1.1057
 5943SOL    HW229292   2.774   3.332   1.738 -1.9218  2.4117  0.8367
 5944SOL     OW29293   3.358   1.511   1.969 -0.5233  0.1760 -0.0503
 5944SOL    HW129294   3.271   1.494   1.934 -1.1334 -0.8988  1.9872
 5944SOL    HW229295   3.355   1.441   2.034  0.8122  0.6886  0.5540
 5945SOL     OW29296   0.140   3.219  13.960 -0.2683  0.1269  0.0878
 5945SOL    HW129297   0.125   3.155  14.029  2.3839 -2.2659 -1.5773
 5945SOL    HW229298   0.113   3.295  14.012 -1.4209 -0.8582  0.9391
 5946SOL     OW29299   1.490   2.723   5.042  0.4827 -0.1769  0.3314
 5946SOL    HW129300   1.550   2.783   5.086  0.5160  0.6607 -0.8825
 5946SOL    HW229301   1.414   2.780   5.051  1.4709  0.9696  1.3354
 5947SOL     OW29302   1.601   1.212  16.520  0.4842 -0.2879  0.1188
 5947SOL    HW129303   1.634   1.168  16.598  1.2037 -0.4412 -0.2727
 5947SOL    HW229304   1.666   1.282  16.509 -1.4662  1.4872 -0.0868
 5948SOL     OW29305   2.842   2.615  10.207 -0.8313 -0.1890  0.1634
 5948SOL    HW129306   2.917   2.659  10.168 -0.7562  0.4255  1.0039
 5948SOL    HW229307   2.885   2.531  10.220 -0.6989  0.1846  2.1591
 5949SOL     OW29308   0.976   1.363   3.176  0.2396  0.3306  0.0576
 5949SOL    HW129309   0.961   1.275   3.139 -0.0254  0.8648 -1.0991
 5949SOL    HW229310   1.051   1.393   3.124  1.2795 -1.3891  0.5484
 5950SOL     OW29311   4.493   3.042   3.066  0.3216 -0.1804 -0.6405
 5950SOL    HW129312   4.467   3.052   3.157  0.2617  1.6736 -0.8566
 5950SOL    HW229313   4.548   2.963   3.069 -3.1153 -2.5303  0.2144
 5951SOL     OW29314   3.877   0.110  10.689 -0.5036  0.1010 -0.7548
 5951SOL    HW129315   3.830   0.084  10.769 -0.9073  0.4921 -0.8691
 5951SOL    HW229316   3.883   0.203  10.707 -2.1809  0.3071 -1.2623
 5952SOL     OW29317   1.335   1.222  17.304 -0.2291  0.0722 -0.0008
 5952SOL    HW129318   1.309   1.146  17.357  1.6107 -0.9031 -0.5113
 5952SOL    HW229319   1.338   1.290  17.371 -1.0595  1.0031 -0.9091
 5953SOL     OW29320   1.342   1.778   6.648 -0.5632 -0.2265 -0.3487
 5953SOL    HW129321   1.400   1.844   6.609 -2.6065  1.9566  0.2622
 5953SOL    HW229322   1.260   1.828   6.642 -0.2829  0.2230 -0.4315
 5954SOL     OW29323   4.560   3.342  11.978 -0.2272 -0.1776 -0.3966
 5954SOL    HW129324   4.635   3.289  11.952  0.0818  0.9327 -1.8178
 5954SOL    HW229325   4.592   3.410  12.037 -0.2361  0.4982 -1.1651
 5955SOL     OW29326   2.507   1.419   2.480  0.6436 -0.4181  0.2651
 5955SOL    HW129327   2.437   1.355   2.478  0.7094 -0.5360  1.4811
 5955SOL    HW229328   2.464   1.495   2.519  0.6936 -0.3902  0.2667
 5956SOL     OW29329   0.646   2.507   1.661 -0.1383 -0.3355  0.2498
 5956SOL    HW129330   0.609   2.577   1.716  2.5580  0.2638  1.2853
 5956SOL    HW229331   0.723   2.486   1.713  1.1539  2.3952 -0.5610
 5957SOL     OW29332   2.373   3.218  14.902  0.0609 -0.3209 -0.0678
 5957SOL    HW129333   2.384   3.152  14.834  1.9727 -1.0946  1.0074
 5957SOL    HW229334   2.285   3.241  14.872 -0.4670 -1.5764  0.5171
 5958SOL     OW29335   0.478   0.494   1.972 -0.0267 -0.2649 -0.1839
 5958SOL    HW129336   0.459   0.585   1.997  1.4120  0.1162 -0.4592
 5958SOL    HW229337   0.390   0.468   1.944  0.1418  0.5973 -1.4984
 5959SOL     OW29338   0.432   3.125  14.954  0.0008  0.3718  0.4762
 5959SOL    HW129339   0.461   3.192  15.016 -0.2213  1.6028 -0.7483
 5959SOL    HW229340   0.339   3.144  14.949  0.0426  0.7982  1.3449
 5960SOL     OW29341   3.725   0.402   4.810  0.6147  0.0837  0.3021
 5960SOL    HW129342   3.722   0.485   4.762 -0.0450 -0.0584  0.0897
 5960SOL    HW229343   3.724   0.338   4.739 -1.0771 -1.6228  1.8568
 5961SOL     OW29344   1.300   3.552   8.962 -0.1050  0.1684 -0.2560
 5961SOL    HW129345   1.326   3.598   8.882  1.7501 -0.9607 -0.3052
 5961SOL    HW229346   1.381   3.506   8.984  1.1474  1.2384 -2.5764
 5962SOL     OW29347   0.303   2.616   6.100 -0.2779 -0.2249  0.6138
 5962SOL    HW129348   0.292   2.617   6.195  0.8061  0.2355  0.7320
 5962SOL    HW229349   0.283   2.525   6.075 -0.5618 -0.2456  0.9261
 5963SOL     OW29350   1.018   1.288   2.476 -0.1586 -0.5037 -0.0113
 5963SOL    HW129351   1.094   1.338   2.446 -1.1811  1.8990  1.4060
 5963SOL    HW229352   0.981   1.260   2.392  2.0945 -2.2941 -0.3960
 5964SOL     OW29353   3.242   1.806   7.081  0.0930  0.2711 -0.0089
 5964SOL    HW129354   3.265   1.791   7.173 -1.9129  2.0653  0.7740
 5964SOL    HW229355   3.166   1.749   7.073  0.4702  0.0463 -2.1752
 5965SOL     OW29356   2.802   1.181   2.237  0.1947  0.0716 -0.0323
 5965SOL    HW129357   2.877   1.122   2.234  0.6431  0.6563 -0.4002
 5965SOL    HW229358   2.765   1.154   2.153  1.4191 -0.1472 -0.4971
 5966SOL     OW29359   2.547   1.796   4.706 -0.3664  0.5036 -0.0165
 5966SOL    HW129360   2.625   1.845   4.733 -0.4025 -0.2268  1.4108
 5966SOL    HW229361   2.491   1.871   4.688  0.9231  1.2251 -1.0548
 5967SOL     OW29362   2.098   0.466   8.974 -0.0692  0.1767 -0.2099
 5967SOL    HW129363   2.012   0.429   8.994  0.9310 -2.7221 -1.2030
 5967SOL    HW229364   2.071   0.555   8.953  0.9052  0.4099 -0.4835
 5968SOL     OW29365   2.778   1.730  11.377  0.1381 -0.4955  0.6399
 5968SOL    HW129366   2.719   1.698  11.444  0.4978  2.2253  2.2831
 5968SOL    HW229367   2.866   1.699  11.399  1.8329  1.7279 -2.9173
 5969SOL     OW29368   3.919   0.852  15.241  0.2178  0.1988 -0.1435
 5969SOL    HW129369   3.837   0.873  15.286 -0.3565 -0.2380 -0.9722
 5969SOL    HW229370   3.905   0.889  15.153  1.2271  1.3652  0.1890
 5970SOL     OW29371   1.012   2.920   4.769  0.1462  0.5163 -0.4215
 5970SOL    HW129372   0.922   2.937   4.742 -2.0301 -4.1870  3.7409
 5970SOL    HW229373   1.027   2.826   4.782 -0.6225  0.3290 -0.8623
 5971SOL     OW29374   4.296   1.832   6.724 -0.1722 -0.1587 -0.0843
 5971SOL    HW129375   4.347   1.803   6.799 -1.9349  0.2410  1.2848
 5971SOL    HW229376   4.268   1.746   6.692 -1.4814  0.2109  0.0312
 5972SOL     OW29377   2.397   2.249   8.063 -0.2578 -0.5951  0.3293
 5972SOL    HW129378   2.384   2.290   8.148 -0.9409 -1.6392  0.7268
 5972SOL    HW229379   2.307   2.245   8.030  0.1180  1.0990 -0.9323
 5973SOL     OW29380   0.562   0.563   7.387 -0.5529 -0.1488 -0.1030
 5973SOL    HW129381   0.539   0.589   7.476 -0.3092 -0.3628  0.0194
 5973SOL    HW229382   0.474   0.560   7.349 -1.3622 -2.1138  1.9019
 5974SOL     OW29383   2.790   0.119   4.774  0.8187 -0.1150  0.3450
 5974SOL    HW129384   2.815   0.209   4.794 -0.8796  0.6445 -1.0103
 5974SOL    HW229385   2.714   0.115   4.831  2.4158 -1.4445  2.4009
 5975SOL     OW29386   2.362   3.069   6.299 -0.8003  0.3877 -0.1637
 5975SOL    HW129387   2.351   2.997   6.361 -0.9050  2.7402  2.5803
 5975SOL    HW229388   2.316   3.038   6.221 -2.2966  0.6309  0.6314
 5976SOL     OW29389   3.283   2.142   5.766 -0.4033 -0.3332 -0.1323
 5976SOL    HW129390   3.314   2.151   5.856  0.2029 -1.1394 -0.2552
 5976SOL    HW229391   3.205   2.092   5.790 -0.7730 -0.3698 -1.3990
 5977SOL     OW29392   1.064   3.044  15.507  0.9379 -0.3444  0.1245
 5977SOL    HW129393   1.156   3.021  15.495  0.5885 -0.5646 -2.1112
 5977SOL    HW229394   1.066   3.138  15.488 -0.0147  0.0660  2.0337
 5978SOL     OW29395   1.019   1.559   8.407  0.7192 -0.1209 -0.2920
 5978SOL    HW129396   0.927   1.534   8.414  1.2019 -1.6835  0.2973
 5978SOL    HW229397   1.031   1.565   8.312  0.7468 -0.7198 -0.3205
 5979SOL     OW29398   0.551   3.971   5.519  0.1490  0.3877 -0.0349
 5979SOL    HW129399   0.505   4.025   5.583 -0.3177 -2.6200  2.1665
 5979SOL    HW229400   0.507   3.887   5.513  2.8155 -0.9149 -1.4728
 5980SOL     OW29401   1.659   2.836   2.772 -0.2825  0.4280 -0.0493
 5980SOL    HW129402   1.722   2.884   2.825 -1.4913  2.4137 -0.4192
 5980SOL    HW229403   1.619   2.905   2.719 -0.1314  1.2714  0.9330
 5981SOL     OW29404   1.986   3.003   0.705 -0.2582  0.7243  0.1335
 5981SOL    HW129405   2.058   3.034   0.650 -1.3785  2.2901 -0.4484
 5981SOL    HW229406   1.952   2.933   0.649 -1.5016  2.9691 -1.9107
 5982SOL     OW29407   0.301   4.217   2.140 -0.4859  0.0240 -0.3514
 5982SOL    HW129408   0.353   4.153   2.188  0.1127 -0.0273 -1.0628
 5982SOL    HW229409   0.237   4.250   2.202  0.8690  1.7310  0.1303
 5983SOL     OW29410   3.951   2.183   3.148  0.7568 -0.0642  0.2164
 5983SOL    HW129411   3.936   2.257   3.090 -1.9218  0.7460  1.9189
 5983SOL    HW229412   3.980   2.218   3.232 -0.5912  0.4106  0.4823
 5984SOL     OW29413   2.092   3.091   9.779  0.0434  0.2724  0.0980
 5984SOL    HW129414   2.043   3.173   9.767  0.2312  0.3392 -0.2283
 5984SOL    HW229415   2.035   3.046   9.840  1.0630  0.2345  1.0161
 5985SOL     OW29416   1.880   2.813  12.888 -0.2889  0.1614 -0.3092
 5985SOL    HW129417   1.936   2.751  12.933  0.5759  0.3869 -1.0633
 5985SOL    HW229418   1.835   2.851  12.963 -0.5651 -0.3777 -0.2083
 5986SOL     OW29419   3.117   1.190  14.523 -0.2315 -0.3774  0.4216
 5986SOL    HW129420   3.173   1.126  14.480  1.7158  2.3314 -1.0740
 5986SOL    HW229421   3.190   1.247  14.550  0.1883  0.1997 -1.9895
 5987SOL     OW29422   2.265   2.636  12.259  0.0816  0.2314 -0.2869
 5987SOL    HW129423   2.246   2.698  12.190 -2.6041  3.1955  3.1141
 5987SOL    HW229424   2.339   2.680  12.301 -0.5146  1.0932 -0.1513
 5988SOL     OW29425   2.676   0.250   5.620 -0.4447 -0.2145 -0.0070
 5988SOL    HW129426   2.618   0.311   5.575 -1.6562 -0.6108  1.0282
 5988SOL    HW229427   2.606   0.207   5.668 -2.3211  0.5191 -2.0647
 5989SOL     OW29428   4.026   1.058  16.885 -0.3353  0.0218  0.1103
 5989SOL    HW129429   3.970   0.984  16.909  0.1974 -0.4332 -0.0454
 5989SOL    HW229430   4.096   1.007  16.843  0.3904  1.7296 -0.7797
 5990SOL     OW29431   3.652   1.687   5.063 -0.1004  0.1315  0.5790
 5990SOL    HW129432   3.586   1.640   5.011 -0.0052 -1.5062  1.9250
 5990SOL    HW229433   3.591   1.756   5.091 -2.2936 -1.4600 -0.3031
 5991SOL     OW29434   2.637   2.410   3.174  0.1656  0.3490 -0.0505
 5991SOL    HW129435   2.661   2.465   3.099 -1.5786 -1.2617 -1.7858
 5991SOL    HW229436   2.693   2.440   3.246  1.5778 -0.5399 -0.7751
 5992SOL     OW29437   1.017   4.279  12.915  0.3804 -0.2346  0.8607
 5992SOL    HW129438   0.933   4.319  12.934 -0.4729  0.1336 -3.7788
 5992SOL    HW229439   1.085   4.333  12.956  0.6531 -1.1854  1.6818
 5993SOL     OW29440   0.585   0.013   5.169  0.0854 -0.1538  0.7003
 5993SOL    HW129441   0.569   4.689   5.088 -0.3297 -0.9678  1.2707
 5993SOL    HW229442   0.676   0.042   5.161  0.3477 -0.4887  2.4592
 5994SOL     OW29443   3.692   2.585  11.021  0.2908  0.3148 -0.3221
 5994SOL    HW129444   3.777   2.610  10.983  0.3300  0.5176 -0.0947
 5994SOL    HW229445   3.637   2.615  10.949 -0.3966 -0.6326 -0.1967
 5995SOL     OW29446   3.777   1.817   5.485 -0.0543 -0.3462  0.1762
 5995SOL    HW129447   3.735   1.865   5.557  2.6581  1.6126  0.4188
 5995SOL    HW229448   3.854   1.870   5.467  0.8217 -1.1843  1.4192
 5996SOL     OW29449   3.705   0.521  11.992 -0.1066  0.3289  0.0487
 5996SOL    HW129450   3.687   0.596  12.048 -2.1500  0.5378 -0.9115
 5996SOL    HW229451   3.746   0.459  12.052 -0.2899 -0.3236 -0.4995
 5997SOL     OW29452   2.672   4.002  14.803  0.8109  0.1085 -0.2178
 5997SOL    HW129453   2.663   3.942  14.877 -1.8241 -0.6352 -1.1214
 5997SOL    HW229454   2.737   4.063  14.836 -0.0320  1.8967 -1.8867
 5998SOL     OW29455   1.152   1.041  10.499 -0.6762 -0.1667 -0.1082
 5998SOL    HW129456   1.122   0.965  10.548  2.2481 -0.1645  1.7238
 5998SOL    HW229457   1.108   1.101  10.559  1.5286  0.4198  0.9463
 5999SOL     OW29458   2.714   3.637   8.872 -0.4336 -0.0129 -0.3480
 5999SOL    HW129459   2.746   3.547   8.870 -0.5146 -0.0604  0.3635
 5999SOL    HW229460   2.646   3.628   8.805 -0.2240 -1.9048 -0.3095
 6000SOL     OW29461   2.202   4.518   8.650  0.1982 -0.1747 -0.2830
 6000SOL    HW129462   2.241   4.598   8.686  1.5439 -0.1257 -1.8724
 6000SOL    HW229463   2.148   4.479   8.719  1.0823 -2.0791 -0.6779
 6001SOL     OW29464   1.588   2.046   8.988  0.0360 -0.1546 -0.0150
 6001SOL    HW129465   1.511   2.075   8.939 -0.1301 -1.9913 -0.8132
 6001SOL    HW229466   1.548   1.984   9.048  1.7763 -0.3257  0.9723
 6002SOL     OW29467   3.052   2.725  10.081  0.2578 -0.2470 -0.4246
 6002SOL    HW129468   3.118   2.788  10.108 -1.7818  0.8989  1.8188
 6002SOL    HW229469   3.098   2.678  10.011  2.5540 -0.3284  1.1259
 6003SOL     OW29470   1.022   0.048   9.548 -0.1707 -0.3269 -0.2887
 6003SOL    HW129471   1.071   0.109   9.603  0.1802 -0.5127 -0.3937
 6003SOL    HW229472   1.028   0.102   9.469 -1.3163  1.0717  0.5825
 6004SOL     OW29473   3.045   3.096   8.112 -0.0744 -0.7410  0.1218
 6004SOL    HW129474   3.094   3.168   8.151 -3.1140  1.5519 -0.2454
 6004SOL    HW229475   2.963   3.108   8.161 -0.4872  0.8382 -0.9428
 6005SOL     OW29476   4.088   2.224  17.264  0.0628 -0.5265  0.4794
 6005SOL    HW129477   4.089   2.137  17.303 -0.3962  0.7689  3.3455
 6005SOL    HW229478   4.076   2.280  17.341 -0.3648 -1.0458  0.7916
 6006SOL     OW29479   1.365   4.651   1.684 -0.3535  0.0815  0.9187
 6006SOL    HW129480   1.305   4.720   1.656 -1.2642 -1.3486 -0.6736
 6006SOL    HW229481   1.451   4.692   1.696 -1.0606  1.7624  0.1990
 6007SOL     OW29482   1.751   3.101   9.967  0.3793 -0.1420  0.0505
 6007SOL    HW129483   1.774   3.052   9.888  2.4291  0.0130  0.5568
 6007SOL    HW229484   1.657   3.079   9.970  0.1489  0.5913 -1.7628
 6008SOL     OW29485   4.681   3.702   2.733  0.6347 -0.0335 -0.0732
 6008SOL    HW129486   4.715   3.782   2.693  0.0622  0.3616  0.2316
 6008SOL    HW229487   0.022   3.633   2.723  0.7695  0.1538 -0.4657
 6009SOL     OW29488   0.034   1.397   8.774  0.3263  0.1722 -0.5774
 6009SOL    HW129489   0.111   1.422   8.725  1.1546  1.2636  1.2639
 6009SOL    HW229490   0.080   1.378   8.856  0.3400  2.7415  0.0212
 6010SOL     OW29491   2.502   0.163  16.105  0.3427 -0.0588 -0.4421
 6010SOL    HW129492   2.563   0.120  16.165 -1.4883 -1.2018  0.5873
 6010SOL    HW229493   2.534   0.253  16.117  1.4483 -0.7476  1.6413
 6011SOL     OW29494   0.201   0.529   0.395  0.0656  0.0178  0.4226
 6011SOL    HW129495   0.199   0.538   0.490 -1.1012 -0.2703  0.4216
 6011SOL    HW229496   0.239   0.442   0.385 -0.3486 -0.0279 -0.8141
 6012SOL     OW29497   0.345   3.634   3.618  0.1899  0.4612 -0.3937
 6012SOL    HW129498   0.338   3.684   3.537  1.2686  0.0458 -0.7421
 6012SOL    HW229499   0.268   3.671   3.661  0.8669 -0.6548  1.7490
 6013SOL     OW29500   1.523   2.054   0.371 -0.0653 -0.3431 -0.0525
 6013SOL    HW129501   1.552   1.977   0.321 -3.8516 -1.0130 -1.1820
 6013SOL    HW229502   1.614   2.079   0.389 -0.5379  0.0069  1.7709
 6014SOL     OW29503   2.747   2.783  11.088 -0.6269  0.9066  0.1911
 6014SOL    HW129504   2.807   2.856  11.071 -0.7443  0.8800 -0.3446
 6014SOL    HW229505   2.670   2.815  11.040 -1.0733  0.5033  0.6459
 6015SOL     OW29506   2.263   0.969   8.416 -0.2894  0.7193 -0.1864
 6015SOL    HW129507   2.304   0.984   8.331  3.2584  0.0086  1.3624
 6015SOL    HW229508   2.311   1.033   8.468 -1.7347  0.9694  0.8291
 6016SOL     OW29509   2.571   4.109   5.162  0.1918  0.1731  0.5104
 6016SOL    HW129510   2.612   4.128   5.247 -0.9787  1.9010  0.6633
 6016SOL    HW229511   2.533   4.193   5.138  2.1372  1.1357  0.7685
 6017SOL     OW29512   1.819   3.673   1.864  0.4584 -0.1542 -0.5727
 6017SOL    HW129513   1.794   3.594   1.817 -2.6934  0.2782  0.3397
 6017SOL    HW229514   1.887   3.713   1.810  0.3827  0.2622 -0.3563
 6018SOL     OW29515   0.534   2.515   2.932 -0.4749  0.2591 -0.2548
 6018SOL    HW129516   0.524   2.558   3.017  0.1447  0.3820 -0.2402
 6018SOL    HW229517   0.462   2.453   2.925 -1.2570  1.1644 -0.1664
 6019SOL     OW29518   0.475   0.570  13.928  0.4038 -0.4918 -0.5816
 6019SOL    HW129519   0.523   0.652  13.939  0.6069 -0.6136 -0.5625
 6019SOL    HW229520   0.425   0.589  13.848  0.1913  2.0374  0.1603
 6020SOL     OW29521   4.208   2.841   3.217  0.5051  0.0078 -0.3541
 6020SOL    HW129522   4.210   2.899   3.140 -0.3275  0.2613 -0.1852
 6020SOL    HW229523   4.297   2.861   3.248 -0.5529  1.5518  1.7532
 6021SOL     OW29524   0.126   2.719  11.076 -0.4197  0.5329 -0.3860
 6021SOL    HW129525   0.113   2.675  11.160  0.0182 -3.1734 -2.2675
 6021SOL    HW229526   0.220   2.717  11.056 -0.6564  0.0244 -1.4596
 6022SOL     OW29527   1.070   2.621   6.020 -0.3724 -0.0395  0.3528
 6022SOL    HW129528   1.054   2.617   6.114 -1.9964 -0.9416  0.0299
 6022SOL    HW229529   0.981   2.616   5.985  0.1311 -1.8568 -0.6982
 6023SOL     OW29530   1.250   2.808   4.150 -0.6152  0.2695 -0.2830
 6023SOL    HW129531   1.161   2.807   4.186  0.4818  1.2928  2.4928
 6023SOL    HW229532   1.302   2.770   4.221 -0.2665 -1.8945 -1.6930
 6024SOL     OW29533   0.665   4.483   6.337 -0.0709  0.0482 -0.1667
 6024SOL    HW129534   0.701   4.449   6.254 -0.2121  0.1209 -0.2573
 6024SOL    HW229535   0.572   4.476   6.315  0.5947 -2.3004 -2.3186
 6025SOL     OW29536   1.530   2.353   5.947 -0.1368  0.1505 -0.1214
 6025SOL    HW129537   1.572   2.381   6.028  2.4045  1.2932 -1.8374
 6025SOL    HW229538   1.441   2.380   5.969  0.2755  0.8111  0.7409
 6026SOL     OW29539   1.784   4.385   6.577 -0.0907 -0.5815  0.2087
 6026SOL    HW129540   1.702   4.341   6.598  0.4009 -2.2710 -1.4025
 6026SOL    HW229541   1.842   4.317   6.610 -1.8296 -3.1174 -1.9783
 6027SOL     OW29542   2.488   1.453   6.487  0.8991  0.0566  0.1059
 6027SOL    HW129543   2.510   1.538   6.526  2.3724 -0.2142 -0.1275
 6027SOL    HW229544   2.533   1.390   6.542  2.3429 -1.4672 -2.8481
 6028SOL     OW29545   2.862   4.099   3.580 -0.5517  0.7445 -0.3561
 6028SOL    HW129546   2.798   4.029   3.575 -1.0997  1.2320 -0.2219
 6028SOL    HW229547   2.944   4.050   3.578 -0.3231  1.1539 -1.0076
 6029SOL     OW29548   4.263   3.061  14.722  0.1077  0.1927 -0.5869
 6029SOL    HW129549   4.200   3.133  14.719 -1.5932 -1.2912 -0.3436
 6029SOL    HW229550   4.212   2.988  14.758  1.3714 -0.3730  0.0706
 6030SOL     OW29551   1.452   0.259   5.154  0.3502 -0.1262 -0.4858
 6030SOL    HW129552   1.519   0.308   5.202 -1.2257  2.3590 -0.8615
 6030SOL    HW229553   1.396   0.233   5.227 -0.4317 -0.1104 -1.0832
 6031SOL     OW29554   1.402   0.590  11.649 -0.0478  0.0747 -0.2749
 6031SOL    HW129555   1.366   0.512  11.606 -1.0025  1.1654 -1.4746
 6031SOL    HW229556   1.349   0.661  11.612 -3.2241 -0.9493  2.3638
 6032SOL     OW29557   1.481   3.752  14.596  0.5007 -0.0282 -0.6892
 6032SOL    HW129558   1.576   3.745  14.586  0.5214 -0.2060 -0.3846
 6032SOL    HW229559   1.468   3.702  14.677  1.8954  1.5179  0.4882
 6033SOL     OW29560   0.733   0.495   7.922  0.4573  0.2321 -0.0053
 6033SOL    HW129561   0.727   0.399   7.914  0.6897  0.1461  0.8792
 6033SOL    HW229562   0.757   0.517   7.832 -2.4805 -1.3105 -1.1967
 6034SOL     OW29563   1.466   3.566   3.179  0.2393  0.0804 -0.0927
 6034SOL    HW129564   1.377   3.594   3.204 -0.1900 -1.2311 -0.1669
 6034SOL    HW229565   1.439   3.495   3.121  0.5063  1.2189 -1.5907
 6035SOL     OW29566   0.934   0.417   5.673  0.1468  0.3045 -0.1596
 6035SOL    HW129567   0.876   0.380   5.740 -1.3687 -1.5294 -2.5022
 6035SOL    HW229568   0.996   0.464   5.729  0.1448  0.0493  0.0565
 6036SOL     OW29569   0.016   3.067  17.038  0.0075 -0.1907  0.4586
 6036SOL    HW129570   4.712   3.145  16.989  1.4515  0.8231  1.2089
 6036SOL    HW229571   4.684   2.999  17.002  0.2644  0.2722 -0.8456
 6037SOL     OW29572   4.662   4.408   4.237 -0.1004 -0.0307  0.3323
 6037SOL    HW129573   4.671   4.501   4.221  1.6832 -0.3111 -0.2383
 6037SOL    HW229574   4.690   4.403   4.329  3.5674 -1.0614 -0.8603
 6038SOL     OW29575   0.067   3.632   2.255 -0.0317  0.3653  0.7375
 6038SOL    HW129576   0.027   3.639   2.342 -2.7723  2.1683 -0.6754
 6038SOL    HW229577   0.021   3.559   2.213 -0.2071 -0.5019  2.4420
 6039SOL     OW29578   3.632   0.110   5.114 -0.2960 -0.2883  0.5513
 6039SOL    HW129579   3.628   0.204   5.095  1.3674 -0.1350  0.9414
 6039SOL    HW229580   3.575   0.080   5.043  0.2570  1.3081 -0.5814
 6040SOL     OW29581   3.543   4.394   1.519  0.1391 -0.2128 -0.0075
 6040SOL    HW129582   3.598   4.445   1.579  2.2277 -1.4917 -0.8582
 6040SOL    HW229583   3.610   4.333   1.490 -1.2933 -0.6233 -2.4776
 6041SOL     OW29584   2.741   2.178   7.833  0.1484 -0.4354  0.8900
 6041SOL    HW129585   2.785   2.263   7.837 -0.7879  0.0228  1.4714
 6041SOL    HW229586   2.667   2.186   7.773  0.8337 -0.3666  0.0415
 6042SOL     OW29587   2.019   2.916   1.795  0.0832  0.0495  0.0889
 6042SOL    HW129588   2.083   2.845   1.799  0.4777  0.3181 -1.5574
 6042SOL    HW229589   2.069   2.995   1.816  0.0159  0.4971 -1.4100
 6043SOL     OW29590   0.127   1.290  13.696  0.0648  0.9326 -0.4112
 6043SOL    HW129591   0.054   1.319  13.750  0.5093  1.3330 -0.0296
 6043SOL    HW229592   0.102   1.334  13.614 -0.7080 -0.1815 -0.7710
 6044SOL     OW29593   2.249   4.652   7.369  0.1968  0.5431 -0.3845
 6044SOL    HW129594   2.202   4.617   7.445  1.3814 -2.1669 -0.8718
 6044SOL    HW229595   2.340   4.644   7.396 -0.0183 -0.6401 -0.0172
 6045SOL     OW29596   4.177   1.176  16.302 -0.1055  0.6725  0.9782
 6045SOL    HW129597   4.251   1.196  16.244  1.1643  2.3711  3.1583
 6045SOL    HW229598   4.157   1.265  16.330 -0.6085  0.3615  1.6057
 6046SOL     OW29599   2.145   2.139   3.660 -0.1545  0.5045 -0.3445
 6046SOL    HW129600   2.081   2.176   3.599 -0.6568  2.9802  1.6920
 6046SOL    HW229601   2.204   2.089   3.604 -2.0549 -1.0429 -0.9525
 6047SOL     OW29602   4.236   3.557  16.785  0.2410 -0.5661 -0.3292
 6047SOL    HW129603   4.325   3.559  16.751  0.5109  1.0278  0.4951
 6047SOL    HW229604   4.206   3.485  16.728  0.7721 -1.0017 -0.0540
 6048SOL     OW29605   1.022   1.082   9.536 -0.4344 -0.3200  0.5446
 6048SOL    HW129606   0.993   1.121   9.453 -0.3493  0.9084  1.0832
 6048SOL    HW229607   1.016   0.990   9.511  1.1339 -0.1878 -0.3628
 6049SOL     OW29608   0.630   3.422   4.406 -0.1627  0.0401  0.0932
 6049SOL    HW129609   0.681   3.391   4.480  0.4403  2.0562  0.5133
 6049SOL    HW229610   0.634   3.517   4.411 -1.1391  0.0426  0.7552
 6050SOL     OW29611   0.793   1.332   2.628  0.2167  0.3526 -0.2473
 6050SOL    HW129612   0.822   1.366   2.713  1.1411  3.5191 -1.8151
 6050SOL    HW229613   0.875   1.338   2.578  1.0504 -3.3350  0.7063
 6051SOL     OW29614   2.662   4.039   2.942 -0.0424 -0.1878 -0.2663
 6051SOL    HW129615   2.575   4.079   2.937 -0.4932 -1.6008 -3.9869
 6051SOL    HW229616   2.719   4.116   2.936  2.4128 -1.9964  0.1992
 6052SOL     OW29617   4.184   4.051   8.728  0.2756 -0.2098 -0.1221
 6052SOL    HW129618   4.174   4.015   8.640 -0.4982 -0.9049  0.2530
 6052SOL    HW229619   4.124   4.125   8.715  2.0065  1.4693  1.5226
 6053SOL     OW29620   2.913   1.556  13.671  0.1092 -0.0868  0.1656
 6053SOL    HW129621   2.913   1.635  13.726 -2.4884 -2.0716  2.9917
 6053SOL    HW229622   2.852   1.572  13.599  2.1825  0.8435 -1.3920
 6054SOL     OW29623   0.789   0.918  10.109  0.5777 -0.0209 -0.4227
 6054SOL    HW129624   0.848   0.967  10.052 -0.2467  1.2390 -0.1895
 6054SOL    HW229625   0.801   0.982  10.178 -2.1469  1.0379 -0.9069
 6055SOL     OW29626   0.832   4.612  16.803  0.0162 -0.1184  0.2717
 6055SOL    HW129627   0.786   4.553  16.743  1.3883 -1.8491  0.8990
 6055SOL    HW229628   0.759   4.669  16.827  0.9410  1.9834 -1.9519
 6056SOL     OW29629   4.555   0.950   7.211 -0.0884 -0.1792 -0.4154
 6056SOL    HW129630   4.624   0.892   7.243  0.0780  0.9031  1.1470
 6056SOL    HW229631   4.584   1.035   7.242 -0.8353  0.7580 -2.3349
 6057SOL     OW29632   2.549   2.803   5.954 -0.5289  0.6330  0.2626
 6057SOL    HW129633   2.579   2.768   5.871  0.2229  2.7518 -0.3721
 6057SOL    HW229634   2.548   2.898   5.938  1.9191  0.8996  1.8089
 6058SOL     OW29635   2.757   2.230   3.648 -0.3987  0.0825  0.1524
 6058SOL    HW129636   2.762   2.316   3.607 -1.2135 -0.3257 -0.7908
 6058SOL    HW229637   2.704   2.260   3.722  2.5517  0.0996  2.2363
 6059SOL     OW29638   0.585   1.771   1.525 -0.6753  0.3489 -0.1001
 6059SOL    HW129639   0.664   1.758   1.577 -0.0246  0.8177 -0.9656
 6059SOL    HW229640   0.611   1.857   1.490 -0.7023  0.2127 -0.4547
 6060SOL     OW29641   1.721   2.236   2.689  0.0746 -0.0835 -0.3777
 6060SOL    HW129642   1.765   2.246   2.773 -0.7847 -1.4242  0.2453
 6060SOL    HW229643   1.686   2.323   2.672 -1.0975 -0.8403 -1.9219
 6061SOL     OW29644   2.085   1.673  16.171  0.1183 -0.1083  0.3106
 6061SOL    HW129645   2.176   1.662  16.200  0.2088 -0.2254 -0.0230
 6061SOL    HW229646   2.095   1.725  16.091  0.9618  0.5020  0.8042
 6062SOL     OW29647   2.219   4.587   4.880 -0.3691 -0.0859  0.0075
 6062SOL    HW129648   2.191   4.669   4.840  2.5730  0.5720 -0.7620
 6062SOL    HW229649   2.188   4.604   4.968 -0.9758  1.6213 -0.5311
 6063SOL     OW29650   2.457   2.537   8.343 -0.0759 -0.0394  0.1721
 6063SOL    HW129651   2.391   2.600   8.374 -1.8762 -0.7696 -2.1811
 6063SOL    HW229652   2.403   2.460   8.324 -1.5635  1.0265  0.0948
 6064SOL     OW29653   2.656   4.455  11.967 -0.5107 -0.1086 -0.6994
 6064SOL    HW129654   2.705   4.505  11.901  1.4498 -2.0602 -0.7225
 6064SOL    HW229655   2.657   4.513  12.043 -0.7396  2.0267 -2.3151
 6065SOL     OW29656   2.070   3.310  11.449  0.8520  0.0895  0.8205
 6065SOL    HW129657   2.054   3.316  11.543 -1.1903  1.3549  0.4078
 6065SOL    HW229658   1.982   3.324  11.412  1.1584 -0.1262  0.0182
 6066SOL     OW29659   0.381   0.533   8.460  0.1109  0.1238 -0.0937
 6066SOL    HW129660   0.477   0.538   8.460  0.0680  1.2886 -2.4519
 6066SOL    HW229661   0.354   0.442   8.449  0.6207  0.1421 -1.5706
 6067SOL     OW29662   0.239   4.525   4.312 -0.7591  0.2631  0.3271
 6067SOL    HW129663   0.335   4.517   4.318 -0.8677 -1.0027  0.3100
 6067SOL    HW229664   0.213   4.591   4.376 -1.4138  1.0002 -0.6984
 6068SOL     OW29665   2.040   2.589   7.529  0.2104 -0.4185  0.7133
 6068SOL    HW129666   1.993   2.653   7.475  1.8264 -0.5937 -0.9168
 6068SOL    HW229667   2.010   2.618   7.615  2.9199  2.1127  0.7889
 6069SOL     OW29668   2.569   0.963   2.498 -0.0472 -0.0199 -0.6191
 6069SOL    HW129669   2.504   0.984   2.566 -0.6596 -2.1810 -0.5245
 6069SOL    HW229670   2.510   0.989   2.426 -1.6543  0.1072  0.7389
 6070SOL     OW29671   1.823   4.085   3.370 -0.2593  0.0725  0.2663
 6070SOL    HW129672   1.850   4.037   3.448  0.0611 -0.1377  0.0279
 6070SOL    HW229673   1.790   4.167   3.407 -1.1941 -1.0484  1.9115
 6071SOL     OW29674   0.089   1.440  12.130 -0.2676  0.2275 -0.1646
 6071SOL    HW129675   0.022   1.508  12.116  0.4458  0.7901 -0.8106
 6071SOL    HW229676   0.146   1.463  12.057  1.2593 -0.1356  0.9202
 6072SOL     OW29677   0.541   1.081   4.856  0.0256  0.3312 -0.5181
 6072SOL    HW129678   0.571   1.172   4.862 -1.4310  0.7470  0.6068
 6072SOL    HW229679   0.456   1.095   4.898  0.0432 -1.6749  0.1860
 6073SOL     OW29680   1.846   1.430   5.384  0.4528 -0.5453  0.0616
 6073SOL    HW129681   1.793   1.418   5.306  1.4296 -0.3141 -0.6341
 6073SOL    HW229682   1.886   1.343   5.387 -1.9053 -1.5679  1.6833
 6074SOL     OW29683   1.912   0.546   7.121  0.1830  0.0392 -0.9433
 6074SOL    HW129684   1.888   0.552   7.214 -2.5430 -1.6008 -1.5293
 6074SOL    HW229685   1.979   0.479   7.134  0.0095 -0.4889 -2.8307
 6075SOL     OW29686   0.238   2.356   6.093  0.0555 -0.2500 -0.7631
 6075SOL    HW129687   0.163   2.340   6.150  1.7244 -1.2326  1.1585
 6075SOL    HW229688   0.206   2.323   6.009  0.7619 -0.9327 -0.7578
 6076SOL     OW29689   4.150   1.708   5.726  0.2103  0.4168  0.5469
 6076SOL    HW129690   4.067   1.670   5.695  1.2837 -1.3942 -0.1024
 6076SOL    HW229691   4.204   1.705   5.647 -0.8868 -1.5128 -0.1495
 6077SOL     OW29692   1.962   0.490   8.171 -0.1890  0.3934  0.2442
 6077SOL    HW129693   2.050   0.500   8.207  1.0328 -3.4058 -1.7621
 6077SOL    HW229694   1.931   0.407   8.207  1.7979 -0.8628 -1.0019
 6078SOL     OW29695   2.750   0.254   8.260  0.1750  0.6151 -0.5221
 6078SOL    HW129696   2.775   0.204   8.337  1.3789  0.8208 -0.7799
 6078SOL    HW229697   2.748   0.347   8.285 -0.0723  1.2547 -2.9327
 6079SOL     OW29698   4.015   3.111  12.843  0.3103 -0.0888 -0.7318
 6079SOL    HW129699   4.098   3.157  12.852  0.9615 -1.3560 -0.3069
 6079SOL    HW229700   3.977   3.160  12.770  0.2853  1.0123  0.0121
 6080SOL     OW29701   0.220   1.224  11.220  0.3392  0.0594 -0.1360
 6080SOL    HW129702   0.299   1.196  11.173  0.2850 -1.6038  0.7657
 6080SOL    HW229703   0.261   1.265  11.295  0.0150  1.9949 -1.0200
 6081SOL     OW29704   2.538   3.348  15.077  0.0267 -0.1123 -0.4586
 6081SOL    HW129705   2.475   3.320  15.010 -3.7486  0.6619  2.7079
 6081SOL    HW229706   2.569   3.263  15.108 -1.8624 -0.4906  0.3930
 6082SOL     OW29707   1.666   1.845   5.496 -0.0604 -0.6377  0.0486
 6082SOL    HW129708   1.579   1.810   5.515  0.8389 -3.4558 -0.9593
 6082SOL    HW229709   1.656   1.880   5.407  0.3064 -0.8819 -0.0906
 6083SOL     OW29710   2.771   4.667   2.842  0.0101 -0.4578  0.3271
 6083SOL    HW129711   2.684   4.699   2.863 -1.0670 -2.2323 -1.4465
 6083SOL    HW229712   2.832   4.717   2.897 -0.1854  0.7960 -0.6084
 6084SOL     OW29713   3.580   4.594  17.610 -0.0632  0.2906 -0.0182
 6084SOL    HW129714   3.627   4.674  17.584  0.4233  1.1876  3.5848
 6084SOL    HW229715   3.645   4.544  17.659 -1.2845 -1.4284 -0.1621
 6085SOL     OW29716   1.088   0.108  11.679 -0.1659 -0.3808 -0.2058
 6085SOL    HW129717   1.098   0.033  11.621  0.9838 -0.3280 -0.0735
 6085SOL    HW229718   1.010   0.089  11.731  0.1060 -0.4752  0.1672
 6086SOL     OW29719   2.646   1.049   2.973 -0.1145 -0.2066  0.0912
 6086SOL    HW129720   2.700   1.126   2.991 -0.3825 -0.0140  0.0734
 6086SOL    HW229721   2.577   1.070   2.910 -0.1333  0.5522  0.3717
 6087SOL     OW29722   3.512   3.832   0.051 -0.4137 -0.3115  0.3178
 6087SOL    HW129723   3.561   3.900   0.004 -1.6651  0.3277 -0.0829
 6087SOL    HW229724   3.428   3.877   0.062  0.5334  1.2494  1.0832
 6088SOL     OW29725   1.302   3.159   4.283 -0.2045  0.1653  0.1946
 6088SOL    HW129726   1.312   3.102   4.359 -1.4392  1.4519  1.3239
 6088SOL    HW229727   1.385   3.207   4.275  0.3876 -0.3515  3.2014
 6089SOL     OW29728   2.566   4.414   0.500  0.2171  0.2486 -0.1049
 6089SOL    HW129729   2.543   4.321   0.490 -0.8650  0.4707  0.3257
 6089SOL    HW229730   2.635   4.412   0.433  1.0209  2.0773  0.6663
 6090SOL     OW29731   2.259   1.036  12.326 -0.2775  0.3392  0.3353
 6090SOL    HW129732   2.311   1.012  12.403  1.4445 -1.1916 -1.2918
 6090SOL    HW229733   2.284   1.128  12.321 -1.4663  0.6467  0.2000
 6091SOL     OW29734   3.725   0.338   6.935  0.1466 -0.1246 -0.7669
 6091SOL    HW129735   3.652   0.326   6.874  1.1993  0.4816 -2.1359
 6091SOL    HW229736   3.681   0.362   7.017  1.5906  1.3460 -0.4160
 6092SOL     OW29737   1.460   1.521  10.756  0.8900 -0.0356  0.2047
 6092SOL    HW129738   1.480   1.598  10.703 -0.8137 -1.2531 -2.2599
 6092SOL    HW229739   1.377   1.497  10.713  1.0041  1.1369 -0.6632
 6093SOL     OW29740   3.215   4.264   3.290  0.5583 -0.0156  0.2208
 6093SOL    HW129741   3.153   4.282   3.361  2.0511  0.2949  1.4432
 6093SOL    HW229742   3.296   4.302   3.323  0.1498 -0.8323  2.1533
 6094SOL     OW29743   4.454   0.597   2.476 -0.3847 -0.2273  0.5075
 6094SOL    HW129744   4.536   0.548   2.485  0.5628  1.5620  1.8169
 6094SOL    HW229745   4.391   0.530   2.501  1.3539 -1.5250  1.4053
 6095SOL     OW29746   2.531   1.872  15.245  0.3488 -0.2132  0.5253
 6095SOL    HW129747   2.521   1.932  15.171 -1.9969  0.6983  1.5883
 6095SOL    HW229748   2.464   1.809  15.220 -0.2777  0.8487 -0.4900
 6096SOL     OW29749   4.335   0.546   3.142 -0.3885  0.7388  0.1243
 6096SOL    HW129750   4.330   0.494   3.222  1.6841  1.3428  0.6557
 6096SOL    HW229751   4.243   0.572   3.139 -0.9290 -1.1107  0.1599
 6097SOL     OW29752   0.707   0.257  11.740  0.1700 -0.6152 -0.6715
 6097SOL    HW129753   0.663   0.305  11.810  1.1319 -0.6215 -0.0745
 6097SOL    HW229754   0.776   0.208  11.785  0.5846 -1.4328 -2.1937
 6098SOL     OW29755   0.457   3.233   7.034 -0.7647  0.0176  0.1363
 6098SOL    HW129756   0.400   3.269   6.967 -0.3878  0.7120  0.1917
 6098SOL    HW229757   0.393   3.234   7.105  1.0199  0.2654  1.7619
 6099SOL     OW29758   3.344   2.350  14.457 -0.1307  0.5817 -0.0918
 6099SOL    HW129759   3.322   2.388  14.542 -0.4731 -0.9142  0.4716
 6099SOL    HW229760   3.413   2.408  14.422  1.0641 -1.2645 -0.7874
 6100SOL     OW29761   3.615   0.839   2.027  0.0630 -0.6780  0.1275
 6100SOL    HW129762   3.644   0.924   1.994 -3.6377  0.4576 -0.1558
 6100SOL    HW229763   3.664   0.782   1.967  0.5176  0.2572 -0.3922
 6101SOL     OW29764   4.211   3.542  12.675  0.0295  0.1556 -0.6744
 6101SOL    HW129765   4.305   3.561  12.677 -0.1163  0.8416 -0.3460
 6101SOL    HW229766   4.178   3.591  12.600 -0.4131 -0.2455 -0.7437
 6102SOL     OW29767   0.800   3.293   4.594  0.0026 -0.6954 -0.2763
 6102SOL    HW129768   0.864   3.251   4.651 -0.0029 -0.1505  0.1315
 6102SOL    HW229769   0.831   3.255   4.512  0.4772 -1.5030  0.2767
 6103SOL     OW29770   2.893   3.501  10.096 -0.1643 -0.0594  0.0906
 6103SOL    HW129771   2.878   3.565  10.026  2.1025 -0.9206 -1.1917
 6103SOL    HW229772   2.892   3.418  10.050  2.4889  0.2437 -0.5387
 6104SOL     OW29773   0.523   4.036  11.676  0.3326 -0.3188 -0.6460
 6104SOL    HW129774   0.537   3.948  11.710  0.0668  0.5547  1.7666
 6104SOL    HW229775   0.581   4.037  11.600  0.0629  2.1631 -0.8285
 6105SOL     OW29776   0.191   1.422   8.558 -0.6480 -0.3826 -0.6103
 6105SOL    HW129777   0.132   1.371   8.502  1.9877 -3.0726 -0.9559
 6105SOL    HW229778   0.274   1.380   8.536 -0.1424  0.4244 -0.2206
 6106SOL     OW29779   2.914   2.091   1.183  0.6759 -0.5668 -0.6370
 6106SOL    HW129780   2.905   2.046   1.267 -1.8255  3.0319  1.0629
 6106SOL    HW229781   2.867   2.174   1.198  1.8607  0.0012 -0.0274
 6107SOL     OW29782   1.897   3.644   0.053  0.0730 -0.4411  0.3786
 6107SOL    HW129783   1.829   3.699   0.091 -0.5891 -0.7724 -0.3256
 6107SOL    HW229784   1.938   3.601   0.128  1.2742 -0.2094 -0.1370
 6108SOL     OW29785   3.291   0.886   0.900 -0.1214  0.2387 -0.4544
 6108SOL    HW129786   3.234   0.808   0.900  0.4779 -0.1980 -0.6489
 6108SOL    HW229787   3.245   0.954   0.850 -2.0403 -0.8371 -0.1443
 6109SOL     OW29788   4.223   1.045  16.555 -0.6149  0.1687 -0.6587
 6109SOL    HW129789   4.154   1.092  16.602 -0.2731  0.5112 -0.4939
 6109SOL    HW229790   4.217   1.092  16.472  2.6675  1.7820  0.0382
 6110SOL     OW29791   3.097   0.549   0.085  0.0257 -0.0938  0.8784
 6110SOL    HW129792   3.115   0.516  17.696 -2.6695  0.5346  0.0925
 6110SOL    HW229793   3.093   0.643   0.069 -1.2749 -0.0272  1.6459
 6111SOL     OW29794   0.378   1.966   4.189 -0.1266 -0.3709  0.1340
 6111SOL    HW129795   0.306   2.028   4.176  0.0669  0.1116  1.2877
 6111SOL    HW229796   0.373   1.926   4.103 -1.0301 -0.8567  0.4017
 6112SOL     OW29797   2.652   1.099  13.428  0.5339 -0.3161  0.1803
 6112SOL    HW129798   2.642   1.171  13.367  3.5023 -0.8579 -0.9771
 6112SOL    HW229799   2.648   1.142  13.514 -1.5905  2.9677 -1.5761
 6113SOL     OW29800   2.186   1.504   0.890 -0.8637  0.5893 -0.2378
 6113SOL    HW129801   2.184   1.436   0.957 -3.4139 -1.6005 -2.5243
 6113SOL    HW229802   2.115   1.564   0.914 -2.2253 -0.8992 -0.5100
 6114SOL     OW29803   0.916   2.834  16.817  0.0883  0.0124 -0.0855
 6114SOL    HW129804   0.836   2.791  16.786  0.8638 -0.4906 -1.4199
 6114SOL    HW229805   0.908   2.918  16.772 -1.6988 -0.2128 -0.1740
 6115SOL     OW29806   1.983   3.243   7.282 -0.1628 -0.1009  0.0999
 6115SOL    HW129807   2.009   3.334   7.294 -1.0567  0.2502 -0.6538
 6115SOL    HW229808   2.051   3.214   7.220 -0.1781  0.8269 -0.3464
 6116SOL     OW29809   3.295   1.960   8.008  0.2760 -0.1538  0.1972
 6116SOL    HW129810   3.341   2.042   7.994 -0.3814  0.5048  1.9315
 6116SOL    HW229811   3.351   1.914   8.071  0.6484  0.3055  0.2005
 6117SOL     OW29812   0.037   1.691   8.533 -0.5785  0.1850 -0.3364
 6117SOL    HW129813   0.116   1.715   8.485 -0.6821  1.2085  0.0058
 6117SOL    HW229814   0.072   1.654   8.614 -0.2039  1.6233  0.1572
 6118SOL     OW29815   0.442   0.083   4.827  0.3396  0.6962 -0.3218
 6118SOL    HW129816   0.506   0.060   4.893 -1.2586  0.9744  1.3409
 6118SOL    HW229817   0.463   0.024   4.755 -0.4480 -2.3751  1.9526
 6119SOL     OW29818   2.046   4.320   4.418 -0.0213  0.4662 -0.3449
 6119SOL    HW129819   1.961   4.356   4.444  0.8641  2.1728  0.1903
 6119SOL    HW229820   2.064   4.357   4.331 -0.1329 -1.4914 -1.2082
 6120SOL     OW29821   2.018   0.446   6.382 -0.3436 -0.0159  0.0828
 6120SOL    HW129822   2.038   0.404   6.299 -2.0663  1.4903 -1.0827
 6120SOL    HW229823   1.969   0.376   6.424  0.1300 -0.9520 -0.9372
 6121SOL     OW29824   1.105   3.327  15.499 -0.0993 -0.5379  0.2477
 6121SOL    HW129825   1.050   3.378  15.439  0.0662 -1.9134 -1.0876
 6121SOL    HW229826   1.169   3.391  15.530 -0.6440  0.5406 -0.8490
 6122SOL     OW29827   3.224   1.915  17.371  0.7223  0.4547  0.5307
 6122SOL    HW129828   3.308   1.881  17.340 -1.4113 -3.5544 -0.9038
 6122SOL    HW229829   3.249   1.966  17.448 -1.5525 -1.7613  2.7506
 6123SOL     OW29830   2.081   2.351   5.264  0.2099  0.1666 -0.1921
 6123SOL    HW129831   2.002   2.405   5.254 -0.6231 -1.0469 -0.2244
 6123SOL    HW229832   2.060   2.308   5.180  0.2084  0.1569 -0.1868
 6124SOL     OW29833   2.856   0.969  16.943  0.4093 -0.2729  0.0962
 6124SOL    HW129834   2.881   0.891  16.893 -1.0862  0.0492 -1.1527
 6124SOL    HW229835   2.761   0.957  16.938  0.0819  2.3477  0.1477
 6125SOL     OW29836   4.553   0.529   9.449  0.4197  0.2754  0.2651
 6125SOL    HW129837   4.554   0.476   9.369  0.0756  0.7824 -0.0706
 6125SOL    HW229838   4.615   0.473   9.497 -0.2155 -0.7179 -0.0611
 6126SOL     OW29839   3.137   3.229   4.943 -0.1379 -0.0759 -0.3436
 6126SOL    HW129840   3.114   3.243   5.035  2.6199 -2.1283  0.6382
 6126SOL    HW229841   3.147   3.134   4.945  0.6858  0.0478  1.9374
 6127SOL     OW29842   1.125   0.964   2.399  0.2194 -0.1291 -0.3863
 6127SOL    HW129843   1.069   0.945   2.323  3.4714 -5.0976 -1.5683
 6127SOL    HW229844   1.179   1.033   2.359  0.6267  0.2663  0.8611
 6128SOL     OW29845   2.317   2.094  10.788 -0.5187 -0.3167 -0.4409
 6128SOL    HW129846   2.300   2.130  10.701 -1.3144 -2.2889 -1.1053
 6128SOL    HW229847   2.291   2.003  10.773  2.0430 -1.2810  0.9080
 6129SOL     OW29848   0.167   3.534   2.697 -0.7755  0.4519 -0.4489
 6129SOL    HW129849   0.170   3.439   2.696 -2.4958  0.4115 -1.8492
 6129SOL    HW229850   0.172   3.553   2.791 -1.8651 -1.3115 -0.0356
 6130SOL     OW29851   2.676   2.088   8.842 -0.4058 -0.3469 -0.2115
 6130SOL    HW129852   2.761   2.049   8.865  0.3097  2.1651  1.3567
 6130SOL    HW229853   2.645   2.024   8.777  0.4416 -0.9598 -0.0248
 6131SOL     OW29854   3.371   2.064   0.374  0.6619 -0.1395 -0.1020
 6131SOL    HW129855   3.414   2.086   0.456  1.9511 -0.3794 -0.6969
 6131SOL    HW229856   3.415   1.986   0.339  1.2771  0.0983  0.1332
 6132SOL     OW29857   2.230   4.121   3.481 -0.4414  0.2271 -0.6626
 6132SOL    HW129858   2.266   4.051   3.536 -0.0059  0.6595 -0.3841
 6132SOL    HW229859   2.255   4.064   3.409  0.6380  0.3692 -0.4115
 6133SOL     OW29860   3.770   0.240   8.266 -0.4087 -0.1221  0.0321
 6133SOL    HW129861   3.779   0.311   8.202 -1.3616 -1.6384 -1.7821
 6133SOL    HW229862   3.724   0.275   8.342  0.7377 -2.3903  1.7954
 6134SOL     OW29863   1.568   2.501   2.651 -0.1909  0.1644  0.0281
 6134SOL    HW129864   1.561   2.440   2.577  0.5008 -0.2401  0.2974
 6134SOL    HW229865   1.544   2.586   2.613  4.1861  2.3219  2.1201
 6135SOL     OW29866   2.442   4.471   1.799  0.3412  0.9585 -0.4702
 6135SOL    HW129867   2.460   4.379   1.818  0.8052  1.3273  0.8369
 6135SOL    HW229868   2.387   4.461   1.721  0.8757  2.3092 -1.0186
 6136SOL     OW29869   2.350   4.119   6.260 -0.6578 -0.2856 -0.1124
 6136SOL    HW129870   2.378   4.027   6.266 -1.3239 -0.4822  0.0317
 6136SOL    HW229871   2.416   4.163   6.207 -0.2218 -0.6190  0.1551
 6137SOL     OW29872   0.321   3.838   7.920  0.2407  0.0559 -0.0775
 6137SOL    HW129873   0.332   3.932   7.934  2.7347  0.0875 -2.3260
 6137SOL    HW229874   0.227   3.820   7.930  0.4762  0.2812  2.3459
 6138SOL     OW29875   1.734   1.379  11.539  0.2205 -0.1959 -0.2921
 6138SOL    HW129876   1.803   1.353  11.478  1.7620  1.3812  0.7586
 6138SOL    HW229877   1.787   1.403  11.615  0.7209  0.4666 -0.8378
 6139SOL     OW29878   1.689   1.172   2.654 -0.4270 -0.1747  0.1144
 6139SOL    HW129879   1.618   1.230   2.681  1.3954  0.7460  2.8829
 6139SOL    HW229880   1.676   1.169   2.559  0.2107  3.0938 -0.0563
 6140SOL     OW29881   1.908   1.794   5.623  0.2302  0.6778 -0.2929
 6140SOL    HW129882   1.972   1.834   5.564  2.7219 -0.3312  1.7430
 6140SOL    HW229883   1.829   1.840   5.596 -0.6321  0.2058  1.4177
 6141SOL     OW29884   0.689   0.040   9.652 -0.1392  0.3945 -0.1965
 6141SOL    HW129885   0.725   0.036   9.741 -0.7024  0.0964  0.0138
 6141SOL    HW229886   0.602   0.076   9.669  0.2549  0.2272  2.2378
 6142SOL     OW29887   4.226   2.821   6.949  0.3310  0.0210  0.7077
 6142SOL    HW129888   4.320   2.824   6.930  0.4775 -2.2521  1.1578
 6142SOL    HW229889   4.216   2.873   7.029 -1.7440 -1.2788  1.3010
 6143SOL     OW29890   2.748   0.846   3.501  0.4262 -0.3664  0.3551
 6143SOL    HW129891   2.759   0.926   3.450 -0.6226 -0.2920  0.2459
 6143SOL    HW229892   2.708   0.782   3.442  0.4280 -1.1443  1.1932
 6144SOL     OW29893   1.665   1.433   5.176  0.2609  0.0139 -0.1637
 6144SOL    HW129894   1.625   1.501   5.123 -0.9614 -0.0516  0.6790
 6144SOL    HW229895   1.583   1.415   5.221 -0.0438 -0.7362 -1.0045
 6145SOL     OW29896   0.155   0.992   6.234  0.5257 -0.0342 -0.0040
 6145SOL    HW129897   0.169   0.996   6.139 -1.2515 -0.4889 -0.2761
 6145SOL    HW229898   0.066   1.024   6.242  0.7249 -0.0920  2.3310
 6146SOL     OW29899   3.060   0.261   5.565 -0.2707 -0.0364  0.1301
 6146SOL    HW129900   3.004   0.259   5.487 -1.2094  0.9670  0.7890
 6146SOL    HW229901   3.092   0.171   5.557 -1.6866 -0.4460 -0.8050
 6147SOL     OW29902   3.202   1.411  15.573 -0.4651  0.9892  0.1301
 6147SOL    HW129903   3.179   1.503  15.560  0.5091  1.6836  3.4650
 6147SOL    HW229904   3.257   1.415  15.651 -1.5322 -0.7219  0.9615
 6148SOL     OW29905   2.494   2.339   3.471 -0.1663  0.2995 -0.5560
 6148SOL    HW129906   2.586   2.356   3.452  0.3002 -0.5006  0.9497
 6148SOL    HW229907   2.495   2.245   3.452  0.3939  0.5755 -1.9138
 6149SOL     OW29908   0.091   0.282   0.294  0.1439  0.2532  0.4869
 6149SOL    HW129909   0.074   0.201   0.342 -1.8016 -0.5915 -1.6366
 6149SOL    HW229910   0.038   0.340   0.349  1.6920  1.6136  0.5748
 6150SOL     OW29911   3.537   2.248   2.257  0.2086  0.0965  0.2893
 6150SOL    HW129912   3.537   2.226   2.164  0.0769  0.0182  0.3088
 6150SOL    HW229913   3.628   2.230   2.281  0.1690  1.8873  1.8141
 6151SOL     OW29914   2.996   0.391  16.650 -0.1329 -0.0856 -0.2267
 6151SOL    HW129915   2.994   0.460  16.584 -0.7050  1.7159  1.6493
 6151SOL    HW229916   3.075   0.416  16.698  1.2725 -1.7045 -1.6952
 6152SOL     OW29917   0.660   2.198   5.369 -0.4739  0.5542  0.1161
 6152SOL    HW129918   0.687   2.251   5.294  0.2956 -1.8445 -1.3035
 6152SOL    HW229919   0.681   2.258   5.440 -0.0800  1.7750 -1.0304
 6153SOL     OW29920   0.956   3.664   5.489 -0.6514  0.2860 -0.5159
 6153SOL    HW129921   1.009   3.690   5.413 -0.3281  0.2395 -0.3030
 6153SOL    HW229922   0.947   3.752   5.525 -0.2654  0.2426 -0.3192
 6154SOL     OW29923   4.373   2.791   5.460  0.0472  0.0293 -0.1062
 6154SOL    HW129924   4.425   2.866   5.488 -0.4506  0.6104 -0.7448
 6154SOL    HW229925   4.361   2.746   5.544  1.4119  0.4341  0.3012
 6155SOL     OW29926   3.725   2.729   5.949 -0.0172 -0.5217  0.0681
 6155SOL    HW129927   3.680   2.782   6.015  0.2075  0.2684 -0.4062
 6155SOL    HW229928   3.794   2.791   5.926 -0.8530  1.3100  2.5530
 6156SOL     OW29929   4.108   0.961  16.069 -0.0108  0.1108  0.1693
 6156SOL    HW129930   4.154   1.012  16.136  0.8383 -2.4930  1.5677
 6156SOL    HW229931   4.068   0.894  16.123 -0.0665 -0.5478 -0.6940
 6157SOL     OW29932   3.483   2.171  16.682 -0.0819  0.1633  0.5770
 6157SOL    HW129933   3.487   2.127  16.597  0.6714 -1.1130  1.2785
 6157SOL    HW229934   3.487   2.264  16.660 -0.7466  0.1442  0.3618
 6158SOL     OW29935   4.559   2.994  17.609 -0.0032  0.1110  0.8235
 6158SOL    HW129936   4.625   3.008  17.678 -0.4600 -0.1900  1.3279
 6158SOL    HW229937   4.530   2.905  17.631 -0.8433  0.1117 -0.2836
 6159SOL     OW29938   1.624   3.566  10.832  0.1800 -0.1165 -0.2433
 6159SOL    HW129939   1.587   3.608  10.910  3.1271  1.1521  0.4829
 6159SOL    HW229940   1.708   3.539  10.869  0.5076 -0.6078 -1.3529
 6160SOL     OW29941   3.330   4.131   2.622 -0.3082  0.2338  0.7345
 6160SOL    HW129942   3.266   4.196   2.590  0.8108  1.3309  0.7444
 6160SOL    HW229943   3.413   4.178   2.621  0.8930 -1.9248  1.6202
 6161SOL     OW29944   1.081   0.879  14.723  0.3043  0.7994  0.6972
 6161SOL    HW129945   1.026   0.923  14.788 -1.3576  0.2548 -0.3531
 6161SOL    HW229946   1.164   0.864  14.768  1.2988  0.5987 -1.2143
 6162SOL     OW29947   0.506   4.415   5.320 -0.2241  0.1706 -0.5064
 6162SOL    HW129948   0.437   4.457   5.372 -1.9685 -1.4721 -1.5243
 6162SOL    HW229949   0.513   4.478   5.248  0.4297  0.2917 -0.3400
 6163SOL     OW29950   2.950   2.221   6.530  0.1970 -0.0827  0.3189
 6163SOL    HW129951   2.958   2.133   6.566  1.1759 -0.9386 -1.9853
 6163SOL    HW229952   2.987   2.277   6.599  2.1719  0.7072 -1.3999
 6164SOL     OW29953   3.828   1.416  16.260  0.2075 -0.0592 -0.6434
 6164SOL    HW129954   3.829   1.465  16.342 -1.2319 -0.7600 -0.2131
 6164SOL    HW229955   3.903   1.453  16.214  0.6846 -0.6689 -0.3590
 6165SOL     OW29956   2.989   0.449   2.185 -0.2560  0.2419 -0.1901
 6165SOL    HW129957   3.077   0.475   2.211  0.6454 -1.9063 -1.0071
 6165SOL    HW229958   2.973   0.499   2.105 -1.8195  3.0933  1.9102
 6166SOL     OW29959   1.862   1.981  10.462  0.1259 -0.1327  0.3651
 6166SOL    HW129960   1.881   2.074  10.478  1.2061 -0.7224  2.4491
 6166SOL    HW229961   1.768   1.982  10.480  0.0685  1.4670 -0.0163
 6167SOL     OW29962   4.285   1.058   9.059 -0.3616  0.2589  0.0392
 6167SOL    HW129963   4.302   1.151   9.073 -1.2005 -0.0535  3.1378
 6167SOL    HW229964   4.216   1.044   9.124  0.7154  0.0064  1.1302
 6168SOL     OW29965   0.031   1.978   8.257  0.2353 -0.0749  0.0821
 6168SOL    HW129966   0.021   2.054   8.199  0.4028  0.3536  0.6134
 6168SOL    HW229967   0.112   2.002   8.302 -0.8247  0.5348  1.6407
 6169SOL     OW29968   2.388   4.379  15.417 -0.3955  0.3373  0.6965
 6169SOL    HW129969   2.399   4.471  15.439 -0.2632  0.5870 -0.4220
 6169SOL    HW229970   2.295   4.361  15.407 -0.2552  0.5754 -0.9058
 6170SOL     OW29971   3.623   0.857   3.806 -0.5800 -0.3737  0.0113
 6170SOL    HW129972   3.673   0.841   3.886  1.7679  1.1973 -1.1459
 6170SOL    HW229973   3.546   0.800   3.808  0.7483 -2.1556  0.5714
 6171SOL     OW29974   0.726   0.560   2.208 -0.1343  0.1740 -0.3546
 6171SOL    HW129975   0.764   0.475   2.225 -0.6347  0.0413  0.0992
 6171SOL    HW229976   0.674   0.582   2.286  1.0890  0.8561  0.2679
 6172SOL     OW29977   1.723   1.923  15.568 -0.1155 -0.5459 -0.7170
 6172SOL    HW129978   1.712   1.868  15.490  0.4986 -0.7026 -0.6917
 6172SOL    HW229979   1.809   1.888  15.588 -0.4214 -0.7134  0.2798
 6173SOL     OW29980   2.392   2.849   0.385  0.5919 -0.5658 -0.3856
 6173SOL    HW129981   2.400   2.886   0.473 -3.8869 -0.3647 -0.0867
 6173SOL    HW229982   2.364   2.923   0.332 -1.4904  0.4856  2.1707
 6174SOL     OW29983   1.076   0.290   6.194 -0.4615  0.0490  0.6397
 6174SOL    HW129984   1.121   0.248   6.268 -1.7594 -0.4755  1.1336
 6174SOL    HW229985   1.081   0.378   6.230  2.3379  0.0999  0.1509
 6175SOL     OW29986   4.380   2.755   4.505  0.0376  0.3062  0.2491
 6175SOL    HW129987   4.397   2.836   4.456  1.6187  1.8755  3.3404
 6175SOL    HW229988   4.403   2.793   4.590  1.3264  0.4960 -0.1909
 6176SOL     OW29989   2.173   3.933   5.997  0.2088  0.1541 -0.1601
 6176SOL    HW129990   2.131   4.012   6.031  1.7247  0.5538  0.7798
 6176SOL    HW229991   2.267   3.952   5.999  0.2483  0.0487 -1.0468
 6177SOL     OW29992   3.828   0.840   2.748  0.0106 -0.4935 -0.2929
 6177SOL    HW129993   3.917   0.824   2.717  0.4217 -0.1554  0.7187
 6177SOL    HW229994   3.839   0.908   2.813 -1.3718 -1.3563  0.8361
 6178SOL     OW29995   1.269   1.172   7.084  0.0192  0.2837 -0.0581
 6178SOL    HW129996   1.316   1.244   7.042  0.1821 -1.6248 -3.1803
 6178SOL    HW229997   1.325   1.169   7.161  0.1936 -0.5125 -0.2149
 6179SOL     OW29998   0.184   0.648   2.978  0.3213  0.0683  0.1691
 6179SOL    HW129999   0.215   0.738   2.984 -0.1231  0.2374 -0.0425
 6179SOL    HW230000   0.118   0.654   2.909  1.5913 -1.3584 -1.1719
 6180SOL     OW30001   0.067   0.803   4.654 -0.1223 -0.4560  0.5402
 6180SOL    HW130002   4.704   0.765   4.647  1.3756 -3.2681 -2.7221
 6180SOL    HW230003   0.077   0.776   4.745 -0.1338  0.1650  0.7283
 6181SOL     OW30004   3.592   2.215   2.559  0.5813 -0.9109  0.5052
 6181SOL    HW130005   3.547   2.200   2.476 -0.5372 -0.6424  1.0633
 6181SOL    HW230006   3.661   2.278   2.538 -0.5996 -0.4438 -2.0204
 6182SOL     OW30007   2.054   3.227  10.835  0.3764  0.1068 -0.3871
 6182SOL    HW130008   2.037   3.159  10.770 -1.2919 -0.0063  0.1563
 6182SOL    HW230009   2.144   3.246  10.808  0.2079  0.3931 -0.7411
 6183SOL     OW30010   3.870   0.843  11.969 -0.3266 -0.0307  0.4724
 6183SOL    HW130011   3.839   0.796  12.046  0.0006 -0.4545  0.3428
 6183SOL    HW230012   3.786   0.855  11.924 -0.4902 -0.5345  0.6444
 6184SOL     OW30013   3.315   3.822   3.055 -0.0368  0.0464  0.4903
 6184SOL    HW130014   3.361   3.883   2.997 -0.5080  0.3014  0.3916
 6184SOL    HW230015   3.296   3.868   3.137  0.7047  2.0471 -0.4621
 6185SOL     OW30016   3.478   3.752   1.653  0.1719  0.3551 -0.1341
 6185SOL    HW130017   3.558   3.701   1.665 -0.1932  0.1803  1.5203
 6185SOL    HW230018   3.436   3.750   1.739 -0.7654  1.4180 -0.5646
 6186SOL     OW30019   2.512   0.504   2.983  0.3368  0.2959 -0.5578
 6186SOL    HW130020   2.582   0.510   2.918  1.6796  0.7925  0.9221
 6186SOL    HW230021   2.444   0.458   2.935  0.0188  1.3325 -1.1072
 6187SOL     OW30022   1.131   1.737   5.611 -0.3739 -0.3124  0.2294
 6187SOL    HW130023   1.065   1.796   5.574 -0.4346 -0.7028 -0.2949
 6187SOL    HW230024   1.077   1.693   5.677 -1.6781  1.6165  0.4500
 6188SOL     OW30025   2.353   0.856  12.153 -0.0140  0.5355 -0.4872
 6188SOL    HW130026   2.435   0.859  12.201  1.1447  1.6042 -2.5176
 6188SOL    HW230027   2.300   0.915  12.208 -0.9390  0.8147 -1.6828
 6189SOL     OW30028   2.248   3.268  12.101  0.2918  0.0231  0.1901
 6189SOL    HW130029   2.211   3.186  12.134  1.6532 -0.3199  0.8955
 6189SOL    HW230030   2.190   3.284  12.027 -2.0717 -2.8287  1.4687
 6190SOL     OW30031   4.584   0.960   6.684 -0.6634  0.0991  0.3097
 6190SOL    HW130032   4.606   0.885   6.629  0.7888  1.3018 -0.7362
 6190SOL    HW230033   4.507   0.993   6.639  0.3483  0.0878 -1.4434
 6191SOL     OW30034   4.371   1.088   6.551  0.4260  0.2360  0.2233
 6191SOL    HW130035   4.344   1.077   6.459  1.0609  3.0421 -0.2946
 6191SOL    HW230036   4.292   1.123   6.592 -0.4175  0.8969 -1.9859
 6192SOL     OW30037   1.905   2.928   1.552  0.3279  0.7596 -0.1331
 6192SOL    HW130038   1.811   2.944   1.556  0.1260 -0.4211 -0.2571
 6192SOL    HW230039   1.931   2.946   1.643 -1.2544  2.5264 -0.0417
 6193SOL     OW30040   3.600   3.084   4.593 -0.4681  0.1885 -0.1603
 6193SOL    HW130041   3.575   3.004   4.639  1.6289 -2.0611 -2.8871
 6193SOL    HW230042   3.671   3.059   4.533 -1.2399  0.2844 -1.1164
 6194SOL     OW30043   1.163   2.914  17.132  0.2133 -0.7000  0.1305
 6194SOL    HW130044   1.068   2.928  17.123  0.1269 -1.2863  0.1221
 6194SOL    HW230045   1.188   2.998  17.170 -2.8733  0.3685 -0.1628
 6195SOL     OW30046   0.611   1.356   4.951  0.0309  0.1448 -0.4162
 6195SOL    HW130047   0.668   1.320   5.019 -0.8727  0.4754  0.5158
 6195SOL    HW230048   0.633   1.447   4.973 -1.2278  0.1323  0.8523
 6196SOL     OW30049   4.591   4.148   6.939  0.0711 -0.0740  0.4445
 6196SOL    HW130050   4.499   4.122   6.939  0.4298 -1.3010 -1.0746
 6196SOL    HW230051   4.586   4.243   6.955  0.3468 -0.1722  1.1156
 6197SOL     OW30052   3.725   0.084   7.979 -0.7284 -0.5830  0.4439
 6197SOL    HW130053   3.805   0.135   7.989 -2.4693  2.4488 -0.9838
 6197SOL    HW230054   3.665   0.152   7.949 -1.0075 -0.8081  0.4872
 6198SOL     OW30055   4.342   4.379   1.017  0.7998 -0.2668 -0.6432
 6198SOL    HW130056   4.271   4.332   0.973  2.1431 -3.5567  0.7545
 6198SOL    HW230057   4.420   4.367   0.964  2.2787  0.7250  1.3238
 6199SOL     OW30058   1.164   2.310   5.534  0.7221 -0.2809  0.3062
 6199SOL    HW130059   1.128   2.392   5.501  1.5777 -0.8925 -2.1198
 6199SOL    HW230060   1.242   2.343   5.579  0.8076 -0.7732  0.5206
 6200SOL     OW30061   0.550   0.263   2.682  0.0256  0.0335 -0.0440
 6200SOL    HW130062   0.628   0.307   2.716 -0.2759  0.5035  0.0351
 6200SOL    HW230063   0.590   0.176   2.673  0.5606  0.1845  0.7996
 6201SOL     OW30064   3.512   0.370   1.104 -0.1355 -0.3040  0.2372
 6201SOL    HW130065   3.469   0.285   1.096 -0.3058 -0.1430 -0.5959
 6201SOL    HW230066   3.601   0.338   1.115 -0.7929 -1.4453  2.0899
 6202SOL     OW30067   0.940   4.020   8.318  0.0898  0.5041 -0.6326
 6202SOL    HW130068   0.849   4.025   8.289  0.5889  3.0504 -1.8446
 6202SOL    HW230069   0.918   4.018   8.411 -0.4385 -0.7355 -0.7872
 6203SOL     OW30070   1.562   2.495   6.928  0.3772  0.4492  0.4776
 6203SOL    HW130071   1.632   2.546   6.887 -1.3943  3.0174  0.6970
 6203SOL    HW230072   1.599   2.409   6.910  1.7958  1.5625 -1.9351
 6204SOL     OW30073   1.901   0.221   4.016 -0.6946  0.1101 -0.1745
 6204SOL    HW130074   1.853   0.208   4.098 -0.7541 -1.0493 -0.3901
 6204SOL    HW230075   1.931   0.311   4.026 -1.8340  0.3919  0.7084
 6205SOL     OW30076   0.985   0.324  12.382  0.0409  0.4059  0.7489
 6205SOL    HW130077   1.025   0.345  12.466  2.1614  1.9490 -0.6517
 6205SOL    HW230078   0.949   0.236  12.397 -0.8504  0.7570  0.6583
 6206SOL     OW30079   4.034   4.711   8.954  0.2731 -0.0779  0.6451
 6206SOL    HW130080   4.090   4.634   8.965 -0.5986 -0.6032  1.3001
 6206SOL    HW230081   3.986   4.681   8.877 -1.1578 -0.6657  1.7734
 6207SOL     OW30082   2.033   1.634   2.191 -0.6772  0.4078 -0.1736
 6207SOL    HW130083   2.113   1.583   2.203  0.1416  1.4224 -1.3071
 6207SOL    HW230084   1.969   1.572   2.156 -0.6129 -0.1264  0.6665
 6208SOL     OW30085   2.207   0.829   4.043  0.0862  0.1179 -0.0562
 6208SOL    HW130086   2.206   0.790   3.955  0.7559 -2.4654  1.0942
 6208SOL    HW230087   2.114   0.843   4.058 -0.4241 -1.2161 -1.9721
 6209SOL     OW30088   4.656   0.011   8.105  0.0938  0.3347 -0.8539
 6209SOL    HW130089   4.636   0.014   8.199 -2.6031 -1.1558 -1.3626
 6209SOL    HW230090   4.572   0.022   8.060  0.0793 -0.9792 -1.1500
 6210SOL     OW30091   4.259   4.310   5.580  0.5527  0.0364  0.6969
 6210SOL    HW130092   4.253   4.312   5.676 -1.3641  0.5383  0.5590
 6210SOL    HW230093   4.177   4.353   5.555  0.7497 -1.2929 -2.1526
 6211SOL     OW30094   3.025   2.706   9.190  0.2228  0.6287 -0.6364
 6211SOL    HW130095   3.021   2.699   9.094  0.7929 -2.4611 -0.4152
 6211SOL    HW230096   3.077   2.787   9.194 -0.6281  1.1635 -0.3840
 6212SOL     OW30097   0.211   1.718   9.051  0.4625 -0.4244 -0.0818
 6212SOL    HW130098   0.267   1.643   9.070  1.7488  0.6004  0.1314
 6212SOL    HW230099   0.225   1.762   9.135  3.1599 -1.5604  0.0332
 6213SOL     OW30100   2.623   3.601  15.354 -0.2289 -0.2838 -0.0222
 6213SOL    HW130101   2.629   3.615  15.259 -2.7327 -0.9408 -0.2829
 6213SOL    HW230102   2.605   3.691  15.381 -0.4728 -0.0877 -0.8401
 6214SOL     OW30103   2.998   4.548   2.303 -0.2729 -0.0640 -0.0633
 6214SOL    HW130104   2.986   4.548   2.398 -0.2712  0.0648 -0.0624
 6214SOL    HW230105   2.906   4.564   2.281 -0.5200 -0.4427  0.7191
 6215SOL     OW30106   2.282   1.683   6.636  0.0582 -0.0531 -0.1462
 6215SOL    HW130107   2.202   1.713   6.679 -0.6715  0.1484 -1.6288
 6215SOL    HW230108   2.336   1.652   6.709  0.4220  0.1035 -0.3465
 6216SOL     OW30109   2.709   2.817   8.703 -0.0392 -0.4199 -0.1592
 6216SOL    HW130110   2.632   2.815   8.645 -0.0061 -0.5338 -0.1987
 6216SOL    HW230111   2.776   2.871   8.662  0.4352 -1.5339 -0.8656
 6217SOL     OW30112   2.376   0.787   5.133  0.0189  0.1007 -0.4702
 6217SOL    HW130113   2.374   0.875   5.171  1.7089  0.5964 -1.5072
 6217SOL    HW230114   2.437   0.737   5.188 -0.2938 -1.9223 -1.9627
 6218SOL     OW30115   2.300   1.678   4.012  0.5053 -0.7760 -0.3670
 6218SOL    HW130116   2.366   1.683   4.081  0.7089  2.4654 -0.8014
 6218SOL    HW230117   2.343   1.735   3.948 -0.3443  1.3418  0.9342
 6219SOL     OW30118   1.894   3.342   2.583  0.1319 -0.4746  0.2809
 6219SOL    HW130119   1.968   3.299   2.626 -0.0307  0.5386  1.5814
 6219SOL    HW230120   1.927   3.378   2.501 -0.3609 -0.2250  0.1917
 6220SOL     OW30121   0.362   2.375   7.508 -0.0033 -0.6459 -0.0159
 6220SOL    HW130122   0.306   2.393   7.583 -1.1967  0.4970 -1.1794
 6220SOL    HW230123   0.291   2.393   7.447 -1.4224  0.0282  1.8565
 6221SOL     OW30124   1.715   3.199   2.459  0.2351  0.0247  0.4411
 6221SOL    HW130125   1.741   3.229   2.372  1.6556  0.9151  1.1725
 6221SOL    HW230126   1.763   3.261   2.514  0.1356  1.5262 -1.1645
 6222SOL     OW30127   2.694   1.456   9.048 -0.1536 -0.1872  0.1273
 6222SOL    HW130128   2.607   1.466   9.086 -0.1382 -2.1055  0.6798
 6222SOL    HW230129   2.740   1.465   9.132 -3.2377 -0.6288  1.8486
 6223SOL     OW30130   3.066   4.557   5.146 -0.1004 -0.4177 -0.3824
 6223SOL    HW130131   3.093   4.509   5.068  2.8742 -1.7477  1.4535
 6223SOL    HW230132   3.012   4.490   5.189  0.3566  0.0542  0.9369
 6224SOL     OW30133   2.927   2.915   1.624 -0.6484 -0.2304 -0.1851
 6224SOL    HW130134   3.020   2.906   1.645 -0.1421  0.1136 -2.2296
 6224SOL    HW230135   2.930   2.906   1.529  3.6063 -1.0593  0.0111
 6225SOL     OW30136   4.581   3.074   6.145  0.3479 -0.3104 -0.0521
 6225SOL    HW130137   4.623   3.114   6.220  1.5296 -1.2087 -0.2406
 6225SOL    HW230138   4.653   3.039   6.093  1.2873 -2.0797  2.4525
 6226SOL     OW30139   4.698   2.821   9.949  0.2278 -0.6838 -0.0543
 6226SOL    HW130140   0.062   2.819   9.912 -0.2208  1.7693 -1.2299
 6226SOL    HW230141   4.645   2.822   9.869  1.6865 -1.8226 -1.0329
 6227SOL     OW30142   4.560   2.361   3.369  0.7623 -0.5343  0.0964
 6227SOL    HW130143   4.552   2.272   3.403 -1.0377 -0.6388 -0.6164
 6227SOL    HW230144   4.468   2.382   3.352  1.3722  1.7684 -0.3422
 6228SOL     OW30145   1.757   4.660   8.428  0.5948  0.2226  0.1685
 6228SOL    HW130146   1.753   4.673   8.522  0.6362 -0.8018  0.3095
 6228SOL    HW230147   1.807   4.579   8.412  0.3354  0.3560 -1.2987
 6229SOL     OW30148   0.333   0.046   7.384 -0.3986 -0.2954 -0.2123
 6229SOL    HW130149   0.389   0.047   7.461  1.2779  1.4757 -1.4443
 6229SOL    HW230150   0.265   4.722   7.432  0.9793 -1.1985  0.8018
 6230SOL     OW30151   0.174   0.654   8.576 -0.0754  0.6505  0.1472
 6230SOL    HW130152   0.127   0.585   8.529 -1.5312  0.2950  2.1073
 6230SOL    HW230153   0.257   0.625   8.539  0.6892  1.1202  1.4970
 6231SOL     OW30154   4.034   4.709  13.866  0.1669  0.2122  0.2533
 6231SOL    HW130155   3.993   0.046  13.927 -0.0107 -0.8006  1.1471
 6231SOL    HW230156   4.000   0.016  13.782 -1.5767 -1.2575  0.4095
 6232SOL     OW30157   4.496   2.326   4.922 -0.8206 -1.1251 -0.3420
 6232SOL    HW130158   4.453   2.375   4.991 -0.4032  1.8050 -2.1363
 6232SOL    HW230159   4.475   2.235   4.942 -1.0768 -0.6129  1.6496
 6233SOL     OW30160   3.339   1.721  16.322 -1.2117  0.2097  0.0949
 6233SOL    HW130161   3.338   1.686  16.411  2.3342 -2.3236 -0.8479
 6233SOL    HW230162   3.432   1.704  16.303 -0.6744  1.3889  1.7041
 6234SOL     OW30163   0.747   4.061   4.496  0.5874  0.2843  0.2861
 6234SOL    HW130164   0.662   4.101   4.480  0.1228 -1.3787 -1.4324
 6234SOL    HW230165   0.755   4.053   4.591  1.0193 -1.3207  0.1152
 6235SOL     OW30166   2.885   0.778  10.115  0.2227 -0.1602  0.0011
 6235SOL    HW130167   2.803   0.802  10.159  0.9818 -0.3536  1.5339
 6235SOL    HW230168   2.914   0.702  10.167 -2.8616 -1.3554 -0.0340
 6236SOL     OW30169   3.591   3.905   5.639 -0.3282 -0.1955  0.4210
 6236SOL    HW130170   3.662   3.843   5.622 -0.4652  0.7540 -3.5834
 6236SOL    HW230171   3.520   3.842   5.638  0.1833 -0.7451 -2.6683
 6237SOL     OW30172   4.693   3.702   7.370 -0.0493 -0.2208 -0.7174
 6237SOL    HW130173   4.647   3.646   7.433 -0.0587  2.3443  1.5791
 6237SOL    HW230174   0.006   3.763   7.433  0.9626 -0.5480 -1.0032
 6238SOL     OW30175   2.565   0.231   2.509  0.0201 -0.5145 -0.6575
 6238SOL    HW130176   2.659   0.220   2.500 -0.1656 -0.5974 -2.5637
 6238SOL    HW230177   2.547   0.325   2.499  0.9231 -0.3431 -0.6413
 6239SOL     OW30178   0.198   0.334   5.776  0.2191  0.6065  0.6285
 6239SOL    HW130179   0.214   0.265   5.840  0.2247  0.7475  0.7796
 6239SOL    HW230180   0.238   0.294   5.698  1.5437  3.4069 -0.1625
 6240SOL     OW30181   0.788   4.527   1.769 -0.3282  0.3944 -0.0347
 6240SOL    HW130182   0.837   4.513   1.850  1.8249 -0.5763 -1.5039
 6240SOL    HW230183   0.710   4.564   1.809 -0.6189 -2.0506  1.6588
 6241SOL     OW30184   2.100   4.150   6.151 -0.0292  0.0654 -0.0117
 6241SOL    HW130185   2.194   4.159   6.168 -0.0716  1.5005 -0.4699
 6241SOL    HW230186   2.070   4.197   6.229  1.0413 -3.8318  2.7065
 6242SOL     OW30187   0.118   2.467   7.698  0.3082 -0.6363  0.2513
 6242SOL    HW130188   0.130   2.394   7.759  0.4442 -1.3643 -0.6341
 6242SOL    HW230189   0.029   2.499   7.715 -0.7292 -2.9588 -0.7985
 6243SOL     OW30190   3.612   1.193   7.122 -0.1150 -0.2240 -0.4074
 6243SOL    HW130191   3.618   1.192   7.217  0.0698 -0.3808 -0.4208
 6243SOL    HW230192   3.691   1.143   7.100  0.7985  0.1322  2.0716
 6244SOL     OW30193   3.713   0.306   3.421  0.4159  0.3480 -0.3488
 6244SOL    HW130194   3.745   0.216   3.416 -0.2677  0.0590  0.4684
 6244SOL    HW230195   3.697   0.316   3.515 -0.2742  1.4653 -0.5743
 6245SOL     OW30196   1.452   1.703  12.221  0.0950 -0.2468  0.2927
 6245SOL    HW130197   1.477   1.761  12.148  2.0901 -0.0131  1.1628
 6245SOL    HW230198   1.531   1.721  12.272 -0.2475  1.7567  0.1155
 6246SOL     OW30199   4.136   3.471   4.661 -0.1466  0.0523 -0.3608
 6246SOL    HW130200   4.048   3.433   4.663  0.6102 -1.7282 -0.7921
 6246SOL    HW230201   4.144   3.479   4.566 -2.1797 -0.3507 -0.5668
 6247SOL     OW30202   1.600   1.555   1.871 -0.2590  0.0152 -0.6791
 6247SOL    HW130203   1.578   1.463   1.888  1.4321 -0.4812 -1.2300
 6247SOL    HW230204   1.524   1.592   1.826 -0.1690  0.5707 -0.3798
 6248SOL     OW30205   2.754   4.606  12.750 -0.0763  0.2916  0.3892
 6248SOL    HW130206   2.777   4.698  12.743 -0.4131  0.2875 -0.8633
 6248SOL    HW230207   2.715   4.611  12.837  0.1717  1.1397  0.4440
 6249SOL     OW30208   2.728   4.482  15.578 -0.0852  0.1161  0.0374
 6249SOL    HW130209   2.692   4.481  15.489  1.3431 -0.3698 -0.5343
 6249SOL    HW230210   2.775   4.566  15.580 -1.4260  0.9242 -2.6237
 6250SOL     OW30211   1.742   1.161   5.005 -0.3148 -0.7537  0.0431
 6250SOL    HW130212   1.669   1.221   5.020 -0.4426 -0.8191 -0.3032
 6250SOL    HW230213   1.761   1.181   4.913 -0.4538  3.0654  0.8702
 6251SOL     OW30214   1.581   4.683  10.332  0.0707  0.1550  0.1511
 6251SOL    HW130215   1.493   4.655  10.356 -0.7372  2.4908 -0.0948
 6251SOL    HW230216   1.604   4.706  10.422 -0.1559 -1.7082  0.6869
 6252SOL     OW30217   1.505   3.752  12.341  0.2332  0.0277  0.1478
 6252SOL    HW130218   1.422   3.711  12.315  0.2937  1.3984 -2.2497
 6252SOL    HW230219   1.483   3.846  12.338 -0.8807 -0.2686 -0.6500
 6253SOL     OW30220   2.061   1.860  17.681 -0.3123  0.2726  0.2334
 6253SOL    HW130221   2.087   1.772   0.008  0.8750  1.2833  2.4686
 6253SOL    HW230222   2.004   1.838  17.607 -1.0082 -1.5657  1.3262
 6254SOL     OW30223   4.453   2.301   6.211 -0.2272 -0.3587 -0.2296
 6254SOL    HW130224   4.440   2.379   6.157 -0.5647 -1.3035 -1.5099
 6254SOL    HW230225   4.363   2.283   6.238 -0.8821  0.9316 -1.5849
 6255SOL     OW30226   3.633   3.690  15.726  0.4837 -0.1069 -0.0039
 6255SOL    HW130227   3.659   3.782  15.732 -2.2703  0.6604 -0.1941
 6255SOL    HW230228   3.635   3.672  15.632  0.3545  0.6331 -0.1473
 6256SOL     OW30229   3.823   3.084   1.303 -0.3062  0.0309 -0.4746
 6256SOL    HW130230   3.729   3.072   1.288 -0.2916 -0.2647 -0.3314
 6256SOL    HW230231   3.842   3.007   1.357 -0.0749  0.8669  0.6475
 6257SOL     OW30232   1.566   0.183   2.605 -0.3229 -0.3149  0.3843
 6257SOL    HW130233   1.638   0.242   2.584  0.1073 -0.3284  1.7912
 6257SOL    HW230234   1.499   0.248   2.628 -1.5237 -1.0813 -1.0102
 6258SOL     OW30235   3.613   0.789   0.995  0.1628  0.3537  0.7798
 6258SOL    HW130236   3.591   0.842   1.072 -1.7703  2.5177 -1.2721
 6258SOL    HW230237   3.535   0.734   0.989  1.5711 -1.6897  1.0613
 6259SOL     OW30238   4.588   3.415   2.880 -0.2855  0.6683 -0.1536
 6259SOL    HW130239   4.582   3.502   2.841  1.4553  0.2784 -1.2906
 6259SOL    HW230240   4.552   3.429   2.968 -0.2697  2.4738 -0.4297
 6260SOL     OW30241   2.825   0.143   4.275 -0.2488  0.3391 -0.1002
 6260SOL    HW130242   2.796   0.109   4.360  0.1405 -0.8913 -0.4535
 6260SOL    HW230243   2.911   0.102   4.265 -0.1549  1.0195 -1.9586
 6261SOL     OW30244   0.612   3.423   5.397 -0.1228  0.5963  0.5143
 6261SOL    HW130245   0.654   3.500   5.434 -0.4493  1.0943 -0.1671
 6261SOL    HW230246   0.574   3.384   5.476  1.1223  0.1664  0.9090
 6262SOL     OW30247   1.106   0.473   9.183 -0.2748  0.3519 -0.1017
 6262SOL    HW130248   1.108   0.543   9.248  0.1152 -0.4327  0.7315
 6262SOL    HW230249   1.134   0.523   9.107 -3.2765  1.6543 -0.3378
 6263SOL     OW30250   1.626   3.975   3.738  0.2960  0.4496 -0.4201
 6263SOL    HW130251   1.584   4.044   3.789  1.3424 -0.1864  1.2763
 6263SOL    HW230252   1.585   3.899   3.779  0.5361 -1.3279 -3.4690
 6264SOL     OW30253   0.670   3.607   9.413  0.0754  0.3934  0.3818
 6264SOL    HW130254   0.684   3.598   9.507 -0.9614  3.1433  0.7897
 6264SOL    HW230255   0.621   3.527   9.396 -1.3696  1.5078 -0.6902
 6265SOL     OW30256   1.760   2.697   6.559  0.1960  0.2584 -0.0674
 6265SOL    HW130257   1.731   2.663   6.644  0.7289 -0.3502 -0.1284
 6265SOL    HW230258   1.689   2.756   6.533 -1.6899 -1.7498  0.5355
 6266SOL     OW30259   0.706   3.198   5.990 -0.0248  0.3142  0.0803
 6266SOL    HW130260   0.799   3.173   5.993  0.2207  1.4778  1.6677
 6266SOL    HW230261   0.669   3.116   5.957 -2.2386  0.7335  1.5747
 6267SOL     OW30262   2.630   0.570   1.734  0.5030 -0.0367  0.8341
 6267SOL    HW130263   2.725   0.563   1.727  0.4572 -0.3586  0.5179
 6267SOL    HW230264   2.620   0.619   1.816 -0.9101  0.6322  0.2731
 6268SOL     OW30265   3.762   3.992   2.038  0.3410  0.6823  0.1528
 6268SOL    HW130266   3.817   3.975   1.962 -1.2152  1.6229 -1.1889
 6268SOL    HW230267   3.827   4.031   2.097 -0.0091  1.1916  0.1991
 6269SOL     OW30268   4.664   4.543   6.464 -0.4492  0.2528 -0.2982
 6269SOL    HW130269   4.599   4.535   6.394  0.7403 -1.0334 -1.2527
 6269SOL    HW230270   4.634   4.482   6.531  2.0131 -1.3363 -0.6563
 6270SOL     OW30271   2.945   3.036   5.210  0.1828  0.0116 -0.2219
 6270SOL    HW130272   3.013   2.969   5.212  0.8973  0.7541  1.2984
 6270SOL    HW230273   2.909   3.012   5.296 -1.7316  1.1951 -0.6813
 6271SOL     OW30274   3.944   2.868  14.798 -0.2078  0.0688 -0.2410
 6271SOL    HW130275   3.893   2.948  14.815  0.4819  0.5393 -0.4100
 6271SOL    HW230276   3.928   2.853  14.705  1.4173  0.6266 -0.5979
 6272SOL     OW30277   0.120   0.579   3.251 -0.3552  0.0283  0.2686
 6272SOL    HW130278   0.215   0.585   3.247 -0.3722 -0.2767 -0.6176
 6272SOL    HW230279   0.093   0.598   3.161  1.3876 -1.3849 -0.5661
 6273SOL     OW30280   3.736   0.617   7.101  0.6584  0.9485  0.1810
 6273SOL    HW130281   3.830   0.608   7.116  0.4064  1.8881  2.3466
 6273SOL    HW230282   3.699   0.665   7.174 -1.6219  0.6208 -0.7571
 6274SOL     OW30283   1.468   2.179   1.044  0.1289  0.1884  0.4631
 6274SOL    HW130284   1.518   2.167   1.125  0.6073 -0.7964  0.0321
 6274SOL    HW230285   1.398   2.236   1.076  0.6546  1.9549 -1.5207
 6275SOL     OW30286   2.798   2.639   9.759  0.2204  0.2002 -0.9176
 6275SOL    HW130287   2.756   2.584   9.693  1.1617 -0.7477 -0.7339
 6275SOL    HW230288   2.868   2.582   9.791  0.9083  0.9161 -1.1544
 6276SOL     OW30289   4.445   4.463  10.080  0.0188  0.2856 -0.2974
 6276SOL    HW130290   4.389   4.385  10.085 -0.4786  0.8235  2.8062
 6276SOL    HW230291   4.522   4.430  10.126  0.0549 -0.7348 -1.1034
 6277SOL     OW30292   1.562   0.137  12.314  0.0302  0.2190 -0.7003
 6277SOL    HW130293   1.545   0.043  12.318  1.0015  0.0919  0.2770
 6277SOL    HW230294   1.629   0.144  12.245  1.0236 -2.0108  0.0457
 6278SOL     OW30295   0.694   1.242  13.554 -0.5079 -0.3884  0.3489
 6278SOL    HW130296   0.642   1.165  13.575 -0.1830 -0.3001  1.4623
 6278SOL    HW230297   0.633   1.294  13.501  0.3429 -0.5493 -0.7968
 6279SOL     OW30298   4.186   2.598   5.597 -0.0821 -1.1120  0.4160
 6279SOL    HW130299   4.165   2.518   5.548  0.6020 -0.5465 -0.8033
 6279SOL    HW230300   4.098   2.625   5.624  0.2942  0.1021  0.4151
 6280SOL     OW30301   3.136   0.923  11.894 -0.2879 -0.0718 -0.0380
 6280SOL    HW130302   3.191   1.001  11.898  0.4232 -0.4801 -1.9990
 6280SOL    HW230303   3.070   0.955  11.832  0.5964 -0.5880 -1.2337
 6281SOL     OW30304   1.681   0.468   2.710  0.2960  0.0304 -0.3559
 6281SOL    HW130305   1.725   0.546   2.676 -1.1019  1.0903  0.2356
 6281SOL    HW230306   1.764   0.430   2.737  0.8606 -0.4802 -2.7909
 6282SOL     OW30307   2.318   2.811   4.020 -0.1318  0.3664  0.1268
 6282SOL    HW130308   2.345   2.851   4.102  1.6587 -0.2158 -0.1903
 6282SOL    HW230309   2.360   2.726   4.014 -3.9749 -1.5596  0.2082
 6283SOL     OW30310   2.837   2.899   3.907  0.0996  0.5178  0.7350
 6283SOL    HW130311   2.915   2.845   3.919 -0.8021 -1.1635 -0.8629
 6283SOL    HW230312   2.794   2.915   3.991  0.7326  2.8065  0.6127
 6284SOL     OW30313   1.602   0.829   9.866  0.0081 -0.2031 -0.1663
 6284SOL    HW130314   1.676   0.837   9.925 -0.6590  0.9812  0.5198
 6284SOL    HW230315   1.524   0.842   9.920  0.4890 -1.7761  0.8968
 6285SOL     OW30316   0.454   2.223   3.491 -0.9896 -0.1422  0.0877
 6285SOL    HW130317   0.455   2.317   3.508  1.6791  0.1694 -1.8975
 6285SOL    HW230318   0.492   2.222   3.404 -0.9078 -0.0300  0.1215
 6286SOL     OW30319   0.057   1.809   6.699 -0.0010 -0.2847  0.9257
 6286SOL    HW130320   0.107   1.748   6.644  0.4707 -0.6661  1.7781
 6286SOL    HW230321   4.691   1.804   6.668 -0.0267  0.4545  0.8749
 6287SOL     OW30322   4.010   1.435  14.029 -0.3235  0.4110 -0.9770
 6287SOL    HW130323   3.949   1.410  13.960  0.6549  0.4376 -1.8511
 6287SOL    HW230324   3.971   1.518  14.057 -0.3439  0.0173  0.1793
 6288SOL     OW30325   2.905   0.691   4.960 -0.5235 -0.1707  0.1934
 6288SOL    HW130326   2.999   0.712   4.961 -0.5361 -0.0665 -1.3850
 6288SOL    HW230327   2.891   0.663   4.870 -0.4918 -0.0371  0.1461
 6289SOL     OW30328   2.018   4.414   1.725  0.1830  0.8717  0.3429
 6289SOL    HW130329   1.952   4.369   1.778  0.7817  0.2574  0.5646
 6289SOL    HW230330   2.035   4.488   1.782  0.6262 -0.2884  1.7058
 6290SOL     OW30331   3.077   3.914   5.663  0.3838  0.9165  0.2848
 6290SOL    HW130332   3.150   3.867   5.702 -0.6596 -0.3483  0.7340
 6290SOL    HW230333   3.048   3.862   5.588  0.9885  3.0001 -1.3933
 6291SOL     OW30334   3.411   2.827   6.390 -0.0520  0.6506  0.1679
 6291SOL    HW130335   3.452   2.742   6.379 -1.7504 -0.0294 -0.9972
 6291SOL    HW230336   3.338   2.816   6.328  0.4625  0.4439 -0.3931
 6292SOL     OW30337   1.084   1.953   2.255  0.0374 -0.5868  0.1370
 6292SOL    HW130338   1.036   1.945   2.337 -0.8939  3.3044 -0.0204
 6292SOL    HW230339   1.053   2.037   2.221 -0.5642 -1.6141 -1.8500
 6293SOL     OW30340   4.448   1.353   9.660 -0.8694  0.7169  0.1021
 6293SOL    HW130341   4.423   1.354   9.753  0.9660  0.6039  0.5860
 6293SOL    HW230342   4.525   1.409   9.669 -0.2773 -0.1137  0.1838
 6294SOL     OW30343   3.660   4.284   4.046 -0.3413  0.0376 -0.3496
 6294SOL    HW130344   3.630   4.342   4.116  0.6441 -0.0506  0.1405
 6294SOL    HW230345   3.689   4.339   3.973 -0.0095 -0.8448 -0.8763
 6295SOL     OW30346   2.060   3.037  12.842 -0.5189  0.1599  0.0150
 6295SOL    HW130347   2.024   2.955  12.874  0.6631 -0.0065  0.8936
 6295SOL    HW230348   2.049   3.027  12.747  0.4151 -0.4862 -0.0199
 6296SOL     OW30349   0.947   1.842   2.013  0.1830 -0.5410 -0.0069
 6296SOL    HW130350   0.966   1.914   1.953  0.1241  0.6012  1.3299
 6296SOL    HW230351   1.015   1.858   2.080  2.1334 -0.9859 -1.8829
 6297SOL     OW30352   1.106   2.320   3.027  0.1929  0.6498 -0.1404
 6297SOL    HW130353   1.087   2.365   2.944  0.8419  0.9270 -0.1424
 6297SOL    HW230354   1.116   2.230   2.996 -1.3677  0.6067 -0.5341
 6298SOL     OW30355   2.962   2.445   4.553  0.3985  0.1496 -0.4114
 6298SOL    HW130356   2.871   2.471   4.563 -0.1272 -1.0749 -1.9663
 6298SOL    HW230357   2.969   2.446   4.457  1.0067 -1.8639 -0.3797
 6299SOL     OW30358   3.764   2.496  14.123 -0.0752 -0.2679 -0.3186
 6299SOL    HW130359   3.826   2.566  14.146 -2.2305  1.2249  1.0087
 6299SOL    HW230360   3.770   2.447  14.205 -0.0211  0.8407  0.3454
 6300SOL     OW30361   2.408   4.552   4.199  0.3446 -0.4640 -0.4285
 6300SOL    HW130362   2.419   4.487   4.269  3.0376  1.3745  0.8620
 6300SOL    HW230363   2.377   4.629   4.247  1.3070 -0.6141  0.4380
 6301SOL     OW30364   1.648   3.935   6.244 -0.4500 -0.2860  0.0313
 6301SOL    HW130365   1.564   3.939   6.198 -0.0143 -0.1408 -0.7534
 6301SOL    HW230366   1.700   3.891   6.177 -0.6104 -1.5879  0.7575
 6302SOL     OW30367   1.907   4.007   0.347  0.2235 -0.6096  0.0264
 6302SOL    HW130368   1.819   4.041   0.361 -0.0152 -1.4310  0.5557
 6302SOL    HW230369   1.879   3.948   0.277  0.1703  2.4458 -2.5273
 6303SOL     OW30370   1.687   1.103   7.162 -0.3235 -0.1942 -0.2090
 6303SOL    HW130371   1.635   1.069   7.235 -2.0175  0.7013 -0.9917
 6303SOL    HW230372   1.701   1.023   7.111  1.2462 -0.8208  1.2258
 6304SOL     OW30373   2.693   0.081  16.615 -0.5471  0.9403  0.0373
 6304SOL    HW130374   2.762   0.087  16.549  0.0237 -0.5471  0.4773
 6304SOL    HW230375   2.658   4.717  16.600  3.3389 -0.7884  1.0851
 6305SOL     OW30376   3.019   1.016   2.256 -0.0172 -0.5321 -0.2629
 6305SOL    HW130377   2.970   0.934   2.246  0.1428 -0.8392  1.4981
 6305SOL    HW230378   3.037   1.023   2.350 -1.2840  0.6398 -0.1288
 6306SOL     OW30379   1.505   4.651   2.685  0.1978 -0.5117 -0.5509
 6306SOL    HW130380   1.535   0.016   2.670  0.7741 -0.7886 -1.0984
 6306SOL    HW230381   1.470   4.628   2.599 -0.8761 -2.4368  0.3989
 6307SOL     OW30382   4.061   2.796   7.633 -0.1237  0.4542  0.1170
 6307SOL    HW130383   4.098   2.811   7.720  0.3134  0.7457 -0.1227
 6307SOL    HW230384   4.138   2.755   7.596 -0.3773 -0.6978  0.8593
 6308SOL     OW30385   1.311   2.514   1.582 -0.0022  0.8871 -0.7272
 6308SOL    HW130386   1.338   2.465   1.660  0.3896  4.2281  1.2339
 6308SOL    HW230387   1.362   2.594   1.598  0.1004  1.0327 -1.8092
 6309SOL     OW30388   3.384   2.428  15.879 -0.0259  0.9501  0.2419
 6309SOL    HW130389   3.444   2.434  15.805 -0.1625 -3.1469 -0.2164
 6309SOL    HW230390   3.303   2.439  15.829  1.2842 -2.2803 -2.5766
 6310SOL     OW30391   3.166   2.376   6.258  0.0076 -0.1087 -0.2523
 6310SOL    HW130392   3.087   2.350   6.304  0.6474 -1.1011  0.2932
 6310SOL    HW230393   3.231   2.311   6.288 -0.3089  0.0165  0.6876
 6311SOL     OW30394   1.840   4.687   2.431  0.3512  0.0654  1.0130
 6311SOL    HW130395   1.936   4.691   2.431  0.3852 -0.5804  1.6957
 6311SOL    HW230396   1.820   0.016   2.508  1.3716 -2.7795  3.2976
 6312SOL     OW30397   3.100   3.054   0.207  0.7913 -0.2515 -0.8086
 6312SOL    HW130398   3.189   3.053   0.172  1.3250 -0.0311  0.5260
 6312SOL    HW230399   3.112   3.005   0.289 -1.9118  0.4391  0.0146
 6313SOL     OW30400   1.000   0.806  15.171  0.2058 -0.3905  0.3225
 6313SOL    HW130401   0.933   0.865  15.137  1.6153 -0.3111 -2.3542
 6313SOL    HW230402   0.990   0.821  15.265  1.5443 -0.7400  0.5255
 6314SOL     OW30403   1.887   4.630  12.851  0.3094 -0.2287 -0.6560
 6314SOL    HW130404   1.916   4.706  12.902 -2.0673  1.6838 -2.1828
 6314SOL    HW230405   1.878   4.567  12.922 -0.9005 -0.6126 -1.1547
 6315SOL     OW30406   0.409   4.594   9.575 -0.4782 -0.3297  0.5881
 6315SOL    HW130407   0.358   4.670   9.549  0.5633  0.1439 -0.0773
 6315SOL    HW230408   0.410   4.610   9.670 -1.0420  0.6653  0.4316
 6316SOL     OW30409   4.581   1.049   3.246 -0.2577  0.2944  0.1169
 6316SOL    HW130410   4.638   1.122   3.221  1.7217 -0.3090  2.9213
 6316SOL    HW230411   4.574   1.057   3.341  1.5467  1.3252  0.1582
 6317SOL     OW30412   1.396   0.740   5.693  0.0659 -0.5270  0.6571
 6317SOL    HW130413   1.429   0.782   5.613 -3.3318  0.6353 -0.1297
 6317SOL    HW230414   1.482   0.723   5.731  0.3073  3.6249  1.9399
 6318SOL     OW30415   1.651   1.015   1.941  0.0724  0.3761 -0.1434
 6318SOL    HW130416   1.663   0.969   1.858  1.4523  0.0954  0.2150
 6318SOL    HW230417   1.717   0.984   2.003 -0.4647 -2.3971 -0.9721
 6319SOL     OW30418   2.298   2.551   1.103 -0.4966  0.1240  0.8083
 6319SOL    HW130419   2.378   2.580   1.146 -1.0972 -0.0819  2.0667
 6319SOL    HW230420   2.339   2.478   1.057 -0.3912  1.1955 -0.8102
 6320SOL     OW30421   4.717   4.354  10.833  0.0396 -0.0779  0.3311
 6320SOL    HW130422   4.709   4.298  10.910 -0.2385 -0.8555 -0.2609
 6320SOL    HW230423   4.683   4.299  10.763 -2.5493 -1.5107  2.7336
 6321SOL     OW30424   3.723   2.235   5.607 -0.6781 -0.1331  0.2422
 6321SOL    HW130425   3.699   2.264   5.519 -1.7079  0.3279  0.6758
 6321SOL    HW230426   3.659   2.165   5.618 -0.4216 -0.5550 -0.9443
 6322SOL     OW30427   2.942   1.002  11.713 -0.1931  0.1933 -0.5178
 6322SOL    HW130428   2.847   1.002  11.706 -0.2398  1.2697  0.1020
 6322SOL    HW230429   2.982   1.066  11.654 -1.3119  2.4141  1.1228
 6323SOL     OW30430   4.262   2.330   1.513 -0.3982  0.1025  0.2784
 6323SOL    HW130431   4.190   2.274   1.485 -0.4206  0.3682 -0.1913
 6323SOL    HW230432   4.224   2.407   1.557 -1.6123  0.6966 -1.8377
 6324SOL     OW30433   0.165   0.599   7.677 -0.0401  0.7462 -0.1415
 6324SOL    HW130434   0.210   0.664   7.623  0.4237 -0.4453 -1.1892
 6324SOL    HW230435   0.150   0.520   7.625 -2.0327  1.4051 -0.5754
 6325SOL     OW30436   1.338   2.822   1.475 -0.0783 -0.6337  0.2741
 6325SOL    HW130437   1.402   2.820   1.546  0.0847 -0.1174  0.1357
 6325SOL    HW230438   1.360   2.903   1.430 -6.6334  0.3150 -1.1719
 6326SOL     OW30439   2.656   4.444   3.327  0.0857  0.1602 -0.0442
 6326SOL    HW130440   2.685   4.364   3.284 -1.4837 -1.1132  1.3014
 6326SOL    HW230441   2.665   4.404   3.414 -0.2428  1.8813  0.7855
 6327SOL     OW30442   4.395   4.114  16.661  0.2113  0.6266  0.5626
 6327SOL    HW130443   4.457   4.048  16.694 -0.5181  0.5274  1.7357
 6327SOL    HW230444   4.447   4.182  16.618 -0.0444 -1.1481 -2.5341
 6328SOL     OW30445   3.904   4.117   5.098 -0.2992 -0.3470  0.2612
 6328SOL    HW130446   3.964   4.070   5.040  2.4085  1.2097  1.7528
 6328SOL    HW230447   3.823   4.069   5.087 -0.0786 -0.5796 -0.3630
 6329SOL     OW30448   4.382   2.810   8.670  0.1453 -0.7679 -0.9630
 6329SOL    HW130449   4.461   2.775   8.711 -1.0832 -0.5892  1.6188
 6329SOL    HW230450   4.329   2.734   8.645  0.9934 -1.3842 -0.8977
 6330SOL     OW30451   2.399   4.573   9.367 -0.2287  0.7195  0.1680
 6330SOL    HW130452   2.481   4.528   9.387 -1.9876 -0.8223  3.7123
 6330SOL    HW230453   2.340   4.507   9.331  1.1612 -2.1816  3.3081
 6331SOL     OW30454   3.828   4.296   6.962 -0.1225 -0.7261 -0.1174
 6331SOL    HW130455   3.841   4.387   6.935  0.8119 -0.6567  0.5781
 6331SOL    HW230456   3.735   4.304   6.982  0.2424  0.5346  1.0453
 6332SOL     OW30457   4.238   0.391  12.975 -0.2203 -0.2721 -0.3203
 6332SOL    HW130458   4.300   0.417  12.906  0.4471 -2.4287 -0.5248
 6332SOL    HW230459   4.252   0.464  13.035 -1.4584  0.8391 -1.3821
 6333SOL     OW30460   3.788   3.328   3.378  0.3797  0.1678  0.3330
 6333SOL    HW130461   3.841   3.408   3.374  0.7065 -0.0763 -0.1424
 6333SOL    HW230462   3.846   3.263   3.340  0.8136  1.4340 -1.2042
 6334SOL     OW30463   4.570   2.397   3.705 -0.1793  0.1986 -0.1228
 6334SOL    HW130464   4.647   2.347   3.674 -0.3886 -0.6840  0.7891
 6334SOL    HW230465   4.503   2.345   3.660  0.6199  0.2765 -1.4047
 6335SOL     OW30466   2.719   2.279   7.045 -0.3548  0.5708 -0.5264
 6335SOL    HW130467   2.797   2.300   6.994 -1.1262 -3.0660 -3.2308
 6335SOL    HW230468   2.751   2.209   7.101 -0.1294  1.0472 -0.0585
 6336SOL     OW30469   0.510   1.787   5.963 -0.3195 -0.0344  0.2353
 6336SOL    HW130470   0.598   1.777   5.999 -1.4181 -0.3757  2.7984
 6336SOL    HW230471   0.504   1.883   5.969 -0.1187  0.0444 -0.7357
 6337SOL     OW30472   0.955   2.646   6.252 -0.6402  0.3736 -0.3120
 6337SOL    HW130473   0.863   2.672   6.257 -0.4577  1.1541 -1.0284
 6337SOL    HW230474   0.992   2.734   6.249  1.1143 -0.3394 -0.2045
 6338SOL     OW30475   3.281   4.136   5.887  1.1147 -0.4560 -0.1522
 6338SOL    HW130476   3.359   4.187   5.867  1.4132 -0.8799 -0.0807
 6338SOL    HW230477   3.238   4.131   5.802  0.8945 -1.0797 -0.0075
 6339SOL     OW30478   2.718   0.645   4.130  0.1765  0.7235  0.4597
 6339SOL    HW130479   2.732   0.570   4.188  0.7977  1.1201  0.8254
 6339SOL    HW230480   2.705   0.714   4.194 -1.5899  0.6506  0.2018
 6340SOL     OW30481   0.174   2.219   5.448 -0.4693 -0.1978  0.0686
 6340SOL    HW130482   0.241   2.151   5.456 -0.8848 -0.4044  1.7768
 6340SOL    HW230483   0.182   2.229   5.353  0.2540 -2.2307 -0.0846
 6341SOL     OW30484   1.038   4.544   7.710  0.3514  0.8333  0.2824
 6341SOL    HW130485   1.025   4.578   7.799 -2.7237  1.1083 -0.2651
 6341SOL    HW230486   1.084   4.622   7.679 -0.8123  2.0213  1.5516
 6342SOL     OW30487   3.450   0.742   8.652  0.2490  0.1370 -0.2875
 6342SOL    HW130488   3.500   0.744   8.733 -0.5904 -0.8193  0.2570
 6342SOL    HW230489   3.412   0.829   8.662  1.5434  0.6075  0.4546
 6343SOL     OW30490   0.237   0.385   5.035  0.6136 -0.3247 -0.2800
 6343SOL    HW130491   0.324   0.390   4.995  0.6456  0.2314 -0.1340
 6343SOL    HW230492   0.218   0.293   5.014 -0.1464 -0.3540  0.5479
 6344SOL     OW30493   4.077   1.319   5.330  0.0826  0.4229  0.1987
 6344SOL    HW130494   4.010   1.299   5.265  0.2634 -0.1439  0.1895
 6344SOL    HW230495   4.054   1.252   5.394 -2.9658  1.7622  0.4796
 6345SOL     OW30496   2.597   3.766  14.511 -0.4017 -0.0726  0.0415
 6345SOL    HW130497   2.672   3.707  14.520  0.1607  0.5644 -0.4620
 6345SOL    HW230498   2.551   3.735  14.433 -0.9995 -0.6077  0.6164
 6346SOL     OW30499   1.646   0.894   2.661 -0.5802 -0.4097 -0.3042
 6346SOL    HW130500   1.586   0.918   2.591  0.0269  0.8743 -0.3801
 6346SOL    HW230501   1.670   0.979   2.700 -1.1215 -0.7047  0.6670
 6347SOL     OW30502   2.752   0.891   8.825  0.1104  0.1664  0.3244
 6347SOL    HW130503   2.663   0.867   8.850 -0.0057 -0.0673 -0.3160
 6347SOL    HW230504   2.793   0.830   8.887  0.7215 -3.0742 -3.2929
 6348SOL     OW30505   4.024   3.930   9.124  0.6372 -0.1937 -0.0582
 6348SOL    HW130506   4.012   3.926   9.029  1.0286  2.3068 -0.2187
 6348SOL    HW230507   3.959   3.996   9.149  1.7284  1.1372 -0.7206
 6349SOL     OW30508   1.943   1.041   2.679 -0.2860 -0.0299 -0.1792
 6349SOL    HW130509   1.987   1.079   2.603  1.6308  1.2313  1.5434
 6349SOL    HW230510   1.853   1.055   2.649 -0.2622  2.0569  0.7252
 6350SOL     OW30511   3.643   2.481   7.821  0.5600  0.1052 -0.2235
 6350SOL    HW130512   3.622   2.458   7.911  1.3847 -0.3781 -0.1550
 6350SOL    HW230513   3.716   2.541   7.835  1.1341 -0.3542 -1.2239
 6351SOL     OW30514   4.659   0.634   2.800 -0.4711  0.0092 -0.2200
 6351SOL    HW130515   4.607   0.707   2.767 -1.4106 -0.5377  0.0460
 6351SOL    HW230516   4.635   0.567   2.735 -0.4629  0.1990 -0.4173
 6352SOL     OW30517   4.290   1.284   5.823  0.1669  0.4773  0.4030
 6352SOL    HW130518   4.377   1.324   5.815  1.1372 -1.4012  1.5930
 6352SOL    HW230519   4.283   1.223   5.750  0.7945 -1.9789  2.4248
 6353SOL     OW30520   3.002   2.223   4.926  0.6483 -0.0838 -0.1977
 6353SOL    HW130521   3.083   2.216   4.977 -0.9255  1.0273  2.5060
 6353SOL    HW230522   2.938   2.166   4.968  1.8679 -0.4508  1.1644
 6354SOL     OW30523   2.225   4.336   8.448  0.1568  0.6371  0.3950
 6354SOL    HW130524   2.158   4.292   8.501  1.0514 -1.6155 -0.3175
 6354SOL    HW230525   2.240   4.418   8.494  0.2942  0.3623  0.8355
 6355SOL     OW30526   1.741   0.828   0.699 -0.6308  0.6754  0.0121
 6355SOL    HW130527   1.753   0.740   0.664 -2.6212  1.5607 -2.9205
 6355SOL    HW230528   1.655   0.823   0.741 -0.5263 -1.5270 -0.0515
 6356SOL     OW30529   2.216   4.092  10.106  0.2930 -0.4405 -0.0268
 6356SOL    HW130530   2.275   4.046  10.166 -0.9235  1.7536  2.8751
 6356SOL    HW230531   2.146   4.124  10.163  0.0824  2.0046 -1.6350
 6357SOL     OW30532   3.042   2.014  14.666 -0.1120 -0.2591  0.3495
 6357SOL    HW130533   3.026   2.104  14.692  1.0776  0.4999 -1.5307
 6357SOL    HW230534   3.082   1.969  14.741 -0.3515 -0.8378  0.1308
 6358SOL     OW30535   3.335   0.130  10.946  0.2796  0.0872  0.1053
 6358SOL    HW130536   3.411   0.156  10.894  0.4930 -2.0104 -0.6429
 6358SOL    HW230537   3.318   0.218  10.979 -0.4586  0.0663 -0.2333
 6359SOL     OW30538   0.764   2.998   4.662 -0.7861  0.3269 -0.3825
 6359SOL    HW130539   0.687   2.946   4.686 -2.3343  2.7417 -0.0947
 6359SOL    HW230540   0.740   3.091   4.671  1.8486  0.8699  1.0989
 6360SOL     OW30541   1.819   1.466  10.695 -0.1814 -0.0578 -0.1663
 6360SOL    HW130542   1.760   1.481  10.621 -1.7419 -1.5726  0.7664
 6360SOL    HW230543   1.822   1.557  10.724  2.0408 -0.3745  0.5276
 6361SOL     OW30544   1.563   1.957  11.504 -0.7449 -0.8462  0.0076
 6361SOL    HW130545   1.553   1.871  11.546  1.7442 -0.8302  0.6370
 6361SOL    HW230546   1.475   1.962  11.468 -0.3699 -0.0839 -0.7931
 6362SOL     OW30547   3.668   2.125   8.473 -0.3542 -0.1389 -0.0653
 6362SOL    HW130548   3.749   2.140   8.523 -1.0078  2.6900  0.1438
 6362SOL    HW230549   3.702   2.069   8.403 -0.6517 -2.1385  1.3676
 6363SOL     OW30550   1.598   3.424  11.121 -0.6500 -0.1401  0.0701
 6363SOL    HW130551   1.646   3.341  11.119 -1.4796 -0.6428  1.2288
 6363SOL    HW230552   1.609   3.457  11.210  1.1791 -3.8346  1.2423
 6364SOL     OW30553   1.478   0.968  16.481 -0.1640 -0.2394 -0.1002
 6364SOL    HW130554   1.438   0.975  16.394  1.4692  0.6067 -0.7732
 6364SOL    HW230555   1.520   1.054  16.484  1.3002 -0.9234 -0.9765
 6365SOL     OW30556   1.427   0.171   4.751  0.2204  0.5989 -0.0929
 6365SOL    HW130557   1.371   0.133   4.818  1.6243 -1.9111 -0.3328
 6365SOL    HW230558   1.443   0.259   4.786 -0.7422  0.0730  1.6519
 6366SOL     OW30559   3.051   0.781   3.343  0.3920  0.5242 -0.2833
 6366SOL    HW130560   3.037   0.770   3.438 -2.7680 -0.3256 -0.8376
 6366SOL    HW230561   3.058   0.875   3.328 -1.6557  0.3707 -2.1176
 6367SOL     OW30562   1.268   3.422   8.643 -0.0443  0.8006 -0.4776
 6367SOL    HW130563   1.304   3.505   8.674  3.1523 -0.6878 -0.2864
 6367SOL    HW230564   1.195   3.408   8.703 -0.1761 -0.4575 -0.9243
 6368SOL     OW30565   0.236   0.456   9.485  0.5931  0.4544 -0.2289
 6368SOL    HW130566   0.302   0.389   9.506  0.8925  0.2630 -1.8184
 6368SOL    HW230567   0.158   0.414   9.521  1.6728 -1.9203 -0.6404
 6369SOL     OW30568   4.304   3.603  12.313 -0.3243 -1.1202  0.0104
 6369SOL    HW130569   4.383   3.591  12.366 -0.2083 -1.4916 -0.2460
 6369SOL    HW230570   4.263   3.517  12.323 -0.7616 -0.7824  1.0586
 6370SOL     OW30571   0.013   0.117   8.816 -1.0901 -0.3565  0.2017
 6370SOL    HW130572   0.101   0.103   8.850 -0.4895 -0.6191 -1.4518
 6370SOL    HW230573   0.021   0.160   8.731 -0.2635 -1.4437 -0.2627
 6371SOL     OW30574   0.507   1.195   3.830  0.1853  0.3026 -0.0498
 6371SOL    HW130575   0.602   1.196   3.820  0.0313 -1.2604 -1.7301
 6371SOL    HW230576   0.501   1.100   3.844  0.5197  0.2794 -0.0549
 6372SOL     OW30577   4.002   0.716   3.688  0.9583  0.7581  0.1708
 6372SOL    HW130578   3.942   0.783   3.655  0.5638 -0.5156 -1.7340
 6372SOL    HW230579   4.052   0.681   3.615  0.3624  0.3255 -0.0359
 6373SOL     OW30580   2.160   2.592   5.190  0.5875 -0.5407 -0.0653
 6373SOL    HW130581   2.117   2.558   5.112  1.5056  0.4634 -1.0134
 6373SOL    HW230582   2.167   2.503   5.223 -2.7264 -0.6444  0.3865
 6374SOL     OW30583   2.387   0.801   2.872 -0.3393 -0.5611  0.3484
 6374SOL    HW130584   2.332   0.732   2.907 -3.0084 -0.2223 -3.1575
 6374SOL    HW230585   2.333   0.880   2.870  0.1764 -0.1832  1.1597
 6375SOL     OW30586   4.179   1.106  10.304  0.3479 -0.0084 -0.2085
 6375SOL    HW130587   4.207   1.185  10.351  1.7160 -1.0027  0.6620
 6375SOL    HW230588   4.119   1.059  10.362  1.0134  0.1792  0.6319
 6376SOL     OW30589   2.748   1.020   2.674  0.7149  0.2798  0.2452
 6376SOL    HW130590   2.688   1.089   2.702  0.1839  0.1210 -0.4882
 6376SOL    HW230591   2.694   0.981   2.605 -0.2380  0.2793  0.9911
 6377SOL     OW30592   0.391   2.345   9.447 -0.1984 -0.6087  0.1945
 6377SOL    HW130593   0.413   2.255   9.424  0.6949 -0.1375 -0.8203
 6377SOL    HW230594   0.477   2.364   9.485 -1.1628  1.2911  1.4376
 6378SOL     OW30595   3.037   0.803   0.065  0.6358  0.3275 -0.0405
 6378SOL    HW130596   3.108   0.858   0.099  1.3375 -1.1030  0.8090
 6378SOL    HW230597   2.974   0.868   0.033  2.2620  1.8313 -0.1890
 6379SOL     OW30598   3.224   3.867   2.512 -0.0913 -0.2606 -0.3447
 6379SOL    HW130599   3.133   3.856   2.538 -0.3100 -2.0651 -1.8237
 6379SOL    HW230600   3.214   3.962   2.509 -0.7086 -0.3244 -0.2479
 6380SOL     OW30601   4.164   1.926   4.528  0.2447 -0.6002 -0.0515
 6380SOL    HW130602   4.232   1.910   4.594 -0.4050 -0.3385  0.6797
 6380SOL    HW230603   4.089   1.890   4.574 -0.8862 -1.6148 -2.7046
 6381SOL     OW30604   3.722   0.935  10.681  0.0934  0.0638 -0.7852
 6381SOL    HW130605   3.671   0.999  10.731 -0.2265  1.4924 -2.9542
 6381SOL    HW230606   3.787   0.982  10.630  0.8226  0.0662  0.1403
 6382SOL     OW30607   0.406   0.500   2.754 -0.1589 -0.2882 -0.5182
 6382SOL    HW130608   0.401   0.417   2.707 -2.8559  0.6184 -1.7966
 6382SOL    HW230609   0.342   0.550   2.704 -0.2124  0.7579  0.5971
 6383SOL     OW30610   1.504   4.318  13.418 -0.5763 -0.2521 -0.5054
 6383SOL    HW130611   1.595   4.309  13.386 -1.1537 -1.9966 -1.6956
 6383SOL    HW230612   1.482   4.234  13.459 -2.4103  0.0364 -0.9437
 6384SOL     OW30613   0.916   0.136   6.585 -0.3260  0.8728  0.0535
 6384SOL    HW130614   0.838   0.144   6.640 -0.2678 -0.8362  0.3920
 6384SOL    HW230615   0.967   0.215   6.602  1.4523 -0.4618  0.9598
 6385SOL     OW30616   0.436   1.099   4.381  0.1721  0.2838  1.0798
 6385SOL    HW130617   0.350   1.062   4.401  0.1820  0.5640  1.6408
 6385SOL    HW230618   0.494   1.027   4.404 -1.3688 -1.5548 -0.7518
 6386SOL     OW30619   1.109   1.132   1.873  0.2980  0.1135  0.2250
 6386SOL    HW130620   1.036   1.106   1.930 -0.3854  0.1469 -0.6207
 6386SOL    HW230621   1.148   1.049   1.846  1.7663  1.0164 -0.3692
 6387SOL     OW30622   0.426   2.100  14.923  0.0685 -0.0513 -0.1435
 6387SOL    HW130623   0.405   2.153  15.000  0.8477  1.0969 -0.7089
 6387SOL    HW230624   0.346   2.047  14.926  1.5804 -2.3571 -0.7481
 6388SOL     OW30625   3.654   1.903   9.277  0.3561 -0.2110  0.2414
 6388SOL    HW130626   3.699   1.819   9.267  1.9633  0.6910 -0.2176
 6388SOL    HW230627   3.593   1.876   9.345 -1.3011  2.9756  0.0220
 6389SOL     OW30628   3.013   0.222   8.981  0.3601 -0.0864 -0.2763
 6389SOL    HW130629   3.102   0.211   9.015 -0.0313 -2.7028 -0.1206
 6389SOL    HW230630   2.973   0.135   8.978  0.3347 -0.0610 -0.7379
 6390SOL     OW30631   2.336   1.607  17.054  0.1785 -0.3137 -0.2183
 6390SOL    HW130632   2.335   1.525  17.104  1.7385 -0.2744 -0.1133
 6390SOL    HW230633   2.426   1.603  17.023  0.3814  0.8096  0.2469
 6391SOL     OW30634   2.881   2.817   8.459 -0.0130 -0.1635  0.3610
 6391SOL    HW130635   2.806   2.775   8.417 -0.5443  0.0418  1.1008
 6391SOL    HW230636   2.956   2.792   8.406  0.7282  3.4748 -0.3102
 6392SOL     OW30637   3.461   1.187  15.654  0.1861  0.4464  0.0110
 6392SOL    HW130638   3.476   1.199  15.748  1.0794 -0.9191  0.0534
 6392SOL    HW230639   3.490   1.270  15.616  1.9684  0.8740  2.2737
 6393SOL     OW30640   3.919   1.234   4.460 -0.1417 -0.1001  0.2440
 6393SOL    HW130641   3.873   1.154   4.433  0.0183  0.5760 -2.0151
 6393SOL    HW230642   3.846   1.287   4.492 -0.0472  0.5347 -0.5867
 6394SOL     OW30643   1.285   1.002  16.645 -0.0591 -0.2031  0.1056
 6394SOL    HW130644   1.347   1.014  16.716  0.2330 -2.0232  0.1574
 6394SOL    HW230645   1.342   0.958  16.583 -0.3696 -1.9807  1.0992
 6395SOL     OW30646   2.409   2.529   5.981 -0.8074 -0.2054  0.0098
 6395SOL    HW130647   2.414   2.617   5.942 -0.9930  0.0392  0.5431
 6395SOL    HW230648   2.360   2.480   5.914  0.3405 -0.6972 -0.4637
 6396SOL     OW30649   4.039   4.200   7.679 -0.1032  0.2762  0.4637
 6396SOL    HW130650   3.993   4.166   7.603  0.3466 -0.7928  0.6742
 6396SOL    HW230651   3.982   4.168   7.749 -0.6999  2.1309  0.8395
 6397SOL     OW30652   3.692   2.330   1.203  0.3762 -0.1518  0.2489
 6397SOL    HW130653   3.698   2.402   1.267  0.1661  0.0726  0.0157
 6397SOL    HW230654   3.662   2.372   1.123 -1.0743 -0.3547  0.6956
 6398SOL     OW30655   1.352   1.429   9.677 -0.4818 -0.4048 -0.0122
 6398SOL    HW130656   1.397   1.488   9.737  0.0683 -1.8045  0.9626
 6398SOL    HW230657   1.401   1.438   9.596 -0.8071 -1.0911 -0.2874
 6399SOL     OW30658   1.840   1.789   8.492  0.3558  0.4722 -0.1033
 6399SOL    HW130659   1.910   1.725   8.479 -0.4353 -0.9623  2.7176
 6399SOL    HW230660   1.887   1.869   8.466  2.1044 -0.9653 -1.4404
 6400SOL     OW30661   4.341   0.305   0.488  0.0349 -0.5105  0.4709
 6400SOL    HW130662   4.259   0.260   0.507 -0.5327  0.8467  1.2009
 6400SOL    HW230663   4.393   0.291   0.567  0.6778  0.7287  0.2765
 6401SOL     OW30664   4.494   3.778   4.785 -0.3671 -0.5017  0.0916
 6401SOL    HW130665   4.561   3.817   4.729 -1.1489  3.8559  2.2184
 6401SOL    HW230666   4.427   3.762   4.719  3.4277 -0.6489 -3.7176
 6402SOL     OW30667   4.649   4.102   4.640  0.8067  0.4419 -0.3615
 6402SOL    HW130668   4.665   4.083   4.732  0.7125  0.8292 -0.2650
 6402SOL    HW230669   4.637   4.012   4.609  1.0612  0.1293  0.4451
 6403SOL     OW30670   3.654   2.121  13.023 -0.3505 -0.0444 -0.3542
 6403SOL    HW130671   3.563   2.113  13.052 -0.4848  1.8278 -0.2549
 6403SOL    HW230672   3.653   2.187  12.953  1.1769 -0.8038 -1.0994
 6404SOL     OW30673   2.213   3.526   4.773 -0.5106 -0.6228 -0.3318
 6404SOL    HW130674   2.241   3.524   4.865 -1.5451  2.7464  0.0619
 6404SOL    HW230675   2.118   3.534   4.781 -0.7061 -0.8909 -2.4860
 6405SOL     OW30676   0.210   3.420   8.420 -0.1280  0.4456 -0.6763
 6405SOL    HW130677   0.130   3.390   8.376 -1.2699 -1.4879  2.7150
 6405SOL    HW230678   0.242   3.481   8.354  0.4141 -0.1640 -0.9707
 6406SOL     OW30679   0.515   4.279   4.916 -0.2293  0.2008 -0.0023
 6406SOL    HW130680   0.457   4.237   4.852  0.1176  1.0377 -0.8603
 6406SOL    HW230681   0.508   4.234   5.000 -2.5095  1.0237  0.2509
 6407SOL     OW30682   2.717   1.181   8.278 -0.6375 -0.1256  0.2575
 6407SOL    HW130683   2.702   1.245   8.208 -0.5552 -0.1626  0.2058
 6407SOL    HW230684   2.745   1.100   8.236 -0.6254  0.6086 -1.1532
 6408SOL     OW30685   2.512   0.499  16.511  0.4990 -0.2179 -0.3470
 6408SOL    HW130686   2.599   0.463  16.527 -0.1469 -1.5976  0.0925
 6408SOL    HW230687   2.507   0.515  16.416 -1.2202 -0.0295 -0.2261
 6409SOL     OW30688   3.488   1.911  11.980 -0.0158  0.5826 -0.5552
 6409SOL    HW130689   3.583   1.909  11.966 -0.2879 -0.1125 -2.2641
 6409SOL    HW230690   3.464   1.997  12.016 -0.2980  0.5702 -0.7130
 6410SOL     OW30691   3.352   0.992   8.731 -0.4954  0.0437  0.4437
 6410SOL    HW130692   3.290   1.064   8.745 -0.0009  0.6359 -0.3766
 6410SOL    HW230693   3.394   0.986   8.817 -1.6901 -3.7887  0.7631
 6411SOL     OW30694   0.967   0.969   5.900 -0.2461 -0.1281 -0.5735
 6411SOL    HW130695   0.923   0.902   5.847  0.2270 -1.2518  0.4386
 6411SOL    HW230696   1.021   0.993   5.825  0.3389 -0.1683 -0.1603
 6412SOL     OW30697   3.164   2.962   4.973  0.2952  0.1944 -0.1422
 6412SOL    HW130698   3.130   2.912   5.047 -0.7514  1.4783  0.2575
 6412SOL    HW230699   3.249   2.919   4.966 -1.2252 -2.9123  0.5714
 6413SOL     OW30700   1.556   2.918   8.177  0.0001 -0.1953  0.4789
 6413SOL    HW130701   1.533   3.006   8.208 -0.4197  0.8013 -2.6973
 6413SOL    HW230702   1.529   2.864   8.252  3.1007 -0.4198  1.4801
 6414SOL     OW30703   2.718   1.674   3.666 -0.7026  0.5896  0.0853
 6414SOL    HW130704   2.742   1.735   3.597  0.3272 -0.4200 -0.4411
 6414SOL    HW230705   2.706   1.731   3.743 -1.1233 -0.7275  1.0060
 6415SOL     OW30706   3.004   3.884   4.735  0.3435 -0.2670  0.3882
 6415SOL    HW130707   2.917   3.845   4.747  1.0155 -2.0570 -0.4497
 6415SOL    HW230708   3.050   3.821   4.790  0.9697  0.1940  0.3953
 6416SOL     OW30709   4.689   3.682   9.018 -0.2731 -0.0499 -0.1286
 6416SOL    HW130710   4.616   3.732   9.056 -0.5151 -1.4056  1.1992
 6416SOL    HW230711   4.655   3.681   8.929  0.7440 -1.7912 -0.4829
 6417SOL     OW30712   3.493   1.353   3.019  0.0632  0.0385 -1.2654
 6417SOL    HW130713   3.488   1.350   3.115  1.7588  0.1144 -1.1744
 6417SOL    HW230714   3.583   1.381   3.001  0.1168  0.4402 -0.3643
 6418SOL     OW30715   3.844   4.051  11.242  0.5255  0.0308  0.9627
 6418SOL    HW130716   3.765   4.006  11.272 -0.4470  0.3334 -1.1258
 6418SOL    HW230717   3.909   3.982  11.231 -0.2065 -0.6375  0.7857
 6419SOL     OW30718   0.115   1.440   4.110  0.5733  0.2008 -0.0185
 6419SOL    HW130719   0.030   1.484   4.109  1.4322  1.8718 -0.3172
 6419SOL    HW230720   0.126   1.425   4.016 -0.6312  1.7881 -0.4182
 6420SOL     OW30721   3.924   1.760   2.849 -0.0571  0.3339 -0.7717
 6420SOL    HW130722   4.004   1.719   2.881 -0.8830  0.7562  1.8095
 6420SOL    HW230723   3.946   1.851   2.872 -1.7960  1.4651 -3.5769
 6421SOL     OW30724   3.385   2.319   3.865  0.0761 -0.3214 -0.1751
 6421SOL    HW130725   3.345   2.355   3.786 -1.2446 -0.0106  0.6361
 6421SOL    HW230726   3.428   2.238   3.837  0.7070  0.1631 -0.5916
 6422SOL     OW30727   1.777   1.699   5.944 -0.5281  0.0209 -0.1695
 6422SOL    HW130728   1.862   1.736   5.964  0.2442 -2.9539  2.1099
 6422SOL    HW230729   1.806   1.631   5.883 -1.3656  1.1133 -1.7660
 6423SOL     OW30730   1.511   3.458   8.469 -0.6296  0.4079  0.4619
 6423SOL    HW130731   1.501   3.480   8.376  0.6051  0.4348  0.3355
 6423SOL    HW230732   1.421   3.444   8.500 -0.2663  0.7320  1.6387
 6424SOL     OW30733   0.133   0.840   2.557 -0.2644 -0.2127  0.4973
 6424SOL    HW130734   0.198   0.907   2.579 -2.2385  2.5112 -2.0212
 6424SOL    HW230735   0.119   0.859   2.464 -0.6449 -2.2269  0.1476
 6425SOL     OW30736   3.407   2.132   6.679 -0.1764  0.2153 -0.1459
 6425SOL    HW130737   3.442   2.130   6.768  0.4539  1.8019 -0.3668
 6425SOL    HW230738   3.383   2.042   6.655 -0.3620  0.4557 -0.8686
 6426SOL     OW30739   1.352   1.180  13.708 -0.2734 -0.6955  0.0563
 6426SOL    HW130740   1.439   1.179  13.669 -0.0866  1.7367  0.3903
 6426SOL    HW230741   1.301   1.125  13.648  0.6087  0.5730 -1.8501
 6427SOL     OW30742   0.474   3.368   9.143  0.8115 -0.2238  0.1258
 6427SOL    HW130743   0.464   3.399   9.233  1.8957  0.2730  0.0797
 6427SOL    HW230744   0.384   3.378   9.113  0.9941  1.5905  0.1384
 6428SOL     OW30745   2.719   1.880  13.362 -0.0988  0.2153  0.5522
 6428SOL    HW130746   2.729   1.786  13.350 -0.1648  0.4042 -0.9916
 6428SOL    HW230747   2.687   1.886  13.452  0.1591  1.4188  0.5720
 6429SOL     OW30748   0.524   0.903  10.487 -0.4950 -0.6535  0.1749
 6429SOL    HW130749   0.475   0.879  10.565 -2.2249 -0.9383 -0.9947
 6429SOL    HW230750   0.455   0.936  10.429 -0.7909  1.7394  1.9282
 6430SOL     OW30751   2.503   3.316  13.674  0.5773 -0.5336 -0.6670
 6430SOL    HW130752   2.514   3.229  13.635  0.8713  0.0560 -1.8818
 6430SOL    HW230753   2.419   3.301  13.718  0.2942 -1.7803 -1.6405
 6431SOL     OW30754   3.591   0.842   8.118  0.1784  0.1248 -0.4655
 6431SOL    HW130755   3.533   0.893   8.174  1.5459  0.2915  0.8015
 6431SOL    HW230756   3.536   0.830   8.041  0.7317  2.6830 -1.2562
 6432SOL     OW30757   0.089   3.192  12.236 -0.1098  0.5214  0.4440
 6432SOL    HW130758   0.153   3.206  12.167 -1.3530 -0.5432 -0.8986
 6432SOL    HW230759   0.009   3.233  12.202  0.6680  1.3377 -0.4150
 6433SOL     OW30760   3.168   4.079  13.002  0.0484  0.3315 -0.3343
 6433SOL    HW130761   3.216   4.133  13.066 -1.5497  2.0479 -0.5868
 6433SOL    HW230762   3.241   4.023  12.976 -2.5487 -2.4614 -1.5959
 6434SOL     OW30763   1.905   4.645   6.317  0.3164 -0.1794 -0.0088
 6434SOL    HW130764   1.829   4.587   6.312  1.1792 -1.4040  1.1097
 6434SOL    HW230765   1.873   0.005   6.348  0.9176  0.3674 -0.8566
 6435SOL     OW30766   0.540   1.026  15.401 -1.0803 -0.1541  0.1263
 6435SOL    HW130767   0.589   1.091  15.351 -1.0197  1.4485  2.2573
 6435SOL    HW230768   0.499   1.081  15.468 -1.0283  1.0734 -0.8546
 6436SOL     OW30769   2.816   4.136   7.426  0.2693  0.1564 -0.1409
 6436SOL    HW130770   2.772   4.103   7.505  1.6488  0.4005  0.7445
 6436SOL    HW230771   2.853   4.053   7.395 -1.4140 -1.4883  2.2119
 6437SOL     OW30772   2.498   3.652   6.957  0.1377  0.3799  0.3102
 6437SOL    HW130773   2.514   3.581   7.020  0.1721  1.0745  1.0836
 6437SOL    HW230774   2.541   3.604   6.886 -0.2184 -0.1490  0.4578
 6438SOL     OW30775   2.958   3.131   4.201  0.3378 -0.1346 -0.8138
 6438SOL    HW130776   2.874   3.120   4.156 -0.1251  1.1778 -0.2521
 6438SOL    HW230777   2.997   3.201   4.148  1.7908 -0.1758  0.1871
 6439SOL     OW30778   3.328   1.204   6.195  0.7344  0.5784 -0.8300
 6439SOL    HW130779   3.399   1.201   6.132  0.0502 -0.1799 -1.5682
 6439SOL    HW230780   3.326   1.115   6.231 -1.0406  0.5931 -0.8645
 6440SOL     OW30781   1.137   0.229   7.229 -0.2654 -0.0068 -0.4923
 6440SOL    HW130782   1.083   0.303   7.257  1.1655  1.4740 -1.6665
 6440SOL    HW230783   1.060   0.176   7.205 -1.7533  1.1891  1.6373
 6441SOL     OW30784   0.514   0.293   0.869 -0.0527  0.5862 -0.0491
 6441SOL    HW130785   0.588   0.284   0.930 -0.0142 -0.0449 -0.1930
 6441SOL    HW230786   0.546   0.357   0.805 -1.3759  0.8171 -0.4674
 6442SOL     OW30787   3.411   0.919   0.441 -0.0255  0.0823 -0.2639
 6442SOL    HW130788   3.495   0.911   0.396  0.4577 -2.4357  1.0808
 6442SOL    HW230789   3.437   0.972   0.516 -0.3366  0.3147 -0.3210
 6443SOL     OW30790   2.355   2.802  11.380  0.2332  0.1173  0.1927
 6443SOL    HW130791   2.422   2.741  11.349 -0.7745 -0.5235 -0.7054
 6443SOL    HW230792   2.389   2.885  11.346  1.3488  0.1255  1.3115
 6444SOL     OW30793   3.905   4.647   6.411  0.1878  0.6842  0.1998
 6444SOL    HW130794   3.970   4.704   6.452  0.6562 -0.7874  1.5186
 6444SOL    HW230795   3.834   4.700   6.376  0.3933  0.0213 -1.1897
 6445SOL     OW30796   0.023   4.211   3.856 -0.8348  0.0362  0.7751
 6445SOL    HW130797   0.105   4.205   3.903 -2.0918 -1.1363  2.8188
 6445SOL    HW230798   0.031   4.302   3.826 -0.8423 -0.2502 -0.0989
 6446SOL     OW30799   3.158   3.607   2.623 -0.0238 -0.3240  0.0794
 6446SOL    HW130800   3.247   3.620   2.590  0.4575 -2.4286  0.5674
 6446SOL    HW230801   3.180   3.598   2.716 -0.9939  0.8118  0.4331
 6447SOL     OW30802   3.316   3.322   4.090 -0.6670  0.0786  0.1701
 6447SOL    HW130803   3.384   3.389   4.087 -0.0859 -0.5273 -0.3147
 6447SOL    HW230804   3.317   3.305   4.184 -0.3166  0.3977  0.2231
 6448SOL     OW30805   4.515   4.366   0.814  0.8908  0.2366 -0.3333
 6448SOL    HW130806   4.504   4.365   0.719 -0.7723  0.8866 -0.1474
 6448SOL    HW230807   4.544   4.277   0.833 -0.5095 -0.0736  0.3271
 6449SOL     OW30808   3.945   3.953   9.790  0.2601  0.7006 -0.3382
 6449SOL    HW130809   4.029   3.940   9.833  1.0328  1.5182 -1.6246
 6449SOL    HW230810   3.970   3.968   9.699  0.5667 -0.0260 -0.3775
 6450SOL     OW30811   1.833   0.625   6.859  0.0131 -0.2561 -0.1638
 6450SOL    HW130812   1.843   0.628   6.954  1.4481 -0.5810 -0.3059
 6450SOL    HW230813   1.915   0.667   6.835  0.4463 -1.1796 -0.2769
 6451SOL     OW30814   1.838   4.131   2.629 -0.2016 -0.0481 -0.1199
 6451SOL    HW130815   1.850   4.223   2.608 -3.6286  0.9265  2.1486
 6451SOL    HW230816   1.925   4.107   2.661 -0.6091 -0.5779  0.6110
 6452SOL     OW30817   4.153   4.038   3.582  0.0523 -0.2991  0.0525
 6452SOL    HW130818   4.059   4.022   3.582  0.0158 -0.0285 -0.9769
 6452SOL    HW230819   4.157   4.104   3.513 -1.2831 -2.3315 -1.9526
 6453SOL     OW30820   2.507   4.535   7.117  0.4701 -0.0968  0.1554
 6453SOL    HW130821   2.578   4.599   7.109  0.5936 -0.7340 -3.7274
 6453SOL    HW230822   2.478   4.522   7.026 -0.8301 -1.1536  0.7112
 6454SOL     OW30823   1.392   0.500  14.513 -1.0133 -0.3018 -0.1764
 6454SOL    HW130824   1.453   0.524  14.584  0.5993 -0.9116 -1.3536
 6454SOL    HW230825   1.363   0.586  14.481 -0.7451 -0.4921 -0.9319
 6455SOL     OW30826   1.845   4.328  11.774  0.0260  0.2142 -0.2541
 6455SOL    HW130827   1.825   4.235  11.759  0.3683 -0.0596  0.9505
 6455SOL    HW230828   1.938   4.324  11.796 -0.3835 -1.1691  1.2559
 6456SOL     OW30829   2.746   3.014   6.391  0.2526  0.5333 -0.0694
 6456SOL    HW130830   2.767   2.956   6.319  0.3029  1.2216 -0.6107
 6456SOL    HW230831   2.817   3.079   6.385  0.9551 -0.2225  0.0409
 6457SOL     OW30832   4.605   3.415   5.140  0.2364 -0.2043  0.2566
 6457SOL    HW130833   4.636   3.463   5.063  0.6454 -0.0614  0.5090
 6457SOL    HW230834   4.569   3.341   5.090 -1.8298 -0.7376  2.5598
 6458SOL     OW30835   3.808   2.009  11.229 -0.2253 -0.7478  0.2619
 6458SOL    HW130836   3.766   2.013  11.315  0.4341  3.5968  0.3480
 6458SOL    HW230837   3.833   2.100  11.213 -0.3975 -0.4818  1.4811
 6459SOL     OW30838   0.832   4.363   8.746 -0.2978  0.0478 -0.0863
 6459SOL    HW130839   0.875   4.281   8.769  0.2655 -0.5189 -3.2423
 6459SOL    HW230840   0.775   4.371   8.822 -1.1142  0.7970 -0.7767
 6460SOL     OW30841   1.507   4.115   5.153  0.2238 -0.3361  0.3260
 6460SOL    HW130842   1.560   4.084   5.080  1.0695  1.3752  0.2192
 6460SOL    HW230843   1.525   4.046   5.218 -0.9113 -1.0921 -0.1642
 6461SOL     OW30844   4.646   3.148  13.762 -0.0726  0.9031  0.1542
 6461SOL    HW130845   4.629   3.243  13.757  0.1952  0.9513  0.1904
 6461SOL    HW230846   0.003   3.144  13.812  0.0169 -1.6424 -0.1990
 6462SOL     OW30847   3.432   0.804  11.477  0.3849  1.2723 -0.3564
 6462SOL    HW130848   3.487   0.751  11.419 -0.3959  0.8772 -0.7333
 6462SOL    HW230849   3.347   0.801  11.433  0.4725 -0.6841 -0.3795
 6463SOL     OW30850   0.837   3.785  10.124  0.3025  0.4463  0.5731
 6463SOL    HW130851   0.843   3.878  10.101 -0.2736 -0.2094 -2.2998
 6463SOL    HW230852   0.815   3.758  10.035  1.8317  0.2173  0.2657
 6464SOL     OW30853   4.687   2.016   3.738  0.2778 -0.2253  0.0444
 6464SOL    HW130854   0.023   1.947   3.710  0.9764  0.9229 -1.2896
 6464SOL    HW230855   0.010   2.084   3.689  0.8393 -0.2641  0.5351
 6465SOL     OW30856   2.789   4.205   9.420  0.4085 -0.1161  0.0962
 6465SOL    HW130857   2.875   4.234   9.451 -0.4959  0.0765  2.3582
 6465SOL    HW230858   2.759   4.160   9.499  0.5076  2.0686  1.3752
 6466SOL     OW30859   3.515   2.619   2.652 -0.2442  0.2060  0.6487
 6466SOL    HW130860   3.431   2.613   2.697  0.1544 -0.3471  1.3029
 6466SOL    HW230861   3.503   2.573   2.568  3.1004  3.3803 -1.5696
 6467SOL     OW30862   1.712   4.339   3.803 -0.9011  0.2120 -0.1356
 6467SOL    HW130863   1.777   4.328   3.872 -1.7492 -0.2742  0.5906
 6467SOL    HW230864   1.652   4.270   3.832  1.7737 -1.1146  2.2564
 6468SOL     OW30865   2.024   3.632   8.195  0.2751  0.4943  0.1940
 6468SOL    HW130866   1.961   3.703   8.184  1.4727  1.7509  1.3898
 6468SOL    HW230867   2.107   3.674   8.222 -0.6100  2.7557 -0.5883
 6469SOL     OW30868   1.625   4.542   7.700  0.1333 -0.3182 -0.1632
 6469SOL    HW130869   1.615   4.460   7.747 -0.9417 -0.1854 -0.1637
 6469SOL    HW230870   1.568   4.543   7.623  0.4629  2.3710 -0.3771
 6470SOL     OW30871   3.789   1.314   7.490  0.3592 -0.0361 -0.0853
 6470SOL    HW130872   3.827   1.336   7.575  1.0152  1.9192 -0.8852
 6470SOL    HW230873   3.869   1.301   7.439 -0.3139 -2.8301 -0.4219
 6471SOL     OW30874   3.892   0.122   3.498 -0.1979  0.1049  0.2651
 6471SOL    HW130875   3.930   0.111   3.411 -0.5358 -0.8904  0.2379
 6471SOL    HW230876   3.949   0.193   3.529 -0.2334 -1.1390  3.1965
 6472SOL     OW30877   2.228   0.996   6.071 -0.2777 -0.2140  0.4928
 6472SOL    HW130878   2.154   1.053   6.050 -0.4546 -0.2113  1.1553
 6472SOL    HW230879   2.253   0.955   5.988  1.7317  0.4453  0.7687
 6473SOL     OW30880   0.089   2.037   7.328  0.3819  0.0272 -0.1641
 6473SOL    HW130881   0.094   1.952   7.370  0.8233 -1.2800 -2.8727
 6473SOL    HW230882   0.136   2.009   7.249  0.7315 -0.8596  0.3645
 6474SOL     OW30883   2.077   3.190   5.960 -0.0864  0.1693 -0.1940
 6474SOL    HW130884   2.163   3.207   5.923  1.6488 -0.8960  3.3276
 6474SOL    HW230885   2.100   3.205   6.051 -1.4331 -2.3064  0.5705
 6475SOL     OW30886   0.179   1.612   3.097 -0.9869  0.2371 -0.8716
 6475SOL    HW130887   0.087   1.590   3.111 -0.0837 -1.9513  1.6673
 6475SOL    HW230888   0.160   1.675   3.028 -1.7777 -1.5348 -2.2917
 6476SOL     OW30889   1.427   3.873   2.815  0.1333  0.0581  0.4407
 6476SOL    HW130890   1.500   3.933   2.805  0.7963 -1.0284 -1.2095
 6476SOL    HW230891   1.398   3.879   2.906 -2.1335 -0.7296 -0.2111
 6477SOL     OW30892   0.998   0.206  11.450 -0.1227  0.2308 -0.6896
 6477SOL    HW130893   1.014   0.192  11.543 -2.5077 -1.8286 -0.5872
 6477SOL    HW230894   0.957   0.124  11.423 -0.9017 -0.1672  1.6891
 6478SOL     OW30895   1.449   2.146  12.672  0.4537  0.3911 -0.1304
 6478SOL    HW130896   1.499   2.228  12.673 -0.7366  1.1041  1.2249
 6478SOL    HW230897   1.514   2.076  12.680 -0.4528 -0.1889  2.2191
 6479SOL     OW30898   2.357   1.494   5.704  0.1089  0.2688  0.0364
 6479SOL    HW130899   2.433   1.492   5.762 -0.8469 -1.4009  1.2076
 6479SOL    HW230900   2.332   1.586   5.715 -1.8191 -0.1612 -0.7905
 6480SOL     OW30901   2.794   0.429   4.330 -0.2191 -0.1778 -0.0685
 6480SOL    HW130902   2.818   0.336   4.322  1.3858  0.1671  0.6594
 6480SOL    HW230903   2.701   0.412   4.342  0.2754 -3.2447 -0.6235
 6481SOL     OW30904   1.362   2.136   9.999  0.2835 -0.0485 -0.3035
 6481SOL    HW130905   1.399   2.147   9.911  1.1275  0.8774  0.1702
 6481SOL    HW230906   1.441   2.156  10.050 -0.0035  1.2171 -0.3590
 6482SOL     OW30907   0.918   2.573   5.687 -0.1203  0.1952  0.3807
 6482SOL    HW130908   0.920   2.561   5.592  2.3452 -0.3171  0.4771
 6482SOL    HW230909   1.011   2.587   5.705 -0.2445 -1.5154  2.3981
 6483SOL     OW30910   2.771   3.987   7.090 -0.3781  0.5098  0.1648
 6483SOL    HW130911   2.756   4.074   7.054  0.4688  0.7075  0.3032
 6483SOL    HW230912   2.802   3.992   7.181  0.8872 -0.3761 -0.2158
 6484SOL     OW30913   2.565   3.842   3.471 -0.0170 -0.6650 -0.5393
 6484SOL    HW130914   2.590   3.923   3.428 -1.5018 -0.4263 -0.9524
 6484SOL    HW230915   2.506   3.807   3.404 -0.5078 -1.9307  0.5260
 6485SOL     OW30916   1.206   1.790  13.775  0.1497  0.5211 -0.5160
 6485SOL    HW130917   1.216   1.875  13.732  0.3403  0.5717 -0.3700
 6485SOL    HW230918   1.209   1.732  13.699  1.1959  0.5476 -0.4875
 6486SOL     OW30919   1.953   4.378   7.690 -0.1974  0.6561 -0.0889
 6486SOL    HW130920   2.031   4.335   7.654 -0.2149 -0.9859  1.8200
 6486SOL    HW230921   1.953   4.364   7.785  0.1861 -2.8421 -0.6064
 6487SOL     OW30922   3.801   0.563   9.712  0.1493  0.4091 -0.0361
 6487SOL    HW130923   3.894   0.541   9.704  0.1523  0.0942  0.7865
 6487SOL    HW230924   3.799   0.562   9.808  1.8934 -1.1486 -0.0281
 6488SOL     OW30925   1.206   0.242   4.995  0.4020 -0.1308  0.1977
 6488SOL    HW130926   1.152   0.239   5.074 -0.4015 -0.6872 -0.3819
 6488SOL    HW230927   1.294   0.244   5.034  0.9187 -0.9181 -0.9009
 6489SOL     OW30928   0.539   0.138  11.546  0.1232 -0.2705 -0.2684
 6489SOL    HW130929   0.598   0.193  11.598 -0.8291 -1.1992  1.7764
 6489SOL    HW230930   0.468   0.125  11.608  3.6882  1.0420  4.0492
 6490SOL     OW30931   0.346   3.229   4.946 -0.4886 -0.1845  0.2691
 6490SOL    HW130932   0.430   3.266   4.975 -0.2777 -0.4031 -0.0628
 6490SOL    HW230933   0.368   3.213   4.854  1.3933  1.9089  0.3418
 6491SOL     OW30934   2.785   4.358   7.304  0.5491 -0.1934  0.2601
 6491SOL    HW130935   2.800   4.278   7.354  0.1373 -0.5632 -0.2115
 6491SOL    HW230936   2.748   4.323   7.223 -2.6225 -1.2614  2.2152
 6492SOL     OW30937   3.506   1.182   0.950  0.8462 -0.3222 -0.5558
 6492SOL    HW130938   3.550   1.106   0.912  1.8429 -0.5910  1.1413
 6492SOL    HW230939   3.412   1.165   0.943  0.7818  0.0340 -0.5666
 6493SOL     OW30940   1.139   0.340  10.739 -0.3502  0.1480 -0.5207
 6493SOL    HW130941   1.152   0.266  10.679  1.1676 -0.6852  0.8409
 6493SOL    HW230942   1.162   0.296  10.821  0.5627  0.6728 -0.4897
 6494SOL     OW30943   4.286   2.338  15.075  0.1866 -0.3378  0.2896
 6494SOL    HW130944   4.275   2.431  15.092  0.0856 -0.8615  3.0145
 6494SOL    HW230945   4.275   2.338  14.980  3.2211 -0.6458 -0.0689
 6495SOL     OW30946   3.545   1.710   2.495  0.2994  0.5038  0.3139
 6495SOL    HW130947   3.546   1.619   2.468  1.3223  0.6653 -0.1986
 6495SOL    HW230948   3.454   1.712   2.525  0.8279  0.9671  1.8975
 6496SOL     OW30949   3.872   4.570  10.656 -0.5548 -0.5356 -0.0469
 6496SOL    HW130950   3.889   4.664  10.653 -2.2002 -0.2002  1.3188
 6496SOL    HW230951   3.856   4.542  10.566 -2.4088 -0.9915  0.4219
 6497SOL     OW30952   0.016   0.993  17.081 -0.0473 -0.0926  0.3446
 6497SOL    HW130953   4.654   0.953  17.080 -1.0045  1.9199  2.8909
 6497SOL    HW230954   4.718   1.081  17.110 -0.5654  0.1394 -0.7701
 6498SOL     OW30955   1.145   0.632  11.812 -0.1432  0.2295  0.4422
 6498SOL    HW130956   1.123   0.550  11.767 -3.1316  3.4154 -3.9291
 6498SOL    HW230957   1.199   0.686  11.755 -1.9778 -0.4821 -1.9584
 6499SOL     OW30958   3.851   3.807   8.639 -1.0098 -0.5469 -0.1437
 6499SOL    HW130959   3.783   3.759   8.687 -0.2050 -0.2805  1.2735
 6499SOL    HW230960   3.824   3.810   8.547  0.0669 -2.4387 -0.5104
 6500SOL     OW30961   4.296   3.620   6.441 -0.4326 -0.5605 -0.5839
 6500SOL    HW130962   4.295   3.525   6.429 -1.9994 -0.7549  1.1035
 6500SOL    HW230963   4.328   3.617   6.531  2.3688  1.9387 -1.5186
 6501SOL     OW30964   3.220   3.993   3.557  0.2495 -0.3006 -0.0034
 6501SOL    HW130965   3.169   4.021   3.633  1.2610  0.4204  0.4203
 6501SOL    HW230966   3.232   3.899   3.566 -2.5646 -0.4803  1.7141
 6502SOL     OW30967   2.130   1.778   5.797  0.7046  0.4177 -0.3257
 6502SOL    HW130968   2.096   1.711   5.737  0.6034  1.0902 -1.0178
 6502SOL    HW230969   2.111   1.854   5.743  0.6334 -0.3114 -1.3220
 6503SOL     OW30970   3.523   1.592   7.100  0.3480  0.4470  0.0143
 6503SOL    HW130971   3.609   1.551   7.110 -0.1013 -0.2239  1.1240
 6503SOL    HW230972   3.532   1.657   7.030  0.0890  0.2754 -0.1755
 6504SOL     OW30973   1.844   4.318  16.437 -0.7358 -0.0702 -0.3315
 6504SOL    HW130974   1.773   4.323  16.501 -0.4290  0.9891 -0.0666
 6504SOL    HW230975   1.911   4.274  16.489 -1.0344 -0.0396  0.0809
 6505SOL     OW30976   1.051   0.147  10.534 -0.2661 -0.2273 -0.2981
 6505SOL    HW130977   1.109   0.120  10.463  2.4557 -0.3872  1.9515
 6505SOL    HW230978   1.016   0.229  10.499  0.2633 -0.4414 -1.3371
 6506SOL     OW30979   0.334   2.506  16.132  0.1057  0.0467 -0.3720
 6506SOL    HW130980   0.372   2.529  16.217 -0.6453  1.4396 -0.4157
 6506SOL    HW230981   0.411   2.491  16.077 -0.4300  1.8518 -1.6496
 6507SOL     OW30982   3.735   0.481   1.723 -0.0513 -0.1671 -0.0069
 6507SOL    HW130983   3.791   0.405   1.710  1.3309  0.5856  1.5492
 6507SOL    HW230984   3.743   0.536   1.645 -0.6920  0.5312  0.4244
 6508SOL     OW30985   4.706   0.610   8.788 -0.0384 -0.0035 -0.3663
 6508SOL    HW130986   0.032   0.542   8.833 -0.6096  1.2675  2.1969
 6508SOL    HW230987   0.056   0.647   8.742 -0.1580  0.3900 -0.2489
 6509SOL     OW30988   0.066   4.235   1.950 -0.5745  0.1490  0.4264
 6509SOL    HW130989   0.054   4.144   1.923  0.2473  0.1026  0.2352
 6509SOL    HW230990   0.142   4.227   2.007 -0.4641 -0.8590  0.1267
 6510SOL     OW30991   1.175   1.706  10.812 -0.0728 -0.4225  0.1279
 6510SOL    HW130992   1.257   1.751  10.834 -0.8237  0.0582  1.9786
 6510SOL    HW230993   1.208   1.631  10.763  2.6571  2.2851 -2.1665
 6511SOL     OW30994   2.307   1.265   6.269 -0.5039 -0.1241 -0.2449
 6511SOL    HW130995   2.265   1.322   6.205 -0.8447 -1.3741 -1.1119
 6511SOL    HW230996   2.242   1.244   6.336  0.1637 -0.6117  0.2562
 6512SOL     OW30997   4.433   4.713   9.913  0.0726 -0.2123 -0.6084
 6512SOL    HW130998   4.405   4.641   9.969 -1.0894  0.5445 -0.2034
 6512SOL    HW230999   4.498   4.677   9.853  0.6761  1.0485 -0.7291
 6513SOL     OW31000   3.131   3.674  12.262 -0.1818 -0.1134  0.4190
 6513SOL    HW131001   3.129   3.769  12.252 -2.3264  0.1422  3.2471
 6513SOL    HW231002   3.145   3.673  12.357  0.5455 -1.3556  0.3023
 6514SOL     OW31003   3.857   3.707   8.173 -0.8286  0.2420 -0.0816
 6514SOL    HW131004   3.851   3.628   8.119  1.0132  0.4396 -0.5506
 6514SOL    HW231005   3.819   3.771   8.113 -1.7402  0.1270  0.3760
 6515SOL     OW31006   0.910   4.456   8.511  0.2074 -0.3027 -0.1392
 6515SOL    HW131007   0.878   4.546   8.521  1.3471  0.1761 -0.8502
 6515SOL    HW231008   0.882   4.410   8.590  1.2994 -4.4352 -2.1791
 6516SOL     OW31009   1.961   1.180   5.192 -0.3483  0.1659 -0.1721
 6516SOL    HW131010   1.885   1.212   5.144 -0.4073 -1.3319 -1.0772
 6516SOL    HW231011   1.936   1.102   5.241 -0.6963  0.3029 -0.1333
 6517SOL     OW31012   0.730   4.563  11.758  0.0980 -0.1164  0.1140
 6517SOL    HW131013   0.709   4.644  11.711  0.7384  1.9460  3.3633
 6517SOL    HW231014   0.812   4.537  11.717  0.5220  0.6083  0.5022
 6518SOL     OW31015   1.729   3.196   7.141  0.8046  0.0531  0.1193
 6518SOL    HW131016   1.671   3.267   7.113  1.1095 -0.4659 -1.8139
 6518SOL    HW231017   1.801   3.251   7.174 -1.3974  2.9041  0.1527
 6519SOL     OW31018   3.228   3.291   3.303  0.3964 -0.4142 -0.0245
 6519SOL    HW131019   3.317   3.322   3.320 -0.0323  1.1270 -0.5527
 6519SOL    HW231020   3.246   3.225   3.237 -0.4087 -4.0291  3.3594
 6520SOL     OW31021   2.594   2.842   7.606 -0.3355 -0.2420 -0.5161
 6520SOL    HW131022   2.500   2.827   7.606 -0.5371  1.0185 -0.2314
 6520SOL    HW231023   2.599   2.921   7.661 -0.0245 -1.0804  0.6631
 6521SOL     OW31024   0.260   1.951   7.120  0.1175  0.1324  0.8414
 6521SOL    HW131025   0.331   1.984   7.064 -1.4786 -0.7183 -1.6670
 6521SOL    HW231026   0.264   1.856   7.114 -3.0847  0.1093 -0.6079
 6522SOL     OW31027   3.127   1.712   6.586  0.8150 -0.2038 -0.1060
 6522SOL    HW131028   3.144   1.621   6.561  1.3443  0.0753 -0.7728
 6522SOL    HW231029   3.102   1.733   6.496  0.7526  2.6688  0.5812
 6523SOL     OW31030   1.351   2.032   5.623  0.1840 -0.0890 -0.2880
 6523SOL    HW131031   1.389   1.948   5.595  0.7994  0.0205  0.2309
 6523SOL    HW231032   1.336   2.076   5.540  1.0129 -1.1294 -0.9879
 6524SOL     OW31033   1.531   2.504   7.945  0.1695 -0.1459  0.2446
 6524SOL    HW131034   1.452   2.555   7.961  0.2677  0.8570 -2.4035
 6524SOL    HW231035   1.590   2.551   8.003 -0.0737 -0.4778  0.7596
 6525SOL     OW31036   3.656   4.029   7.807  0.1718 -0.4743  0.0036
 6525SOL    HW131037   3.583   3.968   7.820 -0.7579  0.7940  0.8242
 6525SOL    HW231038   3.662   4.033   7.712 -2.2508 -1.0760 -0.1914
 6526SOL     OW31039   2.582   3.019   7.821  0.3970 -0.6641  0.2231
 6526SOL    HW131040   2.555   2.959   7.891 -2.5067  0.3793 -0.0095
 6526SOL    HW231041   2.671   3.040   7.851  1.4076 -1.6404 -2.1041
 6527SOL     OW31042   0.446   3.586   5.680 -0.5502  0.4006 -0.6867
 6527SOL    HW131043   0.531   3.570   5.639  0.2869 -1.6610  1.9197
 6527SOL    HW231044   0.473   3.670   5.715 -0.6244  0.4799 -0.8169
 6528SOL     OW31045   3.010   3.178  17.025  0.5352 -0.2174  0.2776
 6528SOL    HW131046   2.969   3.234  16.959  0.9591 -1.0012 -0.6568
 6528SOL    HW231047   2.959   3.192  17.104 -1.8978 -1.1016 -1.1306
 6529SOL     OW31048   4.123   2.072   6.093 -0.0984 -0.3333 -0.0548
 6529SOL    HW131049   4.141   1.990   6.048  0.5804  0.9466 -2.1414
 6529SOL    HW231050   4.085   2.039   6.174  1.0780  0.6570  0.9089
 6530SOL     OW31051   1.401   4.530   2.432 -0.3969  0.1804  0.2797
 6530SOL    HW131052   1.432   4.541   2.342 -0.4375  2.7329  0.5706
 6530SOL    HW231053   1.356   4.447   2.439 -0.7509  0.3785  0.3445
 6531SOL     OW31054   2.411   1.483   1.409  0.1279  0.4968 -0.2708
 6531SOL    HW131055   2.499   1.454   1.433 -0.2626 -1.6069 -1.3206
 6531SOL    HW231056   2.429   1.530   1.328 -0.1308  0.1895 -0.5059
 6532SOL     OW31057   3.313   1.116   7.393 -0.6634  0.1477  0.1605
 6532SOL    HW131058   3.400   1.155   7.391 -0.8632  0.4361 -3.1024
 6532SOL    HW231059   3.338   1.023   7.395  1.1952  0.6307 -0.9016
 6533SOL     OW31060   3.376   2.150  16.374  0.4453 -0.0771 -0.1292
 6533SOL    HW131061   3.441   2.128  16.308 -0.2277 -1.6912 -0.2346
 6533SOL    HW231062   3.347   2.238  16.349  2.8770  0.4426 -1.1402
 6534SOL     OW31063   4.025   3.204   3.310  0.8842  0.9570  0.1474
 6534SOL    HW131064   4.010   3.123   3.359  0.8111  2.1623  2.1075
 6534SOL    HW231065   4.118   3.208   3.333  0.8150 -2.2524  0.9849
 6535SOL     OW31066   0.259   3.315   6.246 -0.4895  0.5171 -0.4570
 6535SOL    HW131067   0.217   3.334   6.162  1.3211 -0.5427 -1.6171
 6535SOL    HW231068   0.340   3.276   6.213 -0.3550  1.2713 -1.0306
 6536SOL     OW31069   3.267   0.197  16.563 -0.8030  0.4355 -0.0753
 6536SOL    HW131070   3.237   0.288  16.563  1.0127  1.0370 -0.1822
 6536SOL    HW231071   3.310   0.182  16.648 -1.4730 -1.3498 -0.0427
 6537SOL     OW31072   1.040   0.664   0.581  1.4242  0.0521  0.2093
 6537SOL    HW131073   0.970   0.638   0.641  0.2468  0.3369 -1.0446
 6537SOL    HW231074   0.992   0.706   0.509 -0.2236 -2.6118 -0.2434
 6538SOL     OW31075   2.454   3.308   8.738  0.0765 -0.0477  0.8350
 6538SOL    HW131076   2.446   3.281   8.646 -1.0017  1.0204  0.6127
 6538SOL    HW231077   2.370   3.279   8.775 -0.2330 -0.9983 -0.5847
 6539SOL     OW31078   0.950   3.425   6.267  0.3824  0.0439  0.1042
 6539SOL    HW131079   0.897   3.353   6.302 -1.7898  1.6727  0.1598
 6539SOL    HW231080   0.877   3.481   6.242  2.0453  1.9637 -0.3919
 6540SOL     OW31081   0.005   4.528   3.952  0.0819  0.1379  0.3460
 6540SOL    HW131082   0.016   4.589   4.025 -0.9123 -0.4111  0.9663
 6540SOL    HW231083   4.634   4.527   3.961  0.1023 -1.8165  0.3677
 6541SOL     OW31084   0.248   2.995   5.127 -0.0224 -0.0147  0.2657
 6541SOL    HW131085   0.192   3.052   5.180  0.2317 -0.0659  0.5873
 6541SOL    HW231086   0.282   3.060   5.065  0.1694  0.9487  1.3803
 6542SOL     OW31087   4.167   1.708   4.993  0.5811 -0.3652 -0.5884
 6542SOL    HW131088   4.151   1.658   5.072 -0.7899  2.2686  0.8105
 6542SOL    HW231089   4.167   1.631   4.937 -0.3565 -0.7928 -0.0027
 6543SOL     OW31090   4.561   1.324  13.814  0.5748 -0.0049  0.1927
 6543SOL    HW131091   4.481   1.274  13.830 -0.4696  0.9971 -1.8868
 6543SOL    HW231092   4.563   1.387  13.886  0.7604  0.6138 -0.3605
 6544SOL     OW31093   3.493   1.939   5.118  0.2315  0.0052 -0.5353
 6544SOL    HW131094   3.524   2.027   5.097 -3.8616  1.9136  1.3697
 6544SOL    HW231095   3.504   1.938   5.213 -1.0390  3.2626 -0.3706
 6545SOL     OW31096   3.852   4.647   5.690 -0.4811  0.3266 -0.2890
 6545SOL    HW131097   3.778   4.648   5.629  0.5288 -1.3936 -1.5556
 6545SOL    HW231098   3.850   0.012   5.724 -1.0868  1.2215 -2.6900
 6546SOL     OW31099   4.409   2.843   1.913  0.1212 -0.1786 -0.0513
 6546SOL    HW131100   4.460   2.924   1.909 -0.6716  0.1946 -2.8428
 6546SOL    HW231101   4.428   2.816   2.003  0.6440  1.1185  0.2202
 6547SOL     OW31102   0.775   2.762   5.865  0.1922 -0.0939  0.1013
 6547SOL    HW131103   0.739   2.718   5.942 -2.3974  0.6542 -0.6714
 6547SOL    HW231104   0.809   2.694   5.807 -0.4097 -0.6825  0.4421
 6548SOL     OW31105   3.305   0.352   2.294 -0.1351 -0.5780 -0.0385
 6548SOL    HW131106   3.330   0.293   2.222  0.2782  0.3964 -0.7023
 6548SOL    HW231107   3.385   0.405   2.299 -0.5960 -0.0092  1.2475
 6549SOL     OW31108   1.825   4.417   4.505 -0.5471  0.2403 -0.4018
 6549SOL    HW131109   1.785   4.359   4.440  1.6802 -0.1960 -1.3980
 6549SOL    HW231110   1.756   4.433   4.569 -0.7809  1.4309 -0.9589
 6550SOL     OW31111   3.155   1.363   0.804  0.5398  0.1977 -0.1500
 6550SOL    HW131112   3.088   1.387   0.868  1.7454  0.9296  0.8344
 6550SOL    HW231113   3.222   1.428   0.822  1.5187 -0.8022 -0.2087
 6551SOL     OW31114   3.645   3.458   7.833  0.3085  0.6634 -0.5348
 6551SOL    HW131115   3.560   3.494   7.854  1.0106  1.1658  1.4932
 6551SOL    HW231116   3.635   3.366   7.857  2.0183  0.7393  0.5238
 6552SOL     OW31117   2.612   2.105  11.535 -0.4737 -0.2453  0.6658
 6552SOL    HW131118   2.580   2.051  11.462 -1.6243  1.1890  0.1133
 6552SOL    HW231119   2.626   2.187  11.489 -3.1241  0.3960  1.0074
 6553SOL     OW31120   4.640   2.548   4.765 -0.3957  0.0128 -0.5579
 6553SOL    HW131121   4.642   2.563   4.859  1.8724 -0.0287 -0.5991
 6553SOL    HW231122   4.562   2.493   4.775  0.5302 -1.1211  0.3458
 6554SOL     OW31123   1.667   1.973   2.721  0.3197  0.3513 -0.0941
 6554SOL    HW131124   1.681   2.060   2.684 -0.7363  1.1101  1.2988
 6554SOL    HW231125   1.583   1.987   2.764 -0.2937 -1.2520 -0.7669
 6555SOL     OW31126   4.504   0.577   0.125  0.4474  0.3984 -0.0643
 6555SOL    HW131127   4.564   0.516   0.083  1.8025  0.2404  2.0834
 6555SOL    HW231128   4.465   0.630   0.055 -1.6889  0.5909  1.2840
 6556SOL     OW31129   3.771   1.069   4.078 -0.2985 -0.3943  0.3784
 6556SOL    HW131130   3.806   1.066   4.167  2.8857 -2.2167 -0.9263
 6556SOL    HW231131   3.779   0.976   4.054  0.8780 -0.6683  1.8560
 6557SOL     OW31132   3.855   3.572  16.547  0.3671  0.1645 -0.6974
 6557SOL    HW131133   3.884   3.663  16.555 -0.6842  0.3527  0.9354
 6557SOL    HW231134   3.935   3.519  16.540 -0.4349 -0.8264 -2.3592
 6558SOL     OW31135   3.437   3.674   2.594  0.3771  0.0722 -0.3181
 6558SOL    HW131136   3.371   3.743   2.589 -0.9875 -1.0994  1.8265
 6558SOL    HW231137   3.502   3.693   2.525 -0.0368  0.3277 -0.6365
 6559SOL     OW31138   2.985   1.163   3.464  0.2111  0.4633  0.1094
 6559SOL    HW131139   2.930   1.175   3.541 -0.4410 -0.4926 -0.2093
 6559SOL    HW231140   3.062   1.112   3.489 -1.3365 -2.2921 -0.7756
 6560SOL     OW31141   1.051   2.591  10.266  0.2449  0.3180 -0.1748
 6560SOL    HW131142   1.097   2.515  10.230  0.1898  1.5452 -2.8272
 6560SOL    HW231143   1.034   2.643  10.187 -0.5853 -1.9364 -1.4910
 6561SOL     OW31144   0.258   3.515   9.797 -0.1238  0.2480 -0.5124
 6561SOL    HW131145   0.172   3.545   9.767 -0.9837  0.7935  2.4429
 6561SOL    HW231146   0.297   3.602   9.803 -1.5852  0.8892 -0.2657
 6562SOL     OW31147   4.453   2.710  10.127  0.3641  0.2306  0.0474
 6562SOL    HW131148   4.406   2.635  10.163  0.3799 -0.2306 -0.9036
 6562SOL    HW231149   4.386   2.769  10.092 -0.5140 -0.9559 -0.2603
 6563SOL     OW31150   1.413   1.627  16.362  0.2101 -0.1000 -0.6048
 6563SOL    HW131151   1.469   1.560  16.402 -0.4401  1.3622  2.7484
 6563SOL    HW231152   1.345   1.575  16.319 -3.1894  3.2511  0.7763
 6564SOL     OW31153   1.522   2.645   3.034  0.9021  0.1678  0.2255
 6564SOL    HW131154   1.483   2.622   2.950  0.3515  1.7961  0.0281
 6564SOL    HW231155   1.507   2.740   3.029  4.8795  0.7566 -0.4458
 6565SOL     OW31156   1.607   4.074   2.080  0.7008  0.5392  0.7211
 6565SOL    HW131157   1.561   4.153   2.052 -0.6105  0.6787  3.2127
 6565SOL    HW231158   1.654   4.097   2.160  0.1425 -0.9747  1.4926
 6566SOL     OW31159   2.751   4.122   4.956  0.1277  0.5022  0.3848
 6566SOL    HW131160   2.694   4.086   5.024  0.9297 -2.3018 -0.4339
 6566SOL    HW231161   2.711   4.205   4.932  0.8616  0.5504 -0.6547
 6567SOL     OW31162   3.102   1.383  17.503 -0.0615  0.4703 -0.3122
 6567SOL    HW131163   3.187   1.375  17.460  0.8547  1.4040  1.2830
 6567SOL    HW231164   3.117   1.467  17.548 -1.8856  1.3992 -1.4513
 6568SOL     OW31165   3.118   0.108   5.098 -0.3555  0.2784  0.3826
 6568SOL    HW131166   3.085   0.018   5.106 -0.7257  0.6484  2.9103
 6568SOL    HW231167   3.132   0.110   5.003  0.2428  3.3470  0.5460
 6569SOL     OW31168   3.613   4.534  10.811  0.1020 -0.3263  0.7547
 6569SOL    HW131169   3.661   4.555  10.730 -3.8087  3.3817 -0.5896
 6569SOL    HW231170   3.653   4.591  10.877  0.7705  0.6592 -0.5013
 6570SOL     OW31171   4.049   1.762   9.814  0.3805  0.2749  0.0702
 6570SOL    HW131172   3.971   1.807   9.781  1.0849  2.2663  1.1397
 6570SOL    HW231173   4.007   1.706   9.880 -1.5817  3.2944  1.3849
 6571SOL     OW31174   3.100   0.942   6.339  0.2671 -0.0730  0.0668
 6571SOL    HW131175   3.143   0.893   6.269  0.7777 -2.8691  2.3054
 6571SOL    HW231176   3.019   0.896   6.362  0.8416 -0.7565  0.7322
 6572SOL     OW31177   0.986   3.104   6.274 -0.3449 -0.6686 -0.1886
 6572SOL    HW131178   1.000   3.126   6.182  1.3359 -1.8315 -0.2201
 6572SOL    HW231179   1.000   3.009   6.277 -0.3849 -0.6764 -0.2621
 6573SOL     OW31180   0.012   1.810   2.491 -0.1240 -0.0826 -0.0548
 6573SOL    HW131181   0.078   1.754   2.450 -1.0664 -0.6905 -0.7214
 6573SOL    HW231182   4.659   1.756   2.499  0.3365 -0.6383  0.6195
 6574SOL     OW31183   2.701   4.193   9.162 -0.3804  0.2474  0.4003
 6574SOL    HW131184   2.714   4.181   9.256 -1.0923 -1.4027  0.2752
 6574SOL    HW231185   2.748   4.276   9.147  1.7167 -0.8537  0.8358
 6575SOL     OW31186   1.638   3.227   8.553  0.7020 -0.2631  0.8232
 6575SOL    HW131187   1.674   3.254   8.638  2.4279  3.0965 -0.9904
 6575SOL    HW231188   1.598   3.307   8.519 -1.9213 -1.8493  0.1588
 6576SOL     OW31189   0.584   4.243  16.876  0.0955 -0.5158 -0.1458
 6576SOL    HW131190   0.645   4.281  16.938  0.6282  2.1211 -2.2778
 6576SOL    HW231191   0.570   4.314  16.813  0.0122 -2.2953 -2.1668
 6577SOL     OW31192   1.954   2.699   7.759 -0.1764  0.0647  0.0948
 6577SOL    HW131193   1.863   2.729   7.752  0.5861  2.7143  1.9325
 6577SOL    HW231194   2.004   2.777   7.736  1.2811 -0.8284  0.2476
 6578SOL     OW31195   3.102   2.305   5.343  0.4508 -0.2611  0.5311
 6578SOL    HW131196   3.053   2.293   5.424 -1.3131 -2.5945 -0.8906
 6578SOL    HW231197   3.160   2.377   5.370  0.8715  0.6946 -2.9050
 6579SOL     OW31198   1.182   3.283   4.626  0.3338  0.6075 -0.0230
 6579SOL    HW131199   1.273   3.303   4.648  0.8069 -1.5531  0.0168
 6579SOL    HW231200   1.180   3.332   4.543  3.3871 -0.4261 -0.7103
 6580SOL     OW31201   0.013   1.199   6.479  0.1277 -0.1030  0.2334
 6580SOL    HW131202   4.667   1.146   6.442 -0.5618  1.0189 -0.0386
 6580SOL    HW231203   0.003   1.282   6.433  0.0371  0.7116  1.7401
 6581SOL     OW31204   2.686   1.706   5.086  0.4643 -0.0518 -0.1827
 6581SOL    HW131205   2.767   1.688   5.134  0.5730  2.5040  0.5594
 6581SOL    HW231206   2.709   1.659   5.005  0.3571 -0.0027 -0.2418
 6582SOL     OW31207   2.242   0.846   7.530  0.1399 -0.3882 -0.6714
 6582SOL    HW131208   2.209   0.912   7.590  0.7365  1.0356 -1.9122
 6582SOL    HW231209   2.327   0.889   7.519  0.2101 -0.1715  0.7276
 6583SOL     OW31210   2.366   2.950  11.847  0.6753 -0.0725  0.9061
 6583SOL    HW131211   2.430   2.928  11.779 -1.3297  0.4190 -1.1391
 6583SOL    HW231212   2.340   3.038  11.820 -1.0828 -0.0172  2.7623
 6584SOL     OW31213   0.664   1.067   5.932 -0.2380 -0.0754 -0.0051
 6584SOL    HW131214   0.642   1.141   5.875  0.4533  0.4033  0.3517
 6584SOL    HW231215   0.665   0.993   5.872 -1.0145 -0.8287  0.9309
 6585SOL     OW31216   1.403   3.339   8.134 -0.3875  0.8777 -0.7140
 6585SOL    HW131217   1.363   3.426   8.140 -0.7997  0.4773  2.1300
 6585SOL    HW231218   1.400   3.339   8.038 -0.8817 -0.2570 -0.6917
 6586SOL     OW31219   1.954   3.376   8.256  0.1389  0.2551  0.9114
 6586SOL    HW131220   1.890   3.387   8.326 -0.9194  0.3979 -0.0779
 6586SOL    HW231221   1.969   3.467   8.230  1.0886  0.5181  2.3682
 6587SOL     OW31222   1.893   1.378  10.303 -0.2419  0.6356 -0.2268
 6587SOL    HW131223   1.816   1.349  10.350 -0.3413  1.7830  0.3319
 6587SOL    HW231224   1.962   1.315  10.323  0.1859  1.0969 -0.2232
 6588SOL     OW31225   2.941   2.353  10.272  0.0666 -0.4217 -0.0350
 6588SOL    HW131226   2.860   2.303  10.287 -0.3181  0.0300 -0.5830
 6588SOL    HW231227   3.015   2.316  10.321 -0.4045  1.6040  2.1720
 6589SOL     OW31228   1.986   0.111  12.978  0.0649  0.6465 -0.1060
 6589SOL    HW131229   1.966   0.204  12.979  1.4274  0.9473  1.3403
 6589SOL    HW231230   2.061   0.110  13.038  0.3531  1.3849 -0.4528
 6590SOL     OW31231   4.551   3.361   3.749 -0.2802 -0.2359  0.3024
 6590SOL    HW131232   4.514   3.354   3.661  1.1672 -1.2838 -0.2267
 6590SOL    HW231233   4.644   3.343   3.739 -0.6230 -0.5653 -2.1037
 6591SOL     OW31234   2.246   4.010   3.213 -0.1511 -0.1306  0.3198
 6591SOL    HW131235   2.297   4.089   3.193 -0.8271 -0.4878 -2.8449
 6591SOL    HW231236   2.158   4.046   3.203 -0.2829 -0.2756  0.9564
 6592SOL     OW31237   1.656   4.534   3.619  0.4005  0.1605 -0.0315
 6592SOL    HW131238   1.644   4.472   3.691  0.1030  2.9964  2.3308
 6592SOL    HW231239   1.711   4.600   3.661  0.8902 -1.4908  1.9009
 6593SOL     OW31240   2.625   3.676   3.121 -0.3875 -0.0557  0.5723
 6593SOL    HW131241   2.582   3.592   3.135 -3.0167  1.0167 -0.9906
 6593SOL    HW231242   2.550   3.729   3.147 -0.2399  1.4870 -2.1999
 6594SOL     OW31243   1.031   1.229  10.653 -0.0157  0.6383 -0.1067
 6594SOL    HW131244   1.081   1.282  10.716  0.0288 -0.5144  0.8325
 6594SOL    HW231245   0.953   1.283  10.638 -1.0531 -0.0884  2.6838
 6595SOL     OW31246   0.310   3.999   4.999  0.5876 -0.2727 -0.3884
 6595SOL    HW131247   0.331   4.066   5.064  0.8475 -0.2364 -0.5079
 6595SOL    HW231248   0.305   4.040   4.913  0.9470  0.1755 -0.1963
 6596SOL     OW31249   4.314   0.605  13.131  0.2295  0.1514  0.2274
 6596SOL    HW131250   4.406   0.588  13.151 -0.3756 -0.9505  2.0372
 6596SOL    HW231251   4.283   0.607  13.222  1.4394  2.0917  0.6266
 6597SOL     OW31252   0.197   3.153  12.474 -0.8762  0.3939  0.2815
 6597SOL    HW131253   0.153   3.192  12.398  1.5038  3.0140  0.2869
 6597SOL    HW231254   0.266   3.110  12.423  0.1692  0.8784  1.3097
 6598SOL     OW31255   4.334   2.348   5.163  0.3824  0.3909  0.8702
 6598SOL    HW131256   4.316   2.430   5.209 -0.0754  0.9308 -0.2857
 6598SOL    HW231257   4.418   2.325   5.204  2.0654  1.1505 -2.1308
 6599SOL     OW31258   1.870   4.036   3.633  0.0980 -0.1102 -0.8814
 6599SOL    HW131259   1.788   4.027   3.681 -1.2886 -2.7335 -3.7400
 6599SOL    HW231260   1.920   3.958   3.655  1.1181  0.8835  0.3196
 6600SOL     OW31261   4.291   4.237   7.710 -0.2176 -0.0950 -0.4326
 6600SOL    HW131262   4.196   4.234   7.698 -0.2926 -0.7580  0.3710
 6600SOL    HW231263   4.306   4.314   7.654 -2.9184  0.0763 -0.9307
 6601SOL     OW31264   0.480   0.871   4.035 -0.6314 -0.3758  0.2858
 6601SOL    HW131265   0.449   0.786   4.003 -0.6022 -0.1658 -0.3030
 6601SOL    HW231266   0.560   0.837   4.075  0.5126  0.9776 -0.8368
 6602SOL     OW31267   0.132   4.454   3.175  0.2204 -0.1378  0.0507
 6602SOL    HW131268   0.057   4.513   3.184  0.4096  0.2645 -1.0742
 6602SOL    HW231269   0.198   4.515   3.143  0.3761 -0.0385  0.5617
 6603SOL     OW31270   2.754   2.055   5.007  0.1394  0.2739 -0.0345
 6603SOL    HW131271   2.659   2.052   5.018  0.1105 -0.1284 -0.3665
 6603SOL    HW231272   2.795   1.999   5.072 -1.2311  0.3596  0.8992
 6604SOL     OW31273   2.256   4.312   4.896 -0.0250  0.2744 -0.4678
 6604SOL    HW131274   2.195   4.300   4.969 -0.2502 -2.0999 -1.0286
 6604SOL    HW231275   2.232   4.400   4.868 -0.8747 -0.0765 -0.8554
 6605SOL     OW31276   4.593   4.353   2.082  0.0800 -0.1802  0.2321
 6605SOL    HW131277   4.555   4.265   2.082 -0.1903 -0.0572 -0.4392
 6605SOL    HW231278   4.664   4.334   2.021  0.1587  0.4904  0.1157
 6606SOL     OW31279   0.393   2.011   2.655 -0.0326 -0.4919  0.4399
 6606SOL    HW131280   0.381   2.106   2.653 -1.4513 -0.6424  1.5293
 6606SOL    HW231281   0.465   2.006   2.592 -2.1378 -0.7029 -1.9207
 6607SOL     OW31282   0.043   1.251   3.150  0.0965 -0.3912  0.5166
 6607SOL    HW131283   4.713   1.327   3.167  1.8183  1.0101 -0.2817
 6607SOL    HW231284   0.123   1.292   3.117 -2.2943  3.3126 -0.6064
 6608SOL     OW31285   3.846   1.174   1.699  0.8230 -0.2876 -0.1902
 6608SOL    HW131286   3.839   1.255   1.749 -3.5529  0.0108 -1.2239
 6608SOL    HW231287   3.937   1.185   1.672  0.5955 -0.0096 -0.8354
 6609SOL     OW31288   2.179   4.327   2.738 -0.5219  0.0330  0.4594
 6609SOL    HW131289   2.143   4.272   2.669 -0.2726 -2.1787  2.1241
 6609SOL    HW231290   2.132   4.291   2.812  1.4668  0.3820  1.9080
 6610SOL     OW31291   4.089   0.425   9.027  0.1790  0.0747 -0.0084
 6610SOL    HW131292   4.111   0.449   9.117  1.7593  0.3783 -0.4753
 6610SOL    HW231293   4.163   0.456   8.975  0.3882 -2.0632 -0.9466
 6611SOL     OW31294   3.787   3.524  12.614 -0.2299 -0.1706  0.0254
 6611SOL    HW131295   3.782   3.598  12.554 -3.4105 -1.7689 -1.7254
 6611SOL    HW231296   3.696   3.529  12.645 -0.5431 -0.3287 -0.8680
 6612SOL     OW31297   0.865   3.503   6.885 -0.3047 -0.5540 -0.0730
 6612SOL    HW131298   0.930   3.435   6.866  1.1611  1.4144 -2.1154
 6612SOL    HW231299   0.802   3.496   6.812  0.1557 -0.3668 -0.4915
 6613SOL     OW31300   1.033   1.953   5.299 -0.0291  0.4172 -0.3367
 6613SOL    HW131301   1.094   1.886   5.268 -0.2347  0.4408 -0.7961
 6613SOL    HW231302   0.977   1.968   5.223  1.6125  1.3645 -1.3725
 6614SOL     OW31303   2.650   1.307  15.068 -0.4664 -0.0234  0.5915
 6614SOL    HW131304   2.742   1.326  15.051  0.0668 -2.9405  0.2466
 6614SOL    HW231305   2.620   1.398  15.077  0.1885  0.5034 -2.4285
 6615SOL     OW31306   1.656   2.288   8.385  0.1085  0.1419  0.2012
 6615SOL    HW131307   1.665   2.226   8.457  0.1937  1.1591  1.0625
 6615SOL    HW231308   1.659   2.217   8.321 -1.6190  2.0022 -1.9318
 6616SOL     OW31309   4.035   0.260   4.797 -0.1179 -0.7828  0.7844
 6616SOL    HW131310   4.010   0.333   4.740  0.9893  0.0247  1.3527
 6616SOL    HW231311   3.954   0.211   4.813 -1.6092  1.5583  0.3389
 6617SOL     OW31312   0.729   0.690  12.351  0.0722 -0.0712  0.5955
 6617SOL    HW131313   0.805   0.741  12.380  1.5097 -1.3947 -0.8641
 6617SOL    HW231314   0.747   0.704  12.258 -0.5871 -0.8105  0.3541
 6618SOL     OW31315   3.788   4.465   6.628 -0.4835  0.1311 -0.3302
 6618SOL    HW131316   3.842   4.511   6.563 -1.7141 -0.6388 -1.8682
 6618SOL    HW231317   3.797   4.370   6.620  2.5180  0.2389  1.4850
 6619SOL     OW31318   3.524   0.631   9.593  0.5280 -0.3500 -0.3792
 6619SOL    HW131319   3.518   0.573   9.669 -1.0066  0.7258  0.3167
 6619SOL    HW231320   3.615   0.619   9.568  0.0398 -1.6490 -1.5023
 6620SOL     OW31321   0.947   3.831   7.017 -0.0724  0.1764 -0.0893
 6620SOL    HW131322   1.042   3.818   7.009 -0.2617 -0.7868 -0.7266
 6620SOL    HW231323   0.933   3.913   7.065  2.2709  0.2922  0.3875
 6621SOL     OW31324   0.696   4.535   8.032 -0.6951 -0.3706  0.6890
 6621SOL    HW131325   0.728   4.510   8.119 -0.3385  2.1757  1.2854
 6621SOL    HW231326   0.718   4.627   8.021 -0.9037 -0.5878 -1.4934
 6622SOL     OW31327   1.942   3.261   7.613  0.4567  0.4824 -0.1337
 6622SOL    HW131328   1.982   3.242   7.528 -0.9772  0.0508 -0.7138
 6622SOL    HW231329   2.009   3.309   7.661  1.2558  0.7769 -1.5482
 6623SOL     OW31330   2.442   2.925   0.641  0.5124 -0.6298 -0.2790
 6623SOL    HW131331   2.524   2.876   0.637 -0.1600 -1.7487 -0.4291
 6623SOL    HW231332   2.486   3.007   0.663 -0.7195  1.1316 -4.3837
 6624SOL     OW31333   0.791   4.404  14.158 -0.1283  0.4099 -0.5373
 6624SOL    HW131334   0.875   4.405  14.111  0.2824  1.9938  0.2468
 6624SOL    HW231335   0.730   4.416  14.086  0.9027 -1.5171 -1.7478
 6625SOL     OW31336   4.594   3.435  13.722  0.0401 -0.0211  0.0900
 6625SOL    HW131337   4.671   3.476  13.761  0.1882 -0.9032  0.7291
 6625SOL    HW231338   4.590   3.477  13.636 -1.2724 -2.0923 -0.8640
 6626SOL     OW31339   2.619   2.669   5.720 -0.0434  0.7176 -0.6692
 6626SOL    HW131340   2.666   2.691   5.639 -0.0738 -1.6491 -1.3197
 6626SOL    HW231341   2.574   2.589   5.694  2.1716 -1.3609  1.9834
 6627SOL     OW31342   3.312   4.667   6.751 -0.1332 -0.3155 -0.0397
 6627SOL    HW131343   3.306   4.573   6.736 -1.9572 -0.3707  1.0222
 6627SOL    HW231344   3.407   4.673   6.760  0.0918  0.6988 -3.1879
 6628SOL     OW31345   2.112   0.053   5.659  0.0456  0.7685  0.2718
 6628SOL    HW131346   2.135   0.012   5.743  0.2287  1.1267  0.3944
 6628SOL    HW231347   2.166   0.002   5.599 -0.3655  1.4175 -0.6648
 6629SOL     OW31348   1.154   4.092  11.614 -0.0523  0.1303  0.3158
 6629SOL    HW131349   1.173   4.157  11.681  0.2069  0.8112 -0.4146
 6629SOL    HW231350   1.076   4.126  11.570  0.2141  0.5210  0.1483
 6630SOL     OW31351   1.701   0.314  15.662  0.3016 -0.2441  0.1761
 6630SOL    HW131352   1.673   0.249  15.726 -2.9031  0.9054 -0.0732
 6630SOL    HW231353   1.783   0.274  15.632  0.1615 -0.9926  0.7861
 6631SOL     OW31354   3.016   2.764   6.415 -0.0668  0.1782 -0.1771
 6631SOL    HW131355   2.951   2.695   6.430 -0.5487  1.3764  3.2602
 6631SOL    HW231356   2.965   2.804   6.344  0.4295 -0.8606 -1.1111
 6632SOL     OW31357   3.295   0.294   9.071  0.4695 -0.2973  0.3641
 6632SOL    HW131358   3.387   0.269   9.070  0.9914  1.6408 -2.4076
 6632SOL    HW231359   3.286   0.364   9.006 -1.3435 -0.2964  0.6051
 6633SOL     OW31360   3.646   4.302  10.912  0.2031 -0.1813  0.0310
 6633SOL    HW131361   3.607   4.389  10.917 -0.3714 -0.4606  0.4980
 6633SOL    HW231362   3.652   4.293  10.817  0.9291  0.3799  0.0285
 6634SOL     OW31363   1.286   2.315   9.151  0.4110  0.1586 -0.2647
 6634SOL    HW131364   1.257   2.383   9.213  0.1408  1.5289 -1.9043
 6634SOL    HW231365   1.298   2.241   9.211 -0.1121  0.3952  0.1389
 6635SOL     OW31366   1.432   3.071   0.994  0.0508 -0.0583 -0.3649
 6635SOL    HW131367   1.414   3.116   0.911 -1.4115  0.5041  0.2570
 6635SOL    HW231368   1.508   3.018   0.972  0.8056  0.2987  1.4333
 6636SOL     OW31369   2.253   0.295  12.909 -0.2726 -0.0963  0.4629
 6636SOL    HW131370   2.237   0.210  12.868 -0.5564  1.3427 -2.3764
 6636SOL    HW231371   2.215   0.362  12.853  0.8092  1.9094  2.1083
 6637SOL     OW31372   1.937   0.494   2.257  0.5960  0.2527  0.0023
 6637SOL    HW131373   1.849   0.490   2.220  1.0259  3.7198 -1.4369
 6637SOL    HW231374   1.976   0.422   2.207  3.2756  2.2475 -0.8119
 6638SOL     OW31375   0.576   1.809   5.251 -0.2455  0.6993  0.8334
 6638SOL    HW131376   0.524   1.748   5.304 -1.0705 -0.0697 -0.8546
 6638SOL    HW231377   0.516   1.822   5.178  2.2894 -0.3866 -1.4488
 6639SOL     OW31378   3.949   0.263   8.014 -0.2979 -0.2800 -0.2153
 6639SOL    HW131379   3.999   0.204   8.071  0.4381  0.7398  0.1907
 6639SOL    HW231380   4.020   0.280   7.952 -1.4128  1.3458 -1.0302
 6640SOL     OW31381   3.373   2.821   4.726  0.2087  0.1461 -0.1954
 6640SOL    HW131382   3.312   2.889   4.694 -0.6832 -0.1608  0.8690
 6640SOL    HW231383   3.314   2.757   4.686 -1.8846  2.0226 -0.1620
 6641SOL     OW31384   1.675   1.933   8.075 -0.8566  0.3473 -0.4959
 6641SOL    HW131385   1.652   1.961   8.164  0.5478 -1.9523  0.5698
 6641SOL    HW231386   1.702   1.843   8.088 -0.4388  0.3564 -1.3088
 6642SOL     OW31387   0.095   2.222   6.426 -0.2692 -0.2444  0.4859
 6642SOL    HW131388   0.056   2.284   6.364  1.0924 -2.0265 -2.1389
 6642SOL    HW231389   0.031   2.224   6.497  1.2648  0.7864  1.8348
 6643SOL     OW31390   0.867   2.451  14.059 -0.4745  0.1530 -0.3888
 6643SOL    HW131391   0.852   2.464  13.966 -1.3999 -2.2529 -0.5733
 6643SOL    HW231392   0.794   2.481  14.112 -0.0829 -1.8728  1.3163
 6644SOL     OW31393   4.110   2.909   0.192 -0.1368 -0.5378 -0.3493
 6644SOL    HW131394   4.052   2.835   0.174  1.9815 -2.1134 -0.7298
 6644SOL    HW231395   4.075   2.922   0.280 -0.5182 -1.3550 -0.3752
 6645SOL     OW31396   4.474   4.570  16.611 -0.0576 -0.6827  0.2447
 6645SOL    HW131397   4.438   4.491  16.572 -3.3681  0.6445  0.6588
 6645SOL    HW231398   4.555   4.546  16.657  0.1384  0.3860  0.4565
 6646SOL     OW31399   0.109   2.672   2.868 -0.1776  0.5552  0.7603
 6646SOL    HW131400   0.187   2.669   2.923 -1.8935  2.9356  3.3488
 6646SOL    HW231401   0.150   2.675   2.782  2.4359 -1.4844  1.9218
 6647SOL     OW31402   3.457   2.361   6.548  0.4822  0.1471 -0.7367
 6647SOL    HW131403   3.430   2.427   6.613  0.9382 -0.1547 -0.2413
 6647SOL    HW231404   3.447   2.288   6.608  2.8416  1.1841  0.8922
 6648SOL     OW31405   1.318   0.733   7.539 -0.1795 -0.1670 -0.1587
 6648SOL    HW131406   1.266   0.775   7.471 -2.4327 -0.3880  1.4431
 6648SOL    HW231407   1.404   0.745   7.498 -0.4226  2.5793  0.1472
 6649SOL     OW31408   3.864   1.766  16.434  0.1501 -0.5535 -0.0038
 6649SOL    HW131409   3.835   1.756  16.344 -1.3745 -2.0532  0.6404
 6649SOL    HW231410   3.793   1.818  16.473 -0.6224 -0.3847 -1.6268
 6650SOL     OW31411   2.779   1.308   6.400  0.3893 -0.0346  0.2172
 6650SOL    HW131412   2.708   1.313   6.337  0.5481 -0.3411  0.0175
 6650SOL    HW231413   2.855   1.285   6.347 -0.8632 -0.0407 -1.5744
 6651SOL     OW31414   3.568   4.707   4.652 -0.3362 -0.0922 -0.1864
 6651SOL    HW131415   3.583   4.618   4.683  0.3820 -0.1523 -0.7086
 6651SOL    HW231416   3.597   4.705   4.561 -1.8547 -1.5831 -0.6428
 6652SOL     OW31417   2.020   3.307  10.109 -0.0572  0.2280  0.0804
 6652SOL    HW131418   2.015   3.364  10.187  0.4253 -0.7194  0.7969
 6652SOL    HW231419   2.066   3.235  10.151  0.7885  1.2664  0.9426
 6653SOL     OW31420   1.368   0.373   2.641 -0.0328  0.2832 -0.3571
 6653SOL    HW131421   1.377   0.456   2.688 -0.7139 -0.4271  1.0301
 6653SOL    HW231422   1.315   0.401   2.566 -0.9992  2.0621  0.9925
 6654SOL     OW31423   2.100   2.406   6.004  0.3500 -0.1191 -0.5998
 6654SOL    HW131424   2.075   2.447   5.922  0.2786  1.3035  0.1395
 6654SOL    HW231425   2.099   2.312   5.985 -3.6126 -0.1266 -0.3561
 6655SOL     OW31426   2.721   4.445   6.216 -0.0906  0.6505 -0.2922
 6655SOL    HW131427   2.743   4.538   6.219 -0.6831  0.8395 -1.9336
 6655SOL    HW231428   2.804   4.400   6.231 -0.1694 -0.1102 -2.1204
 6656SOL     OW31429   2.103   3.595   7.910  0.9300  0.1097 -0.0251
 6656SOL    HW131430   2.073   3.584   8.000 -0.6367 -0.0736 -0.5610
 6656SOL    HW231431   2.188   3.635   7.930  1.3280 -1.5630  1.6417
 6657SOL     OW31432   4.404   0.254   5.158  0.7456  0.5119 -0.3023
 6657SOL    HW131433   4.497   0.242   5.177  0.7015  1.8408  0.7697
 6657SOL    HW231434   4.397   0.215   5.071  1.4771  0.2502 -0.2379
 6658SOL     OW31435   0.579   1.812   6.569  0.6044  0.5125 -0.2741
 6658SOL    HW131436   0.566   1.904   6.589 -0.0829  0.3872 -0.1261
 6658SOL    HW231437   0.659   1.802   6.620  1.1037 -1.5058 -1.4458
 6659SOL     OW31438   4.091   3.530  16.106  0.5440 -0.4725  0.1729
 6659SOL    HW131439   4.127   3.597  16.048  0.1476  0.0591  0.5343
 6659SOL    HW231440   4.170   3.490  16.141  0.8259 -1.1743 -1.3056
 6660SOL     OW31441   2.850   2.663   5.972  0.5131  0.1164 -0.5957
 6660SOL    HW131442   2.821   2.586   6.022  0.5817 -0.1714 -0.9921
 6660SOL    HW231443   2.790   2.657   5.897  2.4704  2.6989 -2.3713
 6661SOL     OW31444   1.007   0.093   4.419  0.6649 -0.1057 -1.2208
 6661SOL    HW131445   1.017   0.079   4.325  0.1169 -0.8436 -1.1712
 6661SOL    HW231446   1.004   0.003   4.453  0.0778 -0.0666 -1.1685
 6662SOL     OW31447   4.532   1.961  17.273  0.4051 -0.4311  0.4407
 6662SOL    HW131448   4.453   1.991  17.228  0.8402 -0.3603 -0.2781
 6662SOL    HW231449   4.603   2.022  17.253 -0.9609  0.5141 -1.5341
 6663SOL     OW31450   3.495   2.347   0.552 -0.0931  0.3508 -0.4010
 6663SOL    HW131451   3.517   2.257   0.573 -0.0223  0.8765  1.8183
 6663SOL    HW231452   3.405   2.346   0.584 -0.3731 -1.3722 -1.2338
 6664SOL     OW31453   0.277   4.099  11.968  0.0825  0.2403  0.1640
 6664SOL    HW131454   0.209   4.031  11.964 -0.2058  0.4368  1.5458
 6664SOL    HW231455   0.243   4.151  12.041  1.1492  0.9183  0.1740
 6665SOL     OW31456   1.091   3.100   7.560 -0.2689  0.1011  0.0897
 6665SOL    HW131457   1.083   3.190   7.592 -0.3151 -0.0581  0.5269
 6665SOL    HW231458   1.036   3.103   7.482 -0.2032 -3.4371 -0.0820
 6666SOL     OW31459   3.703   3.790   3.612  0.2021 -0.7553  0.2354
 6666SOL    HW131460   3.649   3.800   3.533  0.1459  0.9269  0.4875
 6666SOL    HW231461   3.757   3.863   3.583 -0.5930 -0.3861 -0.3181
 6667SOL     OW31462   1.667   2.311   3.575  0.5544 -0.1182  0.2288
 6667SOL    HW131463   1.617   2.284   3.498 -1.8785  1.9490  1.1082
 6667SOL    HW231464   1.639   2.401   3.590  1.3632  0.2928 -0.7044
 6668SOL     OW31465   1.190   4.507  12.588 -0.3167  0.2409 -0.1030
 6668SOL    HW131466   1.106   4.490  12.631 -0.0803  1.6658  0.9326
 6668SOL    HW231467   1.192   4.595  12.550  0.8320  0.4788  0.4943
 6669SOL     OW31468   0.622   3.569   3.536  0.3012 -0.2866 -0.2533
 6669SOL    HW131469   0.534   3.606   3.540 -0.7710 -3.0123  1.3802
 6669SOL    HW231470   0.627   3.539   3.627 -1.1263  2.5858  0.8007
 6670SOL     OW31471   0.720   1.851   4.867  0.2157  0.4596 -0.0860
 6670SOL    HW131472   0.628   1.848   4.843  0.5272  2.6506 -1.6344
 6670SOL    HW231473   0.736   1.930   4.815  1.3394 -0.3411 -0.9698
 6671SOL     OW31474   2.848   2.494  13.290 -0.1944  0.1571  0.0483
 6671SOL    HW131475   2.813   2.406  13.280 -0.3734  0.0012  1.9760
 6671SOL    HW231476   2.939   2.472  13.311 -0.5602 -3.1992 -1.9860
 6672SOL     OW31477   3.339   2.072   7.051 -0.0219  0.3246  0.2593
 6672SOL    HW131478   3.380   2.092   7.135  1.7393 -0.8091 -0.3338
 6672SOL    HW231479   3.316   1.981   7.065  0.8612  0.0732  0.0490
 6673SOL     OW31480   3.987   4.669   6.792  0.6798  0.2137 -0.1961
 6673SOL    HW131481   3.951   4.688   6.878  0.4662 -4.3465  0.7547
 6673SOL    HW231482   3.904   4.647   6.749  0.9958 -0.8629 -0.2709
 6674SOL     OW31483   1.963   1.904   3.838 -0.0849 -0.8586 -0.6425
 6674SOL    HW131484   1.918   1.932   3.759  0.5496 -0.4798 -0.8667
 6674SOL    HW231485   2.053   1.934   3.824  0.4545 -2.0783  0.2632
 6675SOL     OW31486   2.352   3.870   0.506  0.3696  0.4172  0.3134
 6675SOL    HW131487   2.384   3.783   0.483 -1.8535 -0.1951 -0.4259
 6675SOL    HW231488   2.257   3.860   0.516  0.7281 -1.3032  1.9017
 6676SOL     OW31489   3.583   2.903  15.774 -0.1277 -0.0529 -0.2670
 6676SOL    HW131490   3.520   2.963  15.814  1.8703  1.8829 -0.0028
 6676SOL    HW231491   3.620   2.871  15.856  0.2694  1.3589  0.0914
 6677SOL     OW31492   3.645   1.924   5.690 -0.4888  0.1361  0.5692
 6677SOL    HW131493   3.634   1.956   5.779  1.0217  2.0508  0.0573
 6677SOL    HW231494   3.570   1.868   5.669 -0.2219  0.7613 -2.1317
 6678SOL     OW31495   1.064   1.022   5.660  0.1989 -0.2868  0.4029
 6678SOL    HW131496   1.100   0.958   5.598 -1.1665 -0.1738 -0.5050
 6678SOL    HW231497   0.971   1.010   5.644  0.1328  1.4063 -0.5085
 6679SOL     OW31498   1.934   1.296   0.291  0.1124  0.5239  0.0174
 6679SOL    HW131499   1.963   1.207   0.273  0.4885  0.3447  1.5024
 6679SOL    HW231500   1.839   1.291   0.293  0.2034 -1.7847 -1.8978
 6680SOL     OW31501   1.901   0.620  12.053  0.1494  0.0298 -0.2252
 6680SOL    HW131502   1.964   0.683  12.017 -0.1152  0.3552 -0.1233
 6680SOL    HW231503   1.909   0.646  12.145  0.8470 -1.0017  0.0050
 6681SOL     OW31504   2.317   1.927   2.154 -0.0432  0.2240  0.0710
 6681SOL    HW131505   2.389   1.926   2.091 -0.7325  0.6217 -0.7225
 6681SOL    HW231506   2.338   2.003   2.208 -1.2993 -0.0381  0.9297
 6682SOL     OW31507   2.845   1.169  12.006 -0.3906  0.0836  0.5851
 6682SOL    HW131508   2.800   1.116  11.940 -0.0853  2.2094 -1.2938
 6682SOL    HW231509   2.781   1.224  12.051 -0.3830  1.9471 -1.7071
 6683SOL     OW31510   2.978   2.975   4.772 -0.0644 -0.5948  0.5353
 6683SOL    HW131511   2.999   2.981   4.865  1.0741  2.0717  0.0941
 6683SOL    HW231512   3.064   2.995   4.734 -0.5804 -0.7563 -0.7061
 6684SOL     OW31513   2.505   2.670  15.048  0.1265  0.1994 -0.3141
 6684SOL    HW131514   2.599   2.658  15.039  0.1671 -0.6023  1.2940
 6684SOL    HW231515   2.479   2.597  15.104  3.5189  2.1240  3.7344
 6685SOL     OW31516   3.013   0.932   2.708 -0.6338 -0.5216  0.1574
 6685SOL    HW131517   2.929   0.976   2.714 -0.0952  0.2267  2.0512
 6685SOL    HW231518   3.013   0.922   2.803 -2.2319  1.9920  0.4064
 6686SOL     OW31519   0.017   3.378   4.303  0.3245 -0.1159  0.5627
 6686SOL    HW131520   0.050   3.413   4.386 -0.2052  1.1928  0.2241
 6686SOL    HW231521   0.095   3.383   4.248 -0.8639  0.5363 -1.0727
 6687SOL     OW31522   3.260   2.460  16.658  0.3594  0.1722  0.2287
 6687SOL    HW131523   3.278   2.479  16.750 -2.7226  1.3298  0.5829
 6687SOL    HW231524   3.350   2.461  16.624 -0.2071 -2.5152 -1.3280
 6688SOL     OW31525   0.464   1.846   8.879  0.0467  0.1401 -0.1337
 6688SOL    HW131526   0.399   1.895   8.929 -0.5291  0.1907 -0.9263
 6688SOL    HW231527   0.527   1.823   8.947  0.0928  1.7873  0.3918
 6689SOL     OW31528   1.508   2.873   5.697  0.2597  0.4776  0.5145
 6689SOL    HW131529   1.476   2.814   5.628  0.7616  0.1355  0.5668
 6689SOL    HW231530   1.491   2.812   5.768  0.9740  0.5805  0.7773
 6690SOL     OW31531   2.291   0.327  13.171  0.5129  0.4371  0.2855
 6690SOL    HW131532   2.230   0.392  13.206 -0.5804  1.2020 -3.0931
 6690SOL    HW231533   2.290   0.343  13.077  2.0436  1.5750  0.4574
 6691SOL     OW31534   1.762   1.953   4.778 -0.0414 -0.8618 -0.8161
 6691SOL    HW131535   1.721   2.032   4.742 -2.4312 -0.4822  2.7123
 6691SOL    HW231536   1.680   1.903   4.776 -0.7144  0.1004  1.8297
 6692SOL     OW31537   3.088   0.221   3.152 -0.0988  0.1407 -0.0735
 6692SOL    HW131538   3.056   0.182   3.070 -0.2324  0.1568 -0.0280
 6692SOL    HW231539   3.007   0.225   3.201  1.1205  0.2569  1.9137
 6693SOL     OW31540   2.981   0.167  16.791  0.3380 -0.1125  0.6283
 6693SOL    HW131541   2.969   0.236  16.726  1.1588 -1.8721 -1.3916
 6693SOL    HW231542   2.936   0.212  16.863  2.8332  1.2699  1.3034
 6694SOL     OW31543   0.560   2.818   5.678 -0.1830 -0.4056  0.2203
 6694SOL    HW131544   0.631   2.807   5.616 -0.0166 -1.4793  0.6078
 6694SOL    HW231545   0.538   2.728   5.700 -1.9606 -0.1812 -0.6061
 6695SOL     OW31546   0.293   4.218  10.649 -0.2422  0.7839  0.1036
 6695SOL    HW131547   0.376   4.170  10.652 -0.8231 -0.3276 -1.9111
 6695SOL    HW231548   0.277   4.197  10.742 -0.5907 -0.7847 -0.3069
 6696SOL     OW31549   2.665   2.786  11.432 -0.0786  0.4944 -0.2896
 6696SOL    HW131550   2.722   2.727  11.483 -2.5298 -2.0342 -0.4462
 6696SOL    HW231551   2.649   2.725  11.360  2.6677 -0.7529  0.1095
 6697SOL     OW31552   2.687   1.073  14.613 -0.2278 -0.3721  0.1620
 6697SOL    HW131553   2.592   1.077  14.599 -0.2418 -0.1025  0.3289
 6697SOL    HW231554   2.680   1.149  14.671  0.8489  0.2305 -0.5093
 6698SOL     OW31555   4.335   3.260   3.016  0.4911  0.0047  0.2922
 6698SOL    HW131556   4.377   3.175   3.006  0.7870  0.1623  0.1953
 6698SOL    HW231557   4.405   3.321   3.038  0.4274  0.7420 -1.5397
 6699SOL     OW31558   2.650   1.693   6.562  0.3151 -0.4273  0.2130
 6699SOL    HW131559   2.721   1.643   6.604 -0.1372 -1.7152 -0.5889
 6699SOL    HW231560   2.639   1.774   6.613 -1.1920 -0.3707 -0.2042
 6700SOL     OW31561   3.384   2.920   0.856  0.1021 -0.3825 -0.0090
 6700SOL    HW131562   3.432   3.003   0.853 -1.4828  0.4686 -1.6894
 6700SOL    HW231563   3.448   2.873   0.911  0.5056  1.8915  1.4313
 6701SOL     OW31564   1.720   3.767   3.329 -0.3581  0.1230  0.3847
 6701SOL    HW131565   1.770   3.842   3.300 -0.0698  0.2349  1.1694
 6701SOL    HW231566   1.771   3.695   3.290  0.1856  0.1059  1.1349
 6702SOL     OW31567   0.869   3.078   5.197  0.4600 -0.3578  0.2080
 6702SOL    HW131568   0.879   3.162   5.153  0.9210 -0.3954  0.2434
 6702SOL    HW231569   0.777   3.081   5.224  0.7714  0.3120  1.1762
 6703SOL     OW31570   0.948   3.707   0.653 -0.3981  0.1302 -0.6029
 6703SOL    HW131571   0.960   3.741   0.741 -0.3514 -1.8121  0.1342
 6703SOL    HW231572   0.983   3.775   0.596  2.0396 -0.6239  0.0183
 6704SOL     OW31573   2.644   0.585   9.902 -0.0979  0.2117 -0.0855
 6704SOL    HW131574   2.647   0.601   9.808 -1.1363 -1.8470 -0.4757
 6704SOL    HW231575   2.603   0.666   9.931 -2.5398 -0.9519 -0.2463
 6705SOL     OW31576   3.137   1.152   8.515  0.2024 -0.1028  0.3038
 6705SOL    HW131577   3.176   1.192   8.593 -1.1065  3.0657 -0.6833
 6705SOL    HW231578   3.075   1.221   8.490 -1.3931 -0.7512  2.5004
 6706SOL     OW31579   1.150   1.622  12.968 -0.3076 -0.3616  0.2810
 6706SOL    HW131580   1.231   1.616  13.020 -0.5586 -0.2852  0.6776
 6706SOL    HW231581   1.085   1.559  12.997 -0.7830  0.3864  0.8293
 6707SOL     OW31582   4.312   1.312   8.114  0.7721 -0.0616 -0.5798
 6707SOL    HW131583   4.392   1.275   8.150 -0.0984 -0.6121  0.7976
 6707SOL    HW231584   4.310   1.270   8.028 -0.2327 -0.3790 -0.4014
 6708SOL     OW31585   1.795   2.603   5.827  0.2181 -0.4217 -0.5723
 6708SOL    HW131586   1.805   2.645   5.913  1.9855 -1.7614 -0.1316
 6708SOL    HW231587   1.879   2.587   5.785  0.0165 -0.5172 -0.9407
 6709SOL     OW31588   2.125   4.192   8.758  0.2258  0.3426 -0.8988
 6709SOL    HW131589   2.180   4.115   8.773  0.0002  0.5699  1.0382
 6709SOL    HW231590   2.154   4.259   8.820  1.8740 -2.2229  1.0925
 6710SOL     OW31591   4.624   0.235  16.047  0.1217  0.2548 -0.0913
 6710SOL    HW131592   4.550   0.274  16.094  1.5409  3.2053 -0.3317
 6710SOL    HW231593   4.696   0.281  16.091 -0.9232  1.2299  0.6013
 6711SOL     OW31594   2.706   2.354   0.152  0.2986  0.5506 -0.1557
 6711SOL    HW131595   2.618   2.318   0.144 -0.2725  1.3975  2.2267
 6711SOL    HW231596   2.755   2.281   0.189  0.4856  1.1289  0.7578
 6712SOL     OW31597   4.011   3.126   7.962 -0.2521  0.3101  0.0865
 6712SOL    HW131598   4.017   3.117   8.057 -0.1146 -0.4472  0.0039
 6712SOL    HW231599   4.015   3.221   7.951  0.9271  0.2762  0.2488
 6713SOL     OW31600   3.361   1.072   8.116 -0.0158 -0.1063  0.0925
 6713SOL    HW131601   3.398   1.089   8.203  0.1217 -0.5924  0.1302
 6713SOL    HW231602   3.319   1.154   8.092 -1.7473 -1.5460 -1.8132
 6714SOL     OW31603   1.078   3.796  13.223  0.8147 -0.5415  0.2334
 6714SOL    HW131604   1.083   3.823  13.315  0.0401 -0.1398  0.1575
 6714SOL    HW231605   1.011   3.728  13.227  0.9246 -0.6880 -0.3952
 6715SOL     OW31606   3.551   1.287   8.191  0.5587  0.5991  0.2759
 6715SOL    HW131607   3.536   1.371   8.235 -1.7194 -0.4807  1.5563
 6715SOL    HW231608   3.515   1.301   8.104 -1.8608  0.1483  1.2030
 6716SOL     OW31609   4.303   0.492   6.290  0.2693 -0.5057 -0.8580
 6716SOL    HW131610   4.270   0.568   6.338 -0.6465 -1.0112 -0.6676
 6716SOL    HW231611   4.304   0.530   6.203 -2.9807  0.3522 -0.5254
 6717SOL     OW31612   4.034   1.607   7.175  0.9014 -0.2993  0.4574
 6717SOL    HW131613   4.125   1.610   7.148  1.2305 -1.0960  1.4736
 6717SOL    HW231614   3.988   1.664   7.113 -0.0201 -0.5132  0.9450
 6718SOL     OW31615   1.490   1.920   7.680  0.6196  0.2348 -0.0285
 6718SOL    HW131616   1.537   1.972   7.615 -1.0825 -0.1307 -1.5388
 6718SOL    HW231617   1.404   1.964   7.678 -1.0286 -2.9106  1.3990
 6719SOL     OW31618   3.261   2.480   8.808  0.0515 -0.5015  0.5318
 6719SOL    HW131619   3.306   2.407   8.850  0.1754 -0.7004  0.0413
 6719SOL    HW231620   3.243   2.439   8.724 -1.2677 -0.5623  0.8433
 6720SOL     OW31621   1.425   3.400   5.886 -0.4910 -0.0100 -0.2269
 6720SOL    HW131622   1.432   3.305   5.898  1.4966 -0.0030 -1.3317
 6720SOL    HW231623   1.434   3.435   5.975 -1.0629  0.9026 -0.5394
 6721SOL     OW31624   3.710   0.623   1.493 -0.0328 -0.7999  0.1667
 6721SOL    HW131625   3.760   0.701   1.470 -0.1370 -0.4182  1.2328
 6721SOL    HW231626   3.628   0.664   1.466  1.2582 -0.0129 -2.5270
 6722SOL     OW31627   3.087   3.404   6.903 -0.1044 -0.3533  0.3063
 6722SOL    HW131628   3.165   3.355   6.927  0.4270  0.5667  0.4387
 6722SOL    HW231629   3.064   3.338   6.837  2.6826 -0.3094 -0.6988
 6723SOL     OW31630   2.136   2.433   2.849  0.0988 -0.2586  0.0682
 6723SOL    HW131631   2.096   2.432   2.762  2.0631  0.1192 -0.8397
 6723SOL    HW231632   2.175   2.520   2.853  0.1244 -0.3578  1.8024
 6724SOL     OW31633   0.442   4.481   2.345 -0.5068  0.1240  0.4353
 6724SOL    HW131634   0.352   4.513   2.348  0.0879  1.8427 -0.1512
 6724SOL    HW231635   0.477   4.513   2.428 -2.5605 -0.1269  1.3912
 6725SOL     OW31636   2.257   2.285  10.981 -0.2545 -0.4741 -0.2136
 6725SOL    HW131637   2.307   2.234  11.046 -0.1735 -0.8321 -0.5540
 6725SOL    HW231638   2.279   2.230  10.906 -2.1469  0.5460 -1.5115
 6726SOL     OW31639   3.787   0.636   8.939  0.2092  0.1057  0.3390
 6726SOL    HW131640   3.797   0.541   8.940  0.3405  0.1110 -0.1708
 6726SOL    HW231641   3.867   0.657   8.891  0.6271 -1.0800  0.5055
 6727SOL     OW31642   2.372   4.165   4.681  0.7921  0.0239  0.2838
 6727SOL    HW131643   2.286   4.146   4.644 -0.2775  2.3065  1.5632
 6727SOL    HW231644   2.363   4.248   4.728 -1.8723  0.7691 -1.5220
 6728SOL     OW31645   0.630   4.437  11.461 -0.6083 -0.2568 -0.3774
 6728SOL    HW131646   0.701   4.396  11.411 -0.3582  0.7496 -0.8341
 6728SOL    HW231647   0.676   4.512  11.499  1.0803 -2.1373  1.2759
 6729SOL     OW31648   0.717   3.761  13.167 -0.6434 -0.2362  0.2277
 6729SOL    HW131649   0.766   3.701  13.224  0.7269 -0.1242 -0.8493
 6729SOL    HW231650   0.729   3.847  13.208  1.0346 -0.3942  0.0605
 6730SOL     OW31651   2.816   2.244   5.208  0.0244 -0.1660  0.1504
 6730SOL    HW131652   2.772   2.212   5.129  1.3374 -2.9215  0.5274
 6730SOL    HW231653   2.836   2.166   5.259  2.6370  1.3467  1.4275
 6731SOL     OW31654   2.608   4.086  16.246 -0.0959  0.8133 -0.0367
 6731SOL    HW131655   2.576   4.068  16.334 -1.5627  0.0112 -0.7258
 6731SOL    HW231656   2.680   4.144  16.270  0.6679  0.0580 -0.4742
 6732SOL     OW31657   3.089   0.502   7.669 -0.4331  0.3921  0.3700
 6732SOL    HW131658   3.055   0.438   7.606  0.6601  0.2161 -0.0424
 6732SOL    HW231659   3.067   0.468   7.756  0.7043  0.6745  0.7636
 6733SOL     OW31660   3.015   0.308   8.169  0.1591 -0.7997  0.0444
 6733SOL    HW131661   3.073   0.327   8.242  0.5263 -0.2935 -0.3798
 6733SOL    HW231662   2.931   0.289   8.212 -0.6717  2.1336 -0.2630
 6734SOL     OW31663   3.020   1.730   8.007  0.1442 -0.2018 -0.3640
 6734SOL    HW131664   3.031   1.824   8.023 -1.0747  0.1024 -1.3405
 6734SOL    HW231665   2.926   1.717   8.017  0.3116 -0.2951  1.1551
 6735SOL     OW31666   1.371   2.618   0.423 -0.4446 -0.5365 -0.1276
 6735SOL    HW131667   1.429   2.670   0.367  0.0284  0.6753  1.4792
 6735SOL    HW231668   1.318   2.568   0.361 -0.9565  1.3489 -1.2197
 6736SOL     OW31669   2.321   3.071   0.248  0.1857  0.0171  0.4151
 6736SOL    HW131670   2.245   3.110   0.204 -1.5039 -1.8977  1.6419
 6736SOL    HW231671   2.388   3.135   0.223  0.7681 -0.9886 -0.5841
 6737SOL     OW31672   2.872   3.805  14.716  0.5510  0.3186 -0.1398
 6737SOL    HW131673   2.841   3.767  14.634 -2.2196 -0.2360  1.1549
 6737SOL    HW231674   2.796   3.859  14.739 -0.1829 -0.9553  0.3920
 6738SOL     OW31675   0.190   3.533   7.633  0.3296  0.3920  0.4448
 6738SOL    HW131676   0.258   3.600   7.639 -0.8923  1.9370 -2.9104
 6738SOL    HW231677   0.118   3.586   7.668 -0.1212 -0.3967  0.7080
 6739SOL     OW31678   1.714   0.964   3.656 -0.3215  0.4770 -0.1635
 6739SOL    HW131679   1.633   0.915   3.670  1.6870 -2.8002  0.0749
 6739SOL    HW231680   1.774   0.892   3.638  0.0766  0.7029  0.2490
 6740SOL     OW31681   4.125   1.586  16.826 -0.3620  0.1481 -0.2471
 6740SOL    HW131682   4.160   1.599  16.914 -2.6733  3.1763  0.2037
 6740SOL    HW231683   4.112   1.491  16.816  0.7058 -0.1675  1.3711
 6741SOL     OW31684   0.092   4.062   3.619  0.2821  0.2915  0.1955
 6741SOL    HW131685   0.023   4.084   3.682 -0.3689  1.4189 -0.9136
 6741SOL    HW231686   0.139   4.146   3.628 -0.2342  0.4346  1.5584
 6742SOL     OW31687   4.337   4.640  16.833  0.3476  0.1242  0.5811
 6742SOL    HW131688   4.244   4.643  16.811  0.6044  0.2081 -0.5112
 6742SOL    HW231689   4.387   4.622  16.753 -0.8228 -0.6993  0.0427
 6743SOL     OW31690   4.304   4.174   6.188 -0.4174  0.6004 -0.7483
 6743SOL    HW131691   4.303   4.086   6.149 -2.4844 -0.3497  1.4556
 6743SOL    HW231692   4.213   4.202   6.188 -0.1230  1.5674 -0.4592
 6744SOL     OW31693   1.542   2.901  11.820 -0.6904 -0.8779  0.1521
 6744SOL    HW131694   1.592   2.857  11.752  1.2284 -0.0489  1.0211
 6744SOL    HW231695   1.482   2.832  11.847 -0.0044 -2.1154 -1.4957
 6745SOL     OW31696   0.117   2.748   4.706 -0.5188 -0.3445  0.0273
 6745SOL    HW131697   0.067   2.764   4.626  2.1393  1.5242 -1.2335
 6745SOL    HW231698   0.064   2.674   4.735 -1.8699  0.8899  0.7585
 6746SOL     OW31699   2.323   3.485   9.721 -0.9661  0.1513  0.6095
 6746SOL    HW131700   2.393   3.421   9.710 -0.0224  1.3058 -0.1439
 6746SOL    HW231701   2.360   3.544   9.786  0.3944 -0.4706  0.3849
 6747SOL     OW31702   3.466   3.476   2.788 -0.6262 -0.0739  0.1670
 6747SOL    HW131703   3.471   3.527   2.707 -2.8831 -1.0633 -0.6004
 6747SOL    HW231704   3.372   3.474   2.805 -0.9115 -2.0169 -1.6616
 6748SOL     OW31705   2.551   1.777   2.412 -0.0007 -0.4160  0.1508
 6748SOL    HW131706   2.518   1.853   2.460  1.2641 -0.1818  0.6258
 6748SOL    HW231707   2.643   1.800   2.414  0.2326 -1.4540  1.7802
 6749SOL     OW31708   0.747   4.187   5.227 -0.2562 -0.3278 -0.2528
 6749SOL    HW131709   0.762   4.248   5.299 -3.3678 -1.1798  1.1118
 6749SOL    HW231710   0.803   4.118   5.262  1.1064  0.3669 -1.0735
 6750SOL     OW31711   3.852   1.915   2.483  0.4226  0.4534  0.3518
 6750SOL    HW131712   3.837   1.916   2.389  0.9838  0.6291  0.2685
 6750SOL    HW231713   3.915   1.845   2.493  0.5517  0.4964 -0.2070
 6751SOL     OW31714   1.897   1.129  11.387  0.1701 -0.3677  0.0647
 6751SOL    HW131715   1.942   1.123  11.471  1.9199 -0.8903 -0.9074
 6751SOL    HW231716   1.823   1.070  11.400  0.1659 -0.2177  0.7358
 6752SOL     OW31717   3.303   3.123   6.624 -0.3196  0.3624  0.1579
 6752SOL    HW131718   3.229   3.139   6.683  0.6835 -0.2026  1.5688
 6752SOL    HW231719   3.363   3.070   6.677 -0.8797 -1.0543 -0.6302
 6753SOL     OW31720   2.222   1.382   9.003 -0.1018 -0.0318  0.1556
 6753SOL    HW131721   2.273   1.341   8.933  1.1353  1.4169  0.1947
 6753SOL    HW231722   2.170   1.450   8.960  1.0647  0.5732 -0.2966
 6754SOL     OW31723   4.435   4.360   3.303 -0.2154  0.3717 -0.2231
 6754SOL    HW131724   4.340   4.355   3.314 -0.1032  2.0289  1.4387
 6754SOL    HW231725   4.440   4.338   3.210 -0.7214 -1.2903  0.1350
 6755SOL     OW31726   1.202   2.843   8.876 -0.3189  0.1017 -1.2211
 6755SOL    HW131727   1.144   2.776   8.840  0.0441  0.1247 -1.8595
 6755SOL    HW231728   1.137   2.905   8.907  0.0301  0.2414 -0.7673
 6756SOL     OW31729   4.335   3.578   8.720  0.2788  0.6038 -0.1626
 6756SOL    HW131730   4.291   3.550   8.800  1.0389 -4.0783 -1.4179
 6756SOL    HW231731   4.257   3.581   8.663 -0.2685 -0.7670  0.5285
 6757SOL     OW31732   2.783   3.068  10.831 -0.5250 -0.0149  0.3984
 6757SOL    HW131733   2.813   2.981  10.807 -1.4801 -0.0617 -0.6110
 6757SOL    HW231734   2.786   3.048  10.924  0.1877  1.3550  0.6757
 6758SOL     OW31735   0.938   2.118  14.767  0.1573 -0.8200  0.0380
 6758SOL    HW131736   0.946   2.118  14.862 -0.8541 -1.6251  0.1173
 6758SOL    HW231737   0.979   2.194  14.725 -0.7347  0.0470  0.7492
 6759SOL     OW31738   1.636   3.731   6.731  0.0969 -0.3518  0.4100
 6759SOL    HW131739   1.708   3.781   6.770  0.6460  0.0158 -1.0823
 6759SOL    HW231740   1.649   3.748   6.637  0.5227  0.3313  0.5865
 6760SOL     OW31741   4.235   0.893  13.548 -0.5502  0.0453 -0.4579
 6760SOL    HW131742   4.163   0.844  13.588 -0.6721  0.9143  0.4138
 6760SOL    HW231743   4.228   0.868  13.456 -3.1537 -0.9361  0.0247
 6761SOL     OW31744   1.728   1.415   5.769 -0.1080  0.5275  0.2392
 6761SOL    HW131745   1.641   1.422   5.808  0.3601 -0.4432  1.4519
 6761SOL    HW231746   1.773   1.344   5.814 -1.3352 -0.2916  0.1765
 6762SOL     OW31747   4.385   2.549  12.420 -0.1290  0.1617  0.3161
 6762SOL    HW131748   4.478   2.559  12.437 -0.0565  1.6086 -0.9810
 6762SOL    HW231749   4.346   2.612  12.482  1.3121  0.4388  0.9370
 6763SOL     OW31750   0.918   2.440   3.610  0.2882  0.0168  0.7034
 6763SOL    HW131751   0.942   2.347   3.602 -1.8734 -0.4652 -0.4704
 6763SOL    HW231752   0.980   2.480   3.550 -0.4635  1.3585  0.8319
 6764SOL     OW31753   2.437   2.384  16.411 -0.2215  0.2865  0.1734
 6764SOL    HW131754   2.403   2.296  16.398  3.2898 -0.9485 -0.4223
 6764SOL    HW231755   2.484   2.360  16.491 -1.1555 -0.8309  0.3875
 6765SOL     OW31756   4.545   3.274  12.338 -0.2460 -0.5013  0.2763
 6765SOL    HW131757   4.549   3.368  12.321  2.8805 -0.6847  0.0184
 6765SOL    HW231758   4.465   3.264  12.286  0.9206  0.1176 -1.6568
 6766SOL     OW31759   0.031   4.119   9.212  0.1832 -0.2848 -0.0907
 6766SOL    HW131760   4.702   4.094   9.137 -0.6926 -0.0976  0.4745
 6766SOL    HW231761   0.115   4.079   9.191  0.9069 -0.4108  3.0903
 6767SOL     OW31762   1.690   0.685  17.416  0.0825  0.2677  0.4126
 6767SOL    HW131763   1.683   0.759  17.477  1.1950 -0.1040  0.9952
 6767SOL    HW231764   1.747   0.628  17.467 -1.1313 -2.4105 -1.2779
 6768SOL     OW31765   3.265   1.576  14.401 -0.4973 -0.1915  0.0484
 6768SOL    HW131766   3.212   1.624  14.338 -1.6174  1.9392  2.6023
 6768SOL    HW231767   3.257   1.484  14.376  0.7352 -0.3689  0.2957
 6769SOL     OW31768   3.611   3.941   3.970  0.3022 -0.0343 -0.6546
 6769SOL    HW131769   3.599   3.951   4.064  2.7710 -1.2686 -0.2091
 6769SOL    HW231770   3.615   3.850   3.941  0.7030  1.1244 -4.3135
 6770SOL     OW31771   1.871   1.678   8.745  0.3176 -0.1285 -0.1867
 6770SOL    HW131772   1.884   1.755   8.690  1.2506  1.8039  2.7866
 6770SOL    HW231773   1.930   1.699   8.817  1.3434 -4.6168  0.2715
 6771SOL     OW31774   3.435   0.855   6.005 -0.0406 -0.3624 -0.0232
 6771SOL    HW131775   3.460   0.768   5.973  1.2226 -0.2896  0.7528
 6771SOL    HW231776   3.355   0.842   6.055  0.5936 -0.2599  1.0117
 6772SOL     OW31777   1.648   1.480   8.616  0.0901 -0.0702 -0.6663
 6772SOL    HW131778   1.688   1.424   8.682  1.5288  1.0259 -0.6035
 6772SOL    HW231779   1.653   1.564   8.663 -0.0622 -1.1448  1.2725
 6773SOL     OW31780   2.719   1.389   1.253  0.1102 -0.0389 -0.0427
 6773SOL    HW131781   2.778   1.462   1.273  0.3785 -0.3693  0.3644
 6773SOL    HW231782   2.708   1.402   1.159  0.8625  1.7122  0.1138
 6774SOL     OW31783   0.231   1.265   9.359  0.8373  0.5792  0.9054
 6774SOL    HW131784   0.239   1.181   9.313 -1.1855  1.1822 -0.5135
 6774SOL    HW231785   0.156   1.245   9.415  0.8318 -0.6389  0.4717
 6775SOL     OW31786   1.477   1.874   9.677 -0.4816 -0.2389 -0.4301
 6775SOL    HW131787   1.442   1.956   9.712 -1.0616 -1.1478  1.1171
 6775SOL    HW231788   1.498   1.904   9.589  2.8589 -3.3561 -0.6652
 6776SOL     OW31789   1.097   3.620   9.131  0.0507 -0.2264 -0.0927
 6776SOL    HW131790   1.158   3.600   9.060 -0.0471 -0.6784 -0.0493
 6776SOL    HW231791   1.023   3.567   9.102  0.7907 -1.1054 -0.3863
 6777SOL     OW31792   0.137   0.977   7.916 -0.7348 -0.0350 -0.1802
 6777SOL    HW131793   0.215   1.000   7.966  0.2818  0.1001 -1.8308
 6777SOL    HW231794   0.082   0.933   7.982  0.1849  1.5856  1.6725
 6778SOL     OW31795   4.479   3.523   7.462  0.3033  0.0432 -0.5031
 6778SOL    HW131796   4.509   3.439   7.496  3.6733 -0.5368 -4.8156
 6778SOL    HW231797   4.393   3.505   7.425 -0.2463 -0.5076  1.0585
 6779SOL     OW31798   0.259   3.909   2.326 -1.0750 -0.0926 -0.6662
 6779SOL    HW131799   0.259   3.833   2.269 -0.3022 -1.8865  1.6938
 6779SOL    HW231800   0.346   3.942   2.302 -0.8480 -1.0469 -1.1745
 6780SOL     OW31801   0.912   3.580   7.137 -0.2927 -0.0846  0.8390
 6780SOL    HW131802   0.893   3.552   7.048  1.9672 -1.7109  0.8687
 6780SOL    HW231803   0.930   3.672   7.117  0.2678  0.0580  1.9526
 6781SOL     OW31804   0.825   4.268   2.182 -0.5252 -0.5612  0.3496
 6781SOL    HW131805   0.757   4.306   2.237 -0.9562  0.6416 -0.9992
 6781SOL    HW231806   0.764   4.242   2.113 -0.3259  1.4622 -0.5995
 6782SOL     OW31807   4.340   2.483   7.662  0.3737 -0.4130 -0.6564
 6782SOL    HW131808   4.351   2.388   7.673 -0.7204 -0.2640  1.6830
 6782SOL    HW231809   4.342   2.512   7.571  1.0099 -2.3684 -1.2647
 6783SOL     OW31810   3.215   0.435   4.076  0.1776 -0.1490  0.3759
 6783SOL    HW131811   3.146   0.396   4.023  1.4212 -1.6702 -0.1448
 6783SOL    HW231812   3.156   0.477   4.139 -0.8578 -2.4376  0.9298
 6784SOL     OW31813   0.428   1.732  12.948 -0.2537  0.1634 -0.2037
 6784SOL    HW131814   0.455   1.796  12.882  0.2425 -0.9224 -1.0410
 6784SOL    HW231815   0.424   1.651  12.897 -0.5027 -0.2296  0.4452
 6785SOL     OW31816   3.621   4.207   4.896 -0.1213  0.1112  0.3943
 6785SOL    HW131817   3.665   4.197   4.811 -0.2114  2.6079  0.0478
 6785SOL    HW231818   3.615   4.114   4.917 -0.5938  0.2369  0.8166
 6786SOL     OW31819   0.776   3.403  17.151  0.3423 -0.2685 -0.3616
 6786SOL    HW131820   0.852   3.356  17.116  0.2480 -1.2450  0.7643
 6786SOL    HW231821   0.714   3.380  17.082 -1.1339 -1.9053  1.5203
 6787SOL     OW31822   1.468   2.082   6.400 -0.0702  0.1022 -0.3969
 6787SOL    HW131823   1.421   2.010   6.358  1.5983 -1.4458  0.4163
 6787SOL    HW231824   1.440   2.159   6.350 -0.0138  0.3824  0.0027
 6788SOL     OW31825   2.343   2.131   2.328  0.3257  0.0800 -0.5119
 6788SOL    HW131826   2.379   2.199   2.384 -1.5917  1.0143 -0.4124
 6788SOL    HW231827   2.281   2.180   2.274 -0.6756  1.0098  1.4723
 6789SOL     OW31828   4.068   0.759   8.935 -0.1137 -0.0214  0.1929
 6789SOL    HW131829   4.127   0.749   9.009 -0.1759 -0.5171  0.1809
 6789SOL    HW231830   4.123   0.814   8.880 -1.6012  0.6053 -0.6806
 6790SOL     OW31831   3.450   2.441  11.711  0.3110 -0.0268 -0.6147
 6790SOL    HW131832   3.403   2.474  11.634  1.0730 -0.8302 -1.4253
 6790SOL    HW231833   3.433   2.349  11.691 -2.3810  0.6104 -1.4227
 6791SOL     OW31834   1.864   0.251   8.320 -0.6262  0.3112  0.4347
 6791SOL    HW131835   1.779   0.275   8.355  0.0728 -0.8662  2.9858
 6791SOL    HW231836   1.915   0.225   8.397  1.8764  2.3984 -0.4957
 6792SOL     OW31837   0.199   1.506   4.594  0.1171  0.2044  0.4105
 6792SOL    HW131838   0.253   1.578   4.561 -1.0454  0.7592 -0.2605
 6792SOL    HW231839   0.243   1.485   4.676  1.1972  1.0511  0.0578
 6793SOL     OW31840   2.172   2.414   8.811  0.8672 -0.2756  0.6066
 6793SOL    HW131841   2.085   2.430   8.847  0.6633  0.1036 -0.0628
 6793SOL    HW231842   2.215   2.479   8.867  0.4130  0.9695 -0.5020
 6794SOL     OW31843   2.636   1.638  11.593  0.4852  0.0944  0.0454
 6794SOL    HW131844   2.645   1.566  11.655 -2.3027  0.4085  0.7842
 6794SOL    HW231845   2.603   1.712  11.644  0.0327 -0.0532 -0.0342
 6795SOL     OW31846   1.891   3.558   5.566  0.2875  0.3538  0.3385
 6795SOL    HW131847   1.952   3.586   5.498  1.1176  0.9357  1.3165
 6795SOL    HW231848   1.837   3.491   5.525  0.5018  0.0915  0.4893
 6796SOL     OW31849   4.509   1.202   7.859  0.0464  0.1686  0.3609
 6796SOL    HW131850   4.531   1.119   7.901 -1.9275  0.5860  2.2143
 6796SOL    HW231851   4.414   1.193   7.846 -0.2432 -1.5316  3.6704
 6797SOL     OW31852   2.626   0.017   3.613  0.3343  0.3786 -0.4498
 6797SOL    HW131853   2.615   0.002   3.519 -1.0802 -0.6020 -0.1325
 6797SOL    HW231854   2.560   0.086   3.615 -1.1828 -1.1665  2.1281
 6798SOL     OW31855   3.926   3.326   5.215 -0.1441 -0.0013  0.1346
 6798SOL    HW131856   3.932   3.357   5.306  2.0506  1.3187 -0.4668
 6798SOL    HW231857   3.989   3.375   5.162  1.0731 -2.8741 -1.0467
 6799SOL     OW31858   3.337   0.774   2.133 -0.2962 -0.1603 -0.3812
 6799SOL    HW131859   3.285   0.852   2.116 -0.4533 -0.4479 -1.2304
 6799SOL    HW231860   3.423   0.812   2.153 -0.0029 -0.8126 -0.4038
 6800SOL     OW31861   2.488   3.328   1.405  0.5152  0.1346  0.1292
 6800SOL    HW131862   2.482   3.335   1.309 -1.1099 -3.1033  0.0022
 6800SOL    HW231863   2.398   3.308   1.430  0.5903  0.9744  1.0643
 6801SOL     OW31864   1.316   0.628   5.369  0.2484  0.1186 -0.2684
 6801SOL    HW131865   1.270   0.545   5.361  0.9272 -0.3693  0.9672
 6801SOL    HW231866   1.409   0.610   5.359  0.1679 -1.8435  2.6213
 6802SOL     OW31867   4.337   0.673   2.871 -0.1967  0.1159  0.5856
 6802SOL    HW131868   4.328   0.594   2.817  1.1899  0.2431  0.1824
 6802SOL    HW231869   4.365   0.631   2.952  3.1347 -1.3675 -1.3025
 6803SOL     OW31870   1.515   3.468   6.741 -0.0433  0.2405  0.1264
 6803SOL    HW131871   1.545   3.559   6.736 -0.0216  0.2011 -0.4389
 6803SOL    HW231872   1.459   3.474   6.663 -2.2507  0.4521  1.7124
 6804SOL     OW31873   3.680   0.732   5.170 -1.0878 -0.0399 -0.6960
 6804SOL    HW131874   3.765   0.713   5.209 -1.1523  0.2101 -0.4361
 6804SOL    HW231875   3.686   0.826   5.189  2.3407 -0.4336  0.1521
 6805SOL     OW31876   3.918   2.983   1.893 -0.2195  0.1173  0.0394
 6805SOL    HW131877   3.859   3.022   1.958 -0.6627 -1.6985  0.7329
 6805SOL    HW231878   3.974   3.058   1.876 -2.8750  2.5296  1.8940
 6806SOL     OW31879   3.498   0.469   9.847 -0.0577 -0.0421  0.0546
 6806SOL    HW131880   3.484   0.380   9.813  0.7254 -0.1762  0.0795
 6806SOL    HW231881   3.577   0.450   9.897 -0.2405  0.0109  0.3628
 6807SOL     OW31882   3.067   1.265   2.721 -0.3751  0.2848 -0.2312
 6807SOL    HW131883   3.138   1.328   2.717  0.8781 -0.9870  2.0066
 6807SOL    HW231884   3.046   1.266   2.628  0.6474 -0.2467 -0.4638
 6808SOL     OW31885   2.283   1.776   9.985 -0.1696  0.3741 -0.0850
 6808SOL    HW131886   2.332   1.854  10.009 -0.2549  0.8485 -1.5037
 6808SOL    HW231887   2.230   1.814   9.915 -0.3810  0.1407 -0.0547
 6809SOL     OW31888   0.297   4.064   7.369 -0.4226  0.1133 -0.2632
 6809SOL    HW131889   0.204   4.077   7.351  0.4697  3.7532 -2.3971
 6809SOL    HW231890   0.336   4.137   7.320 -0.2071  0.3071  0.1972
 6810SOL     OW31891   4.619   3.394   6.639 -0.2658  0.1145 -0.1068
 6810SOL    HW131892   4.656   3.443   6.713  1.8207  1.1866 -1.8484
 6810SOL    HW231893   4.548   3.347   6.683 -2.3594  2.2685 -1.2011
 6811SOL     OW31894   1.692   1.145  11.689  0.3544  0.4492  0.8764
 6811SOL    HW131895   1.702   1.217  11.627 -1.4320  0.2400  0.3492
 6811SOL    HW231896   1.716   1.072  11.631 -0.7972  2.5577 -2.2795
 6812SOL     OW31897   1.579   0.359   0.062 -0.0697  0.1134  0.6067
 6812SOL    HW131898   1.514   0.346   0.131 -0.9915 -0.4483 -0.3606
 6812SOL    HW231899   1.621   0.437   0.098  2.2536 -0.5277 -0.7035
 6813SOL     OW31900   1.152   3.984   6.633  0.6395  0.2581  0.3206
 6813SOL    HW131901   1.076   4.034   6.664  0.5348  0.1414  0.2551
 6813SOL    HW231902   1.115   3.897   6.648  0.6554  0.0879 -0.6372
 6814SOL     OW31903   1.010   1.309  17.581 -0.0654 -0.3460  0.3552
 6814SOL    HW131904   0.970   1.395  17.567 -1.8727 -0.9651  1.6165
 6814SOL    HW231905   0.947   1.255  17.534  0.9391 -1.4115  0.2471
 6815SOL     OW31906   2.513   3.566   1.177 -0.2626 -0.1057 -0.0895
 6815SOL    HW131907   2.426   3.534   1.200 -0.9608  2.8225  1.2839
 6815SOL    HW231908   2.503   3.546   1.084 -2.2013 -3.3880  0.8212
 6816SOL     OW31909   4.234   4.714   2.177  0.2516  0.3208 -0.1234
 6816SOL    HW131910   4.264   4.681   2.262 -1.2623 -0.3059  0.1756
 6816SOL    HW231911   4.303   4.679   2.121 -2.2344 -3.0941 -1.0220
 6817SOL     OW31912   2.270   4.425   4.597  0.3240  0.4780 -0.4812
 6817SOL    HW131913   2.264   4.519   4.609  1.2270  0.7040 -1.8126
 6817SOL    HW231914   2.194   4.394   4.549  1.2815 -0.8117 -1.1727
 6818SOL     OW31915   2.476   2.536   2.164  0.2457  0.4562  0.2984
 6818SOL    HW131916   2.419   2.612   2.156  0.9719  0.9266 -0.3988
 6818SOL    HW231917   2.560   2.582   2.155 -0.1464  1.0542 -0.3082
 6819SOL     OW31918   0.216   3.151   8.081  0.9585 -0.2106  0.3816
 6819SOL    HW131919   0.292   3.203   8.056 -0.7691  1.0996 -2.1758
 6819SOL    HW231920   0.146   3.210   8.052  0.3029 -1.5352 -0.7090
 6820SOL     OW31921   1.732   2.285   6.834  0.0743 -0.2300  0.2492
 6820SOL    HW131922   1.774   2.271   6.919 -0.5356  0.4332  0.6593
 6820SOL    HW231923   1.805   2.283   6.772 -0.3007  1.1939 -0.2456
 6821SOL     OW31924   2.084   1.425   4.207 -0.3318 -0.2440 -1.0423
 6821SOL    HW131925   2.081   1.498   4.145  0.6406  0.2789 -0.4752
 6821SOL    HW231926   2.022   1.369   4.160 -0.3570 -0.3689 -0.8567
 6822SOL     OW31927   1.348   0.322  12.297  0.6192 -0.1902 -0.7236
 6822SOL    HW131928   1.293   0.254  12.258 -0.6381  0.3948  0.0640
 6822SOL    HW231929   1.427   0.272  12.319  0.6484 -0.1142 -0.6557
 6823SOL     OW31930   1.972   2.879  15.122 -0.0379  0.3185 -0.5988
 6823SOL    HW131931   2.054   2.882  15.072  0.3164 -2.6032 -0.2427
 6823SOL    HW231932   1.957   2.972  15.138 -0.3725  0.1210  0.2153
 6824SOL     OW31933   2.206   0.612   5.703  0.6599 -0.1280  0.5815
 6824SOL    HW131934   2.207   0.516   5.708 -0.5880 -0.1778 -0.0481
 6824SOL    HW231935   2.279   0.636   5.645 -0.4408 -0.1420 -0.8154
 6825SOL     OW31936   1.751   1.950   2.106 -0.2989  0.4346 -0.1825
 6825SOL    HW131937   1.807   1.905   2.169  1.1959 -0.2468 -1.9792
 6825SOL    HW231938   1.774   1.922   2.017  2.6034  1.8950  0.1083
 6826SOL     OW31939   1.197   2.743   3.036  0.1502  0.3453  0.2153
 6826SOL    HW131940   1.182   2.832   3.067  0.9598  0.9275 -1.1226
 6826SOL    HW231941   1.239   2.693   3.107  1.4562 -1.5586 -1.9189
 6827SOL     OW31942   1.271   2.994   3.574  0.3684 -0.1954 -0.3854
 6827SOL    HW131943   1.225   3.040   3.645  1.7849  1.6752 -0.6914
 6827SOL    HW231944   1.333   3.057   3.539  3.0736 -2.3252  0.5980
 6828SOL     OW31945   2.000   4.501  10.701 -0.1105 -0.1306  0.4111
 6828SOL    HW131946   1.936   4.535  10.638  0.2881  0.3892  0.2892
 6828SOL    HW231947   1.987   4.561  10.774  3.6226  0.6381  0.4290
 6829SOL     OW31948   3.615   1.158  17.229 -0.0768 -0.3684 -0.3988
 6829SOL    HW131949   3.564   1.159  17.311 -0.5155  0.1949 -0.6743
 6829SOL    HW231950   3.614   1.066  17.203 -0.5881 -0.4340 -0.1636
 6830SOL     OW31951   2.736   3.565   2.010  0.0597 -0.8543 -0.0503
 6830SOL    HW131952   2.792   3.592   2.082  0.6849  0.0076 -0.8659
 6830SOL    HW231953   2.789   3.495   1.972  2.0321  1.0776 -0.8444
 6831SOL     OW31954   3.000   0.873   3.022  0.4671 -0.1583 -0.4155
 6831SOL    HW131955   3.018   0.929   3.097 -0.1667  0.1198 -0.4711
 6831SOL    HW231956   2.992   0.792   3.071 -0.3322 -0.1097 -0.4765
 6832SOL     OW31957   2.146   1.923   7.849 -0.1062  0.2684  0.1211
 6832SOL    HW131958   2.153   2.017   7.870 -0.9460 -0.2957  2.9860
 6832SOL    HW231959   2.065   1.916   7.900  1.0962 -4.0821  1.3794
 6833SOL     OW31960   4.352   0.169   7.217 -0.5179 -0.1885  0.1981
 6833SOL    HW131961   4.349   0.240   7.153  2.1708  1.0001  1.3578
 6833SOL    HW231962   4.388   0.103   7.158 -0.2903  0.0591  0.0628
 6834SOL     OW31963   1.308   0.310   2.301 -0.3292 -0.2543 -0.4143
 6834SOL    HW131964   1.394   0.276   2.279 -0.4771 -0.4743 -0.6453
 6834SOL    HW231965   1.267   0.276   2.222 -0.0333 -3.2053  0.6763
 6835SOL     OW31966   3.491   4.252   6.775  0.5258  0.1800  0.4360
 6835SOL    HW131967   3.496   4.271   6.869  2.5777  0.3362  0.2900
 6835SOL    HW231968   3.480   4.158   6.768 -0.9359  0.3967 -0.1634
 6836SOL     OW31969   1.562   4.155   5.477  0.3895  0.1335  0.3831
 6836SOL    HW131970   1.483   4.208   5.469  1.2787  1.1097 -1.9756
 6836SOL    HW231971   1.585   4.163   5.570 -2.0079  1.2467  0.8638
 6837SOL     OW31972   0.801   2.125   4.073 -0.3299  0.2211  0.8667
 6837SOL    HW131973   0.885   2.095   4.039 -0.4015 -1.3790  2.1064
 6837SOL    HW231974   0.829   2.213   4.099 -0.0109  0.4859 -0.3812
 6838SOL     OW31975   3.320   4.154   0.159  0.0976 -0.1196 -0.1277
 6838SOL    HW131976   3.412   4.165   0.183 -0.0029  1.0071 -0.2794
 6838SOL    HW231977   3.309   4.074   0.212  2.5175  1.6984  3.1063
 6839SOL     OW31978   2.109   3.226   6.523  0.2184  0.3877 -0.6758
 6839SOL    HW131979   2.096   3.151   6.581  0.5914  0.7254 -0.1536
 6839SOL    HW231980   2.019   3.258   6.525  0.8399  2.1566 -0.4327
 6840SOL     OW31981   1.881   3.915   6.781 -0.6098  0.0789 -0.9122
 6840SOL    HW131982   1.929   3.925   6.699 -0.1315  1.9036 -0.4159
 6840SOL    HW231983   1.846   4.004   6.790 -0.5613 -0.2818  2.9048
 6841SOL     OW31984   1.334   1.460  17.489  0.8393  0.0941 -0.4649
 6841SOL    HW131985   1.299   1.497  17.408 -1.4744  0.1112  0.5299
 6841SOL    HW231986   1.377   1.536  17.527  0.3899 -0.4794  1.2054
 6842SOL     OW31987   0.056   1.917   5.607 -0.2237 -0.1033 -0.4140
 6842SOL    HW131988   0.053   1.837   5.659  0.3141  1.0060  1.3099
 6842SOL    HW231989   0.137   1.901   5.558  0.5140 -1.7790  1.3589
 6843SOL     OW31990   0.753   3.764  10.424 -0.6060 -0.0335  0.2179
 6843SOL    HW131991   0.706   3.723  10.351 -0.9007  0.2155  0.2704
 6843SOL    HW231992   0.834   3.712  10.424  0.1088  1.0873  0.6086
 6844SOL     OW31993   2.488   1.599   0.307  0.1469  0.1891  0.2911
 6844SOL    HW131994   2.540   1.676   0.330  2.5904 -1.1494 -0.7114
 6844SOL    HW231995   2.536   1.530   0.352  2.2783 -0.1788 -2.5377
 6845SOL     OW31996   2.685   3.557   6.755 -0.0068 -0.3699  0.0975
 6845SOL    HW131997   2.719   3.500   6.687  0.0050  0.0349 -0.2344
 6845SOL    HW231998   2.750   3.540   6.824  0.4728 -0.4376 -0.3747
 6846SOL     OW31999   1.416   2.675   5.508  0.6414 -0.6157  0.0849
 6846SOL    HW132000   1.375   2.679   5.422  0.6419  0.6368  0.1530
 6846SOL    HW232001   1.501   2.641   5.481  0.5172 -2.1707  1.6130
 6847SOL     OW32002   4.309   0.311   1.777 -0.5416 -0.3348  0.0421
 6847SOL    HW132003   4.373   0.270   1.718  0.4951  0.8030  0.3791
 6847SOL    HW232004   4.374   0.355   1.832 -1.8393 -1.5671  2.5755
 6848SOL     OW32005   4.248   3.112   3.484  0.1477 -0.2929 -1.1326
 6848SOL    HW132006   4.183   3.146   3.547  1.7773  1.3549 -0.3264
 6848SOL    HW232007   4.234   3.020   3.505 -1.1043 -0.5953 -3.3320
 6849SOL     OW32008   2.074   1.542   1.253 -0.0373  0.0951  0.1342
 6849SOL    HW132009   2.110   1.462   1.291 -0.2424  0.6552  1.4778
 6849SOL    HW232010   2.146   1.605   1.264 -0.4543  0.7845 -1.0603
 6850SOL     OW32011   3.655   2.222   6.866  0.4629  0.4532  0.1096
 6850SOL    HW132012   3.739   2.266   6.853  1.6039 -1.8036 -0.0812
 6850SOL    HW232013   3.688   2.133   6.874 -0.8371 -0.1597 -1.4199
 6851SOL     OW32014   0.846   3.059   3.845 -0.2071 -0.0466  0.3582
 6851SOL    HW132015   0.808   3.128   3.790 -2.3533 -0.9098  0.7570
 6851SOL    HW232016   0.908   3.010   3.791 -0.7194 -1.6404  1.2146
 6852SOL     OW32017   0.701   3.570  11.760  0.1751  0.2871 -0.6391
 6852SOL    HW132018   0.795   3.564  11.745  0.3094  0.7229  0.0263
 6852SOL    HW232019   0.678   3.482  11.791 -0.4713  0.9023  0.6216
 6853SOL     OW32020   3.971   1.951   6.282  0.2813 -0.0522  0.1813
 6853SOL    HW132021   3.885   1.993   6.290 -0.2880 -0.9849 -0.9688
 6853SOL    HW232022   4.005   1.951   6.371  0.7167  0.0115  0.0147
 6854SOL     OW32023   4.641   3.136   5.734  0.2056  0.0204 -0.0227
 6854SOL    HW132024   4.675   3.107   5.819 -0.1795 -2.3626 -0.6872
 6854SOL    HW232025   4.723   3.142   5.685  1.8969 -0.6268  2.7430
 6855SOL     OW32026   0.442   0.573   1.467  0.4609 -0.2993  0.0866
 6855SOL    HW132027   0.532   0.596   1.447 -0.3443 -0.6049 -3.9064
 6855SOL    HW232028   0.432   0.478   1.467  3.0411 -0.5660  0.1088
 6856SOL     OW32029   4.059   0.615   3.927  0.5297 -0.3460  0.5852
 6856SOL    HW132030   4.059   0.638   3.834  1.9218  0.2912  0.7477
 6856SOL    HW232031   4.042   0.523   3.908 -0.4852  0.0991 -0.7234
 6857SOL     OW32032   1.400   3.943   8.277 -0.8197 -0.2098  0.3072
 6857SOL    HW132033   1.428   4.020   8.226 -0.0228 -0.1001  0.9005
 6857SOL    HW232034   1.346   3.994   8.337  2.3261  1.4104  1.7732
 6858SOL     OW32035   0.056   3.056   5.983  0.0263  0.4182  0.7516
 6858SOL    HW132036   0.151   3.048   5.982  0.0001  0.1133  1.5415
 6858SOL    HW232037   0.039   2.963   5.968 -1.3258  0.8272 -0.2973
 6859SOL     OW32038   2.017   2.336   0.230  0.5461  0.2721 -0.1381
 6859SOL    HW132039   2.065   2.371   0.155 -0.1383  0.8372 -0.3107
 6859SOL    HW232040   1.926   2.358   0.210  0.1559 -1.8483 -0.7021
 6860SOL     OW32041   1.297   2.554   7.550  0.2009  0.3376  0.1620
 6860SOL    HW132042   1.253   2.574   7.633 -0.2970  1.2612 -0.3189
 6860SOL    HW232043   1.225   2.567   7.488 -1.2965 -0.1689  1.7748
 6861SOL     OW32044   0.863   1.400   2.892  0.4967  0.2621 -0.6861
 6861SOL    HW132045   0.798   1.463   2.923 -1.5107 -2.5198  0.7228
 6861SOL    HW232046   0.860   1.340   2.967 -2.7288  1.0641 -0.1825
 6862SOL     OW32047   3.185   1.840  13.714 -0.2088 -0.1280 -0.0412
 6862SOL    HW132048   3.195   1.846  13.619 -0.8209 -2.1138 -0.2252
 6862SOL    HW232049   3.092   1.824  13.728 -0.1487 -0.1958  0.2683
 6863SOL     OW32050   0.471   2.891  16.018 -0.2436 -0.5431  0.2394
 6863SOL    HW132051   0.557   2.931  16.018 -0.0112 -1.0371  1.4215
 6863SOL    HW232052   0.463   2.850  15.932 -2.1996  1.2161 -0.4245
 6864SOL     OW32053   1.045   0.685   3.190 -0.0155 -0.0220  0.3493
 6864SOL    HW132054   1.078   0.596   3.175  4.6937  1.5367  1.5114
 6864SOL    HW232055   1.079   0.727   3.111 -0.1461  1.0891  0.8821
 6865SOL     OW32056   4.560   3.091   1.925  0.1969 -0.1826 -0.2336
 6865SOL    HW132057   4.655   3.087   1.933  0.2127 -0.2194 -0.4379
 6865SOL    HW232058   4.552   3.157   1.994 -2.7285  1.9044 -2.5524
 6866SOL     OW32059   0.019   4.029   2.386  0.0772  0.1276 -0.6878
 6866SOL    HW132060   0.084   3.964   2.412 -1.0707 -1.2135 -1.1486
 6866SOL    HW232061   0.074   4.104   2.363 -1.1117  0.4995 -2.3467
 6867SOL     OW32062   0.482   2.694  13.078  0.3222 -0.2782  0.1072
 6867SOL    HW132063   0.523   2.694  12.991  0.5318 -0.6653  0.2044
 6867SOL    HW232064   0.437   2.778  13.084 -1.3006 -1.0570 -0.9713
 6868SOL     OW32065   0.662   4.287   6.534  0.2576  0.3621  0.4526
 6868SOL    HW132066   0.650   4.335   6.452 -0.6310 -0.6128  0.0139
 6868SOL    HW232067   0.579   4.317   6.571  0.3821 -0.1493  1.1479
 6869SOL     OW32068   1.891   1.563   2.412 -0.4297 -0.7627  0.0253
 6869SOL    HW132069   1.938   1.588   2.333 -1.3735 -1.3983 -0.7319
 6869SOL    HW232070   1.968   1.533   2.461 -0.5074  0.2075  0.7387
 6870SOL     OW32071   0.766   1.399   0.646 -0.0654  0.0514  0.1740
 6870SOL    HW132072   0.684   1.442   0.672 -0.5954 -1.1585  0.4998
 6870SOL    HW232073   0.756   1.420   0.553  3.6503 -3.1980 -0.9479
 6871SOL     OW32074   3.644   1.468   9.340  0.4225 -0.1390 -0.3314
 6871SOL    HW132075   3.667   1.559   9.360 -0.9135 -0.1555  1.3223
 6871SOL    HW232076   3.725   1.422   9.362 -0.1799 -1.8827 -1.8095
 6872SOL     OW32077   2.615   3.318   4.709 -0.4771  0.2360  0.3595
 6872SOL    HW132078   2.663   3.400   4.697 -1.0324  0.5613  0.3813
 6872SOL    HW232079   2.672   3.277   4.774 -0.0610 -0.5593 -0.5047
 6873SOL     OW32080   3.229   1.018   2.089  0.1525  0.2417 -0.6772
 6873SOL    HW132081   3.252   1.111   2.078 -1.7348  0.6905 -0.9009
 6873SOL    HW232082   3.142   1.031   2.128 -0.0234 -0.3813 -0.8579
 6874SOL     OW32083   0.678   0.209   8.258  0.0740  0.9087 -0.3394
 6874SOL    HW132084   0.628   0.216   8.177 -2.0914  2.4195  1.1400
 6874SOL    HW232085   0.760   0.169   8.226  0.1102 -0.5320  1.5581
 6875SOL     OW32086   2.331   0.424   5.284 -0.2827  0.1585  0.6251
 6875SOL    HW132087   2.381   0.462   5.212 -1.7903  0.9999  0.0205
 6875SOL    HW232088   2.267   0.493   5.306 -0.2612  0.4112 -0.0992
 6876SOL     OW32089   1.547   2.873   6.538  0.1786  0.0461 -0.4233
 6876SOL    HW132090   1.454   2.892   6.542  0.5122  1.4171  0.8639
 6876SOL    HW232091   1.574   2.894   6.627  0.2285 -0.9187 -0.2141
 6877SOL     OW32092   2.890   3.096  17.265 -0.5253  0.1695 -0.4504
 6877SOL    HW132093   2.949   3.093  17.340 -2.1220  1.0444  0.8398
 6877SOL    HW232094   2.827   3.027  17.285 -1.7726  0.5111 -3.1763
 6878SOL     OW32095   1.837   1.301   6.256  0.3839 -0.1919  0.3806
 6878SOL    HW132096   1.895   1.291   6.332 -0.1579  0.0363  0.8196
 6878SOL    HW232097   1.859   1.229   6.198  0.0999 -0.4057  0.5383
 6879SOL     OW32098   4.542   3.119   2.311  0.1930 -0.5369  0.2984
 6879SOL    HW132099   4.547   3.170   2.392 -1.4897 -1.6813  1.1222
 6879SOL    HW232100   4.524   3.187   2.246 -2.5887  0.7112  2.3784
 6880SOL     OW32101   3.885   3.977   3.420 -0.2073  0.1309  0.5006
 6880SOL    HW132102   3.799   3.998   3.384 -0.7555 -1.1817  1.0713
 6880SOL    HW232103   3.931   3.940   3.345 -1.0228  0.5815 -0.2301
 6881SOL     OW32104   1.192   4.655  17.491  0.5455 -1.2362 -0.4367
 6881SOL    HW132105   1.212   4.677  17.582 -0.8865 -0.3876 -0.3344
 6881SOL    HW232106   1.151   4.569  17.503 -2.1102  0.0684 -0.2238
 6882SOL     OW32107   3.613   3.731  11.164 -0.7358 -0.2007  0.0658
 6882SOL    HW132108   3.526   3.692  11.162 -1.5105  1.5652 -0.7027
 6882SOL    HW232109   3.657   3.650  11.191 -1.5842 -0.2955  1.1439
 6883SOL     OW32110   0.766   3.025   8.281 -0.1314 -0.0821  0.0127
 6883SOL    HW132111   0.860   3.010   8.275 -0.2041 -0.0075 -1.2719
 6883SOL    HW232112   0.727   2.937   8.275 -3.7873  1.2602  3.7504
 6884SOL     OW32113   4.421   3.288   6.811 -0.2936 -0.0887 -0.0564
 6884SOL    HW132114   4.340   3.304   6.763  1.8360 -0.0766 -3.6532
 6884SOL    HW232115   4.384   3.243   6.887 -0.6581 -0.7755 -0.6364
 6885SOL     OW32116   3.813   2.702   1.077  0.0589 -0.5329 -0.4610
 6885SOL    HW132117   3.737   2.645   1.083  0.7035 -1.4201 -0.6814
 6885SOL    HW232118   3.886   2.656   1.119 -0.3754  0.1153  1.0248
 6886SOL     OW32119   4.624   0.178   3.011  0.1452  0.3938  0.5489
 6886SOL    HW132120   4.647   0.187   2.919  0.1259  1.5098  0.6642
 6886SOL    HW232121   4.580   0.261   3.030  0.9781  0.5688  1.7354
 6887SOL     OW32122   0.188   3.374   3.828 -0.6686  0.0068 -0.1645
 6887SOL    HW132123   0.176   3.448   3.887  2.1033  0.9332 -0.7828
 6887SOL    HW232124   0.157   3.292   3.867 -1.1936 -0.0333 -0.6731
 6888SOL     OW32125   2.426   2.723   7.872  0.0894 -0.0134  0.3796
 6888SOL    HW132126   2.435   2.628   7.859 -0.2894  0.2703 -1.8960
 6888SOL    HW232127   2.376   2.753   7.797  1.1248 -1.0323 -0.7215
 6889SOL     OW32128   3.727   0.322   7.773  0.8085  0.2871  0.1275
 6889SOL    HW132129   3.642   0.345   7.734  0.2506 -2.9398 -0.5059
 6889SOL    HW232130   3.783   0.399   7.766  3.0828 -1.5416 -1.5967
 6890SOL     OW32131   2.157   3.287   6.212 -0.3139  0.4186 -0.0248
 6890SOL    HW132132   2.233   3.311   6.263  0.5863  0.1485 -1.2385
 6890SOL    HW232133   2.129   3.220   6.275 -0.8559 -2.8760 -3.7078
 6891SOL     OW32134   3.039   0.993   9.207  0.2085 -0.8306  0.4775
 6891SOL    HW132135   3.085   1.074   9.186 -1.7839  0.5854  1.5647
 6891SOL    HW232136   3.039   0.957   9.119 -0.4033 -0.4572  0.3276
 6892SOL     OW32137   4.062   1.071  17.645 -0.4225  0.6949 -0.5885
 6892SOL    HW132138   4.099   1.003   0.002 -2.8328 -0.3195 -0.2225
 6892SOL    HW232139   4.130   1.136  17.658 -1.3244  0.9689  2.6659
 6893SOL     OW32140   0.563   0.009   6.176  0.1903 -0.2918 -0.0065
 6893SOL    HW132141   0.639   0.018   6.233 -0.6320  0.1061  1.0221
 6893SOL    HW232142   0.550   0.098   6.145  1.2142 -0.4628 -0.9079
 6894SOL     OW32143   0.532   4.455   7.506  0.8309 -1.1825  0.2871
 6894SOL    HW132144   0.592   4.476   7.435 -0.8799  3.3584  0.1239
 6894SOL    HW232145   0.577   4.477   7.587  1.4165  1.5978 -0.7925
 6895SOL     OW32146   1.993   0.191   8.581  1.0169 -0.0055 -0.1292
 6895SOL    HW132147   1.937   0.114   8.591  1.4229 -0.2023  0.5698
 6895SOL    HW232148   2.029   0.206   8.668 -2.0358 -1.2246  1.3563
 6896SOL     OW32149   0.664   2.120  14.642  0.4478 -0.4350  0.0429
 6896SOL    HW132150   0.588   2.064  14.623  0.0990  0.1125 -0.1718
 6896SOL    HW232151   0.734   2.063  14.673 -1.3241 -1.6476  1.7789
 6897SOL     OW32152   0.542   1.807   0.636 -0.0290 -0.8695  0.0389
 6897SOL    HW132153   0.490   1.841   0.563 -1.8896  0.5626  2.0421
 6897SOL    HW232154   0.627   1.843   0.612 -0.6812  1.7626  1.6939
 6898SOL     OW32155   0.624   2.176  16.469  0.2141  0.0638 -0.2979
 6898SOL    HW132156   0.561   2.233  16.425 -0.1713 -0.2541 -0.1582
 6898SOL    HW232157   0.702   2.226  16.444  0.6254 -1.7272 -2.5334
 6899SOL     OW32158   0.780   0.050   7.695 -0.2339  0.1183  0.6316
 6899SOL    HW132159   0.857   0.044   7.753  1.2293  1.5248 -1.1613
 6899SOL    HW232160   0.775   0.142   7.672  0.3398 -0.1368 -0.4845
 6900SOL     OW32161   2.721   1.536   2.788 -0.1405  0.1375 -0.4755
 6900SOL    HW132162   2.769   1.529   2.871  0.6115 -1.5519 -1.0450
 6900SOL    HW232163   2.769   1.470   2.739 -0.2957  0.0355 -0.4907
 6901SOL     OW32164   0.643   0.699   2.802 -0.0200  0.1882  0.0848
 6901SOL    HW132165   0.577   0.645   2.760 -0.4506  0.6496  0.1722
 6901SOL    HW232166   0.688   0.737   2.727  0.9511  0.0913  0.6144
 6902SOL     OW32167   0.136   3.789   3.673 -0.3107  0.2083 -0.2592
 6902SOL    HW132168   0.109   3.868   3.626 -0.2601  1.4811  1.8592
 6902SOL    HW232169   0.119   3.823   3.761 -0.1558 -0.6508  0.1016
 6903SOL     OW32170   2.461   3.456   2.018 -0.7957 -0.2483 -0.8917
 6903SOL    HW132171   2.431   3.543   1.991  0.4921  0.3817 -0.2947
 6903SOL    HW232172   2.537   3.458   1.960 -1.0026 -0.2521 -1.1618
 6904SOL     OW32173   3.255   2.159  16.835  0.5451 -0.5259  0.4674
 6904SOL    HW132174   3.204   2.120  16.765  1.3942  0.0417 -0.4578
 6904SOL    HW232175   3.332   2.196  16.792  0.1492 -0.5365 -0.2370
 6905SOL     OW32176   2.107   3.373   3.814  0.3953  0.9566 -0.2360
 6905SOL    HW132177   2.084   3.371   3.721  0.8950 -0.8004 -0.3097
 6905SOL    HW232178   2.142   3.286   3.833  2.0706  1.4484 -1.1259
 6906SOL     OW32179   4.337   0.201   7.616 -0.2351  0.3110 -0.4232
 6906SOL    HW132180   4.367   0.255   7.543  0.7074  0.8453  0.3568
 6906SOL    HW232181   4.423   0.160   7.630 -0.7163 -0.4986  0.2071
 6907SOL     OW32182   2.156   2.646   1.321  0.4166 -0.4399  0.1206
 6907SOL    HW132183   2.180   2.610   1.235  0.7323 -1.0658  0.4776
 6907SOL    HW232184   2.238   2.650   1.369  0.9381  1.1083 -0.8705
 6908SOL     OW32185   3.722   0.757   2.276 -0.5603 -0.1663 -1.1362
 6908SOL    HW132186   3.681   0.756   2.190 -1.7205 -0.4840 -0.5750
 6908SOL    HW232187   3.731   0.852   2.282 -0.1223 -0.2066 -1.1326
 6909SOL     OW32188   1.903   1.048  11.121 -0.2151  0.2167  0.0811
 6909SOL    HW132189   1.888   1.073  11.212  0.2349  1.6971 -0.2371
 6909SOL    HW232190   1.819   1.074  11.083  0.3425  0.0437 -1.2549
 6910SOL     OW32191   2.794   0.237   4.030 -0.4543 -0.5365 -0.0451
 6910SOL    HW132192   2.699   0.245   4.024 -0.6835 -1.7614  1.7563
 6910SOL    HW232193   2.800   0.186   4.111 -0.0952  1.0411  0.9175
 6911SOL     OW32194   1.121   1.335  12.368 -0.1687  0.3030  0.3352
 6911SOL    HW132195   1.054   1.392  12.330  1.8280  1.3233 -1.6451
 6911SOL    HW232196   1.202   1.384  12.358 -0.9767  1.5616 -0.1595
 6912SOL     OW32197   0.302   3.725   5.114 -0.2425 -0.3963 -0.1503
 6912SOL    HW132198   0.209   3.717   5.136  0.1001  0.3688  1.5268
 6912SOL    HW232199   0.310   3.802   5.058  2.4086 -0.4117  0.2257
 6913SOL     OW32200   2.954   1.282   9.488 -0.4279 -0.3451 -0.4832
 6913SOL    HW132201   3.031   1.314   9.440 -0.0739  0.8194  0.8431
 6913SOL    HW232202   2.961   1.332   9.570  2.0994 -0.5180 -0.5944
 6914SOL     OW32203   0.328   0.388   4.576 -0.1197  0.1614 -0.2638
 6914SOL    HW132204   0.277   0.317   4.616  1.0873  0.2152  1.3973
 6914SOL    HW232205   0.286   0.401   4.492 -1.2604  1.4198  0.5007
 6915SOL     OW32206   2.195   1.296   4.430  0.1030 -0.3124 -0.3936
 6915SOL    HW132207   2.287   1.311   4.407 -0.1388  1.4343 -0.2327
 6915SOL    HW232208   2.146   1.331   4.356  0.4588  2.1786  0.5364
 6916SOL     OW32209   4.304   3.175   4.525  0.0071 -0.4030  0.2524
 6916SOL    HW132210   4.332   3.089   4.492  1.3820 -0.1139  0.6459
 6916SOL    HW232211   4.378   3.233   4.511  0.1037 -0.3820  0.8347
 6917SOL     OW32212   0.113   4.474   9.521 -0.7077 -0.2305 -0.6080
 6917SOL    HW132213   0.203   4.506   9.515 -0.5959 -0.7205 -1.4773
 6917SOL    HW232214   0.121   4.386   9.556  1.1866  0.3457  0.4149
 6918SOL     OW32215   3.677   3.207   7.933 -0.2444 -0.0715  0.0666
 6918SOL    HW132216   3.746   3.143   7.947  0.1813 -0.0605 -2.0750
 6918SOL    HW232217   3.630   3.166   7.861  1.9856 -1.2029 -0.7158
 6919SOL     OW32218   1.356   0.911   4.830 -0.3365 -0.2582  0.0746
 6919SOL    HW132219   1.274   0.897   4.877 -0.9448  1.1204 -0.5618
 6919SOL    HW232220   1.350   1.003   4.805 -0.4339 -0.5090 -0.8154
 6920SOL     OW32221   2.128   3.096   0.462 -0.5109 -0.2297  0.1637
 6920SOL    HW132222   2.175   3.178   0.479  0.8614 -0.6752 -1.4172
 6920SOL    HW232223   2.186   3.056   0.397  1.8364  2.6900  0.4361
 6921SOL     OW32224   0.492   4.681  12.423 -0.9041  0.0482  0.5989
 6921SOL    HW132225   0.543   0.035  12.448  0.2266 -1.0020  1.6304
 6921SOL    HW232226   0.407   4.723  12.408 -1.5626 -1.5082  0.0652
 6922SOL     OW32227   0.735   1.682   2.048  0.6026  0.1804 -0.0611
 6922SOL    HW132228   0.810   1.738   2.029 -0.3446  0.8046 -1.9176
 6922SOL    HW232229   0.673   1.736   2.099 -0.5426 -1.8948  0.7509
 6923SOL     OW32230   4.691   4.242  15.535  0.0891 -0.6685  0.2126
 6923SOL    HW132231   4.605   4.277  15.510  0.8735  1.3033  0.2452
 6923SOL    HW232232   4.678   4.229  15.628  1.3367 -0.7785  0.3698
 6924SOL     OW32233   2.652   3.581  15.063  0.0400  1.0821 -0.8903
 6924SOL    HW132234   2.608   3.497  15.057 -1.1898  1.5903  0.8683
 6924SOL    HW232235   2.731   3.577  15.009  1.0632  0.7048  0.6333
 6925SOL     OW32236   3.326   2.086  14.675 -0.0110 -0.0055  0.0480
 6925SOL    HW132237   3.389   2.114  14.609  0.9676  2.0167  1.8231
 6925SOL    HW232238   3.287   2.014  14.626  0.3300 -0.6447  0.6978
 6926SOL     OW32239   1.207   0.045   7.667 -0.7919 -0.0200 -0.8599
 6926SOL    HW132240   1.249   0.042   7.753 -0.4635 -0.4421 -1.0347
 6926SOL    HW232241   1.255   0.109   7.614 -0.7035  0.0115 -0.7410
 6927SOL     OW32242   2.694   4.355   2.038 -0.4757 -0.1772  0.1763
 6927SOL    HW132243   2.787   4.370   2.019 -1.2141  3.0770 -0.9035
 6927SOL    HW232244   2.683   4.268   2.000 -0.5216 -0.2905  0.4553
 6928SOL     OW32245   0.191   1.432   5.013 -0.0095 -1.5804  0.1060
 6928SOL    HW132246   0.236   1.443   4.928 -0.0296 -0.6887  0.2102
 6928SOL    HW232247   0.100   1.436   4.985 -0.3234 -2.0800  1.0587
 6929SOL     OW32248   0.999   3.971   2.574  0.3794 -0.4580  0.0577
 6929SOL    HW132249   1.006   4.028   2.498  1.4065 -1.6107 -0.7060
 6929SOL    HW232250   1.086   3.975   2.613 -0.5029  0.6176  1.9382
 6930SOL     OW32251   3.443   4.040   2.105  0.2493 -0.0407  0.3438
 6930SOL    HW132252   3.444   4.105   2.034 -1.6052 -0.4252 -0.0545
 6930SOL    HW232253   3.459   4.093   2.183 -0.2477 -1.6688  1.5570
 6931SOL     OW32254   2.663   0.901   0.651 -0.2941  0.0957  0.1509
 6931SOL    HW132255   2.654   0.814   0.614  1.0139  1.0040 -2.3026
 6931SOL    HW232256   2.575   0.910   0.688  0.4471 -0.8508  2.1645
 6932SOL     OW32257   4.349   2.942   6.268  0.1009 -0.1621 -0.0551
 6932SOL    HW132258   4.429   2.947   6.216  0.9777  1.2341  1.4273
 6932SOL    HW232259   4.358   2.851   6.294  0.8347 -0.3092 -0.8173
 6933SOL     OW32260   2.126   1.333  10.729 -0.2700  0.0814  0.8944
 6933SOL    HW132261   2.057   1.271  10.705  3.1947 -3.1546 -0.7391
 6933SOL    HW232262   2.129   1.398  10.659 -0.2466 -1.2449 -0.3462
 6934SOL     OW32263   1.972   0.057   5.167 -0.3791  0.0125  0.1353
 6934SOL    HW132264   1.926   0.062   5.251 -0.0883 -0.0168  0.3000
 6934SOL    HW232265   2.011   4.694   5.173  0.0357  0.1599 -0.3681
 6935SOL     OW32266   1.374   3.040  10.856 -0.2228  0.2667  0.5263
 6935SOL    HW132267   1.466   3.064  10.840 -0.8076  2.1365  0.0052
 6935SOL    HW232268   1.357   3.077  10.943 -0.2063  0.2260  0.5467
 6936SOL     OW32269   3.652   1.926   1.945  0.2889  0.1103 -0.5937
 6936SOL    HW132270   3.604   1.847   1.969  3.2380 -0.9947  1.7534
 6936SOL    HW232271   3.733   1.896   1.987 -0.8735 -1.2259  0.6926
 6937SOL     OW32272   0.249   2.293  10.942 -0.2541  0.1858 -0.0338
 6937SOL    HW132273   0.312   2.317  11.010  0.8698 -0.5690 -0.8257
 6937SOL    HW232274   0.294   2.303  10.859  0.3435 -1.3415  0.1055
 6938SOL     OW32275   2.684   1.435  11.787 -0.0587  0.1443  0.7216
 6938SOL    HW132276   2.681   1.350  11.743  2.9453  1.8541 -2.8220
 6938SOL    HW232277   2.680   1.401  11.876  1.5971 -0.3446  0.6070
 6939SOL     OW32278   0.882   0.751   9.683 -0.1189 -0.6144  0.0897
 6939SOL    HW132279   0.884   0.825   9.744 -2.5276 -0.0744 -0.4968
 6939SOL    HW232280   0.792   0.766   9.655 -0.4229 -0.2489  1.2663
 6940SOL     OW32281   3.856   2.277  11.244  0.1339  0.5200 -0.4066
 6940SOL    HW132282   3.865   2.314  11.156 -0.7214 -1.3722 -1.2823
 6940SOL    HW232283   3.771   2.315  11.265  0.3732  0.8055  0.0580
 6941SOL     OW32284   3.266   1.289   2.395  0.2042 -0.3254  0.1390
 6941SOL    HW132285   3.238   1.347   2.466 -0.4831 -1.2904  0.6663
 6941SOL    HW232286   3.210   1.215   2.420 -2.5017  1.4350 -0.6759
 6942SOL     OW32287   3.684   0.458  10.731  0.2931  0.7890  0.0166
 6942SOL    HW132288   3.640   0.374  10.745  1.4535  0.0723 -0.6368
 6942SOL    HW232289   3.669   0.460  10.637  0.5634  0.6406 -0.0297
 6943SOL     OW32290   0.501   3.492   6.538  0.2096 -0.1168 -0.1813
 6943SOL    HW132291   0.420   3.510   6.585  0.5346 -0.2632  0.4307
 6943SOL    HW232292   0.476   3.511   6.447 -0.7139 -2.2703 -0.3740
 6944SOL     OW32293   1.530   0.712   6.152  0.7936  0.4017  0.1923
 6944SOL    HW132294   1.503   0.772   6.221  1.2509  0.5168  0.2694
 6944SOL    HW232295   1.617   0.749   6.140  0.2247  1.4199 -0.8002
 6945SOL     OW32296   1.938   2.419   8.520  0.3262  0.3125  0.1331
 6945SOL    HW132297   1.885   2.462   8.587  0.8136 -2.0401  2.0272
 6945SOL    HW232298   1.879   2.392   8.451 -0.2515  0.9040  0.3904
 6946SOL     OW32299   2.417   2.397  12.312 -0.1051 -0.0072 -0.3798
 6946SOL    HW132300   2.457   2.480  12.337  1.8055 -1.3355  0.9804
 6946SOL    HW232301   2.349   2.435  12.256 -0.5280 -2.7026 -1.7008
 6947SOL     OW32302   0.217   1.692  12.348 -0.3967 -0.4034 -0.5950
 6947SOL    HW132303   0.311   1.709  12.355 -0.6327  0.4600  0.4035
 6947SOL    HW232304   0.191   1.774  12.306 -0.6765 -0.2662 -0.1440
 6948SOL     OW32305   2.625   0.755   5.803 -0.2797  0.3163 -0.2140
 6948SOL    HW132306   2.569   0.722   5.873  1.1826  0.4071  0.9923
 6948SOL    HW232307   2.707   0.716   5.832 -0.4713 -2.1417 -2.9462
 6949SOL     OW32308   0.789   0.360   2.771  0.3492  0.3884 -0.4275
 6949SOL    HW132309   0.852   0.419   2.812 -0.3767  1.2328 -0.5181
 6949SOL    HW232310   0.853   0.296   2.741  2.2193  2.0351  0.0167
 6950SOL     OW32311   0.720   2.181  15.610 -0.0792  0.2607 -0.0560
 6950SOL    HW132312   0.772   2.226  15.677 -0.2626 -1.9312  1.5466
 6950SOL    HW232313   0.782   2.181  15.537 -1.0354 -0.0552 -0.8644
 6951SOL     OW32314   1.749   2.598   0.505  0.1266  0.1265 -0.1765
 6951SOL    HW132315   1.822   2.538   0.516  0.9111  0.8012 -1.6863
 6951SOL    HW232316   1.679   2.532   0.498  0.0491  0.0203  1.5627
 6952SOL     OW32317   1.306   1.121   2.302 -0.0934 -0.3150  0.3974
 6952SOL    HW132318   1.307   1.201   2.249  1.3348 -1.5365 -1.4301
 6952SOL    HW232319   1.344   1.157   2.382  1.2561  3.3806 -1.9410
 6953SOL     OW32320   1.813   2.267  11.941  0.1814 -0.3246 -0.0046
 6953SOL    HW132321   1.854   2.303  12.020  1.4373  1.9073 -1.6786
 6953SOL    HW232322   1.732   2.318  11.938 -0.4781 -1.3337  0.5006
 6954SOL     OW32323   4.664   0.673   7.369 -0.0894 -0.0601 -0.4364
 6954SOL    HW132324   0.022   0.682   7.417 -1.6778  0.8989  2.1396
 6954SOL    HW232325   4.696   0.623   7.294 -2.4494 -0.1718 -1.3438
 6955SOL     OW32326   0.215   4.649  17.584  0.1281  0.7770 -0.2798
 6955SOL    HW132327   0.186   4.715  17.647 -0.9992 -0.4206  0.4617
 6955SOL    HW232328   0.248   4.580  17.643 -1.2168  1.6398  1.4987
 6956SOL     OW32329   0.346   4.478   4.994 -0.0229 -0.2875  0.7187
 6956SOL    HW132330   0.384   4.394   4.968 -1.6231 -0.5524 -0.8116
 6956SOL    HW232331   0.270   4.476   5.052 -0.3703  0.0773  0.2763
 6957SOL     OW32332   1.383   0.584   4.209  0.7417  0.1435 -0.2166
 6957SOL    HW132333   1.444   0.575   4.281  0.2158 -2.0636 -0.0487
 6957SOL    HW232334   1.321   0.652   4.237  0.1810 -0.0900 -0.8825
 6958SOL     OW32335   3.389   2.622   5.163  0.2520  0.4613  0.0435
 6958SOL    HW132336   3.330   2.625   5.088  0.4407  1.7325 -0.0617
 6958SOL    HW232337   3.419   2.713   5.156 -2.0765  1.2176  0.1422
 6959SOL     OW32338   2.097   2.907   5.104  0.0090 -0.2829 -0.3529
 6959SOL    HW132339   2.173   2.900   5.162  0.5892  0.6365 -1.0009
 6959SOL    HW232340   2.145   2.935   5.026  0.4066 -0.4792 -0.1784
 6960SOL     OW32341   4.191   3.565   3.535 -0.0754  0.2952  0.1307
 6960SOL    HW132342   4.148   3.563   3.621  0.3266 -1.0288  0.3024
 6960SOL    HW232343   4.259   3.500   3.554 -1.2423 -0.5986  1.2786
 6961SOL     OW32344   3.850   1.391   8.524  0.3805  0.0199  0.5736
 6961SOL    HW132345   3.924   1.410   8.467  0.8306  0.7833  1.4124
 6961SOL    HW232346   3.903   1.365   8.599 -0.3073 -1.3146  0.5953
 6962SOL     OW32347   2.408   1.832   3.816 -0.3798 -0.0497  0.3994
 6962SOL    HW132348   2.345   1.786   3.760  1.4047 -1.4352 -0.4714
 6962SOL    HW232349   2.472   1.868   3.756  1.4689 -0.6168  2.0337
 6963SOL     OW32350   2.865   3.124   1.435  0.0373  0.4687 -0.0262
 6963SOL    HW132351   2.931   3.075   1.385  0.0337 -0.5346  0.9510
 6963SOL    HW232352   2.811   3.152   1.361  0.5631 -1.6023 -1.1974
 6964SOL     OW32353   1.075   0.457   4.343 -0.3903 -0.5911 -0.1023
 6964SOL    HW132354   1.112   0.413   4.420 -1.6931 -0.5136  0.5606
 6964SOL    HW232355   1.130   0.419   4.274 -0.4188 -0.6712 -0.0801
 6965SOL     OW32356   1.098   1.377   3.942  0.3797  0.1593 -0.0652
 6965SOL    HW132357   1.115   1.431   3.865  0.5118  0.8564  0.4555
 6965SOL    HW232358   1.037   1.426   3.998  1.6972  1.6155  0.0765
 6966SOL     OW32359   1.591   2.211   4.182  0.6703  0.0468  0.1020
 6966SOL    HW132360   1.685   2.202   4.199  0.5985 -2.8521 -1.1259
 6966SOL    HW232361   1.563   2.127   4.145  0.6251 -0.0023  0.2462
 6967SOL     OW32362   0.651   2.765  16.761 -0.1519  0.5111 -0.4809
 6967SOL    HW132363   0.588   2.801  16.823  0.0075 -0.3375  0.1668
 6967SOL    HW232364   0.615   2.676  16.760  0.1650  0.3908 -1.0224
 6968SOL     OW32365   4.101   0.906   7.705 -0.3963 -0.1434  0.0177
 6968SOL    HW132366   4.099   0.826   7.758 -1.5233  0.0848  0.2984
 6968SOL    HW232367   4.183   0.949   7.732 -1.6787  1.5006  1.2782
 6969SOL     OW32368   1.233   1.247   3.365 -0.0432 -0.3717  0.5691
 6969SOL    HW132369   1.229   1.332   3.322 -0.1762 -0.3610  0.6024
 6969SOL    HW232370   1.207   1.194   3.289 -0.0089  0.6153 -0.1251
 6970SOL     OW32371   2.036   1.684   4.445 -0.7547  0.3965  0.8043
 6970SOL    HW132372   2.015   1.690   4.352  1.5471  3.4916  0.4769
 6970SOL    HW232373   1.968   1.737   4.488 -2.5043 -0.0607 -1.4381
 6971SOL     OW32374   4.033   2.018  11.806 -0.1288  0.0499 -0.0350
 6971SOL    HW132375   4.023   2.111  11.786  0.2431  0.0454 -0.2551
 6971SOL    HW232376   4.016   1.982  11.718 -0.0840  0.3683 -0.1729
 6972SOL     OW32377   0.656   4.014  10.349 -0.7331 -0.1819 -0.0735
 6972SOL    HW132378   0.637   4.046  10.437 -1.3064  0.3860 -0.4054
 6972SOL    HW232379   0.695   3.928  10.363 -1.0146 -0.5745 -1.7776
 6973SOL     OW32380   1.276   3.846   7.399  0.3553  0.2649  0.1702
 6973SOL    HW132381   1.189   3.810   7.412 -0.2841  1.4745 -0.7745
 6973SOL    HW232382   1.283   3.874   7.490 -1.5815 -3.7562  1.5318
 6974SOL     OW32383   3.978   3.392   7.784 -0.0250  0.3681 -0.1823
 6974SOL    HW132384   3.959   3.482   7.759 -2.6758 -1.0485 -3.2341
 6974SOL    HW232385   4.062   3.381   7.739  0.7427 -2.0715  1.8239
 6975SOL     OW32386   0.430   2.567  16.409 -0.4291 -0.5456  0.1033
 6975SOL    HW132387   0.372   2.583  16.483 -1.3149  0.5590 -0.8418
 6975SOL    HW232388   0.506   2.614  16.443  1.3243 -2.9601 -0.4485
 6976SOL     OW32389   2.609   0.357   9.340 -0.2015 -0.1799  0.2974
 6976SOL    HW132390   2.597   0.379   9.248  0.7771  2.1013  0.7194
 6976SOL    HW232391   2.521   0.372   9.374 -0.3963 -1.8246  0.5196
 6977SOL     OW32392   0.569   3.583   0.211  0.0617  0.0841  0.2204
 6977SOL    HW132393   0.591   3.612   0.300  1.3349  2.1451 -0.7514
 6977SOL    HW232394   0.622   3.644   0.160  1.8259  1.1176  3.2521
 6978SOL     OW32395   0.409   3.844   8.704 -0.2229  0.3092 -0.3596
 6978SOL    HW132396   0.320   3.843   8.738 -1.1514  2.0925 -2.7289
 6978SOL    HW232397   0.471   3.828   8.775  0.3721  2.7954 -0.3030
 6979SOL     OW32398   0.410   4.597   6.463  0.5698  0.1013  0.0999
 6979SOL    HW132399   0.447   4.527   6.516 -1.9265 -2.9459 -2.2083
 6979SOL    HW232400   0.442   4.679   6.502  2.7128  0.1436 -1.7058
 6980SOL     OW32401   2.253   1.984   3.465 -0.8718  0.3152  0.2385
 6980SOL    HW132402   2.338   2.027   3.470 -1.5837  1.8571 -1.2251
 6980SOL    HW232403   2.244   1.983   3.370  1.6444  0.9812  0.0032
 6981SOL     OW32404   4.549   3.084   7.088  0.1950  0.3700 -0.1179
 6981SOL    HW132405   4.473   3.141   7.093 -0.4318 -0.6487  2.1425
 6981SOL    HW232406   4.520   3.016   7.027 -1.5461  2.4780 -1.6456
 6982SOL     OW32407   2.068   0.348  16.283  0.1354 -0.4811  0.3352
 6982SOL    HW132408   2.021   0.421  16.324  0.1505 -1.7775  2.6640
 6982SOL    HW232409   2.089   0.310  16.368  0.2861  1.3931  1.1449
 6983SOL     OW32410   3.806   0.111  16.992 -0.3634  0.1792  0.0176
 6983SOL    HW132411   3.858   0.033  17.013 -0.7776 -0.2912 -0.7185
 6983SOL    HW232412   3.872   0.179  16.982 -1.6702  1.6138  1.2936
 6984SOL     OW32413   2.289   1.253   7.722 -0.2990  0.0024 -0.2194
 6984SOL    HW132414   2.229   1.179   7.717 -0.9257  0.6841 -2.4535
 6984SOL    HW232415   2.375   1.216   7.700 -0.8912  0.0840 -2.6968
 6985SOL     OW32416   0.615   0.394   3.686 -0.3511 -0.3978 -0.3674
 6985SOL    HW132417   0.588   0.333   3.754 -0.6078  1.3360  1.1054
 6985SOL    HW232418   0.541   0.424   3.633  0.8069  1.1116 -1.1683
 6986SOL     OW32419   0.936   0.804   1.766 -0.2061  0.7531  0.2353
 6986SOL    HW132420   1.020   0.841   1.789  0.2507  0.5211 -1.0342
 6986SOL    HW232421   0.890   0.781   1.847  0.4212 -1.6354 -0.0737
 6987SOL     OW32422   4.172   2.258   5.533  0.0512  0.4336  0.2003
 6987SOL    HW132423   4.116   2.329   5.505 -0.4447 -0.4208 -0.9527
 6987SOL    HW232424   4.162   2.191   5.466 -1.8934  1.1470 -0.2125
 6988SOL     OW32425   2.778   2.631   1.401  0.4064 -0.7477 -0.2510
 6988SOL    HW132426   2.852   2.573   1.421 -0.1440 -1.3150  0.1398
 6988SOL    HW232427   2.708   2.599   1.458  0.9151 -1.5998 -0.0955
 6989SOL     OW32428   3.812   1.025   2.561  0.2396 -0.0377 -0.1626
 6989SOL    HW132429   3.766   1.023   2.645  0.6952 -1.3525  0.0448
 6989SOL    HW232430   3.904   1.005   2.574  0.7756  2.5173  0.0565
 6990SOL     OW32431   1.879   2.537  12.605 -0.6582 -0.3297  0.2550
 6990SOL    HW132432   1.950   2.561  12.547 -0.9508 -1.5408 -0.5989
 6990SOL    HW232433   1.922   2.520  12.689 -0.2723  0.6626  0.2553
 6991SOL     OW32434   4.665   1.104   6.019 -0.0193  0.3046  0.0093
 6991SOL    HW132435   4.598   1.078   5.955  0.1717  0.6658 -0.3343
 6991SOL    HW232436   0.015   1.052   5.992  1.3885  0.5733  3.2909
 6992SOL     OW32437   1.700   3.260   8.819 -0.3389  0.1985  0.0182
 6992SOL    HW132438   1.645   3.325   8.863 -1.5652  0.0291 -1.2474
 6992SOL    HW232439   1.749   3.216   8.888  0.1113  1.1317  0.2802
 6993SOL     OW32440   0.444   4.303   9.198 -0.5454  0.2321  0.1498
 6993SOL    HW132441   0.509   4.234   9.209  0.9628  1.4134 -1.3070
 6993SOL    HW232442   0.473   4.377   9.252  0.6532  0.3904 -0.6974
 6994SOL     OW32443   2.158   4.241   7.590 -0.1728 -0.6650 -0.3130
 6994SOL    HW132444   2.155   4.147   7.573 -1.6861 -0.2951 -2.0973
 6994SOL    HW232445   2.150   4.272   7.500  0.9509 -1.1400 -0.5725
 6995SOL     OW32446   1.275   2.342   2.119  0.9035  0.0602  0.5268
 6995SOL    HW132447   1.343   2.342   2.051  1.8924 -0.3797  1.5085
 6995SOL    HW232448   1.313   2.409   2.177  5.5572 -2.1127 -0.0244
 6996SOL     OW32449   1.527   3.472   3.442  0.5214 -0.3230  0.2688
 6996SOL    HW132450   1.489   3.539   3.499 -1.2130 -1.3668  0.3551
 6996SOL    HW232451   1.508   3.498   3.351  3.9376  1.3424  0.0166
 6997SOL     OW32452   1.987   0.694  11.204 -0.0663  0.3202 -0.1344
 6997SOL    HW132453   2.003   0.737  11.288  2.1497 -1.6699  0.4653
 6997SOL    HW232454   1.938   0.767  11.165 -0.9583 -0.0369  0.3264
 6998SOL     OW32455   0.688   2.508   5.561  0.2721 -0.6880  0.2066
 6998SOL    HW132456   0.628   2.449   5.606 -2.8041 -0.0118 -2.9670
 6998SOL    HW232457   0.743   2.548   5.628  0.7203 -1.9691  0.5951
 6999SOL     OW32458   0.124   3.756   8.652 -0.7821  0.3168  0.0420
 6999SOL    HW132459   0.143   3.843   8.617 -1.9603  0.1859 -0.9343
 6999SOL    HW232460   0.028   3.751   8.655 -0.8358  0.2186 -1.8746
 7000SOL     OW32461   1.857   1.609   1.776  0.4569 -0.0056 -0.0568
 7000SOL    HW132462   1.845   1.700   1.805  0.6506 -0.5912  1.8903
 7000SOL    HW232463   1.791   1.562   1.827  0.6110 -0.3755 -0.2007
 7001SOL     OW32464   0.918   2.067   6.522  0.2860  0.1875 -0.0361
 7001SOL    HW132465   0.924   2.149   6.473  0.5161 -0.5478 -1.2454
 7001SOL    HW232466   0.905   2.117   6.603  2.1242  0.1395  0.2929
 7002SOL     OW32467   4.316   1.429   4.970 -0.2864 -0.1110 -0.3034
 7002SOL    HW132468   4.369   1.383   4.905  0.1888  0.7750 -0.5332
 7002SOL    HW232469   4.238   1.446   4.916  0.6135  1.5446 -1.0494
 7003SOL     OW32470   0.171   2.427   8.990 -0.3986  0.0714 -0.4378
 7003SOL    HW132471   0.218   2.506   8.963  0.4865 -0.7495 -1.3147
 7003SOL    HW232472   0.175   2.435   9.085 -1.8019  0.9938 -0.4495
 7004SOL     OW32473   2.416   3.289  17.124 -0.2371 -0.6616 -0.3037
 7004SOL    HW132474   2.402   3.382  17.138 -0.3254 -0.9024  1.2557
 7004SOL    HW232475   2.393   3.284  17.031  1.2609  1.4623 -0.7631
 7005SOL     OW32476   3.435   2.408  10.913  0.7343  0.1221  0.3811
 7005SOL    HW132477   3.518   2.374  10.947 -0.3277  0.2103  3.0666
 7005SOL    HW232478   3.451   2.502  10.903 -0.1772 -0.0534 -2.8173
 7006SOL     OW32479   1.684   0.695   7.725 -0.3813 -0.1249  0.3351
 7006SOL    HW132480   1.736   0.712   7.804 -0.3812  0.7850  0.1446
 7006SOL    HW232481   1.634   0.618   7.750  0.4801 -0.6841  0.3368
 7007SOL     OW32482   2.027   0.666   0.080 -0.4764  0.5148  0.2986
 7007SOL    HW132483   2.096   0.717   0.123 -1.3728  2.2111 -0.2884
 7007SOL    HW232484   2.001   0.608   0.152  1.0842 -1.8709 -1.0297
 7008SOL     OW32485   1.947   3.789   2.521  0.1712 -0.3102 -0.4092
 7008SOL    HW132486   1.933   3.760   2.611  2.2230  0.5410  0.1845
 7008SOL    HW232487   2.031   3.748   2.498 -0.9725 -2.1100 -1.4204
 7009SOL     OW32488   1.534   2.681   1.641 -0.0101 -0.2039  0.0676
 7009SOL    HW132489   1.607   2.737   1.612  0.8944 -2.7743 -2.5588
 7009SOL    HW232490   1.525   2.699   1.735  2.0316 -0.7564  0.3813
 7010SOL     OW32491   4.706   3.497   6.895  0.6345  0.0899  0.2934
 7010SOL    HW132492   4.705   3.518   6.988 -1.1047 -0.9376  0.5231
 7010SOL    HW232493   4.685   3.586   6.870 -1.0929 -0.0101  1.3634
 7011SOL     OW32494   0.698   2.898  16.262 -0.2412 -0.1318 -0.4369
 7011SOL    HW132495   0.752   2.902  16.183  2.0387 -0.6496  1.1098
 7011SOL    HW232496   0.615   2.862  16.230 -0.3383  0.5503 -0.9576
 7012SOL     OW32497   3.345   2.672   0.596  0.1003  0.1137  0.5028
 7012SOL    HW132498   3.296   2.731   0.652 -0.5743 -0.4252  0.4875
 7012SOL    HW232499   3.333   2.593   0.649 -1.2343 -0.7919 -1.1226
 7013SOL     OW32500   3.272   1.578  17.141  0.8248 -0.1859 -0.1161
 7013SOL    HW132501   3.190   1.609  17.102  0.0207 -2.2297 -0.0604
 7013SOL    HW232502   3.319   1.547  17.064  1.2151  0.9742 -0.3408
 7014SOL     OW32503   1.529   2.143  13.314 -0.0408  0.0781 -0.5476
 7014SOL    HW132504   1.558   2.055  13.339 -1.2218  0.6370  2.8095
 7014SOL    HW232505   1.528   2.191  13.397 -0.5804  1.3200 -1.2755
 7015SOL     OW32506   3.889   2.566  17.345  0.1086 -0.5204  0.0953
 7015SOL    HW132507   3.929   2.564  17.258 -1.8705 -2.5079 -0.7753
 7015SOL    HW232508   3.943   2.503  17.392 -1.1149 -2.2672 -0.8651
 7016SOL     OW32509   2.135   3.557   5.299 -0.3287 -0.0508  0.5664
 7016SOL    HW132510   2.087   3.474   5.304  0.2155 -0.4446 -0.7878
 7016SOL    HW232511   2.185   3.557   5.381 -1.6630 -0.9435  1.3747
 7017SOL     OW32512   4.152   2.559   7.010  0.1277 -0.3201 -0.6997
 7017SOL    HW132513   4.236   2.535   6.970 -0.4312 -1.0072 -1.4762
 7017SOL    HW232514   4.158   2.648   6.976 -1.0707  0.4949  1.2160
 7018SOL     OW32515   2.702   1.860  13.951 -0.3205 -0.0827 -0.1141
 7018SOL    HW132516   2.614   1.876  13.916 -0.2783 -1.0276 -0.6381
 7018SOL    HW232517   2.697   1.798  14.023 -0.1959  2.3545  1.9975
 7019SOL     OW32518   1.452   4.518   7.493 -0.2650 -0.1086 -0.2414
 7019SOL    HW132519   1.406   4.588   7.447  2.2424 -0.1447 -2.8230
 7019SOL    HW232520   1.385   4.458   7.527 -1.2340 -0.1468 -2.2323
 7020SOL     OW32521   2.461   3.913  13.528 -0.1841  0.5734 -0.2197
 7020SOL    HW132522   2.428   3.824  13.539  1.2310  0.2013  0.9207
 7020SOL    HW232523   2.549   3.918  13.566 -0.0622  1.0679 -0.5591
 7021SOL     OW32524   0.271   2.188  15.356  0.8390  0.3278  0.3867
 7021SOL    HW132525   0.346   2.133  15.380 -0.5967 -1.9011 -0.2281
 7021SOL    HW232526   0.217   2.134  15.299  2.1300 -1.0627  0.4711
 7022SOL     OW32527   1.443   2.510   1.020 -0.6562 -0.7109  0.3143
 7022SOL    HW132528   1.396   2.451   1.078  2.2124 -0.1191  3.2114
 7022SOL    HW232529   1.442   2.588   1.075 -2.7477  1.1273 -2.3650
 7023SOL     OW32530   3.102   0.936   9.670  0.0898  0.0102 -0.8670
 7023SOL    HW132531   3.015   0.964   9.640 -0.0404 -0.6177 -1.0664
 7023SOL    HW232532   3.082   0.850   9.705  0.2899 -0.5093 -2.0430
 7024SOL     OW32533   2.399   0.173  16.484  0.0120 -0.2269  0.1132
 7024SOL    HW132534   2.341   0.193  16.558 -0.1774  0.8430 -0.3247
 7024SOL    HW232535   2.477   0.222  16.511  1.4649 -2.2985 -0.3266
 7025SOL     OW32536   3.228   1.589   8.153  0.1845 -0.1915  0.3382
 7025SOL    HW132537   3.173   1.615   8.227  0.6823  2.4049 -0.2181
 7025SOL    HW232538   3.193   1.641   8.082 -0.6818 -3.4770 -1.6318
 7026SOL     OW32539   3.835   0.948   9.776  0.2082 -0.0973 -0.2112
 7026SOL    HW132540   3.843   1.015   9.843 -0.7901  0.9010 -1.0817
 7026SOL    HW232541   3.749   0.913   9.798  0.3383  0.8115  1.6943
 7027SOL     OW32542   0.995   3.415   5.571 -0.6371  0.1857 -0.0969
 7027SOL    HW132543   1.053   3.437   5.644 -0.0200 -1.2845 -0.1526
 7027SOL    HW232544   0.995   3.505   5.539 -0.7418 -0.2906 -1.4100
 7028SOL     OW32545   1.580   2.023  10.537 -0.1794  0.6959  0.5459
 7028SOL    HW132546   1.548   2.111  10.553  0.4217  0.7380  1.4818
 7028SOL    HW232547   1.636   2.020  10.614  0.5444 -0.7506 -0.0252
 7029SOL     OW32548   0.426   2.979   3.157  0.2064  0.3768  0.4801
 7029SOL    HW132549   0.473   3.000   3.077  1.7596 -0.7808  1.0961
 7029SOL    HW232550   0.384   3.064   3.172 -0.6744  0.2454 -1.2505
 7030SOL     OW32551   0.446   0.985   2.670  0.4209 -0.0436 -0.3136
 7030SOL    HW132552   0.399   0.993   2.753  0.7835  0.0029 -0.1128
 7030SOL    HW232553   0.397   1.036   2.605  1.1030  2.0740  0.8379
 7031SOL     OW32554   4.167   0.574   1.081  0.4634 -0.2119 -0.3533
 7031SOL    HW132555   4.247   0.625   1.087 -2.4735  4.0182  2.2242
 7031SOL    HW232556   4.155   0.545   1.171 -2.4688 -2.5724 -1.4865
 7032SOL     OW32557   0.899   1.917  16.163  0.1581  0.2438  0.1549
 7032SOL    HW132558   0.851   1.881  16.088 -1.1738 -0.3504  1.2831
 7032SOL    HW232559   0.828   1.905  16.227 -0.3710  0.9323 -0.3064
 7033SOL     OW32560   2.728   0.083   9.071  0.0658  0.5696 -0.2933
 7033SOL    HW132561   2.670   0.009   9.086  2.8377 -1.4377  0.4938
 7033SOL    HW232562   2.801   0.085   9.132 -0.3899  1.4088  0.2311
 7034SOL     OW32563   1.741   0.302  17.567 -0.0853 -0.1905 -0.2187
 7034SOL    HW132564   1.675   0.324  17.632 -1.1207 -0.2913 -1.2303
 7034SOL    HW232565   1.775   0.391  17.552 -0.8503 -0.2796 -2.4540
 7035SOL     OW32566   1.498   1.057   3.394 -0.2143  0.1488  0.1607
 7035SOL    HW132567   1.422   1.079   3.447 -0.5619  1.7328 -0.9922
 7035SOL    HW232568   1.467   0.984   3.341  0.0768 -1.2006  1.8298
 7036SOL     OW32569   2.932   4.136   0.393  0.0339  0.2870 -0.1863
 7036SOL    HW132570   2.863   4.083   0.432 -1.0141 -0.0614 -2.5533
 7036SOL    HW232571   2.875   4.209   0.368  2.1042  0.7415 -3.6022
 7037SOL     OW32572   0.362   2.998   8.497 -0.5592  0.0479  0.5428
 7037SOL    HW132573   0.350   3.089   8.521 -1.9953  0.4129 -1.5539
 7037SOL    HW232574   0.364   2.943   8.575  1.5581 -0.3706  0.2116
 7038SOL     OW32575   0.847   2.822  14.159 -0.0339 -0.3023 -0.0598
 7038SOL    HW132576   0.772   2.772  14.128  1.2804 -1.0659 -2.0221
 7038SOL    HW232577   0.920   2.801  14.101 -1.4867  0.7014 -2.2238
 7039SOL     OW32578   3.577   3.080   5.023  0.2648  0.7169 -0.0924
 7039SOL    HW132579   3.564   3.108   5.113 -1.1527 -1.2156  0.2912
 7039SOL    HW232580   3.519   3.135   4.970  0.0444  0.5264 -0.0507
 7040SOL     OW32581   2.625   1.703   1.187 -0.4754 -0.2432 -0.3228
 7040SOL    HW132582   2.586   1.634   1.134  0.2886 -0.4303 -0.6457
 7040SOL    HW232583   2.719   1.682   1.184 -0.8434 -1.8107 -0.9555
 7041SOL     OW32584   4.100   0.031  10.384  0.5679 -0.2508  0.6683
 7041SOL    HW132585   4.174   4.702  10.354 -2.0441 -1.6393 -3.2915
 7041SOL    HW232586   4.128   0.116  10.349  1.0850 -0.4242  0.6561
 7042SOL     OW32587   3.460   3.148   7.551  0.3354 -0.1356  0.2153
 7042SOL    HW132588   3.429   3.074   7.603 -0.6957 -0.0958 -0.3390
 7042SOL    HW232589   3.555   3.136   7.556  0.4397  1.5115  1.9392
 7043SOL     OW32590   1.677   1.215   3.563 -0.5275  0.4143 -0.1579
 7043SOL    HW132591   1.683   1.120   3.574 -1.6506  0.4274  0.5593
 7043SOL    HW232592   1.598   1.220   3.509 -1.1321  0.4814  0.7452
 7044SOL     OW32593   1.019   2.357  12.756 -0.2257  0.1636  0.4567
 7044SOL    HW132594   1.112   2.366  12.733  0.2146 -0.8166  1.8528
 7044SOL    HW232595   1.024   2.340  12.850 -0.3007 -0.5528  0.3347
 7045SOL     OW32596   3.542   3.722   4.490 -0.1940 -0.1266 -0.2346
 7045SOL    HW132597   3.578   3.811   4.488  1.2424 -0.6695  2.5448
 7045SOL    HW232598   3.500   3.721   4.576  0.1874 -1.0473 -0.0610
 7046SOL     OW32599   0.959   0.045   2.237 -0.5959  0.3293 -0.3595
 7046SOL    HW132600   1.023   0.063   2.306  0.6371  2.4859 -2.0867
 7046SOL    HW232601   0.888   0.006   2.288 -1.6477 -0.1466 -2.1771
 7047SOL     OW32602   2.895   2.815   0.440  0.4322 -0.7830  0.2263
 7047SOL    HW132603   2.989   2.830   0.446  0.3552 -0.6489  1.0352
 7047SOL    HW232604   2.894   2.736   0.386 -1.3382 -1.0349  0.6258
 7048SOL     OW32605   1.980   2.249   0.762  0.0866 -0.0922 -0.4030
 7048SOL    HW132606   2.009   2.288   0.680 -1.2653 -0.1869 -0.9242
 7048SOL    HW232607   2.017   2.307   0.829  1.3672  0.0598 -1.2436
 7049SOL     OW32608   2.336   0.221   6.892 -0.2073 -0.4875 -0.0854
 7049SOL    HW132609   2.322   0.132   6.860  0.4904 -0.5489 -0.2305
 7049SOL    HW232610   2.302   0.212   6.981  0.2331  0.4978  0.1879
 7050SOL     OW32611   1.654   1.375  10.899  0.1986  0.5205 -0.5196
 7050SOL    HW132612   1.574   1.420  10.870 -1.7178 -1.0929  2.2617
 7050SOL    HW232613   1.713   1.369  10.824 -0.6660 -0.0210 -1.1576
 7051SOL     OW32614   0.515   1.027   7.564  0.6577 -0.2791 -0.0060
 7051SOL    HW132615   0.454   1.098   7.582  1.2902 -0.1140  1.4550
 7051SOL    HW232616   0.487   0.959   7.625 -1.6688  2.4785  1.9660
 7052SOL     OW32617   2.106   0.047   4.495  0.3791 -0.2554  0.1390
 7052SOL    HW132618   2.117   0.122   4.436 -0.7375  1.0153  1.5339
 7052SOL    HW232619   2.184   0.054   4.550  0.7965  1.7493 -0.6882
 7053SOL     OW32620   1.063   0.720   2.740  0.1243 -0.2231  0.3690
 7053SOL    HW132621   1.154   0.721   2.711 -0.1579 -1.0241 -0.5731
 7053SOL    HW232622   1.010   0.755   2.668 -2.4341  0.7024  2.7035
 7054SOL     OW32623   0.703   2.134   2.864  0.1267 -0.6979 -0.3194
 7054SOL    HW132624   0.749   2.054   2.838  3.7058  0.4848  2.3983
 7054SOL    HW232625   0.658   2.100   2.942 -1.5737 -0.6961 -1.3004
 7055SOL     OW32626   2.286   2.486  16.170 -0.5191  0.0421 -0.0227
 7055SOL    HW132627   2.285   2.450  16.259  0.6107 -1.1688 -0.4990
 7055SOL    HW232628   2.215   2.549  16.182 -1.4809 -1.4605  2.2873
 7056SOL     OW32629   1.982   3.593   6.479 -0.2907 -0.6089 -0.4897
 7056SOL    HW132630   2.022   3.677   6.457 -2.0814 -0.2191 -2.2240
 7056SOL    HW232631   2.029   3.569   6.559  3.0505 -0.8055 -2.4816
 7057SOL     OW32632   3.641   1.058  15.309 -0.0700 -0.4849  0.2742
 7057SOL    HW132633   3.674   1.070  15.397  1.4116 -1.1846 -0.1844
 7057SOL    HW232634   3.720   1.074  15.258 -0.5939  0.6006 -0.1907
 7058SOL     OW32635   1.182   4.185  12.733  0.3006  0.5937 -0.4164
 7058SOL    HW132636   1.118   4.192  12.804  1.9389 -0.0524  1.1153
 7058SOL    HW232637   1.262   4.211  12.778  0.4675 -0.7010  0.0328
 7059SOL     OW32638   3.237   1.767   0.332 -0.2186  0.0681  0.2054
 7059SOL    HW132639   3.272   1.754   0.244  0.3255  3.0102 -0.0215
 7059SOL    HW232640   3.144   1.744   0.326 -0.4365  0.5098  1.9037
 7060SOL     OW32641   0.979   1.516   4.207 -0.3480  0.2032 -0.5055
 7060SOL    HW132642   0.909   1.480   4.153  0.9797 -0.5747 -1.6937
 7060SOL    HW232643   1.021   1.439   4.245  0.5583  0.2307 -1.4316
 7061SOL     OW32644   1.935   4.380   8.676  0.4862 -0.4186  0.1911
 7061SOL    HW132645   1.969   4.325   8.747  0.2153  0.2625  0.8458
 7061SOL    HW232646   1.841   4.386   8.694  0.9603 -0.3338  2.6158
 7062SOL     OW32647   4.355   0.746   9.131 -0.5313  0.7339  0.3830
 7062SOL    HW132648   4.340   0.840   9.123 -0.5157  0.7964  1.0337
 7062SOL    HW232649   4.450   0.742   9.121 -0.7272 -1.2394 -0.6615
 7063SOL     OW32650   1.052   0.986   9.993 -0.2253  0.5005 -0.1492
 7063SOL    HW132651   1.116   0.988  10.064 -0.1601 -0.0755 -0.1936
 7063SOL    HW232652   1.055   0.894   9.966 -2.2680  1.3287 -3.1694
 7064SOL     OW32653   0.534   3.955   6.814  0.1592  0.4577  0.5664
 7064SOL    HW132654   0.496   3.949   6.726 -1.8956  0.5500  1.4601
 7064SOL    HW232655   0.614   3.909   6.789 -1.2123 -1.4392 -0.3123
 7065SOL     OW32656   1.414   3.071   1.387  0.0620  0.5036 -0.0992
 7065SOL    HW132657   1.333   3.116   1.364 -0.7933  0.1515  2.2285
 7065SOL    HW232658   1.475   3.101   1.319 -1.2647  3.1591 -0.0868
 7066SOL     OW32659   1.583   3.149   3.128  0.2867 -0.2568 -0.1409
 7066SOL    HW132660   1.551   3.071   3.084  1.8578 -0.3926 -1.0437
 7066SOL    HW232661   1.581   3.124   3.221 -0.9537 -0.6411 -0.2789
 7067SOL     OW32662   3.090   2.696  13.470 -0.9165  0.0492  0.0686
 7067SOL    HW132663   3.017   2.747  13.503  0.5740  0.8065  2.2005
 7067SOL    HW232664   3.074   2.611  13.512  2.1880 -1.1071 -1.0812
 7068SOL     OW32665   0.781   3.605   6.172 -0.0379  0.0577 -0.2686
 7068SOL    HW132666   0.719   3.627   6.242 -2.6830 -1.6894 -2.0682
 7068SOL    HW232667   0.722   3.582   6.100 -0.5513 -0.3166  0.2683
 7069SOL     OW32668   0.202   0.847  16.898  0.1190  0.0798 -0.4349
 7069SOL    HW132669   0.236   0.780  16.957 -1.0117  1.1446  1.4437
 7069SOL    HW232670   0.150   0.908  16.950  0.8640  1.3557 -1.1877
 7070SOL     OW32671   3.272   1.170   9.177  0.5065  0.3303 -0.7346
 7070SOL    HW132672   3.265   1.262   9.150  2.2896  0.4585 -0.7820
 7070SOL    HW232673   3.259   1.169   9.272  0.9032 -2.7349 -0.7069
 7071SOL     OW32674   3.468   0.460   7.622  0.2185 -0.0149  0.1096
 7071SOL    HW132675   3.535   0.448   7.555 -0.1622  0.3408 -0.3437
 7071SOL    HW232676   3.495   0.546   7.654  1.1770 -0.2870  0.0129
 7072SOL     OW32677   1.125   1.241   2.760 -0.6167 -0.1291 -0.1772
 7072SOL    HW132678   1.038   1.205   2.744 -1.7629  0.8415  3.8654
 7072SOL    HW232679   1.148   1.264   2.670 -0.0978 -0.0184 -0.0177
 7073SOL     OW32680   0.285   1.329   2.833 -0.6626 -0.3315 -0.1923
 7073SOL    HW132681   0.294   1.353   2.926  0.7806  0.2445 -0.4835
 7073SOL    HW232682   0.232   1.250   2.846  0.1085 -0.8257 -0.0133
 7074SOL     OW32683   3.467   3.438   7.437  0.0728  0.5259  0.1688
 7074SOL    HW132684   3.407   3.407   7.504  0.2348  0.4404  0.2739
 7074SOL    HW232685   3.550   3.447   7.483 -1.0415 -0.6727  2.3764
 7075SOL     OW32686   0.190   0.974   5.953 -0.3041 -0.4584 -0.1224
 7075SOL    HW132687   0.186   1.054   5.901 -1.5231  0.2007  0.9771
 7075SOL    HW232688   0.278   0.983   5.989 -0.3998  0.3345 -0.0913
 7076SOL     OW32689   2.877   0.695   8.672  0.6588  0.2054 -0.0044
 7076SOL    HW132690   2.968   0.719   8.652  0.2212 -0.2542 -2.5065
 7076SOL    HW232691   2.861   0.753   8.746 -1.2834  1.1607 -1.1591
 7077SOL     OW32692   0.496   0.012   7.598 -0.5747  0.1964  0.0530
 7077SOL    HW132693   0.590   0.026   7.604 -0.3780 -1.2161  0.3645
 7077SOL    HW232694   0.477   0.022   7.692 -0.4086  2.2934 -0.1359
 7078SOL     OW32695   4.513   2.415   7.072 -0.1050 -0.3577 -0.0580
 7078SOL    HW132696   4.441   2.365   7.111 -1.8089  1.3003 -1.0171
 7078SOL    HW232697   4.570   2.430   7.147  0.0106  0.8455 -0.3826
 7079SOL     OW32698   2.150   0.304   9.351 -0.1650  0.5051 -0.4537
 7079SOL    HW132699   2.208   0.288   9.277  0.3397  0.3379 -0.0225
 7079SOL    HW232700   2.164   0.396   9.375 -0.5612  0.3180  0.5320
 7080SOL     OW32701   0.678   0.840  17.674  0.3658  0.9065  0.2524
 7080SOL    HW132702   0.756   0.789  17.653 -0.4365 -0.3341  0.3393
 7080SOL    HW232703   0.624   0.828  17.597 -0.5311 -1.1645  1.2013
 7081SOL     OW32704   0.890   0.954   7.193 -0.7729  0.0509 -0.3501
 7081SOL    HW132705   0.912   1.017   7.262  1.3146 -1.3114  0.2195
 7081SOL    HW232706   0.794   0.949   7.192 -0.8749  1.8859  0.2197
 7082SOL     OW32707   4.295   3.352   8.365 -0.0849  0.3096 -0.1869
 7082SOL    HW132708   4.257   3.430   8.325  0.8360 -0.3388 -2.3081
 7082SOL    HW232709   4.371   3.400   8.397  0.3836 -1.6083  1.5687
 7083SOL     OW32710   4.664   2.802   3.062  0.0660 -0.9454 -0.2431
 7083SOL    HW132711   0.020   2.792   3.012  1.2570  1.6498  1.2121
 7083SOL    HW232712   4.663   2.720   3.110 -1.8562 -0.6660  0.1937
 7084SOL     OW32713   3.570   2.697   2.362 -0.3353 -0.5483 -0.4352
 7084SOL    HW132714   3.612   2.771   2.406 -1.9809  1.1469 -1.6596
 7084SOL    HW232715   3.495   2.738   2.319  0.5963 -0.4423 -1.9598
 7085SOL     OW32716   1.116   4.563   8.195 -0.3568  0.1366 -0.0272
 7085SOL    HW132717   1.169   4.491   8.160 -0.1300  1.0701 -1.5977
 7085SOL    HW232718   1.165   4.597   8.270  2.9639 -0.0745 -2.1324
 7086SOL     OW32719   2.837   2.904   9.797  0.2495  0.2727  1.1238
 7086SOL    HW132720   2.832   2.809   9.785 -0.6268  0.3923  0.5446
 7086SOL    HW232721   2.744   2.918   9.813  0.7987  2.3471  2.4981
 7087SOL     OW32722   2.929   2.700   7.763  0.2487  0.1226 -0.5659
 7087SOL    HW132723   2.850   2.654   7.734  0.4832 -0.9662  0.5221
 7087SOL    HW232724   2.944   2.776   7.706 -2.9105  0.9996 -0.2134
 7088SOL     OW32725   3.800   0.463   8.115 -0.5516  0.1306  0.0018
 7088SOL    HW132726   3.838   0.393   8.062 -2.3533  0.3193 -1.5010
 7088SOL    HW232727   3.884   0.510   8.117  0.5697 -1.8536 -1.0901
 7089SOL     OW32728   4.208   0.434   8.643 -0.6517 -0.2750  0.3788
 7089SOL    HW132729   4.230   0.463   8.731  0.8799  1.8268 -0.7025
 7089SOL    HW232730   4.115   0.451   8.632 -0.8803 -0.8444  1.4748
 7090SOL     OW32731   3.619   2.319   0.810 -0.4393  0.1933  0.0320
 7090SOL    HW132732   3.671   2.326   0.730 -1.4392 -0.7178 -0.6999
 7090SOL    HW232733   3.535   2.291   0.776  0.4129  0.5346 -2.3476
 7091SOL     OW32734   2.391   4.030  11.784 -0.5706 -0.5317  0.5125
 7091SOL    HW132735   2.341   4.059  11.708  0.7001  1.5752  0.4560
 7091SOL    HW232736   2.434   4.114  11.801 -0.2497 -1.3796  3.8816
 7092SOL     OW32737   3.883   2.730  12.481  0.3702 -0.4573 -0.4582
 7092SOL    HW132738   3.831   2.775  12.415  2.0029 -0.1640 -1.5338
 7092SOL    HW232739   3.863   2.780  12.561  3.0176 -0.4352  0.2035
 7093SOL     OW32740   1.758   4.143   8.107 -0.1613 -0.7924  0.4815
 7093SOL    HW132741   1.671   4.173   8.132  0.4849  1.6111 -0.0512
 7093SOL    HW232742   1.794   4.122   8.193 -0.8965  0.4137  1.0838
 7094SOL     OW32743   3.706   3.926   8.046 -0.3152  0.0048 -0.7349
 7094SOL    HW132744   3.622   3.939   8.090 -0.5402  0.5328 -1.3092
 7094SOL    HW232745   3.687   3.962   7.959 -0.7995 -0.5859 -0.8725
 7095SOL     OW32746   0.115   0.548   7.944  0.3778  0.1079  0.3720
 7095SOL    HW132747   0.204   0.561   7.975  1.6930 -0.6591 -3.0369
 7095SOL    HW232748   0.120   0.577   7.853 -0.6030 -2.9457 -0.6762
 7096SOL     OW32749   2.325   0.797  14.581 -0.0506  0.4069  0.4707
 7096SOL    HW132750   2.302   0.757  14.497  0.5111 -3.2074  2.0287
 7096SOL    HW232751   2.369   0.729  14.632  0.6273  1.6548  1.5432
 7097SOL     OW32752   4.599   3.760  12.097  0.5627 -0.3233 -0.7244
 7097SOL    HW132753   4.557   3.714  12.024 -0.5036  0.3948 -0.5579
 7097SOL    HW232754   4.543   3.837  12.097 -0.7252 -1.2652 -0.5362
 7098SOL     OW32755   3.455   2.697   3.042  0.1935  0.0805  0.2693
 7098SOL    HW132756   3.513   2.621   3.051  1.6249  1.4166  2.2881
 7098SOL    HW232757   3.474   2.745   3.122  0.0043 -1.7864  1.4431
 7099SOL     OW32758   2.909   3.731   3.064 -0.6938  0.4873 -0.7276
 7099SOL    HW132759   2.817   3.734   3.041 -1.1080 -0.0391  0.8640
 7099SOL    HW232760   2.944   3.732   2.975  0.2079  1.9490 -0.3582
 7100SOL     OW32761   3.303   0.285   8.313  0.2187 -0.0337  0.1366
 7100SOL    HW132762   3.281   0.219   8.247 -2.5245 -0.5390  1.5635
 7100SOL    HW232763   3.291   0.237   8.395  0.5185 -1.3030 -0.5568
 7101SOL     OW32764   3.979   2.805   8.785 -0.0617 -0.5547  0.0681
 7101SOL    HW132765   3.948   2.731   8.733  1.4581  0.2992 -2.0489
 7101SOL    HW232766   4.052   2.773   8.838  0.2278  2.0444  1.2222
 7102SOL     OW32767   0.353   3.749   4.652  0.5109  0.3333 -0.5252
 7102SOL    HW132768   0.445   3.765   4.676  0.4778 -1.0479  0.4704
 7102SOL    HW232769   0.326   3.690   4.722 -0.8088  0.3557 -1.0333
 7103SOL     OW32770   4.684   2.091   3.386  0.1276  0.2560  0.7540
 7103SOL    HW132771   0.037   2.129   3.343  0.6336  0.2739  1.6981
 7103SOL    HW232772   4.706   1.999   3.373 -0.0945  0.3585 -0.3419
 7104SOL     OW32773   4.030   0.763   9.809 -0.7881  0.4710 -0.4583
 7104SOL    HW132774   4.017   0.702   9.737 -1.2225 -0.3782  0.3317
 7104SOL    HW232775   3.962   0.827   9.789 -0.6811  0.5325 -0.6283
 7105SOL     OW32776   2.697   2.689   2.433  0.1169 -0.1873 -0.4301
 7105SOL    HW132777   2.628   2.623   2.448  1.6590 -1.8588 -0.7018
 7105SOL    HW232778   2.766   2.632   2.399  1.4606  1.0918  0.1860
 7106SOL     OW32779   0.209   2.505   3.155  0.7114  0.1767  0.8235
 7106SOL    HW132780   0.228   2.468   3.069  2.5406 -0.0208  1.3078
 7106SOL    HW232781   0.294   2.550   3.165 -1.1001  3.5304  1.2771
 7107SOL     OW32782   1.520   0.599   4.427  0.9154  0.4955 -0.1691
 7107SOL    HW132783   1.494   0.586   4.518  2.1963 -0.6470  0.0380
 7107SOL    HW232784   1.519   0.694   4.424  0.8842  0.5317  1.0166
 7108SOL     OW32785   2.947   4.565   4.219  0.7321 -0.4388 -0.4278
 7108SOL    HW132786   3.024   4.599   4.267 -0.5869  1.1403  0.5839
 7108SOL    HW232787   2.880   4.551   4.286 -0.7304 -0.0361 -1.8205
 7109SOL     OW32788   2.673   3.750   8.371  0.4208 -0.1614  0.7351
 7109SOL    HW132789   2.637   3.676   8.421  0.1404 -2.6154 -3.1456
 7109SOL    HW232790   2.765   3.727   8.389  0.2379 -1.4326  0.0119
 7110SOL     OW32791   2.662   4.603   2.594  0.4014 -0.0867 -0.1885
 7110SOL    HW132792   2.703   4.618   2.679 -3.7584  0.8287  1.6862
 7110SOL    HW232793   2.695   4.679   2.546  0.5255  0.2595  0.4583
 7111SOL     OW32794   3.888   0.503   7.524 -0.5201  0.1216 -0.1717
 7111SOL    HW132795   3.906   0.597   7.530 -0.2913  0.1896 -1.8566
 7111SOL    HW232796   3.963   0.475   7.576 -1.3777 -1.4943  0.2074
 7112SOL     OW32797   1.180   1.190  14.200 -0.1041  0.1674  0.3443
 7112SOL    HW132798   1.244   1.261  14.192  0.2646 -0.1978  0.1111
 7112SOL    HW232799   1.177   1.148  14.114  1.0251 -1.9401  1.3415
 7113SOL     OW32800   3.162   1.276   7.565 -0.5019 -0.1813 -0.1353
 7113SOL    HW132801   3.244   1.233   7.541 -1.6585 -0.3636 -3.8055
 7113SOL    HW232802   3.113   1.232   7.495 -0.9239  0.4664 -0.2547
 7114SOL     OW32803   3.982   1.563   3.221 -0.1327  0.0351  0.3454
 7114SOL    HW132804   3.995   1.648   3.179  2.1712  0.3940  1.7697
 7114SOL    HW232805   4.048   1.572   3.290  0.1074  0.1737  0.0925
 7115SOL     OW32806   2.594   1.891  13.641  0.7843 -0.2687  0.3692
 7115SOL    HW132807   2.612   1.983  13.663 -0.4190  0.3108 -1.0635
 7115SOL    HW232808   2.549   1.868  13.722  1.6254  0.9220  1.1722
 7116SOL     OW32809   2.758   0.978   7.297 -0.1790  0.6100  0.6723
 7116SOL    HW132810   2.688   0.998   7.235 -1.0649 -0.5842  1.2829
 7116SOL    HW232811   2.760   0.883   7.293 -0.0188  0.6443 -0.0447
 7117SOL     OW32812   4.040   2.098   2.286  0.0574 -0.1689  0.3845
 7117SOL    HW132813   4.089   2.018   2.267  1.6964  1.6875 -3.1688
 7117SOL    HW232814   3.949   2.071   2.275  0.4526 -0.8955 -1.0781
 7118SOL     OW32815   4.650   0.817  12.021  0.2042 -0.3505  0.4061
 7118SOL    HW132816   4.690   0.735  11.994 -1.8191 -1.0305 -0.5589
 7118SOL    HW232817   4.567   0.774  12.044 -0.2177 -0.0881 -0.6002
 7119SOL     OW32818   2.559   3.486   3.815 -0.0575  0.2588 -0.0669
 7119SOL    HW132819   2.626   3.505   3.881 -0.7670 -1.0225  1.0387
 7119SOL    HW232820   2.518   3.573   3.822  0.2567  0.3925  0.0929
 7120SOL     OW32821   2.860   0.299   6.083  0.3293 -0.6613 -0.3681
 7120SOL    HW132822   2.930   0.245   6.117 -0.5699 -1.3749  0.3424
 7120SOL    HW232823   2.829   0.342   6.162 -2.0982  0.6694 -2.0066
 7121SOL     OW32824   1.125   0.168   4.025  0.5626 -0.2721 -0.7024
 7121SOL    HW132825   1.161   0.229   4.089  0.1582  1.5199 -2.1517
 7121SOL    HW232826   1.103   0.098   4.085  2.9717 -0.5385 -0.1351
 7122SOL     OW32827   2.535   0.456  17.459 -0.5843 -0.3950 -0.1319
 7122SOL    HW132828   2.582   0.474  17.540  1.1453 -0.3282 -1.1445
 7122SOL    HW232829   2.552   0.362  17.455  2.0511  0.1697 -2.2820
 7123SOL     OW32830   0.368   3.708   4.247  0.0970 -0.6235  0.7937
 7123SOL    HW132831   0.368   3.629   4.193  0.9032 -0.1800  0.1389
 7123SOL    HW232832   0.392   3.769   4.178  0.9239  0.7609  2.3004
 7124SOL     OW32833   0.197   1.890  14.864  0.4195  0.3147  0.0952
 7124SOL    HW132834   0.154   1.811  14.897 -1.9213  2.4230  2.0982
 7124SOL    HW232835   0.224   1.857  14.778 -2.0836  0.9040 -0.9203
 7125SOL     OW32836   0.409   1.998  10.840  0.1509 -0.7337 -0.0077
 7125SOL    HW132837   0.500   2.017  10.860  0.3338 -1.4606 -0.1245
 7125SOL    HW232838   0.388   2.057  10.767  0.5309 -0.7579 -0.1337
 7126SOL     OW32839   4.050   1.390   2.872 -0.3816  0.0140 -0.3018
 7126SOL    HW132840   4.082   1.342   2.948 -2.1576 -0.1853  0.3225
 7126SOL    HW232841   4.038   1.326   2.802  3.6730 -0.7307 -0.3210
 7127SOL     OW32842   3.976   3.279  10.665  0.6082 -0.1077 -0.4597
 7127SOL    HW132843   4.061   3.306  10.630 -0.9314  1.7553 -2.7306
 7127SOL    HW232844   4.001   3.234  10.746  1.7049  1.4644  0.0552
 7128SOL     OW32845   1.556   2.569   3.572 -0.0848 -0.0903 -0.1122
 7128SOL    HW132846   1.610   2.596   3.646 -0.1745 -1.7816  0.5610
 7128SOL    HW232847   1.474   2.616   3.581  0.3841 -0.1173  4.1390
 7129SOL     OW32848   1.308   0.254   8.000 -0.4492  0.5036 -0.1271
 7129SOL    HW132849   1.364   0.260   8.078  1.1523  0.2661 -1.2453
 7129SOL    HW232850   1.287   0.347   7.992 -0.3356  0.4456 -1.0640
 7130SOL     OW32851   3.986   0.113  17.488  0.0051 -0.0883 -0.3581
 7130SOL    HW132852   3.973   0.048  17.419  0.1732 -0.8640  0.3323
 7130SOL    HW232853   3.945   0.192  17.454 -0.6215 -0.3043 -0.1035
 7131SOL     OW32854   2.061   1.988   6.312 -0.2995 -0.0604 -0.6476
 7131SOL    HW132855   2.153   1.974   6.335 -0.1430 -2.5117 -2.7861
 7131SOL    HW232856   2.051   2.083   6.303 -0.8626 -0.0271  0.3159
 7132SOL     OW32857   2.321   2.775   7.621 -0.2814 -0.4699 -0.1611
 7132SOL    HW132858   2.305   2.693   7.573 -0.2844 -0.3643 -0.3380
 7132SOL    HW232859   2.236   2.819   7.629  0.4210  0.6017  1.3242
 7133SOL     OW32860   0.985   4.423   2.051  0.3034 -0.0658  0.5995
 7133SOL    HW132861   1.061   4.373   2.024 -0.9265 -2.3161  1.2670
 7133SOL    HW232862   0.934   4.364   2.107  0.4579 -0.6247  0.1473
 7134SOL     OW32863   4.028   2.592  13.924  0.3701 -0.3149 -0.4729
 7134SOL    HW132864   4.114   2.621  13.891 -0.1826  2.0867  0.1915
 7134SOL    HW232865   4.043   2.581  14.017 -2.6681 -2.7200 -0.2755
 7135SOL     OW32866   1.404   2.102   0.062 -0.2032  0.0199  0.1425
 7135SOL    HW132867   1.374   2.019   0.099  0.2038 -1.4489 -2.8111
 7135SOL    HW232868   1.329   2.125   0.007  0.4034  0.5939 -0.4413
 7136SOL     OW32869   2.869   1.120   7.871  0.4324  0.4786  0.2770
 7136SOL    HW132870   2.959   1.154   7.863  0.3874  0.4672 -0.2999
 7136SOL    HW232871   2.825   1.198   7.837  2.5244  1.0891 -1.0193
 7137SOL     OW32872   0.121   3.609   3.965 -0.1963 -0.0426  0.0668
 7137SOL    HW132873   0.126   3.703   3.946  0.8258 -0.1027  0.0308
 7137SOL    HW232874   0.072   3.610   4.048  1.2776  0.2406  0.9446
 7138SOL     OW32875   4.072   1.349   6.170  0.3179  0.1798 -0.3615
 7138SOL    HW132876   3.990   1.353   6.121 -0.3435 -1.4240  0.6254
 7138SOL    HW232877   4.097   1.440   6.151 -1.7885  0.8731  0.1993
 7139SOL     OW32878   1.897   1.317   4.062 -0.5262 -0.3903 -0.0740
 7139SOL    HW132879   1.840   1.265   4.006  0.1606  0.6241 -1.7103
 7139SOL    HW232880   1.919   1.389   4.002  1.3647 -2.1223 -1.4761
 7140SOL     OW32881   0.221   4.167  10.897 -0.5391  0.2901 -0.6395
 7140SOL    HW132882   0.142   4.155  10.950 -0.7783 -1.0079 -1.2762
 7140SOL    HW232883   0.255   4.251  10.929 -0.4476  0.3039 -0.7714
 7141SOL     OW32884   3.334   0.685   0.556 -0.7258 -0.4201 -0.5484
 7141SOL    HW132885   3.241   0.683   0.537 -1.0322  1.8280  0.7058
 7141SOL    HW232886   3.368   0.751   0.495  0.7042  1.4258  2.2343
 7142SOL     OW32887   1.334   4.469  11.899  0.4667  0.0123 -0.3034
 7142SOL    HW132888   1.422   4.458  11.865  0.0211 -0.9577 -1.1424
 7142SOL    HW232889   1.347   4.455  11.993  0.2801  1.1377 -0.1126
 7143SOL     OW32890   2.936   3.892  15.097 -0.1149 -0.1553 -0.2062
 7143SOL    HW132891   2.855   3.888  15.046  1.2199  1.7150 -2.4684
 7143SOL    HW232892   2.960   3.800  15.101  0.5593 -0.0044 -0.8376
 7144SOL     OW32893   4.329   1.933   4.762 -0.2155 -0.1296 -0.1728
 7144SOL    HW132894   4.377   1.869   4.814 -1.3377 -0.5961  0.2913
 7144SOL    HW232895   4.336   2.006   4.825 -1.1491 -0.9408  0.8663
 7145SOL     OW32896   2.461   3.290   1.099  0.1471 -0.1554 -0.0268
 7145SOL    HW132897   2.480   3.367   1.046 -1.6503 -0.7810 -1.5781
 7145SOL    HW232898   2.480   3.210   1.049 -1.3847  1.7075 -3.5813
 7146SOL     OW32899   2.152   2.951  11.579  0.0509  0.2597 -0.5578
 7146SOL    HW132900   2.198   2.874  11.546 -0.8435 -0.5220  0.0179
 7146SOL    HW232901   2.060   2.930  11.564 -0.8442  1.6203  3.1719
 7147SOL     OW32902   3.772   1.476   7.159 -0.1113 -0.3369 -0.2234
 7147SOL    HW132903   3.862   1.489   7.129 -0.9140  2.1731 -1.5850
 7147SOL    HW232904   3.753   1.386   7.131  1.3795 -0.4438 -0.9136
 7148SOL     OW32905   0.740   0.341   1.945  0.7137  0.2812  0.1613
 7148SOL    HW132906   0.658   0.374   1.983  0.4714 -0.7601  0.5460
 7148SOL    HW232907   0.787   0.315   2.024 -0.5382 -1.5420  0.2954
 7149SOL     OW32908   3.660   0.270   8.704 -0.0889 -0.1366 -0.1937
 7149SOL    HW132909   3.666   0.192   8.759 -0.4485  1.5697  2.2496
 7149SOL    HW232910   3.728   0.321   8.746  0.1110 -0.7162  0.1782
 7150SOL     OW32911   0.362   2.902   8.243 -0.1605  0.0037  0.1166
 7150SOL    HW132912   0.343   2.995   8.231  0.9634  0.3430  0.9282
 7150SOL    HW232913   0.373   2.896   8.338 -0.6074 -1.2247  0.1015
 7151SOL     OW32914   4.558   1.762   2.843 -0.2619  0.2478 -0.1708
 7151SOL    HW132915   4.576   1.729   2.755 -1.3124 -2.3614  0.5956
 7151SOL    HW232916   4.515   1.846   2.824 -0.5623 -0.1643 -1.3378
 7152SOL     OW32917   0.408   0.182  12.055 -0.2093  0.1323  0.2527
 7152SOL    HW132918   0.474   0.236  12.099  1.8711 -1.6824 -0.6504
 7152SOL    HW232919   0.336   0.193  12.117 -1.5250  1.1059 -1.4696
 7153SOL     OW32920   3.383   3.131   8.167 -0.2377 -0.6729  0.3046
 7153SOL    HW132921   3.399   3.219   8.201  0.6619 -0.1823 -1.3887
 7153SOL    HW232922   3.411   3.139   8.076 -1.2849 -3.0395 -0.2391
 7154SOL     OW32923   0.253   3.378   6.897  0.1494 -0.5215 -0.3104
 7154SOL    HW132924   0.263   3.424   6.981 -1.4261 -3.3422  1.4178
 7154SOL    HW232925   0.159   3.384   6.881  0.2836  1.5339 -0.3557
 7155SOL     OW32926   3.772   1.983   7.249  0.1814 -0.6135  0.1817
 7155SOL    HW132927   3.828   1.975   7.326  0.4019 -1.4670 -0.0666
 7155SOL    HW232928   3.711   2.054   7.269  0.6598 -0.5285  1.3400
 7156SOL     OW32929   2.882   4.332   5.579  0.6020  0.2264  0.3501
 7156SOL    HW132930   2.892   4.361   5.488  0.2232  0.8250  0.5013
 7156SOL    HW232931   2.808   4.381   5.615  1.5454  0.5560  1.8722
 7157SOL     OW32932   2.237   4.552   7.088  0.1771  0.0077 -0.5006
 7157SOL    HW132933   2.292   4.479   7.061  0.2652 -0.0887 -0.0735
 7157SOL    HW232934   2.277   4.576   7.172 -0.2475 -0.2328 -0.2261
 7158SOL     OW32935   0.903   4.419  13.559  0.2222 -0.0556  0.4530
 7158SOL    HW132936   0.829   4.368  13.525  0.9462  0.4265 -1.8013
 7158SOL    HW232937   0.966   4.404  13.489 -0.0298  1.4593 -0.0849
 7159SOL     OW32938   4.500   0.021   5.372 -0.5354  0.0089 -0.4291
 7159SOL    HW132939   4.441   0.092   5.401 -1.4428 -0.6146 -0.7728
 7159SOL    HW232940   4.526   4.700   5.452  1.8887  0.0975 -1.1625
 7160SOL     OW32941   0.829   0.648  12.099 -0.1395  0.1745  0.4037
 7160SOL    HW132942   0.915   0.623  12.135 -1.6679 -0.1181  3.9038
 7160SOL    HW232943   0.858   0.681  12.014  1.3207  0.3077  0.9498
 7161SOL     OW32944   2.305   3.395   6.426 -0.1971 -0.6701  0.3523
 7161SOL    HW132945   2.383   3.369   6.475  1.1390 -0.6775 -1.7676
 7161SOL    HW232946   2.236   3.351   6.476 -2.0639  1.6365 -0.2059
 7162SOL     OW32947   3.901   2.944   2.960  0.6873 -0.5488  0.3286
 7162SOL    HW132948   3.872   2.869   2.909  1.2251 -1.0052  0.6779
 7162SOL    HW232949   3.826   2.961   3.016  0.1383  1.0290 -0.8979
 7163SOL     OW32950   2.313   3.016   2.445  0.3117  0.3216  0.1090
 7163SOL    HW132951   2.329   2.978   2.359  1.4775  0.5553  0.2266
 7163SOL    HW232952   2.246   3.082   2.428  0.3038  0.8812  2.2686
 7164SOL     OW32953   2.152   1.974   3.192 -0.1673 -0.1557 -0.1540
 7164SOL    HW132954   2.093   2.024   3.249  1.0244  0.5480  0.4513
 7164SOL    HW232955   2.117   1.884   3.193 -1.0406  0.1754 -0.4820
 7165SOL     OW32956   3.104   1.884   1.111 -0.5715 -0.2143  0.0178
 7165SOL    HW132957   3.058   1.965   1.133  0.8475  0.5593  0.1540
 7165SOL    HW232958   3.102   1.850   1.201  1.6569  0.1679  0.2228
 7166SOL     OW32959   1.058   4.604  10.810 -0.8424  0.0503  0.0519
 7166SOL    HW132960   1.053   4.590  10.905  0.6421  1.7573  0.3645
 7166SOL    HW232961   1.116   4.532  10.784 -1.6212  0.6574 -3.3715
 7167SOL     OW32962   4.613   4.285  16.587 -0.4310  0.2642 -0.6731
 7167SOL    HW132963   4.646   4.315  16.502 -0.0254 -0.1450 -0.6616
 7167SOL    HW232964   4.654   4.199  16.594 -1.6663 -0.2743 -0.0114
 7168SOL     OW32965   2.538   4.445   6.852 -0.1739 -0.0896 -0.3728
 7168SOL    HW132966   2.459   4.407   6.812  0.4814 -0.2898 -1.4876
 7168SOL    HW232967   2.606   4.423   6.788 -0.6139 -2.8371  0.1482
 7169SOL     OW32968   1.263   4.334   6.543 -0.0677 -0.3567 -0.9640
 7169SOL    HW132969   1.218   4.321   6.626 -0.5695  2.6110 -0.7723
 7169SOL    HW232970   1.215   4.406   6.501 -1.3943  0.2176  1.5478
 7170SOL     OW32971   2.263   1.453  11.096 -0.1228  0.1721 -0.1123
 7170SOL    HW132972   2.196   1.400  11.140  1.2345 -0.9669  0.5811
 7170SOL    HW232973   2.205   1.503  11.040  1.5787  1.2916 -0.8641
 7171SOL     OW32974   1.294   4.472   6.262 -0.2118 -0.0532  0.0629
 7171SOL    HW132975   1.339   4.537   6.315 -1.1929 -0.3655  1.2790
 7171SOL    HW232976   1.318   4.386   6.295 -3.6427 -0.7530  0.8019
 7172SOL     OW32977   2.395   3.468   6.176  0.1159 -0.0988 -0.1204
 7172SOL    HW132978   2.391   3.474   6.272 -4.4138 -0.4829 -0.2835
 7172SOL    HW232979   2.303   3.449   6.159  1.0651 -2.3117 -2.6923
 7173SOL     OW32980   1.037   1.899   9.275 -0.1609  0.0336 -0.3522
 7173SOL    HW132981   1.077   1.972   9.321  0.0448 -1.4580  1.8415
 7173SOL    HW232982   1.056   1.912   9.183  1.2747  0.9867  0.0924
 7174SOL     OW32983   2.793   0.933   8.087  0.8027 -0.3267  0.7316
 7174SOL    HW132984   2.855   0.949   8.159 -0.0408  2.0953  0.9138
 7174SOL    HW232985   2.831   0.991   8.021 -0.8545  0.9351  0.9115
 7175SOL     OW32986   2.331   3.377   7.426  0.3821  0.2720 -0.2861
 7175SOL    HW132987   2.367   3.450   7.478  3.3467 -1.8654  0.7031
 7175SOL    HW232988   2.240   3.371   7.453  0.6479  0.3044  0.6254
 7176SOL     OW32989   3.921   0.417   6.400 -0.9775 -0.4254  0.6840
 7176SOL    HW132990   3.987   0.484   6.417 -1.3581  0.6356 -2.1755
 7176SOL    HW232991   3.919   0.372   6.485  0.8322 -0.0196  0.9369
 7177SOL     OW32992   2.713   2.473   8.589 -0.1476 -0.1330  0.3138
 7177SOL    HW132993   2.664   2.407   8.539  1.1251 -0.4626 -0.5062
 7177SOL    HW232994   2.727   2.544   8.527 -0.2517  1.0759  1.6742
 7178SOL     OW32995   1.071   3.550  15.855 -0.0612  0.4156 -0.2608
 7178SOL    HW132996   1.005   3.574  15.789  0.9085  0.2135 -1.3097
 7178SOL    HW232997   1.040   3.598  15.931  1.9728  1.9118 -0.3943
 7179SOL     OW32998   1.369   3.285   5.183  0.0955  0.2576  0.0756
 7179SOL    HW132999   1.333   3.310   5.098  2.9370 -0.0771 -1.2264
 7179SOL    HW233000   1.296   3.229   5.210 -1.5419  1.5710 -1.6387
 7180SOL     OW33001   4.194   2.250   8.948  0.0352 -0.2808  0.3552
 7180SOL    HW133002   4.171   2.254   9.041  1.6812  0.4980  0.7205
 7180SOL    HW233003   4.272   2.196   8.937  2.3446  2.9447  0.7948
 7181SOL     OW33004   2.819   1.646   4.268 -0.7146 -0.3109 -0.2208
 7181SOL    HW133005   2.868   1.659   4.187  1.3196 -0.9177  0.9086
 7181SOL    HW233006   2.733   1.634   4.226 -2.0256  2.6751  1.6496
 7182SOL     OW33007   0.662   3.009   2.517  0.5594 -0.1957 -0.3647
 7182SOL    HW133008   0.757   3.011   2.505  0.1279  1.2099 -3.4582
 7182SOL    HW233009   0.645   2.915   2.523  2.2940 -0.3719  2.0483
 7183SOL     OW33010   2.575   2.626  11.226  0.0376 -0.1535  0.4351
 7183SOL    HW133011   2.633   2.668  11.162 -0.5953  0.8959  0.5488
 7183SOL    HW233012   2.635   2.558  11.257 -0.0519  0.5131  2.0427
 7184SOL     OW33013   1.840   3.730   8.782  0.0756  0.1086 -0.1530
 7184SOL    HW133014   1.812   3.777   8.703 -0.0647 -2.7584 -1.8031
 7184SOL    HW233015   1.768   3.752   8.841 -1.1954  0.2159 -1.7317
 7185SOL     OW33016   3.843   3.389   7.106  0.1290 -0.4015 -0.2651
 7185SOL    HW133017   3.938   3.393   7.094  0.4792 -1.5682  2.0869
 7185SOL    HW233018   3.826   3.295   7.095  1.8434 -0.8739  1.0619
 7186SOL     OW33019   1.906   0.571   0.346  0.4083  0.0410  0.5109
 7186SOL    HW133020   1.931   0.500   0.406  0.7905 -0.9651 -0.8544
 7186SOL    HW233021   1.974   0.630   0.379 -0.5419 -0.0975  2.7320
 7187SOL     OW33022   1.523   3.080  15.038  0.1350  0.0920 -0.9395
 7187SOL    HW133023   1.598   3.113  14.989  0.1922  2.2650  0.6419
 7187SOL    HW233024   1.457   3.148  15.026 -0.2503  0.2673  2.1101
 7188SOL     OW33025   1.651   1.623   2.507 -0.6787 -0.3186 -0.0425
 7188SOL    HW133026   1.729   1.580   2.472 -1.3152 -1.4525 -0.0541
 7188SOL    HW233027   1.659   1.608   2.601  3.2086 -0.0053 -0.3160
 7189SOL     OW33028   0.067   0.885  17.339 -0.0471 -0.4974  0.1842
 7189SOL    HW133029   0.035   0.901  17.250  0.6628 -0.1433 -0.0025
 7189SOL    HW233030   0.154   0.925  17.338 -0.3457  0.1203 -0.3245
 7190SOL     OW33031   2.016   2.723   6.505  0.0019 -0.1975  0.0500
 7190SOL    HW133032   1.923   2.742   6.516  0.3284  0.3256  1.9593
 7190SOL    HW233033   2.024   2.659   6.576 -1.0325 -1.1257 -0.6707
 7191SOL     OW33034   4.687   2.185  16.211 -0.3933  0.3344  0.5328
 7191SOL    HW133035   4.642   2.266  16.187 -2.3775 -0.2122  2.4227
 7191SOL    HW233036   4.641   2.167  16.293 -1.1959 -2.0159 -0.4500
 7192SOL     OW33037   3.529   2.830  14.079  0.8716  0.0801  0.3748
 7192SOL    HW133038   3.595   2.776  14.034 -0.8583 -1.5599 -0.1909
 7192SOL    HW233039   3.487   2.756  14.123  0.1234  0.9170  1.0635
 7193SOL     OW33040   3.380   2.353   1.826  0.3964  0.0263  0.6474
 7193SOL    HW133041   3.425   2.269   1.840  1.9341  0.1875 -3.2495
 7193SOL    HW233042   3.437   2.409   1.879  0.6176 -1.0614  1.5862
 7194SOL     OW33043   0.296   0.608   2.275 -0.1836 -0.0361 -0.3889
 7194SOL    HW133044   0.354   0.682   2.294 -1.3296  0.5326  0.8931
 7194SOL    HW233045   0.361   0.539   2.267 -0.0764 -0.0986  1.0771
 7195SOL     OW33046   0.816   1.840   1.253 -0.3397 -0.4076 -0.2151
 7195SOL    HW133047   0.745   1.866   1.194 -0.9501  1.5615  1.3985
 7195SOL    HW233048   0.861   1.768   1.209 -1.0818 -0.1281 -1.4398
 7196SOL     OW33049   4.034   4.055   2.659  0.4267  0.0452  0.1632
 7196SOL    HW133050   4.089   4.127   2.689  0.1082 -0.0193  0.9019
 7196SOL    HW233051   3.959   4.106   2.626 -0.6201 -1.2520  0.5331
 7197SOL     OW33052   4.211   2.374  13.175  0.1751 -0.0029 -0.1391
 7197SOL    HW133053   4.277   2.313  13.141 -0.5675 -0.1064 -1.3914
 7197SOL    HW233054   4.262   2.455  13.168  0.4052  0.1052  2.7904
 7198SOL     OW33055   2.858   2.535   4.173 -0.2332  0.2011 -0.1190
 7198SOL    HW133056   2.809   2.567   4.248 -0.2342 -0.5345  0.1926
 7198SOL    HW233057   2.892   2.613   4.130 -0.4829  0.1398 -0.4240
 7199SOL     OW33058   0.104   3.933   2.711 -0.4397 -0.1027 -0.2373
 7199SOL    HW133059   0.070   4.016   2.678 -1.4119 -0.0785  0.8412
 7199SOL    HW233060   0.153   3.958   2.790  1.0764  0.5908 -1.3918
 7200SOL     OW33061   1.377   1.268   6.543 -0.1402  0.6510  0.5614
 7200SOL    HW133062   1.393   1.177   6.520  0.1410  0.9562 -0.4070
 7200SOL    HW233063   1.462   1.310   6.534  1.3561 -2.4727  0.2590
 7201SOL     OW33064   3.342   3.140   8.931 -0.2469  0.3290  0.1023
 7201SOL    HW133065   3.359   3.101   8.845 -1.6207  0.7621 -0.3728
 7201SOL    HW233066   3.407   3.087   8.977 -3.1011 -2.0856  1.3741
 7202SOL     OW33067   1.442   2.837   3.759 -0.6096  0.0091  0.2029
 7202SOL    HW133068   1.398   2.893   3.695  0.8078  3.0684  1.9321
 7202SOL    HW233069   1.532   2.867   3.766 -0.0372 -1.1794 -2.3878
 7203SOL     OW33070   3.248   2.001   6.234  0.2667  1.0472  0.5106
 7203SOL    HW133071   3.277   1.934   6.295 -0.8113 -0.7885 -0.9936
 7203SOL    HW233072   3.291   2.079   6.269 -0.4393  1.8569 -0.4141
 7204SOL     OW33073   0.198   0.566   2.550 -0.1108 -0.3765 -0.6878
 7204SOL    HW133074   0.245   0.582   2.468  0.1829  0.7921 -0.2956
 7204SOL    HW233075   0.175   0.655   2.579  1.2922 -0.2019 -0.1094
 7205SOL     OW33076   4.614   0.987   2.942  0.1209  0.3491  0.0403
 7205SOL    HW133077   4.584   1.069   2.980  0.5193  0.3221  0.4079
 7205SOL    HW233078   4.583   0.908   2.986 -1.0118 -0.4267 -2.1353
 7206SOL     OW33079   1.827   2.885  11.226  0.3593 -0.1342  0.3873
 7206SOL    HW133080   1.895   2.924  11.172  0.1173 -1.2438 -0.6947
 7206SOL    HW233081   1.748   2.905  11.176  0.7141  1.7549  0.5474
 7207SOL     OW33082   4.124   0.979   8.519 -0.1840  0.6816 -0.4001
 7207SOL    HW133083   4.125   1.063   8.474 -1.6053  1.2732  0.6674
 7207SOL    HW233084   4.213   0.949   8.539 -0.2631  0.8020  0.1412
 7208SOL     OW33085   4.032   0.792  12.747 -0.3277  0.5189 -0.1356
 7208SOL    HW133086   4.106   0.774  12.805 -1.3476 -0.2983  0.9179
 7208SOL    HW233087   4.091   0.804  12.673 -0.0022 -1.4738 -0.2136
 7209SOL     OW33088   1.985   0.578   2.928 -0.1569 -0.1175  0.0472
 7209SOL    HW133089   2.049   0.546   2.865 -1.1362 -0.4241 -0.7932
 7209SOL    HW233090   2.012   0.669   2.938 -1.1175  0.2323 -0.5983
 7210SOL     OW33091   2.852   1.613   1.359  0.1136  0.7640  0.0023
 7210SOL    HW133092   2.854   1.569   1.445  0.7604 -1.3335 -1.0759
 7210SOL    HW233093   2.922   1.677   1.370  1.2400 -0.2239 -1.3644
 7211SOL     OW33094   2.321   3.857   3.620 -0.3395  0.0962 -0.0547
 7211SOL    HW133095   2.305   3.763   3.627 -0.9628  0.1157 -1.1796
 7211SOL    HW233096   2.391   3.859   3.555  2.4530  1.1459  3.0207
 7212SOL     OW33097   3.768   0.705  10.851 -0.5721 -0.0076 -0.7579
 7212SOL    HW133098   3.766   0.777  10.787  2.1916 -0.4360 -1.2958
 7212SOL    HW233099   3.721   0.634  10.807  1.5871 -1.7285 -0.2218
 7213SOL     OW33100   2.338   1.697   6.925 -0.4131 -0.1221 -0.0413
 7213SOL    HW133101   2.376   1.610   6.932 -1.2157 -0.5031 -0.4167
 7213SOL    HW233102   2.244   1.695   6.942 -0.1669  0.0072  1.3529
 7214SOL     OW33103   4.012   2.182   4.648  0.4404  0.0571 -0.4807
 7214SOL    HW133104   4.084   2.236   4.680  0.1292 -0.8811  1.7825
 7214SOL    HW233105   4.018   2.101   4.697  0.8867 -0.9251 -2.1745
 7215SOL     OW33106   0.902   4.071  16.150  0.0011  0.4871 -0.5382
 7215SOL    HW133107   0.870   4.127  16.221 -1.7632 -1.7944  0.4589
 7215SOL    HW233108   0.819   4.040  16.116 -0.2526 -0.4433  0.9301
 7216SOL     OW33109   4.255   1.257  13.833  0.6112 -0.4976  0.1792
 7216SOL    HW133110   4.271   1.345  13.799 -1.1261 -1.0143 -1.9631
 7216SOL    HW233111   4.238   1.281  13.924  1.1507  0.8422 -0.0637
 7217SOL     OW33112   3.568   1.977   9.735  0.6782 -0.3459 -0.4909
 7217SOL    HW133113   3.567   1.947   9.826  1.8827  1.7985  0.2407
 7217SOL    HW233114   3.481   2.014   9.722 -0.0719 -2.3164 -1.0551
 7218SOL     OW33115   1.558   0.397  16.799  0.1909  0.4624  0.4127
 7218SOL    HW133116   1.576   0.485  16.831  1.3866  1.1193 -2.0605
 7218SOL    HW233117   1.597   0.402  16.712  1.7064 -1.7910  0.9788
 7219SOL     OW33118   3.860   2.567   4.269 -0.2467 -0.8708  0.4612
 7219SOL    HW133119   3.850   2.513   4.347 -0.1616  0.1429  1.1662
 7219SOL    HW233120   3.785   2.534   4.219 -1.2204  1.3902  0.4216
 7220SOL     OW33121   3.830   0.872  16.972 -0.5493 -0.1022 -0.2030
 7220SOL    HW133122   3.843   0.932  17.046 -0.0266 -1.4330  0.7681
 7220SOL    HW233123   3.774   0.807  17.015 -0.6498 -1.0872 -1.8540
 7221SOL     OW33124   4.715   1.974   5.325 -0.1361  0.3797  0.5754
 7221SOL    HW133125   4.701   1.941   5.414 -0.0750  0.1093  0.4830
 7221SOL    HW233126   0.064   1.920   5.297 -0.0040  0.3100  1.0514
 7222SOL     OW33127   0.662   1.519   6.142 -0.0731  0.0106  0.0840
 7222SOL    HW133128   0.640   1.585   6.207 -0.2209 -1.7588  1.8475
 7222SOL    HW233129   0.588   1.461   6.156 -0.4927  0.7319  0.8283
 7223SOL     OW33130   2.476   2.784   8.152 -0.0479 -0.2875 -0.4788
 7223SOL    HW133131   2.463   2.742   8.067 -2.2408  0.2572 -0.4073
 7223SOL    HW233132   2.385   2.788   8.181  0.1604 -1.7242  0.3760
 7224SOL     OW33133   3.810   0.221   4.585 -0.3823  0.6163 -0.1955
 7224SOL    HW133134   3.865   0.153   4.544 -0.0380  0.7305  0.0755
 7224SOL    HW233135   3.803   0.175   4.668 -1.2490  0.8830 -0.1213
 7225SOL     OW33136   4.639   2.735  12.075  0.3305 -0.0636 -0.0056
 7225SOL    HW133137   4.572   2.692  12.022  1.3791 -0.1027 -1.2864
 7225SOL    HW233138   4.595   2.740  12.160 -0.1309 -0.3415 -0.2267
 7226SOL     OW33139   0.892   2.619  16.454  0.6260  0.2478 -0.2738
 7226SOL    HW133140   0.800   2.641  16.469  0.1077 -0.1779 -2.8300
 7226SOL    HW233141   0.893   2.552  16.523 -2.0123  0.2566 -0.2310
 7227SOL     OW33142   3.956   1.600   5.550 -0.2938  0.4084 -0.9081
 7227SOL    HW133143   3.877   1.573   5.597  0.8242  0.1710  0.8221
 7227SOL    HW233144   3.999   1.517   5.529  0.2113  0.3183  0.4874
 7228SOL     OW33145   2.203   1.227  16.832 -0.1851 -0.0032  0.1334
 7228SOL    HW133146   2.154   1.300  16.871  4.4743  2.1904  1.8827
 7228SOL    HW233147   2.188   1.234  16.738 -0.9229  3.2263  0.4629
 7229SOL     OW33148   4.406   2.515   7.384 -0.0833  0.0868 -0.5795
 7229SOL    HW133149   4.491   2.482   7.356  1.5257  3.2436  0.4872
 7229SOL    HW233150   4.343   2.457   7.342  1.0304 -2.1994  0.9256
 7230SOL     OW33151   0.122   4.174   3.138 -0.1104 -0.0843 -0.1938
 7230SOL    HW133152   0.093   4.120   3.212  0.4944 -0.5696 -0.3150
 7230SOL    HW233153   0.143   4.260   3.173 -1.9128  0.7085 -1.0488
 7231SOL     OW33154   1.099   0.974   8.123 -0.5616 -0.0957 -0.2326
 7231SOL    HW133155   1.188   1.009   8.124 -0.9096  0.7986 -0.9201
 7231SOL    HW233156   1.065   0.994   8.210  2.2216  0.1501  0.8144
 7232SOL     OW33157   0.363   3.002   7.417 -0.0369 -0.1839  0.4584
 7232SOL    HW133158   0.293   3.014   7.481 -1.3647  0.1840 -1.0674
 7232SOL    HW233159   0.317   3.012   7.334 -2.8613 -2.0448  1.8283
 7233SOL     OW33160   3.185   0.378   6.650  0.0108 -0.4027 -0.1061
 7233SOL    HW133161   3.255   0.408   6.592 -0.6966  0.5646 -0.4367
 7233SOL    HW233162   3.176   0.461   6.697 -1.9116  0.2939 -1.7536
 7234SOL     OW33163   1.557   0.382   3.301  0.8860  0.0854  0.0814
 7234SOL    HW133164   1.643   0.353   3.271  0.8632  0.1425 -0.0396
 7234SOL    HW233165   1.505   0.306   3.274  1.9899 -0.4963 -0.3816
 7235SOL     OW33166   1.180   1.665   7.896  0.6875 -0.0106  0.1234
 7235SOL    HW133167   1.113   1.734   7.904  1.1769  0.4981 -0.1941
 7235SOL    HW233168   1.258   1.719   7.887  1.9194 -1.7274  0.6670
 7236SOL     OW33169   1.844   0.615   3.420  0.7625 -0.2436 -0.0981
 7236SOL    HW133170   1.884   0.533   3.392  1.5526 -0.0647  0.5224
 7236SOL    HW233171   1.772   0.581   3.473  0.3160 -0.9289 -1.1318
 7237SOL     OW33172   3.228   2.660   8.427  0.0319 -0.2756 -0.4360
 7237SOL    HW133173   3.183   2.711   8.360  1.6232 -0.7630 -1.8895
 7237SOL    HW233174   3.300   2.718   8.452 -0.4141 -0.1249  0.4606
 7238SOL     OW33175   1.651   0.944   8.268 -0.2012  0.1277 -0.3938
 7238SOL    HW133176   1.601   0.989   8.336 -0.8405 -2.3136  0.7390
 7238SOL    HW233177   1.734   0.993   8.264 -1.0002  1.4587 -0.8814
 7239SOL     OW33178   3.156   1.910   7.755  0.0396 -0.6629 -0.7939
 7239SOL    HW133179   3.197   1.906   7.841 -0.4547  1.5245 -0.4605
 7239SOL    HW233180   3.066   1.898   7.784 -0.3702 -0.4377 -1.9709
 7240SOL     OW33181   2.467   0.010   2.905  0.6928  0.2617 -0.4607
 7240SOL    HW133182   2.440   4.703   2.991  2.1105  0.7297  0.1647
 7240SOL    HW233183   2.384   0.026   2.862  0.2311 -0.4345  0.1745
 7241SOL     OW33184   2.978   1.673   5.096  0.2383  0.1300  0.5095
 7241SOL    HW133185   3.054   1.716   5.136  2.1038 -2.6861 -0.0182
 7241SOL    HW233186   2.950   1.738   5.032 -1.9465 -1.6381 -0.2936
 7242SOL     OW33187   1.275   2.490   6.893  0.3288 -0.3436 -0.6858
 7242SOL    HW133188   1.267   2.499   6.987  2.4487  0.4445 -0.5865
 7242SOL    HW233189   1.370   2.498   6.884  0.2336 -0.3721 -1.7625
 7243SOL     OW33190   0.197   1.249   6.690  0.5314  0.1982 -0.4451
 7243SOL    HW133191   0.150   1.269   6.609  2.1745  2.6241 -0.7898
 7243SOL    HW233192   0.193   1.153   6.697  2.0506  0.2306  0.8055
 7244SOL     OW33193   4.706   2.674   6.162 -0.1630  0.5377 -0.0411
 7244SOL    HW133194   4.685   2.735   6.232 -0.6094  1.4069 -0.9259
 7244SOL    HW233195   0.017   2.725   6.089 -0.3263  0.2177 -0.3516
 7245SOL     OW33196   2.835   0.008   4.520 -0.3992 -0.3325 -0.0547
 7245SOL    HW133197   2.777   4.657   4.508 -0.2211 -0.3851 -0.5925
 7245SOL    HW233198   2.836   0.023   4.614 -2.2912 -0.5470 -0.0084
 7246SOL     OW33199   3.131   0.090   7.182 -0.4788  0.3931 -0.1235
 7246SOL    HW133200   3.078   0.071   7.260  0.2656  3.0137  1.0345
 7246SOL    HW233201   3.206   0.132   7.226 -2.5229 -0.1203  3.8631
 7247SOL     OW33202   0.719   2.311   6.930 -0.1568  0.2293 -0.2568
 7247SOL    HW133203   0.627   2.307   6.905 -0.4110  1.6761  0.4644
 7247SOL    HW233204   0.760   2.384   6.884 -1.3428 -0.3489 -2.2382
 7248SOL     OW33205   2.903   0.677   9.507  0.2572  0.3417 -0.2349
 7248SOL    HW133206   2.871   0.624   9.434  2.4306 -4.0613  1.9934
 7248SOL    HW233207   2.927   0.757   9.461 -0.1231  0.2482 -0.5992
 7249SOL     OW33208   4.640   0.049   9.053 -0.7061 -0.0047  0.3890
 7249SOL    HW133209   4.571   0.106   9.085  0.1970  1.2957  0.0288
 7249SOL    HW233210   4.674   0.103   8.982  1.8779 -0.6436  1.1457
 7250SOL     OW33211   3.014   4.383   4.451  0.2140  0.1076 -0.3113
 7250SOL    HW133212   3.061   4.352   4.529 -1.5294  0.4402  0.8798
 7250SOL    HW233213   3.090   4.386   4.394  0.0063 -0.0497 -0.5967
 7251SOL     OW33214   2.457   4.707   5.526 -0.0711  0.3220  0.2491
 7251SOL    HW133215   2.381   4.650   5.534 -0.4843  0.8501  0.1078
 7251SOL    HW233216   2.408   0.062   5.503  0.7136  0.2515 -1.7104
 7252SOL     OW33217   2.717   3.669   4.368  0.2547  0.0674  0.1183
 7252SOL    HW133218   2.794   3.686   4.423  0.2651 -1.4451  0.5618
 7252SOL    HW233219   2.652   3.696   4.433 -0.3969  0.8095 -0.8311
 7253SOL     OW33220   0.931   1.136   3.032  1.0077  0.0445 -0.0304
 7253SOL    HW133221   0.927   1.086   2.951  0.6926  1.1700 -0.7206
 7253SOL    HW233222   0.985   1.090   3.097  1.5857  0.3130 -0.3245
 7254SOL     OW33223   1.084   1.822   2.789 -0.0272 -0.6028  0.9120
 7254SOL    HW133224   1.075   1.731   2.761  1.7863 -0.2933 -0.6825
 7254SOL    HW233225   1.119   1.856   2.707 -3.5702 -1.2332 -0.8767
 7255SOL     OW33226   2.491   3.435   3.128 -0.0217  0.0910  0.0455
 7255SOL    HW133227   2.409   3.437   3.177 -0.3657  0.2367 -0.5414
 7255SOL    HW233228   2.525   3.346   3.140 -0.1486 -0.0326 -0.5117
 7256SOL     OW33229   4.348   2.263   2.527 -0.2832 -0.5544  0.7115
 7256SOL    HW133230   4.396   2.295   2.603  2.0491  2.0308 -1.8698
 7256SOL    HW233231   4.393   2.184   2.497  1.7022  2.0556 -3.1142
 7257SOL     OW33232   0.839   4.150   1.138 -0.0850  0.0190 -0.0470
 7257SOL    HW133233   0.764   4.191   1.182  0.7683  0.8033  0.6734
 7257SOL    HW233234   0.918   4.167   1.189 -0.3234  0.2806  0.2369
 7258SOL     OW33235   1.531   2.742   2.491  0.4030 -0.2253  0.1060
 7258SOL    HW133236   1.445   2.735   2.450  0.7687  1.3897 -0.9464
 7258SOL    HW233237   1.545   2.834   2.517  2.2753 -0.5254  0.1438
 7259SOL     OW33238   1.563   2.991   6.776 -0.4835  0.3274 -0.0683
 7259SOL    HW133239   1.571   2.975   6.870 -4.2191  0.9431  0.3496
 7259SOL    HW233240   1.605   3.075   6.759  0.4708 -0.0380  0.4786
 7260SOL     OW33241   0.403   4.232   3.736 -0.0773  0.3883 -0.6000
 7260SOL    HW133242   0.330   4.267   3.684 -0.6538  1.3356  0.8270
 7260SOL    HW233243   0.475   4.295   3.729 -1.6084  2.0761 -1.2534
 7261SOL     OW33244   3.049   4.404   7.422 -0.2605 -0.2477 -0.2773
 7261SOL    HW133245   2.954   4.410   7.408 -0.2642 -0.1575 -0.2099
 7261SOL    HW233246   3.077   4.437   7.337 -3.0271 -0.4446 -1.2615
 7262SOL     OW33247   1.409   4.332   8.823 -0.0798 -0.4033 -0.2832
 7262SOL    HW133248   1.328   4.380   8.840  1.0638  1.1301  0.8796
 7262SOL    HW233249   1.384   4.241   8.812 -2.3671  0.0632  0.9951
 7263SOL     OW33250   1.677   2.106   5.870 -0.4041 -0.3561 -0.1223
 7263SOL    HW133251   1.638   2.192   5.887 -0.9817 -1.2684  2.9872
 7263SOL    HW233252   1.729   2.087   5.948  1.4623 -2.2268 -1.8198
 7264SOL     OW33253   1.468   4.672  12.668  0.1991 -0.1685 -0.1616
 7264SOL    HW133254   1.538   4.692  12.729 -0.9487 -1.4851  1.5931
 7264SOL    HW233255   1.383   4.678  12.713 -0.0034 -2.8100 -0.2251
 7265SOL     OW33256   4.209   2.116  13.389  0.2056  0.3483  0.4498
 7265SOL    HW133257   4.270   2.184  13.417 -0.2396  1.3684 -1.0450
 7265SOL    HW233258   4.204   2.063  13.468  0.3904 -0.9873 -0.4338
 7266SOL     OW33259   3.348   3.411   3.632  0.1452 -0.0517  0.2038
 7266SOL    HW133260   3.359   3.495   3.586 -0.7750  0.1864  0.4311
 7266SOL    HW233261   3.437   3.376   3.628 -0.5362 -1.4068 -2.9678
 7267SOL     OW33262   1.965   4.339   7.948 -0.1570  0.1978  0.5089
 7267SOL    HW133263   1.929   4.391   8.020 -0.2694 -0.9553  1.2809
 7267SOL    HW233264   1.925   4.255   7.969 -1.4335  0.1133 -2.3205
 7268SOL     OW33265   2.381   3.969   8.750  0.6206  0.2337 -0.0922
 7268SOL    HW133266   2.426   4.001   8.828  1.7144 -0.2662 -0.5271
 7268SOL    HW233267   2.432   4.003   8.677 -0.3671  0.8076 -0.5164
 7269SOL     OW33268   3.523   0.785   4.581  0.2092  0.0093 -0.2496
 7269SOL    HW133269   3.506   0.798   4.675  0.6730 -0.9091 -0.0338
 7269SOL    HW233270   3.475   0.854   4.537 -0.0043  0.6771  1.0134
 7270SOL     OW33271   4.513   4.430  12.940 -0.3226 -0.2207  0.3171
 7270SOL    HW133272   4.575   4.503  12.941 -1.0700  0.4266 -0.7700
 7270SOL    HW233273   4.435   4.468  12.900 -0.2678 -0.4331  0.0075
 7271SOL     OW33274   4.069   1.636  11.664  0.2047  0.2457  0.2389
 7271SOL    HW133275   4.062   1.585  11.583 -1.2800 -0.7180  0.9850
 7271SOL    HW233276   4.044   1.723  11.633 -0.8366  0.5193  1.8516
 7272SOL     OW33277   4.536   1.841   8.605  0.3797  0.0729  0.3440
 7272SOL    HW133278   4.587   1.858   8.684  2.5866 -1.5934 -0.7232
 7272SOL    HW233279   4.597   1.782   8.561  2.1656  1.6173  0.7581
 7273SOL     OW33280   2.241   3.028   4.923  0.4549 -0.0884 -0.0117
 7273SOL    HW133281   2.241   3.112   4.878  0.9756 -0.2980 -0.3995
 7273SOL    HW233282   2.332   3.025   4.952  0.2218 -0.0280  0.7069
 7274SOL     OW33283   4.388   0.455   9.775 -0.7311  0.3125  0.8754
 7274SOL    HW133284   4.435   0.372   9.773 -0.7772  0.3135 -0.7125
 7274SOL    HW233285   4.339   0.452   9.693  1.6225  2.2113 -0.5973
 7275SOL     OW33286   2.786   1.907   4.753  0.2780  0.1876  0.2651
 7275SOL    HW133287   2.792   1.980   4.815  1.7592  2.5415 -2.6615
 7275SOL    HW233288   2.861   1.857   4.786  1.8206  1.7947 -0.7949
 7276SOL     OW33289   0.475   1.932   7.956 -0.3583  0.1914 -0.6149
 7276SOL    HW133290   0.484   1.840   7.931  2.4205 -0.0402  1.2747
 7276SOL    HW233291   0.380   1.923   7.962  0.0245 -2.6793  1.0576
 7277SOL     OW33292   0.270   0.018  16.850 -0.2657 -0.0861 -0.8092
 7277SOL    HW133293   0.235   0.084  16.910  2.7520  1.4497 -0.7429
 7277SOL    HW233294   0.356   4.716  16.883 -0.9484 -0.2203  0.8641
 7278SOL     OW33295   1.795   3.533   7.025 -0.3424 -0.4325  0.3800
 7278SOL    HW133296   1.794   3.483   6.943 -0.2097  0.3785 -0.1188
 7278SOL    HW233297   1.704   3.526   7.055 -0.5418  1.7934  0.2962
 7279SOL     OW33298   3.869   2.208   7.971  0.4338  0.1149  0.1209
 7279SOL    HW133299   3.933   2.143   8.001 -0.5484 -0.1611  1.5942
 7279SOL    HW233300   3.897   2.236   7.884  0.8579  0.7935  0.4767
 7280SOL     OW33301   4.361   2.491   8.188 -0.0325  0.4991 -0.1809
 7280SOL    HW133302   4.368   2.428   8.260  0.0145  0.4406 -0.2372
 7280SOL    HW233303   4.266   2.490   8.179 -0.0259 -0.2744 -0.1694
 7281SOL     OW33304   2.172   0.413   1.367  0.4888  0.9671 -0.5631
 7281SOL    HW133305   2.194   0.363   1.289 -0.0833  0.0143 -0.1045
 7281SOL    HW233306   2.252   0.411   1.420  0.4475 -0.7135 -0.5736
 7282SOL     OW33307   0.586   3.466   2.460 -0.2507 -0.2314 -0.1672
 7282SOL    HW133308   0.581   3.554   2.423  0.5149  0.9976  2.6607
 7282SOL    HW233309   0.537   3.467   2.543  0.5975 -3.2292  0.3590
 7283SOL     OW33310   3.828   0.813   7.978 -0.0590 -0.0439  0.2538
 7283SOL    HW133311   3.814   0.906   7.960  2.3556 -0.0489 -1.6767
 7283SOL    HW233312   3.747   0.785   8.019 -0.6188  0.5290 -0.4687
 7284SOL     OW33313   2.007   1.041   6.675 -0.5569  0.0658  0.4057
 7284SOL    HW133314   1.931   1.018   6.728 -0.1417 -0.4904  0.7527
 7284SOL    HW233315   2.048   0.957   6.693 -0.0835  0.1463 -0.3043
 7285SOL     OW33316   3.579   2.607   6.419 -0.7193 -0.2545 -0.0676
 7285SOL    HW133317   3.542   2.527   6.457 -1.6963 -0.4643 -1.4581
 7285SOL    HW233318   3.669   2.588   6.449  0.1753 -0.5789 -2.9736
 7286SOL     OW33319   3.794   2.852   3.664 -0.3133  0.0331 -0.3016
 7286SOL    HW133320   3.740   2.901   3.725 -0.2532  2.0240 -1.8453
 7286SOL    HW233321   3.724   2.805   3.618 -0.5698 -1.2616  1.4201
 7287SOL     OW33322   2.179   3.232   2.299  0.5842  0.0666 -0.0084
 7287SOL    HW133323   2.118   3.302   2.324  0.4816  0.2474 -0.7747
 7287SOL    HW233324   2.252   3.281   2.262 -0.3613 -0.2403 -2.2671
 7288SOL     OW33325   3.778   1.630   4.035  0.0153 -0.1172 -0.5173
 7288SOL    HW133326   3.694   1.635   3.989 -0.0307  0.6914 -0.3620
 7288SOL    HW233327   3.834   1.686   3.980  1.2345 -0.5287  0.3046
 7289SOL     OW33328   3.403   2.426   7.696 -0.4990 -0.4999 -0.6140
 7289SOL    HW133329   3.437   2.431   7.607  1.3532  0.3667  0.1262
 7289SOL    HW233330   3.479   2.452   7.749 -0.3755 -1.4898 -0.2970
 7290SOL     OW33331   0.193   4.315   3.584  0.3633  0.1060  0.1412
 7290SOL    HW133332   0.232   4.363   3.512  1.2601  0.2035  0.6822
 7290SOL    HW233333   0.134   4.377   3.626 -0.4917 -1.9885  2.0883
 7291SOL     OW33334   3.263   3.695  12.813  0.3775  0.2545 -0.4411
 7291SOL    HW133335   3.330   3.763  12.820 -1.1859  1.5716  1.6293
 7291SOL    HW233336   3.257   3.679  12.908  1.7535  1.8863 -0.0881
 7292SOL     OW33337   0.612   0.432  11.930  0.0875 -0.1021 -0.8893
 7292SOL    HW133338   0.671   0.505  11.949  0.0967  0.1827 -1.9770
 7292SOL    HW233339   0.628   0.369  12.000  2.8270 -0.9825 -2.3003
 7293SOL     OW33340   3.125   3.992   7.936 -0.1846  0.5030 -0.2375
 7293SOL    HW133341   3.135   4.036   7.851  0.2556 -0.3113 -0.6154
 7293SOL    HW233342   3.081   3.912   7.908  0.6655 -0.4004  0.9798
 7294SOL     OW33343   3.860   2.735  10.468  0.6651 -0.2682  0.2084
 7294SOL    HW133344   3.936   2.792  10.455  0.5482 -0.0982  0.2645
 7294SOL    HW233345   3.876   2.661  10.410  1.1109 -2.5648  3.2148
 7295SOL     OW33346   3.808   3.011   4.878  0.1563 -0.1092  0.1299
 7295SOL    HW133347   3.754   2.947   4.832  0.7318 -2.9228  3.3442
 7295SOL    HW233348   3.737   3.048   4.930  1.5388  1.4244  0.9297
 7296SOL     OW33349   0.358   4.111   6.929 -0.3918 -0.1358  0.1088
 7296SOL    HW133350   0.285   4.064   6.889 -1.4154  1.1251  0.4641
 7296SOL    HW233351   0.424   4.058   6.886  0.0915  0.1566  0.4887
 7297SOL     OW33352   4.580   3.891   7.100  0.4780  0.1792  0.3775
 7297SOL    HW133353   4.558   3.831   7.029  0.3088  1.9331 -1.0581
 7297SOL    HW233354   4.670   3.912   7.076  0.2315  1.0318  0.1865
 7298SOL     OW33355   0.922   2.382   7.592  0.3532  0.3453 -0.0036
 7298SOL    HW133356   0.989   2.391   7.660  0.0807 -0.9872  0.4456
 7298SOL    HW233357   0.893   2.472   7.581 -1.7721 -0.3252  0.0199
 7299SOL     OW33358   1.269   0.688   3.471 -0.0044  0.0219 -0.0764
 7299SOL    HW133359   1.357   0.686   3.509 -0.2318 -1.0492  0.3694
 7299SOL    HW233360   1.212   0.626   3.515  0.8002 -1.3343 -0.9511
 7300SOL     OW33361   1.958   3.482  11.181 -0.1712  0.1227  0.9151
 7300SOL    HW133362   2.048   3.512  11.193  0.2553 -0.7312 -0.0588
 7300SOL    HW233363   1.907   3.541  11.236  0.2426  1.5981 -0.2737
 7301SOL     OW33364   3.336   2.080  13.557  0.7465 -0.0323 -0.2597
 7301SOL    HW133365   3.358   2.170  13.580 -1.2182  0.1627  0.8306
 7301SOL    HW233366   3.410   2.069  13.496 -0.9397 -1.6063 -2.0493
 7302SOL     OW33367   1.079   3.497  13.450  0.4535  0.0466  0.1482
 7302SOL    HW133368   1.123   3.413  13.441 -0.0085 -0.3417  1.5219
 7302SOL    HW233369   1.104   3.508  13.542 -0.2053 -0.6299  0.4143
 7303SOL     OW33370   4.023   3.762   7.299  0.0069  0.2286  0.6082
 7303SOL    HW133371   3.962   3.701   7.258 -1.0323  1.3009  0.5633
 7303SOL    HW233372   4.093   3.753   7.234 -0.5517 -1.1569  0.2186
 7304SOL     OW33373   3.886   1.976   3.658  0.5833  0.1359  0.1500
 7304SOL    HW133374   3.842   1.939   3.734  1.9448 -0.0445  0.8474
 7304SOL    HW233375   3.975   1.995   3.687  0.9246  0.3872 -1.0338
 7305SOL     OW33376   3.630   0.682  11.318 -0.5688  0.1785  0.8878
 7305SOL    HW133377   3.649   0.760  11.266 -2.2290 -0.0472 -0.0767
 7305SOL    HW233378   3.717   0.655  11.347 -0.6673 -1.1881 -0.1108
 7306SOL     OW33379   1.340   3.504   0.847  0.0012  0.0984 -0.0704
 7306SOL    HW133380   1.348   3.599   0.840 -0.9992  0.1911  0.1145
 7306SOL    HW233381   1.416   3.479   0.900 -0.5054 -0.7733  0.2409
 7307SOL     OW33382   2.106   1.415   3.033  0.1665 -0.4655  0.1462
 7307SOL    HW133383   2.017   1.433   3.065 -0.9970 -4.5520 -0.7468
 7307SOL    HW233384   2.145   1.500   3.016  0.7234 -0.7653 -0.0618
 7308SOL     OW33385   2.597   0.245   1.216 -0.3710 -0.6089  0.0507
 7308SOL    HW133386   2.642   0.329   1.211 -2.9737  0.7291 -0.8122
 7308SOL    HW233387   2.637   0.209   1.296 -1.1850  0.8570  1.1198
 7309SOL     OW33388   3.557   1.386   7.887 -0.3944 -0.5603 -0.3823
 7309SOL    HW133389   3.510   1.442   7.825  1.0444 -1.1233 -1.9703
 7309SOL    HW233390   3.630   1.352   7.836 -0.4296 -0.5977 -0.4079
 7310SOL     OW33391   2.644   1.635  10.006  0.5192  0.3068  0.0148
 7310SOL    HW133392   2.601   1.667   9.927  0.4514 -2.6840 -1.1714
 7310SOL    HW233393   2.567   1.619  10.061  0.0905  3.4507  0.2990
 7311SOL     OW33394   1.632   4.424  16.258  0.0107 -0.4400  0.0609
 7311SOL    HW133395   1.695   4.353  16.269  0.2324 -0.1184  0.8996
 7311SOL    HW233396   1.577   4.397  16.332  2.9135 -1.7715  1.7396
 7312SOL     OW33397   2.049   2.780  14.245  0.1644  0.0160 -0.2646
 7312SOL    HW133398   2.091   2.759  14.329  0.8492 -2.5374 -1.2256
 7312SOL    HW233399   2.024   2.692  14.217  1.2752 -0.3754 -0.0379
 7313SOL     OW33400   2.014   1.905   2.156 -0.5766  0.0741  0.3699
 7313SOL    HW133401   2.029   1.811   2.155 -0.2101  0.1383 -0.1379
 7313SOL    HW233402   2.109   1.917   2.156 -0.2053 -2.8369  0.9651
 7314SOL     OW33403   1.976   0.768  16.386  0.1998  0.3568  0.2412
 7314SOL    HW133404   1.949   0.833  16.451 -2.0707 -1.4355  1.0461
 7314SOL    HW233405   1.901   0.756  16.328  0.8766  0.6179 -0.6896
 7315SOL     OW33406   0.756   1.873  11.489  0.8667 -0.3645 -1.2635
 7315SOL    HW133407   0.766   1.829  11.405  0.6231 -0.4176 -1.2645
 7315SOL    HW233408   0.831   1.932  11.486  0.0147  0.9298  2.4530
 7316SOL     OW33409   1.904   0.508   4.012  0.3894  0.0282 -0.0275
 7316SOL    HW133410   1.815   0.490   3.980 -0.1772  1.0599  0.9739
 7316SOL    HW233411   1.948   0.513   3.927 -0.5935  1.3430 -0.4665
 7317SOL     OW33412   0.124   0.779   6.718  0.0725 -0.2078 -0.0309
 7317SOL    HW133413   0.076   0.780   6.635  2.6755 -1.3531 -1.5332
 7317SOL    HW233414   0.119   0.870   6.749  1.7036  0.0389 -0.5314
 7318SOL     OW33415   2.861   3.078   6.093 -0.2776  0.2964 -0.2445
 7318SOL    HW133416   2.916   3.135   6.148 -0.3460 -1.6525  1.8556
 7318SOL    HW233417   2.899   2.990   6.096 -1.7088 -0.3502 -1.0394
 7319SOL     OW33418   2.459   2.267  17.274 -0.1821 -0.2338  0.0625
 7319SOL    HW133419   2.425   2.239  17.359  1.4351  0.7446  1.0433
 7319SOL    HW233420   2.388   2.326  17.248 -1.2635 -1.1590  0.9129
 7320SOL     OW33421   2.454   2.878   1.374  0.4059 -0.1734 -0.2519
 7320SOL    HW133422   2.400   2.887   1.295 -1.6295  2.2386  1.3937
 7320SOL    HW233423   2.500   2.798   1.348  3.3172  1.7370 -1.0017
 7321SOL     OW33424   4.131   4.248   4.538 -0.1626  0.0791 -0.1540
 7321SOL    HW133425   4.127   4.160   4.501  2.8961 -0.1747  0.1392
 7321SOL    HW233426   4.208   4.236   4.593 -0.8044 -2.5690  0.1800
 7322SOL     OW33427   3.711   4.410   2.287  0.0931  0.1478  0.4045
 7322SOL    HW133428   3.791   4.430   2.335  0.2381  1.4841 -0.4034
 7322SOL    HW233429   3.734   4.419   2.194 -1.0166 -1.4575 -0.0247
 7323SOL     OW33430   4.525   2.158   3.589 -0.2041 -0.1411 -0.5412
 7323SOL    HW133431   4.556   2.108   3.513 -1.8389 -0.3961 -1.0402
 7323SOL    HW233432   4.575   2.110   3.655 -0.3076  0.3278 -0.1290
 7324SOL     OW33433   0.631   0.640   5.332 -0.2953  0.1167  0.4820
 7324SOL    HW133434   0.583   0.565   5.298 -0.1509  0.0207  0.4908
 7324SOL    HW233435   0.590   0.712   5.284 -2.1588 -1.1010  0.2713
 7325SOL     OW33436   0.351   2.330   8.570 -0.3696  0.0152 -0.3863
 7325SOL    HW133437   0.304   2.348   8.489 -1.4274  0.6164  0.3559
 7325SOL    HW233438   0.390   2.248   8.540 -0.7855  0.2204 -1.4777
 7326SOL     OW33439   1.699   4.386  12.506 -0.1080  0.2835 -0.4935
 7326SOL    HW133440   1.771   4.326  12.489  0.6512  1.4784 -1.4785
 7326SOL    HW233441   1.740   4.433  12.579  0.0512  1.9453 -1.6572
 7327SOL     OW33442   2.003   3.083   4.095 -0.1229  0.1760 -0.3649
 7327SOL    HW133443   2.039   3.170   4.115  0.8978  0.6022 -4.0520
 7327SOL    HW233444   2.055   3.056   4.020 -1.4245 -1.6020 -0.6112
 7328SOL     OW33445   0.986   0.939   4.619 -0.6947  0.8941 -0.3418
 7328SOL    HW133446   1.028   1.024   4.611  0.7511  0.2244  0.0365
 7328SOL    HW233447   0.959   0.938   4.711  1.6185  1.1996  0.3477
 7329SOL     OW33448   2.636   0.789   5.418 -0.0265  0.1310  0.2956
 7329SOL    HW133449   2.646   0.787   5.323 -1.1802 -1.7277  0.2263
 7329SOL    HW233450   2.722   0.814   5.453  0.0721  0.5004 -0.2203
 7330SOL     OW33451   3.972   1.723  11.341  0.2927 -0.4081  0.1893
 7330SOL    HW133452   3.884   1.719  11.304 -0.0579 -0.1642  0.9965
 7330SOL    HW233453   3.990   1.630  11.358 -1.6104 -1.1144 -1.6242
 7331SOL     OW33454   3.766   0.897   5.861  0.4294 -0.2887  0.1023
 7331SOL    HW133455   3.715   0.817   5.847  0.9262 -0.5319 -0.3206
 7331SOL    HW233456   3.800   0.891   5.950 -0.0665  0.5849  0.3538
 7332SOL     OW33457   0.580   4.651   4.049 -0.0443  0.1693 -0.6534
 7332SOL    HW133458   0.607   4.652   4.141  1.0139 -2.1164 -0.9671
 7332SOL    HW233459   0.614   4.567   4.020  0.2463 -0.3461  1.1809
 7333SOL     OW33460   1.270   2.139   5.845  0.4690 -0.3089 -0.0070
 7333SOL    HW133461   1.258   2.064   5.786 -1.2828  2.5147 -3.2473
 7333SOL    HW233462   1.364   2.121   5.853  0.0540 -1.4817  2.0077
 7334SOL     OW33463   0.809   4.474  14.860 -0.0456  0.6342  0.4259
 7334SOL    HW133464   0.805   4.413  14.786 -0.3210  1.7599 -0.4737
 7334SOL    HW233465   0.724   4.516  14.864 -0.6744 -0.7286  1.7025
 7335SOL     OW33466   0.210   0.505   1.907 -0.3345 -0.0615 -0.1147
 7335SOL    HW133467   0.229   0.599   1.900  0.4290 -0.3232 -1.4962
 7335SOL    HW233468   0.114   0.506   1.909 -0.3494  0.7794 -1.0413
 7336SOL     OW33469   3.620   2.489   1.011 -0.0600 -0.2603 -0.0683
 7336SOL    HW133470   3.607   2.433   0.934  4.0035  0.0442 -0.9630
 7336SOL    HW233471   3.604   2.574   0.969 -0.7378 -0.6796 -0.6593
 7337SOL     OW33472   0.398   3.681   7.694  0.3111  0.7275 -0.2428
 7337SOL    HW133473   0.370   3.731   7.771 -2.8836 -0.9246 -0.3220
 7337SOL    HW233474   0.476   3.636   7.726 -0.1504  2.0525  2.7671
 7338SOL     OW33475   1.836   1.671   1.176  0.5048  0.1643 -0.1535
 7338SOL    HW133476   1.887   1.623   1.240  0.5576  2.8045  1.7739
 7338SOL    HW233477   1.850   1.607   1.106  0.0448  0.4317 -0.4958
 7339SOL     OW33478   3.476   3.235  10.981  0.1354  0.5982 -1.1453
 7339SOL    HW133479   3.552   3.227  11.038 -0.0561  1.1414 -0.8170
 7339SOL    HW233480   3.413   3.275  11.040 -0.5520 -0.7935 -0.9208
 7340SOL     OW33481   2.597   2.535  17.455  0.7764 -0.3086 -0.3667
 7340SOL    HW133482   2.535   2.479  17.502 -0.0957  1.0047  0.0298
 7340SOL    HW233483   2.611   2.601  17.522  3.7370  1.0425 -2.3173
 7341SOL     OW33484   3.135   3.153  17.432  0.3975 -0.2616  0.2832
 7341SOL    HW133485   3.152   3.196  17.349 -1.0653 -0.2911 -0.0380
 7341SOL    HW233486   3.211   3.098  17.449  1.1028 -0.1131 -2.5343
 7342SOL     OW33487   0.259   2.734   5.030  0.2629  0.0349  0.1239
 7342SOL    HW133488   0.328   2.747   5.095  0.3719 -1.9083  0.4141
 7342SOL    HW233489   0.218   2.820   5.029 -0.4252 -0.3015 -2.2403
 7343SOL     OW33490   3.026   1.907   4.527  0.1257  0.2578 -0.3729
 7343SOL    HW133491   3.087   1.981   4.525 -0.1715  0.4235 -2.6607
 7343SOL    HW233492   3.005   1.917   4.434  0.1142 -0.0405 -0.4028
 7344SOL     OW33493   4.176   3.935   4.692 -0.0280  0.5074  0.2491
 7344SOL    HW133494   4.225   3.854   4.687  2.5225  2.1577 -1.2330
 7344SOL    HW233495   4.175   3.963   4.600 -0.4379 -2.2142 -0.5748
 7345SOL     OW33496   0.818   2.880   5.480  0.0607 -0.3459  0.0420
 7345SOL    HW133497   0.806   2.973   5.498 -0.9662 -0.4582 -0.0614
 7345SOL    HW233498   0.911   2.865   5.493 -0.2077  0.1353  2.4311
 7346SOL     OW33499   1.751   2.365   6.481 -0.0484  0.0052  0.0127
 7346SOL    HW133500   1.814   2.356   6.553 -0.7173 -1.0574  0.4667
 7346SOL    HW233501   1.804   2.358   6.403 -1.7067  1.1831 -1.2189
 7347SOL     OW33502   2.216   2.111   8.843  0.2581  0.2651  0.4604
 7347SOL    HW133503   2.185   2.200   8.858  2.0480  1.1547 -1.2567
 7347SOL    HW233504   2.288   2.123   8.782 -0.4118 -2.7708 -0.9625
 7348SOL     OW33505   1.766   1.832  11.256 -0.0062 -0.3749 -0.3918
 7348SOL    HW133506   1.767   1.904  11.319 -1.5604 -2.0770  1.5690
 7348SOL    HW233507   1.779   1.761  11.319  0.8303 -0.5367 -0.7357
 7349SOL     OW33508   1.427   3.322  12.621  0.1017 -0.3846 -0.1420
 7349SOL    HW133509   1.459   3.234  12.605  1.1668  0.0199 -0.2324
 7349SOL    HW233510   1.332   3.323  12.605  0.3646  0.3067 -1.6065
 7350SOL     OW33511   1.668   4.695   4.252  0.0946 -0.5195 -0.2315
 7350SOL    HW133512   1.725   4.684   4.329 -0.6182 -0.2689  0.3345
 7350SOL    HW233513   1.722   4.646   4.190  0.2710 -0.2380 -0.3013
 7351SOL     OW33514   2.751   1.472  17.582  0.6687  0.2930  0.0863
 7351SOL    HW133515   2.811   1.495  17.653  1.6703 -1.2753 -0.2340
 7351SOL    HW233516   2.752   1.553  17.531 -2.0407 -1.4772 -2.7855
 7352SOL     OW33517   0.580   3.123  14.697 -0.0969 -0.0490 -0.2675
 7352SOL    HW133518   0.625   3.184  14.638  0.2147 -0.0543 -0.0366
 7352SOL    HW233519   0.555   3.187  14.764 -2.1127  0.8172 -1.8364
 7353SOL     OW33520   3.251   3.725   5.806  0.3330  0.5208 -0.3994
 7353SOL    HW133521   3.211   3.655   5.858 -0.5536  1.1414 -0.2585
 7353SOL    HW233522   3.273   3.785   5.877 -0.9873 -0.4929  0.8633
 7354SOL     OW33523   0.879   0.813   3.340 -0.5579  0.2589  0.8506
 7354SOL    HW133524   0.921   0.891   3.376 -0.6767 -0.4338  2.4848
 7354SOL    HW233525   0.943   0.792   3.272 -1.4632 -2.5319  0.8482
 7355SOL     OW33526   0.290   1.962  11.148  0.3103  0.1466 -0.9285
 7355SOL    HW133527   0.206   1.945  11.106  1.6053 -3.2659 -2.0966
 7355SOL    HW233528   0.338   2.007  11.078  0.7268  0.2660 -0.5684
 7356SOL     OW33529   0.046   0.568   7.141  0.2660 -0.4228 -0.1051
 7356SOL    HW133530   0.022   0.651   7.100  2.3178 -0.2766 -0.9915
 7356SOL    HW233531   0.031   0.510   7.066  0.9096 -1.0593  0.2634
 7357SOL     OW33532   2.970   1.387   5.028  0.3563  0.1965  0.2600
 7357SOL    HW133533   2.984   1.471   5.072 -1.0462  0.7625 -0.3820
 7357SOL    HW233534   2.971   1.404   4.934  2.6978  0.6821  0.3805
 7358SOL     OW33535   3.766   1.896  11.927 -0.1995 -0.0078  0.1642
 7358SOL    HW133536   3.787   1.819  11.980 -2.8262 -0.9382 -0.1148
 7358SOL    HW233537   3.842   1.954  11.922 -0.3576  0.2079  0.2372
 7359SOL     OW33538   0.994   1.208   9.752 -0.2892  0.2635 -0.7311
 7359SOL    HW133539   0.993   1.170   9.664  0.8237  0.2165 -0.7249
 7359SOL    HW233540   1.083   1.190   9.782 -1.5761 -1.5463  2.0706
 7360SOL     OW33541   0.559   3.431   7.450  0.5577 -0.2486  0.3340
 7360SOL    HW133542   0.549   3.463   7.360 -0.0564  2.1156  1.2223
 7360SOL    HW233543   0.582   3.339   7.442  2.3804  0.2178  0.2347
 7361SOL     OW33544   2.105   4.039   2.716 -0.0639 -0.1978  0.3990
 7361SOL    HW133545   2.127   3.988   2.794 -0.5225 -0.9215  0.0481
 7361SOL    HW233546   2.180   4.025   2.658 -1.6062  0.7615 -1.8111
 7362SOL     OW33547   3.306   2.891  17.443  0.7001  1.0360  0.3283
 7362SOL    HW133548   3.357   2.864  17.520 -0.3623 -1.1732  0.2555
 7362SOL    HW233549   3.229   2.833  17.447  1.8638 -0.5122  0.4605
 7363SOL     OW33550   1.058   2.576  10.948  0.1864 -0.2084 -0.1303
 7363SOL    HW133551   1.062   2.568  11.043 -1.1120 -1.1257 -0.1514
 7363SOL    HW233552   0.990   2.642  10.933  0.0401 -0.4746 -0.6336
 7364SOL     OW33553   1.045   3.424   3.788  0.5055  0.1439  0.3175
 7364SOL    HW133554   0.976   3.486   3.766 -0.5255 -0.5982  1.4060
 7364SOL    HW233555   1.091   3.411   3.705 -0.4007  0.2501 -0.2097
 7365SOL     OW33556   3.336   0.758   3.735 -0.2046  0.0504 -0.4256
 7365SOL    HW133557   3.310   0.675   3.696 -2.3312  0.0527  0.9874
 7365SOL    HW233558   3.255   0.796   3.770  0.2216  0.0199  0.6013
 7366SOL     OW33559   4.328   0.114  15.133 -0.0465 -0.3084 -0.3256
 7366SOL    HW133560   4.311   0.110  15.039  0.1096  0.1864 -0.3747
 7366SOL    HW233561   4.420   0.129  15.152 -0.2262 -2.7894  2.5223
 7367SOL     OW33562   1.681   2.175  16.925 -0.1077  0.2553  0.4227
 7367SOL    HW133563   1.672   2.185  16.830 -1.2583  0.3511  0.5387
 7367SOL    HW233564   1.590   2.191  16.950 -0.3735  1.2181 -1.1267
 7368SOL     OW33565   2.745   3.283   7.169  0.1361  0.1726 -0.0900
 7368SOL    HW133566   2.799   3.305   7.245 -1.6065 -1.2415  1.5825
 7368SOL    HW233567   2.696   3.214   7.214  2.8280 -0.8518  1.2832
 7369SOL     OW33568   0.554   0.715  13.158  0.0637 -0.2080  0.5580
 7369SOL    HW133569   0.646   0.744  13.158  0.8912 -2.8270  1.5554
 7369SOL    HW233570   0.550   0.662  13.238  0.2004 -2.3249 -0.8446
 7370SOL     OW33571   1.425   1.758   6.991 -0.0832 -0.5182  0.3136
 7370SOL    HW133572   1.428   1.742   6.897  0.2517 -3.2012  0.7951
 7370SOL    HW233573   1.479   1.837   6.997 -1.0861  0.1455  0.6727
 7371SOL     OW33574   0.666   0.166   1.449  0.1903 -0.0346  0.1041
 7371SOL    HW133575   0.746   0.207   1.483  0.8958  0.1606 -1.7461
 7371SOL    HW233576   0.629   0.137   1.532  0.5398 -0.3267  0.1602
 7372SOL     OW33577   0.857   2.298  15.794 -0.1177 -0.8176 -0.6720
 7372SOL    HW133578   0.879   2.326  15.883 -1.4398  1.9324 -1.2078
 7372SOL    HW233579   0.908   2.364  15.747 -0.0360  0.1838  0.8175
 7373SOL     OW33580   4.329   0.149   8.163  0.1669 -0.2960  0.1232
 7373SOL    HW133581   4.335   0.122   8.071  0.9525 -1.8474  0.6310
 7373SOL    HW233582   4.320   0.244   8.169 -1.0038 -0.3827 -0.2776
 7374SOL     OW33583   1.981   3.352   9.832  0.2369  0.5791 -0.2388
 7374SOL    HW133584   1.958   3.345   9.925 -1.7447 -0.0427 -0.7788
 7374SOL    HW233585   1.940   3.435   9.808 -1.4942  0.0086  0.7732
 7375SOL     OW33586   3.784   1.477   2.969  0.0104  0.5529 -0.0841
 7375SOL    HW133587   3.834   1.488   3.050 -0.0789 -1.0130  0.1945
 7375SOL    HW233588   3.850   1.488   2.901 -0.5607 -0.2365 -0.7719
 7376SOL     OW33589   1.821   1.885   1.850 -0.5508 -0.7917  0.2016
 7376SOL    HW133590   1.732   1.915   1.829  0.5781  3.0971  0.9481
 7376SOL    HW233591   1.873   1.938   1.789  0.6811 -2.3405 -0.1050
 7377SOL     OW33592   4.508   0.746   2.233 -0.0545 -0.0720  0.0380
 7377SOL    HW133593   4.486   0.708   2.318 -0.6081  1.0914  0.4271
 7377SOL    HW233594   4.596   0.718   2.212  0.3689  1.0060  0.3599
 7378SOL     OW33595   2.770   0.832   2.072 -0.1874  0.9959 -0.2257
 7378SOL    HW133596   2.826   0.793   2.005  0.0378  0.8703  0.0340
 7378SOL    HW233597   2.692   0.803   2.027 -1.8127  1.3429  2.3628
 7379SOL     OW33598   1.431   3.374   2.427  0.1084  0.0250  0.8060
 7379SOL    HW133599   1.480   3.350   2.348 -1.3001 -3.4354  0.9544
 7379SOL    HW233600   1.479   3.454   2.449  0.2844  0.1871 -0.1827
 7380SOL     OW33601   2.212   0.886   4.526 -0.4116  0.0287 -0.2635
 7380SOL    HW133602   2.197   0.917   4.437 -1.6698 -0.0233 -0.0782
 7380SOL    HW233603   2.143   0.819   4.528 -0.7181  0.3978  1.5294
 7381SOL     OW33604   3.014   2.497   0.166 -0.4317  0.1048  0.1931
 7381SOL    HW133605   2.930   2.523   0.203 -0.8672 -1.2200  0.1170
 7381SOL    HW233606   3.073   2.527   0.235  1.4847 -1.3145 -0.8427
 7382SOL     OW33607   4.459   3.292   5.617  0.3272  0.0308 -0.2189
 7382SOL    HW133608   4.517   3.347   5.564  1.2236 -0.6211  0.0810
 7382SOL    HW233609   4.523   3.242   5.668 -2.0853 -1.4954  1.2973
 7383SOL     OW33610   1.483   4.569   9.133  0.0948  0.1577  0.2280
 7383SOL    HW133611   1.490   4.641   9.196 -0.7618 -0.1789  0.7213
 7383SOL    HW233612   1.490   4.497   9.196 -1.4524 -0.1137  0.1052
 7384SOL     OW33613   1.919   3.005  14.336 -0.1958 -0.1251 -0.3019
 7384SOL    HW133614   1.897   2.936  14.399 -0.1759 -0.7812 -1.0192
 7384SOL    HW233615   1.974   2.951  14.279  0.4272 -1.1038  1.2373
 7385SOL     OW33616   1.373   4.472   8.070 -0.2024  0.0819  0.1816
 7385SOL    HW133617   1.328   4.405   8.121  1.9533 -0.0037  1.9620
 7385SOL    HW233618   1.411   4.426   7.996 -0.1456  0.1064  0.1959
 7386SOL     OW33619   1.383   2.958   5.287  0.1185 -0.1047 -0.2014
 7386SOL    HW133620   1.454   3.019   5.268  0.9354 -0.7919  0.6318
 7386SOL    HW233621   1.363   2.980   5.378  0.8613 -2.1556  0.4632
 7387SOL     OW33622   2.926   3.355   7.927  0.1963  0.6363  0.4068
 7387SOL    HW133623   2.876   3.334   8.006 -0.2689 -1.3920 -0.4319
 7387SOL    HW233624   2.868   3.423   7.891  0.7193  0.6412 -0.4234
 7388SOL     OW33625   1.383   3.365   3.003 -0.0783  0.1416 -0.0640
 7388SOL    HW133626   1.452   3.300   2.989 -0.1803  0.0123  0.0313
 7388SOL    HW233627   1.310   3.323   2.958  0.5526  0.0171 -0.9651
 7389SOL     OW33628   0.302   1.481   9.143 -0.2902 -0.2649 -0.0070
 7389SOL    HW133629   0.383   1.511   9.183  1.0464 -2.1178 -1.2854
 7389SOL    HW233630   0.276   1.414   9.207 -0.9465  1.0674  1.1142
 7390SOL     OW33631   0.639   1.321  12.813  0.3640 -0.2967  0.4060
 7390SOL    HW133632   0.643   1.310  12.718  0.2501  0.9492  0.2545
 7390SOL    HW233633   0.710   1.383  12.828 -0.0324 -0.2745  2.2843
 7391SOL     OW33634   0.471   0.424   2.230 -0.0911 -0.3860  1.0678
 7391SOL    HW133635   0.478   0.425   2.135 -0.6837  0.7357  1.0401
 7391SOL    HW233636   0.519   0.342   2.243 -0.4346 -0.7737 -0.1560
 7392SOL     OW33637   3.477   3.841   7.880 -0.2164 -0.0121 -0.0119
 7392SOL    HW133638   3.407   3.873   7.823 -0.7294  0.2876  0.7828
 7392SOL    HW233639   3.430   3.772   7.927  0.9362 -0.7370  0.0600
 7393SOL     OW33640   1.424   3.945  14.982 -0.1692 -0.4112  0.0750
 7393SOL    HW133641   1.432   3.864  14.932  0.3035  0.0378 -0.5737
 7393SOL    HW233642   1.357   3.995  14.935  0.0254 -0.2787 -0.0612
 7394SOL     OW33643   3.611   0.676   5.775 -0.0949 -0.1695  0.3227
 7394SOL    HW133644   3.649   0.653   5.690 -0.9455 -0.7011  0.0885
 7394SOL    HW233645   3.520   0.649   5.763 -0.5795  0.5995  2.2225
 7395SOL     OW33646   0.782   4.017   6.509  0.0156  0.6576  0.3654
 7395SOL    HW133647   0.794   3.982   6.597 -0.6417  0.4165  0.3577
 7395SOL    HW233648   0.747   4.105   6.524 -0.0114  0.8646 -0.9461
 7396SOL     OW33649   2.036   0.303   2.103  0.6970 -0.0607 -0.3952
 7396SOL    HW133650   2.125   0.296   2.139  0.3097  0.5638  0.6769
 7396SOL    HW233651   2.038   0.234   2.036 -1.1827 -2.1849  1.7464
 7397SOL     OW33652   3.306   3.776   7.468  0.1902 -0.0542 -0.2303
 7397SOL    HW133653   3.303   3.787   7.373 -0.6132 -0.6102 -0.2703
 7397SOL    HW233654   3.401   3.780   7.471  0.2221 -0.9696 -0.3090
 7398SOL     OW33655   1.107   2.185   0.326  0.2123 -0.4751  0.1661
 7398SOL    HW133656   1.096   2.090   0.330 -0.8466 -0.3690 -0.1092
 7398SOL    HW233657   1.180   2.205   0.384  1.4256 -0.1348 -1.4833
 7399SOL     OW33658   1.107   0.003   5.491 -0.1769  0.0717  0.5739
 7399SOL    HW133659   1.187   4.677   5.507  0.1324  0.7635  1.1907
 7399SOL    HW233660   1.093   0.051   5.572 -2.1513 -0.2368  0.4248
 7400SOL     OW33661   3.869   4.069   4.319  0.4957 -0.6925 -0.4952
 7400SOL    HW133662   3.774   4.073   4.330  0.7026 -0.4935  1.2539
 7400SOL    HW233663   3.881   3.992   4.264 -1.4714 -1.4925  0.1959
 7401SOL     OW33664   0.150   1.552  12.868 -0.8117  0.2871  0.0169
 7401SOL    HW133665   0.214   1.534  12.799 -1.0193 -2.5766  0.5947
 7401SOL    HW233666   0.089   1.612  12.826 -1.4014  0.1995  0.7447
 7402SOL     OW33667   0.759   3.226  14.012 -0.1546 -0.2019  0.1729
 7402SOL    HW133668   0.793   3.307  14.048  2.3361 -0.0980 -2.4434
 7402SOL    HW233669   0.823   3.224  13.941 -0.0382  0.7402  0.2499
 7403SOL     OW33670   0.743   4.685  17.083 -0.1482 -0.3205 -0.6335
 7403SOL    HW133671   0.747   4.686  17.179 -1.0324 -1.8553 -0.5945
 7403SOL    HW233672   0.825   4.641  17.062  0.1861 -1.4843  2.9611
 7404SOL     OW33673   3.145   0.445   6.256 -0.4134  0.4737 -0.0221
 7404SOL    HW133674   3.204   0.406   6.191 -0.6188 -1.6045  1.0440
 7404SOL    HW233675   3.108   0.513   6.200  1.0764  0.6113 -0.8407
 7405SOL     OW33676   0.126   4.552   3.723  0.3558  0.3359 -0.1223
 7405SOL    HW133677   0.207   4.582   3.765  0.1486  0.4819  0.1715
 7405SOL    HW233678   0.069   4.558   3.799  1.7122  2.7246  0.7177
 7406SOL     OW33679   3.618   1.702  12.849  0.0480 -0.0885  0.7558
 7406SOL    HW133680   3.630   1.687  12.942 -0.2918  1.0808  0.9921
 7406SOL    HW233681   3.693   1.757  12.825  1.0162 -0.8376  2.1019
 7407SOL     OW33682   1.814   0.116   5.397  0.5361 -0.2692  0.3704
 7407SOL    HW133683   1.753   0.181   5.431 -1.6853 -1.5004 -1.3226
 7407SOL    HW233684   1.821   0.054   5.470  2.1993 -0.4658  0.0490
 7408SOL     OW33685   3.215   4.069   8.840  0.1115 -0.3599 -0.4530
 7408SOL    HW133686   3.140   4.126   8.821 -1.5141 -2.1315  0.6957
 7408SOL    HW233687   3.271   4.134   8.883 -0.9952  1.0308 -1.0717
 7409SOL     OW33688   2.625   1.701   0.738 -0.0257 -0.3188 -0.5675
 7409SOL    HW133689   2.569   1.625   0.754 -1.5746  0.8607 -0.3781
 7409SOL    HW233690   2.706   1.663   0.703  0.0422 -1.0342  0.3896
 7410SOL     OW33691   4.529   3.254  15.318  0.1820  0.2162  0.3044
 7410SOL    HW133692   4.605   3.196  15.316 -0.7055 -0.8987 -1.1562
 7410SOL    HW233693   4.461   3.190  15.339 -0.2192  0.3188 -0.6834
 7411SOL     OW33694   3.763   1.602   7.404  0.1553  0.0304 -0.5436
 7411SOL    HW133695   3.844   1.586   7.451  1.4708  0.4818 -2.6534
 7411SOL    HW233696   3.775   1.565   7.317  0.8936 -0.0075 -0.4209
 7412SOL     OW33697   1.819   2.167   1.154  0.2212 -0.6111 -0.2075
 7412SOL    HW133698   1.820   2.090   1.097 -0.6344  1.0265 -2.4057
 7412SOL    HW233699   1.901   2.205   1.125  0.4922 -0.9340  0.1309
 7413SOL     OW33700   0.772   4.678  13.606 -0.0824 -0.3511  0.2616
 7413SOL    HW133701   0.700   4.638  13.556 -0.9445  0.6061  0.7423
 7413SOL    HW233702   0.844   4.619  13.582 -0.7653 -1.1161  0.1024
 7414SOL     OW33703   2.604   3.073  15.168 -0.0725 -0.3533 -0.5059
 7414SOL    HW133704   2.657   3.003  15.204 -1.4304 -0.4358  1.3453
 7414SOL    HW233705   2.520   3.049  15.209  0.0280  0.5526  0.2475
 7415SOL     OW33706   3.272   4.611   3.222 -0.7290 -0.1507  0.2700
 7415SOL    HW133707   3.331   4.560   3.278 -0.0389  0.0003 -0.3139
 7415SOL    HW233708   3.247   4.680   3.284 -0.7086 -0.6217  0.7983
 7416SOL     OW33709   3.262   2.483  13.580 -0.2249  0.3892 -0.9457
 7416SOL    HW133710   3.202   2.426  13.531 -2.0566 -0.6709  2.4385
 7416SOL    HW233711   3.334   2.423  13.601 -0.8004  0.1187  0.2898
 7417SOL     OW33712   3.270   0.602  15.222  0.4279 -0.2842  0.1798
 7417SOL    HW133713   3.358   0.634  15.241  0.6962 -0.2515 -1.1088
 7417SOL    HW233714   3.258   0.598  15.127  0.3078  0.7516  0.1590
 7418SOL     OW33715   2.817   1.835   8.262 -0.4353  0.3510  0.2710
 7418SOL    HW133716   2.851   1.837   8.351 -0.0950 -1.4324  0.1777
 7418SOL    HW233717   2.837   1.747   8.230 -1.2556 -0.0393  0.8305
 7419SOL     OW33718   1.387   4.434   9.529 -0.5232  0.7749 -0.2597
 7419SOL    HW133719   1.396   4.383   9.449  1.6887  3.1853 -1.5243
 7419SOL    HW233720   1.294   4.419   9.543  0.4863 -2.2900  3.1888
 7420SOL     OW33721   3.860   0.978   4.716  0.1405 -0.5490  0.0334
 7420SOL    HW133722   3.806   0.909   4.755  0.2439  0.1506  1.4069
 7420SOL    HW233723   3.846   0.969   4.621  1.1234 -0.7806 -0.0872
 7421SOL     OW33724   4.096   1.331   7.650  0.0342 -0.3605 -0.0032
 7421SOL    HW133725   4.027   1.368   7.705  1.5806  1.2230  0.8978
 7421SOL    HW233726   4.087   1.378   7.567  1.7944  0.1196  0.0558
 7422SOL     OW33727   0.855   4.444  15.457  0.1536 -0.3709 -0.0876
 7422SOL    HW133728   0.949   4.432  15.443  0.0657 -0.3402 -0.7101
 7422SOL    HW233729   0.824   4.436  15.367 -0.9264  0.6190  0.2089
 7423SOL     OW33730   3.403   4.321   5.146 -0.0375 -0.4700 -0.4371
 7423SOL    HW133731   3.473   4.385   5.133 -0.9784  0.7092  0.3577
 7423SOL    HW233732   3.456   4.244   5.164  2.6462  1.5382  0.1763
 7424SOL     OW33733   3.574   3.187   5.281 -0.0250 -0.6829  0.2579
 7424SOL    HW133734   3.513   3.212   5.351  1.4798  1.1002  0.9338
 7424SOL    HW233735   3.652   3.161   5.331  0.8602  1.0518 -0.2390
 7425SOL     OW33736   0.803   2.473  12.966  0.0622 -0.6059 -0.3148
 7425SOL    HW133737   0.799   2.551  13.022  1.7860 -0.4029 -0.4836
 7425SOL    HW233738   0.764   2.503  12.884  1.2984  0.3248 -0.5535
 7426SOL     OW33739   0.065   3.761   5.754 -0.7752  0.1205  1.0063
 7426SOL    HW133740   0.046   3.816   5.829 -0.2086  0.4891  0.8816
 7426SOL    HW233741   0.059   3.822   5.680 -1.2305  0.7526  1.5706
 7427SOL     OW33742   3.821   3.264   5.712  0.2775  0.1370  0.3404
 7427SOL    HW133743   3.754   3.230   5.772  0.5678  1.9597  1.7194
 7427SOL    HW233744   3.895   3.280   5.771  0.1292 -2.7124  1.2686
 7428SOL     OW33745   3.711   0.589   4.598 -0.3033 -0.0924 -0.7715
 7428SOL    HW133746   3.629   0.635   4.584 -0.7145 -0.5270  0.1885
 7428SOL    HW233747   3.731   0.565   4.508  1.3927 -0.1119 -0.4070
 7429SOL     OW33748   4.345   4.602  10.313  0.0794 -0.0413  0.5605
 7429SOL    HW133749   4.396   4.555  10.247 -1.2563 -0.0669 -0.4572
 7429SOL    HW233750   4.342   4.549  10.393  1.1684 -1.4813 -0.3466
 7430SOL     OW33751   1.656   2.216   3.030 -0.2439 -0.2742  0.7417
 7430SOL    HW133752   1.716   2.290   3.022 -1.2000  0.1648 -2.6920
 7430SOL    HW233753   1.574   2.258   3.004  0.4913 -0.8327 -2.4682
 7431SOL     OW33754   4.025   2.007   7.421 -0.0658  0.0634  0.6415
 7431SOL    HW133755   3.985   2.003   7.508 -3.7388  1.0293 -1.0059
 7431SOL    HW233756   4.114   2.041   7.430  0.3119 -1.6757  3.3692
 7432SOL     OW33757   2.043   1.048   4.286 -0.5619 -0.3822 -0.1207
 7432SOL    HW133758   1.980   1.026   4.217  0.7461  0.7154 -1.6754
 7432SOL    HW233759   1.991   1.070   4.364 -0.4678 -1.1157  0.1429
 7433SOL     OW33760   3.455   0.311   3.344  0.0652  0.1470 -0.2071
 7433SOL    HW133761   3.431   0.348   3.259 -0.2311  1.7017  0.5421
 7433SOL    HW233762   3.548   0.329   3.354  0.4233 -0.5508 -2.2797
 7434SOL     OW33763   2.621   1.286   7.053 -0.2696  0.6132  0.4950
 7434SOL    HW133764   2.550   1.348   7.034  1.0739  1.5748 -1.3754
 7434SOL    HW233765   2.586   1.206   7.015  1.3000 -0.7532  1.9375
 7435SOL     OW33766   1.516   0.618   2.061  0.2789  0.6024  0.6301
 7435SOL    HW133767   1.455   0.572   2.004 -0.3288  1.3329  0.6978
 7435SOL    HW233768   1.449   0.641   2.124 -0.3775  2.4949 -0.7486
 7436SOL     OW33769   2.262   3.170  11.715 -0.3310 -0.4527  0.1053
 7436SOL    HW133770   2.192   3.201  11.773 -0.9151  0.8513 -1.2728
 7436SOL    HW233771   2.209   3.119  11.654  0.9666 -0.1933 -1.2318
 7437SOL     OW33772   1.207   2.024   3.978  0.6893 -0.2086 -0.7142
 7437SOL    HW133773   1.160   1.941   3.967 -0.1351  0.2955 -1.0351
 7437SOL    HW233774   1.185   2.037   4.071  3.7827 -2.0578  0.2783
 7438SOL     OW33775   0.939   3.301  11.432 -0.4000 -0.4178 -0.1452
 7438SOL    HW133776   0.945   3.222  11.379  1.0432 -0.0881 -0.4578
 7438SOL    HW233777   0.847   3.316  11.456 -0.1228  0.2109  0.5325
 7439SOL     OW33778   1.282   3.080  15.227 -0.0406 -0.3873 -0.2831
 7439SOL    HW133779   1.314   3.131  15.153  0.3917 -0.6097 -0.2506
 7439SOL    HW233780   1.316   3.120  15.307  1.3040  1.5496 -1.8495
 7440SOL     OW33781   0.348   2.413   4.031  0.1284  0.4380  0.4469
 7440SOL    HW133782   0.318   2.389   3.943 -0.4415 -2.0006  1.3178
 7440SOL    HW233783   0.296   2.490   4.055 -1.6377 -0.5591 -0.1880
 7441SOL     OW33784   1.670   1.394   0.406  0.0722 -0.1559 -0.4348
 7441SOL    HW133785   1.584   1.430   0.383  0.4371  0.6116 -0.5950
 7441SOL    HW233786   1.734   1.464   0.397  1.4323 -1.0575  2.3265
 7442SOL     OW33787   0.868   2.842  15.544 -0.1320 -0.2816 -0.1796
 7442SOL    HW133788   0.949   2.894  15.537 -0.3648  0.0248 -0.6071
 7442SOL    HW233789   0.813   2.880  15.475  1.0745  0.0269 -0.9732
 7443SOL     OW33790   4.658   3.074   4.546 -0.2298 -0.5723  0.1758
 7443SOL    HW133791   4.712   3.072   4.467  2.0605  0.9060  1.7083
 7443SOL    HW233792   4.720   3.037   4.610 -1.4305 -0.6638  1.2901
 7444SOL     OW33793   2.951   3.467   6.192  0.9207  0.1140 -0.2049
 7444SOL    HW133794   3.000   3.498   6.116  1.1708 -0.3766 -0.2462
 7444SOL    HW233795   2.857   3.476   6.179  0.5594 -0.5062  2.0401
 7445SOL     OW33796   2.059   0.291   7.111  0.3383 -0.0379 -0.8226
 7445SOL    HW133797   2.140   0.267   7.155 -0.7952 -1.9587  0.2085
 7445SOL    HW233798   2.021   0.203   7.102 -1.5353  0.8855 -2.0432
 7446SOL     OW33799   2.328   1.073   4.895  0.6890 -0.7025  0.4750
 7446SOL    HW133800   2.259   1.139   4.886 -0.3264 -1.5618  2.0260
 7446SOL    HW233801   2.318   1.041   4.985 -0.0299 -1.0638  0.2678
 7447SOL     OW33802   3.180   2.626   4.341 -0.2808 -0.6113 -0.8861
 7447SOL    HW133803   3.228   2.655   4.264 -0.3542  0.5762 -0.4897
 7447SOL    HW233804   3.120   2.700   4.350 -0.8750 -1.1807 -0.1110
 7448SOL     OW33805   2.065   0.251  16.556  0.3774 -0.0003 -0.0574
 7448SOL    HW133806   2.054   0.330  16.609 -0.0014 -1.0972  1.4996
 7448SOL    HW233807   2.107   0.196  16.622 -1.4933  1.5185  2.3756
 7449SOL     OW33808   0.987   3.968   4.901  0.3591 -0.1142 -0.1150
 7449SOL    HW133809   1.027   4.023   4.969  0.3231  0.3285 -0.4520
 7449SOL    HW233810   0.973   3.884   4.945 -0.0331  0.3251  0.6071
 7450SOL     OW33811   3.740   0.040  10.936  0.0009 -0.3950 -0.1321
 7450SOL    HW133812   3.730   4.718  11.018  1.1465  1.8476  1.2808
 7450SOL    HW233813   3.791   0.106  10.983  2.3059 -1.5969 -0.9186
 7451SOL     OW33814   3.186   2.499   5.802 -0.2061 -0.1928  0.2307
 7451SOL    HW133815   3.232   2.438   5.860 -0.7402 -1.6956 -0.9412
 7451SOL    HW233816   3.190   2.575   5.860 -2.9951  0.2218 -0.1610
 7452SOL     OW33817   3.828   1.686   9.315 -0.1372 -0.1113 -0.1561
 7452SOL    HW133818   3.886   1.681   9.390 -0.0328 -1.1171 -0.2951
 7452SOL    HW233819   3.879   1.637   9.250 -0.3947  0.5656 -0.8780
 7453SOL     OW33820   0.018   4.664   6.160  0.8113 -0.2550  0.4286
 7453SOL    HW133821   0.005   0.034   6.154  1.8895 -0.1102  0.3473
 7453SOL    HW233822   0.101   4.660   6.208 -0.6107 -1.4452  2.8194
 7454SOL     OW33823   3.324   2.095   2.764 -0.2984  0.2777 -0.1857
 7454SOL    HW133824   3.389   2.162   2.787 -0.1592  1.8673 -5.3216
 7454SOL    HW233825   3.368   2.011   2.779 -2.8560 -0.9288  0.6350
 7455SOL     OW33826   0.829   0.247  16.790 -0.2176 -0.1972 -0.2288
 7455SOL    HW133827   0.881   0.326  16.804  0.0579 -0.3095 -0.5951
 7455SOL    HW233828   0.872   0.181  16.845 -1.5007 -1.3164 -0.5712
 7456SOL     OW33829   3.363   1.407  13.144  0.4195 -0.1891 -0.0027
 7456SOL    HW133830   3.328   1.467  13.209  0.8116 -0.5899  0.5860
 7456SOL    HW233831   3.456   1.407  13.166  0.2433  0.4113  0.7419
 7457SOL     OW33832   1.294   0.162   8.564 -0.2457  0.0863 -0.3882
 7457SOL    HW133833   1.309   0.254   8.587 -0.0250 -0.0096 -0.1507
 7457SOL    HW233834   1.252   0.121   8.640 -0.3194  1.5773  0.3892
 7458SOL     OW33835   2.101   2.781  10.871 -0.1528  0.1055 -0.3085
 7458SOL    HW133836   2.030   2.752  10.927 -0.9211  2.5898  0.0339
 7458SOL    HW233837   2.093   2.872  10.901  2.9606  0.3544 -0.2249
 7459SOL     OW33838   1.249   0.608  16.705  0.1937 -0.3285  0.2960
 7459SOL    HW133839   1.171   0.614  16.651  0.5204 -0.2594 -0.1730
 7459SOL    HW233840   1.323   0.620  16.645 -0.5865  2.1021 -0.1761
 7460SOL     OW33841   2.527   3.237   4.014  0.2622 -0.1599  0.0816
 7460SOL    HW133842   2.481   3.275   4.089 -0.1401 -0.5844  0.0470
 7460SOL    HW233843   2.582   3.311   3.989  0.1669  0.1864  0.8790
 7461SOL     OW33844   1.933   2.169   2.206 -0.4544 -0.0444 -0.0179
 7461SOL    HW133845   1.922   2.074   2.210  0.9046 -0.2530 -1.1623
 7461SOL    HW233846   1.907   2.200   2.293 -2.6585  1.4644 -1.2062
 7462SOL     OW33847   1.262   0.775   4.369 -0.9226 -0.2859 -0.2926
 7462SOL    HW133848   1.272   0.752   4.461  1.7969 -0.8138 -0.7100
 7462SOL    HW233849   1.175   0.813   4.357  0.4068  2.9914  0.4138
 7463SOL     OW33850   2.823   1.693  16.869 -0.5579  0.1743 -0.0714
 7463SOL    HW133851   2.867   1.616  16.904  1.0269 -0.2837 -3.1107
 7463SOL    HW233852   2.891   1.758  16.888  0.6788 -0.9159 -0.8291
 7464SOL     OW33853   0.549   3.593   5.993 -0.3540 -0.2049 -0.4187
 7464SOL    HW133854   0.548   3.675   5.943 -0.1831  0.2245  0.2848
 7464SOL    HW233855   0.504   3.539   5.928 -0.5431 -0.5744  0.0203
 7465SOL     OW33856   0.553   3.179   8.194 -0.2611 -0.0956  0.1144
 7465SOL    HW133857   0.527   3.206   8.283  1.1837  0.8869  0.2274
 7465SOL    HW233858   0.627   3.122   8.215 -1.4577 -0.7170  2.7820
 7466SOL     OW33859   2.213   0.694  16.286  0.0588 -0.9785 -0.4800
 7466SOL    HW133860   2.126   0.723  16.314  1.2337  0.9177  1.2285
 7466SOL    HW233861   2.261   0.774  16.306 -1.7077  0.0433 -0.2731
 7467SOL     OW33862   1.414   1.943   3.000  0.6717  0.3861  0.5218
 7467SOL    HW133863   1.320   1.938   2.979  0.5644  1.0853  0.8307
 7467SOL    HW233864   1.440   2.002   2.930 -0.1014 -0.7060 -0.7087
 7468SOL     OW33865   0.195   0.094  16.288 -0.0190 -0.0709 -0.5212
 7468SOL    HW133866   0.157   0.047  16.362  1.6313  0.8802  0.9118
 7468SOL    HW233867   0.149   0.037  16.226  0.0806 -1.9437  1.1089
 7469SOL     OW33868   2.266   4.164   4.233 -0.4528 -0.0571  0.6531
 7469SOL    HW133869   2.248   4.094   4.296 -0.1091 -2.3843 -1.8662
 7469SOL    HW233870   2.323   4.219   4.288 -0.5958  0.4290  0.3067
 7470SOL     OW33871   2.097   2.113   4.109  0.6321 -0.2426 -0.2578
 7470SOL    HW133872   2.139   2.086   4.027  2.0639  1.4040 -0.0793
 7470SOL    HW233873   2.171   2.159   4.148 -2.1232  2.1443  2.1485
 7471SOL     OW33874   3.087   1.653   5.999 -0.8836  0.6015 -0.2241
 7471SOL    HW133875   3.148   1.725   5.979 -0.4249  0.3286  0.2031
 7471SOL    HW233876   3.019   1.694   6.052 -1.5971 -0.0928 -0.6026
 7472SOL     OW33877   0.423   0.461   6.956 -0.3436  0.2736  0.2756
 7472SOL    HW133878   0.356   0.488   6.892  0.8242  2.0777 -0.1857
 7472SOL    HW233879   0.473   0.542   6.968  1.4055 -0.7853  0.0750
 7473SOL     OW33880   3.530   4.358  12.232 -0.0090 -0.1541 -0.8603
 7473SOL    HW133881   3.593   4.300  12.189 -1.9251 -2.2795 -0.8350
 7473SOL    HW233882   3.450   4.308  12.252 -0.3775  1.4229  1.6738
 7474SOL     OW33883   1.446   1.347   5.858  0.4466 -0.3198  0.0442
 7474SOL    HW133884   1.393   1.421   5.885  0.1407 -0.1991 -0.8968
 7474SOL    HW233885   1.425   1.287   5.930  0.9908 -0.4196  0.1248
 7475SOL     OW33886   3.221   2.291  16.115  0.3618 -0.1825  0.0285
 7475SOL    HW133887   3.249   2.287  16.024 -0.0833 -0.2292 -0.1087
 7475SOL    HW233888   3.251   2.379  16.139 -1.0531  0.1898  0.4217
 7476SOL     OW33889   4.468   3.774   7.557  0.0551  0.0379  0.2143
 7476SOL    HW133890   4.456   3.688   7.517  2.9529  0.2254 -1.0533
 7476SOL    HW233891   4.458   3.827   7.478 -0.0171 -0.8993 -0.3930
 7477SOL     OW33892   3.203   1.488   6.189  0.6680  0.7830  0.0575
 7477SOL    HW133893   3.196   1.504   6.095 -1.9649 -1.5335 -0.1533
 7477SOL    HW233894   3.265   1.417   6.202 -1.8415 -1.1249  1.5993
 7478SOL     OW33895   0.085   0.098  14.215 -0.4033 -0.2602  0.2941
 7478SOL    HW133896   0.034   0.177  14.197  2.1563  0.9270 -1.7018
 7478SOL    HW233897   0.171   0.117  14.252 -0.4039 -2.1698  1.3109
 7479SOL     OW33898   4.234   4.445   7.546 -0.0913 -0.0523 -0.3327
 7479SOL    HW133899   4.284   4.525   7.532  1.2831 -0.5978  1.5340
 7479SOL    HW233900   4.147   4.469   7.514  1.0342  0.6515 -2.8764
 7480SOL     OW33901   0.386   2.649  11.076  0.3983  0.1544  0.4127
 7480SOL    HW133902   0.386   2.558  11.105  0.7037 -0.4843 -1.6013
 7480SOL    HW233903   0.422   2.644  10.987  2.7579 -0.7451  1.4302
 7481SOL     OW33904   3.611   2.894   6.167  0.4382 -0.2496 -0.0446
 7481SOL    HW133905   3.683   2.955   6.182 -0.1172  0.0976  1.2211
 7481SOL    HW233906   3.559   2.922   6.243 -0.6946 -0.6635 -0.6682
 7482SOL     OW33907   0.175   3.644  13.012 -0.5487  0.0161 -0.5340
 7482SOL    HW133908   0.130   3.560  13.015 -3.4645  1.5807 -0.9635
 7482SOL    HW233909   0.257   3.598  12.994  1.6784  3.3381  1.1375
 7483SOL     OW33910   3.221   3.798   7.225 -0.3401  0.0792  0.5223
 7483SOL    HW133911   3.220   3.702   7.225  1.3739  0.0450 -2.1659
 7483SOL    HW233912   3.225   3.815   7.131  1.7161  0.2742  0.6405
 7484SOL     OW33913   3.237   1.729   9.140  0.3636 -0.2239 -0.1937
 7484SOL    HW133914   3.316   1.687   9.106  1.2363  0.4678  0.9960
 7484SOL    HW233915   3.189   1.763   9.064  1.3577  0.4466 -0.5172
 7485SOL     OW33916   4.587   2.765   4.219  0.1583 -0.0333  0.3565
 7485SOL    HW133917   4.497   2.773   4.186  0.4404 -0.9583 -0.6208
 7485SOL    HW233918   4.555   2.701   4.284 -1.0199 -0.3732 -0.5577
 7486SOL     OW33919   4.204   3.398   5.591  0.1847  0.3272  0.5041
 7486SOL    HW133920   4.295   3.366   5.593 -0.3338 -1.5345 -3.8586
 7486SOL    HW233921   4.195   3.450   5.670  3.1678 -0.4167  1.3583
 7487SOL     OW33922   2.171   4.543   7.902 -0.5167  0.4255 -0.3144
 7487SOL    HW133923   2.113   4.468   7.910  2.9595 -2.4653 -2.3189
 7487SOL    HW233924   2.204   4.554   7.991 -0.1909  3.1148 -0.7438
 7488SOL     OW33925   2.116   4.224  14.391  0.5747 -0.7496 -0.0141
 7488SOL    HW133926   2.082   4.225  14.481 -0.3858 -1.5338 -0.3712
 7488SOL    HW233927   2.044   4.184  14.344  0.9964 -3.1524  1.3678
 7489SOL     OW33928   1.480   3.073   9.946 -0.2469 -0.0670  0.2213
 7489SOL    HW133929   1.423   3.150   9.941 -0.2973 -0.1703 -0.7124
 7489SOL    HW233930   1.415   3.003   9.933 -1.4865  1.3755 -1.3580
 7490SOL     OW33931   1.136   2.661   1.443 -0.3439  0.7234  0.3202
 7490SOL    HW133932   1.194   2.590   1.471  1.3517  0.5518 -3.5233
 7490SOL    HW233933   1.190   2.738   1.458 -2.9927  2.3085  1.6639
 7491SOL     OW33934   3.168   2.368   2.105  0.1226 -0.5552  0.8122
 7491SOL    HW133935   3.146   2.402   2.192 -2.7104 -1.9583  0.6196
 7491SOL    HW233936   3.236   2.431   2.080  1.5953 -3.7852 -3.3483
 7492SOL     OW33937   0.759   4.134   5.964  0.0829  0.0198 -0.3516
 7492SOL    HW133938   0.707   4.061   5.931 -2.0435  1.9416 -1.2499
 7492SOL    HW233939   0.789   4.182   5.887  1.7807 -0.5089 -0.0226
 7493SOL     OW33940   3.956   1.339   2.435  0.1643 -0.1343 -0.0253
 7493SOL    HW133941   3.926   1.376   2.518  1.3062  0.0865  0.2850
 7493SOL    HW233942   3.994   1.259   2.471 -1.4865 -0.8226  0.1957
 7494SOL     OW33943   1.841   0.187   6.159 -0.2202 -0.0078 -0.2452
 7494SOL    HW133944   1.756   0.147   6.142  0.5412 -0.4044 -3.1673
 7494SOL    HW233945   1.836   0.198   6.254 -1.7503 -0.4060 -0.2952
 7495SOL     OW33946   0.853   1.420   6.594 -0.0306  0.4671 -0.2570
 7495SOL    HW133947   0.893   1.433   6.680 -0.7223  0.4249  0.0641
 7495SOL    HW233948   0.929   1.457   6.548  0.5708 -0.2558  0.1382
 7496SOL     OW33949   0.066   2.719   7.358  0.3029  0.4583  0.7285
 7496SOL    HW133950   0.118   2.690   7.432  0.9696 -1.4004 -0.4708
 7496SOL    HW233951   0.064   2.815   7.357  0.1041  0.4458 -1.3237
 7497SOL     OW33952   0.304   3.802   9.934  0.3725 -0.6359  0.6853
 7497SOL    HW133953   0.361   3.813  10.009  1.3913 -0.0049 -0.1785
 7497SOL    HW233954   0.370   3.802   9.864  1.2554  0.4637  1.5400
 7498SOL     OW33955   1.630   3.255   7.505 -0.6938 -0.1006  0.1789
 7498SOL    HW133956   1.535   3.253   7.488 -0.4961 -1.0645 -0.8337
 7498SOL    HW233957   1.646   3.348   7.487  1.3644 -0.4758  0.0726
 7499SOL     OW33958   0.488   2.649   3.182 -0.2334  0.0550  0.9686
 7499SOL    HW133959   0.442   2.701   3.248 -1.2739  0.4036 -0.0297
 7499SOL    HW233960   0.578   2.659   3.212  0.3330 -1.4310 -0.2404
 7500SOL     OW33961   1.132   0.950   6.550 -0.1715  0.7210  0.0797
 7500SOL    HW133962   1.170   0.964   6.637  0.8221 -0.8046 -0.1175
 7500SOL    HW233963   1.078   1.029   6.557  0.0088  0.7753  0.8718
 7501SOL     OW33964   2.307   1.043   4.170 -0.3502  0.3537 -0.8748
 7501SOL    HW133965   2.218   1.056   4.203  0.6609  2.8064  0.9330
 7501SOL    HW233966   2.293   0.966   4.115  0.0828 -1.2899  1.3207
 7502SOL     OW33967   0.177   3.762   6.476 -0.2356  0.1717  0.7240
 7502SOL    HW133968   0.165   3.667   6.477  0.8620  0.0398  0.7809
 7502SOL    HW233969   0.264   3.765   6.515  0.0617  0.2656  0.0463
 7503SOL     OW33970   1.515   3.510  11.723  0.0673  0.0397 -0.1675
 7503SOL    HW133971   1.596   3.486  11.679 -0.1246 -0.3351 -0.3176
 7503SOL    HW233972   1.465   3.429  11.722 -1.4077  0.9838 -2.2268
 7504SOL     OW33973   1.835   1.530   7.837 -0.4372  0.3446 -0.6857
 7504SOL    HW133974   1.872   1.472   7.770  0.9296 -1.1263  1.3306
 7504SOL    HW233975   1.812   1.606   7.784 -2.5607 -0.8414 -1.4864
 7505SOL     OW33976   3.703   3.618   5.793 -0.4149 -0.4221 -0.2155
 7505SOL    HW133977   3.786   3.594   5.835  0.3013  1.6391 -0.4405
 7505SOL    HW233978   3.645   3.627   5.868 -0.1146  2.4228 -0.3239
 7506SOL     OW33979   0.744   2.821   0.740 -0.2117  0.1966 -0.1617
 7506SOL    HW133980   0.825   2.777   0.763 -1.9003 -1.5359  2.4460
 7506SOL    HW233981   0.767   2.838   0.648  0.7938  2.4922  0.5153
 7507SOL     OW33982   0.917   2.527   6.560 -0.0158 -0.1284 -0.2303
 7507SOL    HW133983   1.010   2.549   6.551 -0.2705 -0.1584 -2.8315
 7507SOL    HW233984   0.915   2.441   6.519  0.9613  0.6895 -2.0278
 7508SOL     OW33985   3.015   1.039   7.120 -0.4301 -0.0788  0.2850
 7508SOL    HW133986   3.072   1.116   7.120 -1.2414  0.5282 -0.7500
 7508SOL    HW233987   2.944   1.067   7.062  0.5693 -0.2019 -0.9972
 7509SOL     OW33988   3.352   2.330  11.471 -0.6806 -0.1594 -0.2038
 7509SOL    HW133989   3.265   2.300  11.445 -1.5042  2.0492 -0.0528
 7509SOL    HW233990   3.358   2.416  11.428  0.0343 -0.4609 -0.7057
 7510SOL     OW33991   1.670   0.953   8.993  0.0560 -0.0761  0.1544
 7510SOL    HW133992   1.621   0.886   9.042 -1.3829  1.3014  0.6149
 7510SOL    HW233993   1.759   0.931   9.019  0.2275 -0.9523 -1.2156
 7511SOL     OW33994   3.217   1.255   8.766  0.3119 -0.1005 -0.6392
 7511SOL    HW133995   3.289   1.259   8.830  0.1655 -2.3654 -0.3208
 7511SOL    HW233996   3.140   1.296   8.804  1.1892  0.7727  0.2175
 7512SOL     OW33997   2.700   3.156   1.207 -0.4685  0.3070 -0.2785
 7512SOL    HW133998   2.607   3.175   1.200 -0.5425  0.1795  0.4136
 7512SOL    HW233999   2.730   3.206   1.131 -0.9428  1.0907  0.0617
 7513SOL     OW34000   2.902   3.439   8.828  0.7932 -0.0366 -0.2811
 7513SOL    HW134001   2.980   3.390   8.854  0.1805 -1.4748 -1.1962
 7513SOL    HW234002   2.833   3.382   8.861  0.5555 -1.1475 -2.7016
 7514SOL     OW34003   4.445   1.118   3.809 -0.0296 -0.7442 -0.8523
 7514SOL    HW134004   4.427   1.034   3.850 -0.4123 -1.6590 -2.9019
 7514SOL    HW234005   4.401   1.102   3.725  0.0326 -0.2725 -0.9741
 7515SOL     OW34006   0.261   1.563   6.285  0.1794 -0.7293 -0.1582
 7515SOL    HW134007   0.354   1.584   6.294  0.2566 -1.1694  0.0619
 7515SOL    HW234008   0.260   1.468   6.293  0.7500 -0.6192  1.2117
 7516SOL     OW34009   4.436   2.550  12.801 -0.0935 -0.5018  0.3050
 7516SOL    HW134010   4.365   2.597  12.760 -0.3829 -1.9756 -0.8745
 7516SOL    HW234011   4.499   2.527  12.733  0.7840 -1.9306  1.5754
 7517SOL     OW34012   0.153   4.499   9.152  0.4402  0.0836 -0.3374
 7517SOL    HW134013   0.165   4.496   9.247 -4.1926  0.2664  0.2731
 7517SOL    HW234014   0.235   4.541   9.125  0.3391  1.0886  0.9151
 7518SOL     OW34015   3.429   2.737   5.779  0.0698  0.5268  0.2322
 7518SOL    HW134016   3.352   2.749   5.835 -0.1020  1.7498 -0.2477
 7518SOL    HW234017   3.494   2.695   5.835  0.1203  0.2332 -0.0496
 7519SOL     OW34018   0.463   1.850   4.764  0.3929  0.0988 -0.5052
 7519SOL    HW134019   0.391   1.853   4.826  0.4972  0.6546 -0.4115
 7519SOL    HW234020   0.467   1.941   4.735 -0.1297  0.4942  0.7145
 7520SOL     OW34021   4.528   4.263   4.052  0.0037 -0.2019 -0.5081
 7520SOL    HW134022   4.611   4.263   4.005  0.8120  2.6250  0.9571
 7520SOL    HW234023   4.554   4.308   4.132  0.4259 -0.3421 -0.5677
 7521SOL     OW34024   4.642   0.976   4.294  0.7728 -0.8950  0.2277
 7521SOL    HW134025   4.567   0.926   4.263 -0.4125  1.9373 -1.4428
 7521SOL    HW234026   4.677   1.008   4.211 -1.7111 -0.6130 -0.6858
 7522SOL     OW34027   3.278   2.684   7.528 -0.0165  0.3220  0.0684
 7522SOL    HW134028   3.326   2.737   7.591  2.2105 -1.9660  0.2845
 7522SOL    HW234029   3.197   2.735   7.518 -1.5661 -1.9334  1.0653
 7523SOL     OW34030   3.329   2.906   8.289  0.0059  1.0418  0.3281
 7523SOL    HW134031   3.278   2.933   8.365  0.0856  2.0318  0.0288
 7523SOL    HW234032   3.328   2.990   8.244 -1.2091  0.3362 -0.9592
 7524SOL     OW34033   1.428   2.867   7.810  0.5942  0.1399  0.4476
 7524SOL    HW134034   1.408   2.844   7.901  0.4747 -0.8236  0.1737
 7524SOL    HW234035   1.339   2.889   7.784  1.1293  0.5141 -1.0507
 7525SOL     OW34036   3.215   0.084  16.913  0.2286  0.1132 -0.0998
 7525SOL    HW134037   3.295   0.112  16.869  1.4940 -0.5376  1.8428
 7525SOL    HW234038   3.147   0.108  16.849 -1.9685 -0.8838  1.8640
 7526SOL     OW34039   0.625   3.676   4.421  0.1541  0.1703 -0.0680
 7526SOL    HW134040   0.627   3.724   4.504  0.3118  0.0052  0.0260
 7526SOL    HW234041   0.547   3.712   4.380 -0.1985 -0.2579  0.2405
 7527SOL     OW34042   2.334   0.529   4.773  0.0886 -0.2754  0.4984
 7527SOL    HW134043   2.391   0.604   4.757  0.1863 -0.1942  1.2218
 7527SOL    HW234044   2.273   0.579   4.827 -1.5411 -0.9975 -0.7097
 7528SOL     OW34045   1.875   1.985  11.462 -0.2886  0.0764  0.1417
 7528SOL    HW134046   1.960   1.949  11.439 -0.7828 -2.4048  2.1595
 7528SOL    HW234047   1.841   1.916  11.518  0.5495 -1.7870 -1.6294
 7529SOL     OW34048   1.205   3.568  12.995  0.0733 -0.0332  0.0641
 7529SOL    HW134049   1.146   3.631  13.035 -0.5160 -0.3755 -0.2661
 7529SOL    HW234050   1.265   3.624  12.945  2.6422 -1.3193  1.7185
 7530SOL     OW34051   4.296   1.399   9.873 -0.0519  0.0867  0.0667
 7530SOL    HW134052   4.308   1.327   9.934 -0.1804 -1.8053 -2.1600
 7530SOL    HW234053   4.209   1.431   9.898  0.8244  0.3331  2.7306
 7531SOL     OW34054   0.468   0.591   4.944 -0.1069  0.2858  0.4685
 7531SOL    HW134055   0.506   0.652   5.007  0.5699  1.1582 -0.7914
 7531SOL    HW234056   0.414   0.647   4.888  2.6412  1.3797 -1.0340
 7532SOL     OW34057   4.628   2.487   2.865 -0.1480  0.3048  0.2894
 7532SOL    HW134058   4.702   2.543   2.889 -0.7243  1.7135 -1.1750
 7532SOL    HW234059   4.573   2.557   2.829 -1.5914  0.4214  2.6880
 7533SOL     OW34060   1.346   3.097   7.141  0.9078 -0.2606 -0.2816
 7533SOL    HW134061   1.301   3.182   7.148  0.2545 -0.8804  3.0069
 7533SOL    HW234062   1.363   3.090   7.235 -2.1431 -2.5148  0.0865
 7534SOL     OW34063   4.191   3.825  12.199 -0.1272 -0.1954  0.1785
 7534SOL    HW134064   4.237   3.881  12.262  0.8161  0.7913 -1.4134
 7534SOL    HW234065   4.214   3.748  12.250 -0.9828 -0.5365  0.0533
 7535SOL     OW34066   0.824   2.981   6.927 -0.0605  0.5470 -0.1004
 7535SOL    HW134067   0.812   3.054   6.866 -0.8445  0.3896 -0.1453
 7535SOL    HW234068   0.795   3.033   7.001 -0.8244 -0.1664  0.0985
 7536SOL     OW34069   1.343   1.931   8.346  0.7300  0.3914 -0.1552
 7536SOL    HW134070   1.279   1.945   8.276 -0.2078 -1.3031  0.3394
 7536SOL    HW234071   1.324   2.006   8.403 -0.9338  1.7048 -2.4716
 7537SOL     OW34072   1.036   1.635   1.742  0.4289  0.0560 -0.1925
 7537SOL    HW134073   1.002   1.614   1.654  1.7798  0.7690 -0.8719
 7537SOL    HW234074   0.955   1.665   1.784  0.0122  0.3669 -1.2271
 7538SOL     OW34075   3.881   1.143  14.268 -0.8396  0.0814  0.1015
 7538SOL    HW134076   3.963   1.185  14.240 -2.0188  0.0411 -3.4989
 7538SOL    HW234077   3.816   1.212  14.283 -0.5526  0.3175  0.2513
 7539SOL     OW34078   4.438   0.686   0.941 -0.5488  0.1934 -0.0886
 7539SOL    HW134079   4.490   0.763   0.917  1.1395 -0.2848  2.0580
 7539SOL    HW234080   4.455   0.671   1.034  2.8107  1.0778 -0.5825
 7540SOL     OW34081   3.859   3.527   4.114 -0.6652  0.1747 -0.0282
 7540SOL    HW134082   3.881   3.435   4.098 -1.0350  0.4387 -2.0076
 7540SOL    HW234083   3.906   3.566   4.040  0.0945 -0.2302  0.2327
 7541SOL     OW34084   3.802   0.028   2.632 -0.1829 -0.4326  0.2602
 7541SOL    HW134085   3.838   0.036   2.720 -2.6332 -0.0707  1.2239
 7541SOL    HW234086   3.725   4.696   2.643  0.0784 -0.9710 -0.6696
 7542SOL     OW34087   2.598   1.266  14.796  0.2250  0.2134  0.0290
 7542SOL    HW134088   2.623   1.266  14.889 -3.4308  1.2677  1.0157
 7542SOL    HW234089   2.569   1.356  14.781 -2.9981 -1.0531 -1.3325
 7543SOL     OW34090   0.473   1.543   6.855 -0.3978 -1.0572 -0.3750
 7543SOL    HW134091   0.526   1.465   6.870  0.6965 -0.2643 -0.1025
 7543SOL    HW234092   0.542   1.608   6.868 -1.1135 -0.2584 -0.5528
 7544SOL     OW34093   2.630   1.166  11.773 -0.3325 -0.0545 -0.1593
 7544SOL    HW134094   2.554   1.140  11.826 -1.0692 -1.0042 -1.6778
 7544SOL    HW234095   2.645   1.082  11.730  0.7040  0.2012 -0.2794
 7545SOL     OW34096   0.894   2.154  11.836  0.4765 -0.2450 -0.1267
 7545SOL    HW134097   0.870   2.153  11.928 -1.1389 -0.4130 -0.5527
 7545SOL    HW234098   0.881   2.060  11.837 -1.7274  0.0912  1.2973
 7546SOL     OW34099   0.054   2.845   6.767  0.2816  0.0151  0.0159
 7546SOL    HW134100   0.119   2.800   6.821  0.9749  0.2598 -0.6175
 7546SOL    HW234101   0.030   2.784   6.697  0.5345  0.2498 -0.2763
 7547SOL     OW34102   2.123   3.436   7.677 -0.2294 -0.4249 -0.7168
 7547SOL    HW134103   2.179   3.507   7.645  1.7404 -1.7570 -0.2047
 7547SOL    HW234104   2.094   3.480   7.757  0.3944 -0.5084 -0.4428
 7548SOL     OW34105   1.867   4.609   4.828  0.1290 -0.0930 -0.2005
 7548SOL    HW134106   1.930   4.682   4.831  0.0384 -0.0650  1.1413
 7548SOL    HW234107   1.791   4.652   4.789  0.7907 -0.3498 -1.7542
 7549SOL     OW34108   3.815   4.564   3.215  0.4368  0.2885  0.2001
 7549SOL    HW134109   3.741   4.571   3.155  0.7042 -1.4988 -0.3151
 7549SOL    HW234110   3.825   4.659   3.221 -1.1497  0.4530  0.2333
 7550SOL     OW34111   2.927   0.789  14.289 -0.1518 -0.1009 -0.1769
 7550SOL    HW134112   2.967   0.704  14.309 -1.0954 -0.1487  1.4842
 7550SOL    HW234113   2.916   0.763  14.197  1.6598  0.6398 -0.6071
 7551SOL     OW34114   2.871   1.494   9.716 -0.2759  0.1304  0.0039
 7551SOL    HW134115   2.817   1.571   9.731 -0.4014  0.2418 -1.0337
 7551SOL    HW234116   2.940   1.536   9.664 -0.3353  1.1296  0.7313
 7552SOL     OW34117   0.880   3.469   2.744 -0.0550  0.0904 -0.7205
 7552SOL    HW134118   0.957   3.435   2.699 -0.1841  0.3279 -1.1264
 7552SOL    HW234119   0.893   3.563   2.758 -0.5595 -0.3831  2.9671
 7553SOL     OW34120   3.915   3.909   1.798 -0.3534  0.2290 -0.5263
 7553SOL    HW134121   3.896   3.817   1.820 -0.2675 -0.4664 -3.3747
 7553SOL    HW234122   3.885   3.895   1.708 -0.0274 -0.3654 -0.5482
 7554SOL     OW34123   4.642   2.997   4.916  0.3130  1.0199  0.3195
 7554SOL    HW134124   4.615   2.913   4.952 -0.9699  1.6238  0.7836
 7554SOL    HW234125   4.619   3.050   4.992 -0.8158  0.6877  0.2101
 7555SOL     OW34126   4.480   2.857  12.943  0.0438  0.6617 -0.8492
 7555SOL    HW134127   4.463   2.951  12.932 -0.0906  0.5524 -1.5634
 7555SOL    HW234128   4.522   2.842  12.859 -1.2390  0.6680 -1.5057
 7556SOL     OW34129   0.792   4.329   6.780  0.0310  0.7032  0.3920
 7556SOL    HW134130   0.738   4.316   6.702 -0.4351 -0.5223  0.9229
 7556SOL    HW234131   0.820   4.421   6.774 -0.1982  0.8669  1.8667
 7557SOL     OW34132   1.323   2.479   8.543  0.4720  0.3623 -0.3628
 7557SOL    HW134133   1.269   2.485   8.622 -0.9852  1.6721 -1.4462
 7557SOL    HW234134   1.388   2.546   8.565 -0.6473  0.3497  2.9573
 7558SOL     OW34135   2.299   4.599   5.848  0.4239  0.5934 -0.0141
 7558SOL    HW134136   2.265   4.572   5.934 -2.7551 -0.1296 -1.4853
 7558SOL    HW234137   2.342   4.518   5.823 -0.2882  0.4447 -0.7353
 7559SOL     OW34138   4.654   0.527   6.413  0.2701  0.1541 -0.2980
 7559SOL    HW134139   4.655   0.433   6.396 -0.3660  0.4668 -2.0891
 7559SOL    HW234140   4.577   0.535   6.470  0.7005 -0.2302  0.3407
 7560SOL     OW34141   1.466   1.680  12.901 -0.3339 -0.4664 -0.1470
 7560SOL    HW134142   1.438   1.767  12.928 -0.6828  0.0595 -2.1734
 7560SOL    HW234143   1.476   1.691  12.806  0.7838 -1.5612 -0.1587
 7561SOL     OW34144   1.123   4.319  11.781  0.0392  0.1951 -0.2267
 7561SOL    HW134145   1.187   4.364  11.837 -2.2874  1.0112  1.7753
 7561SOL    HW234146   1.046   4.332  11.835 -0.1313 -1.2101 -0.1281
 7562SOL     OW34147   3.005   1.083   0.363 -0.3025  0.5280 -0.4538
 7562SOL    HW134148   3.062   1.067   0.288  0.7270 -0.0316  0.4423
 7562SOL    HW234149   2.961   1.001   0.386  1.8020 -0.8214 -1.2417
 7563SOL     OW34150   3.061   0.159   7.919 -0.1818 -0.3096 -0.7183
 7563SOL    HW134151   3.154   0.156   7.900  0.3685 -0.3213  1.9591
 7563SOL    HW234152   3.051   0.207   8.001  1.7487 -0.3991 -0.4425
 7564SOL     OW34153   3.090   4.193   6.862 -0.3856  0.0350 -0.0496
 7564SOL    HW134154   3.114   4.195   6.769 -1.2726 -1.0442 -0.2969
 7564SOL    HW234155   3.007   4.242   6.868 -0.2395  0.2230  0.4433
 7565SOL     OW34156   3.049   3.184   1.632  0.1686  0.0599  0.1650
 7565SOL    HW134157   2.971   3.169   1.579 -0.7070  0.8799  1.2235
 7565SOL    HW234158   3.100   3.108   1.604 -0.6762 -0.4916  0.1253
 7566SOL     OW34159   2.552   1.832   0.469  0.1680  0.0811 -0.6372
 7566SOL    HW134160   2.537   1.792   0.555  0.6229 -0.6635 -0.9075
 7566SOL    HW234161   2.469   1.872   0.443  0.5276  0.4177 -1.2553
 7567SOL     OW34162   0.498   4.455  12.600  0.4409  0.7312  0.2306
 7567SOL    HW134163   0.518   4.532  12.547  0.1191  1.0025  0.5063
 7567SOL    HW234164   0.564   4.478  12.665  0.9061 -1.2761  0.4614
 7568SOL     OW34165   4.412   3.303  13.076 -0.0959  0.8026 -0.5027
 7568SOL    HW134166   4.339   3.278  13.020  0.9724 -1.3836 -0.9110
 7568SOL    HW234167   4.424   3.386  13.030 -0.2439  1.2083  0.1775
 7569SOL     OW34168   1.980   4.019   6.518  0.0911 -0.3092 -0.2221
 7569SOL    HW134169   2.074   4.009   6.537  0.6054  1.9966 -1.5644
 7569SOL    HW234170   1.988   4.077   6.443 -0.0058  0.3413  0.2715
 7570SOL     OW34171   0.275   3.342   2.409 -0.0900  0.3577 -0.6499
 7570SOL    HW134172   0.350   3.306   2.363 -1.3030 -2.0219 -0.7662
 7570SOL    HW234173   0.277   3.284   2.485 -0.0781  0.7862 -0.3226
 7571SOL     OW34174   0.451   4.405   2.024 -0.0274 -0.2437 -0.5719
 7571SOL    HW134175   0.437   4.370   1.936  2.9459 -0.1203 -1.1118
 7571SOL    HW234176   0.441   4.323   2.072 -2.0998  0.7828  0.7114
 7572SOL     OW34177   0.074   2.842  12.553 -0.0205 -0.4880 -0.0367
 7572SOL    HW134178   0.131   2.904  12.597  0.8422 -1.5835  0.4038
 7572SOL    HW234179   0.053   2.885  12.470  1.5444 -0.4697 -0.4248
 7573SOL     OW34180   1.536   1.760  10.636 -0.2620  0.2340 -0.3189
 7573SOL    HW134181   1.507   1.790  10.722  2.3122  0.0386  0.6091
 7573SOL    HW234182   1.563   1.843  10.597  0.4814  1.0380  1.8839
 7574SOL     OW34183   0.825   2.470   7.301  0.3206 -0.5554 -0.1662
 7574SOL    HW134184   0.743   2.462   7.350 -0.1453  3.0813 -0.3870
 7574SOL    HW234185   0.804   2.539   7.239 -4.1020 -0.7622  1.1194
 7575SOL     OW34186   2.551   2.742   2.692  0.5015  0.1379 -0.2280
 7575SOL    HW134187   2.518   2.822   2.650 -0.9701 -0.4072 -0.1197
 7575SOL    HW234188   2.551   2.687   2.614  2.0635  2.7025 -2.0492
 7576SOL     OW34189   2.373   1.250  10.788  0.6531 -0.5892  0.3178
 7576SOL    HW134190   2.280   1.270  10.776  0.9450 -1.8447 -4.0314
 7576SOL    HW234191   2.375   1.238  10.883  2.1858 -0.4338  0.3009
 7577SOL     OW34192   0.275   2.115  17.012  0.6440  0.0342 -0.6676
 7577SOL    HW134193   0.306   2.145  16.927  1.8075  0.5607 -0.0481
 7577SOL    HW234194   0.280   2.020  17.005 -1.1640 -0.4607  4.0696
 7578SOL     OW34195   2.543   1.047   8.055  0.0698 -0.0778  0.1320
 7578SOL    HW134196   2.505   1.040   7.967  0.0964 -2.5196  0.3145
 7578SOL    HW234197   2.633   1.016   8.046 -0.2431 -1.3222  1.3376
 7579SOL     OW34198   2.172   0.072   2.914  0.1216 -0.1614 -0.1584
 7579SOL    HW134199   2.127   0.110   2.839 -0.3068  0.7018  0.5319
 7579SOL    HW234200   2.104   0.020   2.956 -0.5502  2.4620  2.0322
 7580SOL     OW34201   4.367   1.700  16.388 -0.1156 -0.3043 -0.3565
 7580SOL    HW134202   4.436   1.740  16.334  0.1674 -1.2088 -0.6561
 7580SOL    HW234203   4.286   1.739  16.354  0.7998  0.8535 -1.2619
 7581SOL     OW34204   2.715   2.548  16.997  0.3808  0.4221 -0.3267
 7581SOL    HW134205   2.654   2.483  17.033  0.3406 -0.0836 -1.3056
 7581SOL    HW234206   2.779   2.552  17.068  0.5294  1.3914 -0.5168
 7582SOL     OW34207   3.274   2.916  13.995 -0.3453 -0.1398  0.0305
 7582SOL    HW134208   3.286   3.000  13.952 -0.7826  0.4673  1.0991
 7582SOL    HW234209   3.341   2.914  14.064 -1.9850  1.0118  1.6489
 7583SOL     OW34210   2.117   0.187   7.638 -0.5064 -0.2621  0.0577
 7583SOL    HW134211   2.095   0.100   7.605 -1.0259  0.6666 -2.0822
 7583SOL    HW234212   2.098   0.182   7.731 -2.3173 -2.0787 -0.4073
 7584SOL     OW34213   0.794   2.676   3.629  0.1770  0.5194  0.2247
 7584SOL    HW134214   0.881   2.710   3.650  1.0716 -1.3399 -0.4454
 7584SOL    HW234215   0.824   2.586   3.614 -2.6922  0.1217 -3.0845
 7585SOL     OW34216   1.122   3.242   2.991  0.5192 -0.3514 -0.2460
 7585SOL    HW134217   1.031   3.261   3.014  0.2322 -0.6968 -1.0767
 7585SOL    HW234218   1.121   3.261   2.897 -1.4534 -0.6466 -0.2972
 7586SOL     OW34219   3.754   0.779  15.473  0.2764  0.0355  1.0867
 7586SOL    HW134220   3.843   0.753  15.497  0.9693  0.0953 -1.3364
 7586SOL    HW234221   3.734   0.847  15.537 -0.2853  0.6816  0.2342
 7587SOL     OW34222   2.847   0.203   3.298 -0.0595 -0.1132 -0.6519
 7587SOL    HW134223   2.819   0.112   3.288 -0.8346 -0.1134  1.6268
 7587SOL    HW234224   2.770   0.243   3.257  1.1741  2.2518 -0.6642
 7588SOL     OW34225   4.181   1.074   9.507 -0.4125  0.3835  0.2408
 7588SOL    HW134226   4.143   0.991   9.536 -1.1843  0.8206  0.4852
 7588SOL    HW234227   4.235   1.095   9.583 -1.4443  2.3088  0.4249
 7589SOL     OW34228   2.913   0.838   0.415  0.1952  0.0131 -0.5929
 7589SOL    HW134229   2.971   0.771   0.379  0.2615 -0.0269 -0.4127
 7589SOL    HW234230   2.863   0.774   0.465  2.2910  0.6104  2.2534
 7590SOL     OW34231   3.770   0.734   9.537 -0.5220 -0.2218  0.1753
 7590SOL    HW134232   3.784   0.670   9.607 -2.5018 -0.2005  0.5823
 7590SOL    HW234233   3.826   0.805   9.570 -2.4822  1.2969  0.2568
 7591SOL     OW34234   1.715   3.009   5.402  0.0591  0.1204  0.4609
 7591SOL    HW134235   1.775   2.941   5.434  0.2103  0.7375  1.4878
 7591SOL    HW234236   1.635   2.956   5.408  0.7067 -1.1281 -1.8649
 7592SOL     OW34237   2.987   2.157   2.235  0.0624  0.4890 -0.2813
 7592SOL    HW134238   2.900   2.193   2.218 -0.2945 -1.3127 -2.3388
 7592SOL    HW234239   3.037   2.178   2.156  1.5075 -2.2499 -0.0899
 7593SOL     OW34240   4.694   0.781   6.519 -0.1476  0.3092 -0.2307
 7593SOL    HW134241   4.672   0.839   6.445 -0.7958 -1.3772 -1.3555
 7593SOL    HW234242   4.681   0.694   6.481 -3.0422 -0.9555  3.6730
 7594SOL     OW34243   4.688   3.539   4.843 -0.2859  0.5411  0.3388
 7594SOL    HW134244   4.625   3.610   4.850 -2.0292 -0.9577 -0.2796
 7594SOL    HW234245   4.633   3.472   4.802  0.4446 -0.2859  0.7226
 7595SOL     OW34246   2.408   1.592  13.454  0.2308  0.4771  0.1512
 7595SOL    HW134247   2.454   1.512  13.481  0.2447  0.8818  1.2954
 7595SOL    HW234248   2.397   1.641  13.536 -1.0193 -0.5997  0.6350
 7596SOL     OW34249   1.516   0.113   3.520  0.1588  0.2632  0.2753
 7596SOL    HW134250   1.549   0.033   3.480 -1.3001  0.1778 -0.7610
 7596SOL    HW234251   1.425   0.082   3.513  0.7854 -1.5514  0.0167
 7597SOL     OW34252   3.297   3.090   5.565  0.0037 -0.1729 -0.0790
 7597SOL    HW134253   3.299   3.146   5.487 -2.2251  0.2496  0.1676
 7597SOL    HW234254   3.227   3.134   5.613  0.7707  0.9328  0.0258
 7598SOL     OW34255   1.677   2.891   1.225 -0.3970 -0.2332  0.1151
 7598SOL    HW134256   1.744   2.948   1.262 -0.0217 -1.3738  1.1893
 7598SOL    HW234257   1.696   2.884   1.132  1.0818  1.7058  0.2909
 7599SOL     OW34258   4.624   1.151   2.371  0.3981  0.0179 -0.9502
 7599SOL    HW134259   4.539   1.108   2.364  0.1660  0.3122 -0.0701
 7599SOL    HW234260   4.683   1.080   2.345  0.5178 -0.2458  0.0383
 7600SOL     OW34261   3.540   4.241  14.245  0.1608  0.4507  0.0418
 7600SOL    HW134262   3.620   4.288  14.270 -0.5342  0.3080  2.5676
 7600SOL    HW234263   3.553   4.222  14.152  2.2039 -1.0549  0.6275
 7601SOL     OW34264   4.522   0.221   0.695 -0.2056 -0.2119  0.7103
 7601SOL    HW134265   4.496   0.242   0.784  0.3313  0.2404  0.7595
 7601SOL    HW234266   4.529   0.126   0.685 -0.1244 -0.1847  0.5044
 7602SOL     OW34267   3.655   1.340   4.114  0.0995  0.4560 -0.0481
 7602SOL    HW134268   3.731   1.379   4.071  1.8929 -1.1837  1.5889
 7602SOL    HW234269   3.682   1.250   4.134  0.0695  1.0514  2.7025
 7603SOL     OW34270   2.562   1.991   0.213 -0.5954 -0.2119  0.3299
 7603SOL    HW134271   2.611   1.988   0.131 -1.6356  3.7816 -0.4355
 7603SOL    HW234272   2.627   1.955   0.272 -0.6507  1.0694  1.1717
 7604SOL     OW34273   3.188   1.995   9.607  0.0599 -0.2185 -0.0546
 7604SOL    HW134274   3.097   2.015   9.585  0.2267 -1.1024 -1.5609
 7604SOL    HW234275   3.202   1.922   9.546 -2.1526 -0.1705 -0.6220
 7605SOL     OW34276   3.830   4.623   4.270 -0.3429 -0.4013 -0.6475
 7605SOL    HW134277   3.838   4.527   4.265  0.3159 -0.4812  1.6631
 7605SOL    HW234278   3.851   4.633   4.177 -3.1261 -1.1300 -1.3426
 7606SOL     OW34279   3.190   2.875   0.689 -0.0096  0.2164 -0.2373
 7606SOL    HW134280   3.107   2.864   0.737  1.3946 -1.9407  1.6772
 7606SOL    HW234281   3.261   2.884   0.752 -0.0432 -0.2892 -0.1263
 7607SOL     OW34282   0.751   3.244   6.332 -0.0720 -0.0404 -0.5014
 7607SOL    HW134283   0.827   3.189   6.312  0.1076 -0.5188  1.4988
 7607SOL    HW234284   0.685   3.184   6.298  2.1131 -1.8219 -1.5467
 7608SOL     OW34285   1.192   4.195  13.696 -0.1316 -0.1446 -0.3865
 7608SOL    HW134286   1.223   4.253  13.626  0.0487  0.2613  0.0324
 7608SOL    HW234287   1.258   4.125  13.695  0.7189  0.6450  0.1303
 7609SOL     OW34288   1.253   1.314   6.070 -0.0167  0.0795  0.6265
 7609SOL    HW134289   1.215   1.255   6.005  0.6938 -0.1669  0.4382
 7609SOL    HW234290   1.246   1.397   6.024  2.0200 -0.0559  0.0822
 7610SOL     OW34291   3.496   0.295   2.575  0.2703  0.1264 -0.5126
 7610SOL    HW134292   3.402   0.306   2.593  0.4249 -0.8827  0.9252
 7610SOL    HW234293   3.500   0.250   2.491  1.9462  1.2841 -1.0647
 7611SOL     OW34294   2.308   1.010  17.292 -0.1625  0.0194 -0.7419
 7611SOL    HW134295   2.293   1.062  17.214  1.1066  0.3025 -0.7960
 7611SOL    HW234296   2.402   0.995  17.280  0.2635  0.3205  2.0922
 7612SOL     OW34297   2.537   2.247   6.506 -0.3710 -0.1512  0.3077
 7612SOL    HW134298   2.564   2.185   6.438 -0.4450 -0.0603  0.1961
 7612SOL    HW234299   2.513   2.184   6.574  1.2884  1.4640  2.3559
 7613SOL     OW34300   0.687   4.335   3.090  0.1944  0.3602  0.2777
 7613SOL    HW134301   0.740   4.309   3.164 -1.3804 -4.5952 -0.3263
 7613SOL    HW234302   0.613   4.360   3.145 -1.5552 -2.2376 -0.8589
 7614SOL     OW34303   3.376   1.933   4.738  0.5572  0.5410 -0.3529
 7614SOL    HW134304   3.393   1.866   4.672  0.1267  0.1772 -0.0968
 7614SOL    HW234305   3.337   1.880   4.807 -0.9234  2.1584  0.0718
 7615SOL     OW34306   4.522   0.629   6.900 -0.0667  0.1405  0.1517
 7615SOL    HW134307   4.587   0.695   6.925  1.6620 -1.2258 -0.7844
 7615SOL    HW234308   4.580   0.567   6.857 -0.9843 -0.5661 -0.0645
 7616SOL     OW34309   0.271   2.873   8.708  0.9081  0.4120  0.3148
 7616SOL    HW134310   0.205   2.942   8.719 -1.4138 -1.2489 -3.4006
 7616SOL    HW234311   0.216   2.807   8.666  2.4638 -2.0384  2.1308
 7617SOL     OW34312   2.401   3.879   2.122  0.0302 -0.1438 -1.2205
 7617SOL    HW134313   2.416   3.952   2.061  0.4697  2.2889  1.7804
 7617SOL    HW234314   2.483   3.831   2.117 -0.3397 -0.7859 -1.1155
 7618SOL     OW34315   4.541   0.989   5.173  0.0658  0.2415 -0.6609
 7618SOL    HW134316   4.498   0.904   5.185  1.6392 -0.3155  1.0160
 7618SOL    HW234317   4.505   1.035   5.249 -0.9458  0.3873 -1.2289
 7619SOL     OW34318   2.952   4.642   8.039 -0.7840  0.4953 -0.1684
 7619SOL    HW134319   3.009   4.715   8.014 -0.4394  0.6330  1.0266
 7619SOL    HW234320   2.949   4.643   8.135 -1.9984 -3.4837 -0.1488
 7620SOL     OW34321   1.755   0.251  12.151  0.1230 -0.3550  0.0679
 7620SOL    HW134322   1.810   0.188  12.104  2.3804  1.6456  0.0194
 7620SOL    HW234323   1.809   0.330  12.161  4.1627 -3.0043 -1.2278
 7621SOL     OW34324   4.275   0.026   6.873  0.2563  0.8340 -0.4788
 7621SOL    HW134325   4.198   0.012   6.818  0.7052  0.7552 -1.0884
 7621SOL    HW234326   4.243   4.709   6.952  1.1939 -0.9832 -1.0380
 7622SOL     OW34327   4.271   0.790   6.451 -0.4071  0.0229 -0.5136
 7622SOL    HW134328   4.234   0.875   6.471  1.3152  0.8947 -0.9788
 7622SOL    HW234329   4.316   0.802   6.367  1.3985 -0.7753  0.3270
 7623SOL     OW34330   3.198   2.956   6.103  0.0404  0.0815 -0.9460
 7623SOL    HW134331   3.268   3.003   6.057 -1.5655  1.1723 -2.2666
 7623SOL    HW234332   3.187   3.031   6.160 -0.5360  0.5812 -1.7117
 7624SOL     OW34333   2.883   2.775  16.498 -0.0524 -0.5578 -0.9018
 7624SOL    HW134334   2.938   2.698  16.515 -0.5796 -0.4654  1.3055
 7624SOL    HW234335   2.798   2.738  16.523  0.5945 -0.7636  1.0582
 7625SOL     OW34336   3.462   2.548   3.388 -0.2309  0.0770 -0.5579
 7625SOL    HW134337   3.467   2.630   3.437  0.2834 -0.3865  0.1634
 7625SOL    HW234338   3.555   2.525   3.385  0.1602  1.6458 -0.6397
 7626SOL     OW34339   0.201   1.863   0.267  0.2299  0.8364  0.1727
 7626SOL    HW134340   0.228   1.943   0.222 -2.0686  1.7580  0.4760
 7626SOL    HW234341   0.196   1.801   0.194 -0.4476  1.0495  0.0374
 7627SOL     OW34342   3.314   4.153   4.713  0.5936 -0.2835 -0.5454
 7627SOL    HW134343   3.220   4.142   4.699  0.7488 -1.6705 -0.4243
 7627SOL    HW234344   3.314   4.145   4.809  1.1762  0.7042 -0.4569
 7628SOL     OW34345   1.533   1.633   9.800  0.6493 -0.0972 -0.0682
 7628SOL    HW134346   1.583   1.674   9.871 -0.0040  0.3044  0.1586
 7628SOL    HW234347   1.511   1.709   9.747  1.0701  0.3729  0.4374
 7629SOL     OW34348   1.922   1.826   3.025  0.0384  0.3323  0.3554
 7629SOL    HW134349   1.830   1.821   3.001 -0.3518  2.7277  1.3072
 7629SOL    HW234350   1.951   1.904   2.977 -1.2305  0.3818 -0.3439
 7630SOL     OW34351   2.928   0.985   9.437 -0.1055  0.4444 -0.8228
 7630SOL    HW134352   2.960   0.997   9.348  1.0133  1.3500 -0.2948
 7630SOL    HW234353   2.905   1.076   9.459  0.6115  0.6442 -0.9253
 7631SOL     OW34354   1.208   2.090  12.549 -1.0477  0.1908 -0.1754
 7631SOL    HW134355   1.298   2.104  12.577 -0.8914 -3.6059  1.1887
 7631SOL    HW234356   1.226   2.014  12.493  2.5786 -0.9300  2.5281
 7632SOL     OW34357   0.483   1.120  12.956  0.0426  0.0055  0.0852
 7632SOL    HW134358   0.532   1.045  12.922  0.3591  0.5310 -0.6402
 7632SOL    HW234359   0.541   1.188  12.923  0.1348 -0.6492 -1.1091
 7633SOL     OW34360   3.225   3.853   8.421  0.2267 -0.3062  0.1804
 7633SOL    HW134361   3.188   3.941   8.415 -2.2418 -1.5379 -2.2260
 7633SOL    HW234362   3.228   3.833   8.515 -0.0851  0.3676  0.3325
 7634SOL     OW34363   0.740   0.873   8.026 -0.4380  0.3648  0.0456
 7634SOL    HW134364   0.746   0.953   8.078 -0.8253  1.5817 -1.7702
 7634SOL    HW234365   0.733   0.808   8.096 -1.8077  0.6326  0.1473
 7635SOL     OW34366   2.670   1.104   8.534  0.0075  0.1897  0.3272
 7635SOL    HW134367   2.699   1.012   8.538  0.1186  0.0820 -2.7825
 7635SOL    HW234368   2.667   1.118   8.440 -1.0265 -2.5631 -0.0699
 7636SOL     OW34369   2.630   2.859   0.162 -0.1511  0.0411 -0.0721
 7636SOL    HW134370   2.589   2.917   0.227 -1.8585 -3.3679  1.9016
 7636SOL    HW234371   2.580   2.779   0.179  0.1617  0.3450  2.3498
 7637SOL     OW34372   2.683   1.904   6.733  0.2794 -0.6238 -0.5435
 7637SOL    HW134373   2.694   1.827   6.789 -0.1677 -0.4321 -0.1947
 7637SOL    HW234374   2.774   1.921   6.710  0.5169 -0.0578  0.8729
 7638SOL     OW34375   4.628   4.263   6.294 -0.5496 -0.5880 -0.0991
 7638SOL    HW134376   4.697   4.291   6.234 -0.6209 -0.9326 -0.3364
 7638SOL    HW234377   4.565   4.335   6.296  0.5291  0.3729 -0.6310
 7639SOL     OW34378   0.547   1.276   4.561  0.6716 -0.3366 -0.3678
 7639SOL    HW134379   0.600   1.210   4.605  1.3147  0.9677  0.8136
 7639SOL    HW234380   0.516   1.226   4.485 -0.8219  0.0408 -0.0137
 7640SOL     OW34381   3.954   2.996   3.467 -0.3335 -0.4376 -0.0987
 7640SOL    HW134382   3.903   2.996   3.548  0.5793  0.5382  0.4844
 7640SOL    HW234383   4.022   2.938   3.502  0.0009 -0.7948 -1.3315
 7641SOL     OW34384   0.722   2.339   7.814  0.5138 -0.2732  0.0089
 7641SOL    HW134385   0.718   2.256   7.767  0.4553  1.2878 -2.7098
 7641SOL    HW234386   0.803   2.376   7.779  0.0299  1.4809  0.6991
 7642SOL     OW34387   4.339   1.853   3.375 -0.4031 -0.6213 -0.0356
 7642SOL    HW134388   4.277   1.921   3.348  1.4572  0.7624 -0.7840
 7642SOL    HW234389   4.405   1.841   3.307  0.6246  1.6287  0.5706
 7643SOL     OW34390   1.982   3.119  15.538  0.0383  0.2744  0.0460
 7643SOL    HW134391   2.022   3.203  15.559  0.9419  0.1529 -1.2094
 7643SOL    HW234392   2.064   3.078  15.511  2.1905  3.9682  0.9529
 7644SOL     OW34393   1.503   0.931   2.421 -0.0090  0.0275 -0.2474
 7644SOL    HW134394   1.503   1.017   2.380 -0.4661 -0.4079 -1.1586
 7644SOL    HW234395   1.567   0.887   2.365 -1.9544 -1.4700 -1.3134
 7645SOL     OW34396   2.250   0.289   8.450  0.1952  0.1724 -0.1967
 7645SOL    HW134397   2.158   0.283   8.477 -0.4312  0.9854 -2.1821
 7645SOL    HW234398   2.283   0.203   8.475 -0.4685 -0.6601 -2.2256
 7646SOL     OW34399   1.529   2.281  13.554  0.4865  0.4830 -0.2984
 7646SOL    HW134400   1.436   2.296  13.572 -0.0956 -1.5546 -1.7239
 7646SOL    HW234401   1.565   2.269  13.642 -1.4595  0.5403  0.5209
 7647SOL     OW34402   2.106   1.394   6.112 -0.3053  0.1083  0.6119
 7647SOL    HW134403   2.078   1.388   6.021  0.4700  2.9235  0.1950
 7647SOL    HW234404   2.048   1.459   6.153  1.0629  2.0897 -0.6056
 7648SOL     OW34405   1.666   3.665   4.713 -0.5465 -0.0994  0.3467
 7648SOL    HW134406   1.687   3.593   4.772  0.0842 -0.1266  0.0913
 7648SOL    HW234407   1.580   3.633   4.686 -0.3748 -1.7026  1.7359
 7649SOL     OW34408   4.650   1.794   0.066 -0.4105  0.3496  0.5353
 7649SOL    HW134409   4.576   1.826   0.015  0.9544 -0.5178 -1.9912
 7649SOL    HW234410   4.720   1.856   0.043 -1.8919  1.9743  0.4235
 7650SOL     OW34411   2.447   0.553  16.236 -0.4776 -0.0882  0.4780
 7650SOL    HW134412   2.384   0.616  16.270 -0.3117  0.3187  0.0224
 7650SOL    HW234413   2.380   0.492  16.204 -1.5257  1.2529  0.1004
 7651SOL     OW34414   0.796   2.213   4.482  0.1277 -0.4871 -0.2329
 7651SOL    HW134415   0.761   2.130   4.448  2.4589 -1.0379 -1.3097
 7651SOL    HW234416   0.721   2.242   4.534 -0.3519 -3.1768  0.6082
 7652SOL     OW34417   1.164   1.806  12.763 -0.0764 -0.1924  0.2632
 7652SOL    HW134418   1.253   1.785  12.734  0.0132 -1.4190  1.4296
 7652SOL    HW234419   1.158   1.755  12.844 -0.3130  0.7853  0.8600
 7653SOL     OW34420   0.084   4.083  15.011 -0.2643 -0.0236 -0.1640
 7653SOL    HW134421   0.153   4.132  15.057 -0.7561  0.2495  0.2867
 7653SOL    HW234422   0.060   4.023  15.081 -0.1988  1.6143  1.2727
 7654SOL     OW34423   2.928   3.372  11.847  0.8655  0.0338 -0.5750
 7654SOL    HW134424   2.878   3.301  11.888  3.9571 -2.4443 -1.1050
 7654SOL    HW234425   2.965   3.412  11.925  2.6969  0.2332 -1.5570
 7655SOL     OW34426   0.292   2.369  12.060 -0.2390 -0.2592 -0.5360
 7655SOL    HW134427   0.387   2.379  12.051 -0.1705 -0.2342  0.2918
 7655SOL    HW234428   0.271   2.345  11.969 -1.5040  0.8528 -0.5375
 7656SOL     OW34429   2.334   1.439   1.674 -0.3896  0.1042  0.3115
 7656SOL    HW134430   2.395   1.366   1.663 -1.4512 -0.5732 -1.1110
 7656SOL    HW234431   2.366   1.492   1.601 -1.7253 -0.3025 -0.5626
 7657SOL     OW34432   2.900   2.506   2.867  0.4766  0.0304  0.2528
 7657SOL    HW134433   2.975   2.507   2.807  0.9103  1.4783  0.8316
 7657SOL    HW234434   2.945   2.473   2.945 -0.7607  1.4487  1.5516
 7658SOL     OW34435   0.977   1.956   5.896  0.6030 -0.1570  0.1292
 7658SOL    HW134436   1.006   2.013   5.824 -0.3382  0.7406  0.4679
 7658SOL    HW234437   0.937   2.012   5.963 -1.6607  0.4545 -1.7455
 7659SOL     OW34438   0.599   2.652   1.437 -0.0862 -0.4334 -0.2373
 7659SOL    HW134439   0.659   2.614   1.373  0.3185  2.3020 -1.4866
 7659SOL    HW234440   0.623   2.604   1.516 -2.6243 -1.1301  0.1093
 7660SOL     OW34441   1.234   0.767  11.514  0.4216  0.1015  0.3219
 7660SOL    HW134442   1.139   0.754  11.520  0.3196 -0.3461 -2.2336
 7660SOL    HW234443   1.249   0.817  11.433  0.5794 -2.5230 -1.2856
 7661SOL     OW34444   3.749   0.016   8.423 -0.4214 -0.8757  0.3216
 7661SOL    HW134445   3.769   0.100   8.381 -0.7059 -1.0814 -0.2318
 7661SOL    HW234446   3.801   0.004   8.502 -0.7119 -1.4714  0.4312
 7662SOL     OW34447   4.197   2.210   6.483 -0.8840  0.4203  0.1731
 7662SOL    HW134448   4.252   2.151   6.535 -1.3041  0.2918  0.4760
 7662SOL    HW234449   4.158   2.243   6.565 -1.9184  1.6881 -0.8197
 7663SOL     OW34450   2.351   2.148  11.405  0.4287 -0.0489  0.7131
 7663SOL    HW134451   2.367   2.140  11.499  1.3783  0.1452  0.5628
 7663SOL    HW234452   2.259   2.175  11.405  0.2066 -0.8089  2.4113
 7664SOL     OW34453   0.367   1.140   5.547 -0.0741 -0.5758 -0.9612
 7664SOL    HW134454   0.305   1.212   5.536  0.3990 -0.3659 -2.2737
 7664SOL    HW234455   0.306   1.067   5.556 -0.9152 -0.0376 -2.1997
 7665SOL     OW34456   0.386   2.032  17.257  0.4282 -0.0504 -0.2529
 7665SOL    HW134457   0.334   2.069  17.185 -0.6375  0.7182  0.9182
 7665SOL    HW234458   0.451   2.101  17.273 -1.6938  1.8539  0.1992
 7666SOL     OW34459   3.098   4.312  16.919  0.1521 -0.6283  0.0432
 7666SOL    HW134460   3.133   4.381  16.977  0.9834 -2.5103  1.7726
 7666SOL    HW234461   3.092   4.369  16.842  0.6139 -0.9718 -0.2426
 7667SOL     OW34462   0.545   1.341   5.799  0.2573 -0.4995  0.3090
 7667SOL    HW134463   0.593   1.379   5.725  0.5053 -2.2877 -0.4611
 7667SOL    HW234464   0.572   1.405   5.864  0.0540 -1.0587  0.9461
 7668SOL     OW34465   1.545   2.831  11.149 -0.4760  0.3615 -0.1056
 7668SOL    HW134466   1.479   2.844  11.080  0.8949  2.0820 -1.0931
 7668SOL    HW234467   1.547   2.736  11.154  0.2795  0.4204  0.8091
 7669SOL     OW34468   4.427   1.742   5.252 -0.0595 -0.4715 -0.7153
 7669SOL    HW134469   4.413   1.648   5.245 -0.6706 -0.4597  0.3193
 7669SOL    HW234470   4.471   1.741   5.337  0.1307 -0.2562 -0.8094
 7670SOL     OW34471   4.233   1.174   2.421 -0.3882  0.1158  0.0299
 7670SOL    HW134472   4.287   1.126   2.359 -2.2590 -2.2845  0.2660
 7670SOL    HW234473   4.176   1.109   2.462  1.1831  0.1325  2.2627
 7671SOL     OW34474   1.260   2.696   2.492  0.3668  0.5161  0.2100
 7671SOL    HW134475   1.172   2.730   2.510 -0.2429 -0.6269 -0.5808
 7671SOL    HW234476   1.294   2.696   2.581 -0.8000 -0.8131  0.6676
 7672SOL     OW34477   4.417   2.342   4.614  0.1577  0.8889 -0.2082
 7672SOL    HW134478   4.339   2.379   4.655  0.1735  0.9642 -0.2470
 7672SOL    HW234479   4.472   2.324   4.690  1.0375 -0.2692 -1.1032
 7673SOL     OW34480   2.273   4.262  13.654  0.2754  0.0903  0.2129
 7673SOL    HW134481   2.287   4.212  13.735  0.9804  0.6317  0.4356
 7673SOL    HW234482   2.178   4.254  13.648  0.2966  0.2727 -0.2960
 7674SOL     OW34483   0.777   0.138   4.857 -0.3260  0.3991 -0.1172
 7674SOL    HW134484   0.868   0.140   4.827 -0.4033  0.2393 -0.3651
 7674SOL    HW234485   0.772   0.233   4.871  1.3064 -0.0240  3.2850
 7675SOL     OW34486   3.756   0.450  16.004 -0.1370 -0.3301 -0.1060
 7675SOL    HW134487   3.748   0.374  16.061  3.2683 -1.7831 -1.5332
 7675SOL    HW234488   3.708   0.429  15.924 -1.1882  0.0063  0.4342
 7676SOL     OW34489   3.647   1.802   6.330  0.5197  0.3892  0.6179
 7676SOL    HW134490   3.716   1.752   6.286 -0.3565  0.3447 -0.7191
 7676SOL    HW234491   3.677   1.892   6.318 -2.6343  1.4527  0.6220
 7677SOL     OW34492   1.115   3.806   8.302 -0.6578  0.5287  0.4189
 7677SOL    HW134493   1.055   3.879   8.297 -0.8964  0.1393 -2.7355
 7677SOL    HW234494   1.083   3.768   8.384 -1.0518  0.9772  0.4679
 7678SOL     OW34495   0.433   1.538  16.351 -0.3262 -0.3431 -0.1353
 7678SOL    HW134496   0.514   1.588  16.362  0.2693 -1.3567  0.0912
 7678SOL    HW234497   0.436   1.483  16.429 -0.7823  0.4066  0.4036
 7679SOL     OW34498   4.628   3.869   5.505 -0.1998  0.0145  0.6046
 7679SOL    HW134499   4.533   3.858   5.508 -0.1600 -1.3600 -2.4260
 7679SOL    HW234500   4.638   3.960   5.533  1.3220 -0.3411  1.2378
 7680SOL     OW34501   1.069   1.093   7.656  0.2214 -0.1112 -0.6154
 7680SOL    HW134502   1.041   1.116   7.745 -1.1502  0.9881 -1.3283
 7680SOL    HW234503   1.050   1.001   7.669  0.5807 -0.2525 -1.0911
 7681SOL     OW34504   3.173   2.567   3.793 -0.3973  0.2374  0.2605
 7681SOL    HW134505   3.189   2.491   3.737 -0.8984  0.7988 -0.6421
 7681SOL    HW234506   3.259   2.608   3.790  0.0196 -0.4207  2.9065
 7682SOL     OW34507   1.081   4.689   3.809 -0.2369 -0.5191  0.0139
 7682SOL    HW134508   1.119   0.032   3.865 -3.0663 -0.4755  1.8838
 7682SOL    HW234509   1.145   4.678   3.739  0.4542 -0.7585  0.6816
 7683SOL     OW34510   0.385   0.325  11.806 -0.0025  0.2663 -0.6119
 7683SOL    HW134511   0.368   0.256  11.870 -1.5659  1.2543  0.0373
 7683SOL    HW234512   0.468   0.348  11.849 -0.6149 -2.1183  1.9180
 7684SOL     OW34513   1.185   0.860   1.867 -0.1789 -0.2089 -0.0660
 7684SOL    HW134514   1.159   0.801   1.937  0.9684 -0.4204  0.1804
 7684SOL    HW234515   1.254   0.901   1.918 -1.2199  1.4542  0.0121
 7685SOL     OW34516   0.158   2.092   9.211  0.2597 -0.2315  0.4324
 7685SOL    HW134517   0.079   2.066   9.163 -0.2963  0.7659  0.7921
 7685SOL    HW234518   0.176   2.004   9.244 -2.3233 -0.5204  1.1151
 7686SOL     OW34519   3.492   0.573   3.161 -0.0828  0.0641 -0.1456
 7686SOL    HW134520   3.422   0.596   3.222  0.5909  2.2957 -0.2194
 7686SOL    HW234521   3.449   0.503   3.112  1.5446 -0.7767 -0.4025
 7687SOL     OW34522   1.475   0.968  15.462 -0.3226  0.6998  0.1439
 7687SOL    HW134523   1.520   0.972  15.377  0.1939  2.1661  0.4900
 7687SOL    HW234524   1.546   0.970  15.526 -1.6085  0.1125  1.5892
 7688SOL     OW34525   2.547   4.142   0.499  0.2266 -0.3245 -0.2962
 7688SOL    HW134526   2.625   4.088   0.491 -0.3218 -0.9472 -1.4080
 7688SOL    HW234527   2.483   4.074   0.478 -0.5744  0.3363  0.0156
 7689SOL     OW34528   0.038   2.253   7.086 -0.5008  0.0846 -0.1325
 7689SOL    HW134529   4.685   2.202   7.108 -2.1361  2.1980 -0.9448
 7689SOL    HW234530   0.084   2.189   7.031 -2.1226  1.1889 -2.7972
 7690SOL     OW34531   2.910   1.696   1.088  0.4951  0.6674  0.3079
 7690SOL    HW134532   2.934   1.783   1.120  0.3660  1.5806 -2.0123
 7690SOL    HW234533   2.923   1.709   0.994  0.2851 -0.2944  0.1494
 7691SOL     OW34534   4.074   2.753   8.392 -0.1432  0.3978 -0.6831
 7691SOL    HW134535   4.038   2.708   8.468 -1.0406  1.4267 -0.4968
 7691SOL    HW234536   4.052   2.678   8.336 -0.2593 -0.9222  1.1354
 7692SOL     OW34537   1.223   1.941   2.594  0.0365 -0.1315 -0.0693
 7692SOL    HW134538   1.252   2.030   2.575 -1.3686  0.5943  1.1447
 7692SOL    HW234539   1.305   1.894   2.587  1.4193  1.9728  2.1252
 7693SOL     OW34540   3.597   2.230  14.293 -1.2256 -0.4381  0.2498
 7693SOL    HW134541   3.572   2.210  14.383  0.1743  1.7398  1.1183
 7693SOL    HW234542   3.657   2.300  14.316 -1.3091 -0.3603  0.2301
 7694SOL     OW34543   0.717   0.753   4.621  0.4630 -0.6036 -0.4681
 7694SOL    HW134544   0.740   0.811   4.694 -0.0940 -1.8798  0.7407
 7694SOL    HW234545   0.802   0.718   4.593 -1.2279 -1.8502 -3.8985
 7695SOL     OW34546   0.867   2.984   6.616 -0.5061 -0.4801  0.0750
 7695SOL    HW134547   0.961   2.971   6.614 -0.0358  2.8895  1.0576
 7695SOL    HW234548   0.832   2.901   6.583 -2.2313 -0.0364  0.7624
 7696SOL     OW34549   1.440   0.905   5.485 -0.3784  0.0685  0.1615
 7696SOL    HW134550   1.450   0.978   5.546  1.2981  0.1280 -0.1790
 7696SOL    HW234551   1.364   0.913   5.427  1.3737  2.5592 -1.7783
 7697SOL     OW34552   3.401   0.609   0.999  0.0031  0.3524  0.5870
 7697SOL    HW134553   3.307   0.616   1.016 -0.3323  0.6870 -1.3422
 7697SOL    HW234554   3.422   0.536   1.057 -0.3012  0.6740  1.0968
 7698SOL     OW34555   3.441   4.649   9.067  0.3665  0.2248 -0.1431
 7698SOL    HW134556   3.356   4.611   9.091  0.5587 -0.4486 -0.5231
 7698SOL    HW234557   3.467   4.597   8.991  1.3882  0.4991  0.0244
 7699SOL     OW34558   3.453   1.099   3.614  0.2361  0.2930  0.4827
 7699SOL    HW134559   3.531   1.126   3.662  0.5844 -0.2503  0.2260
 7699SOL    HW234560   3.481   1.034   3.549 -2.1901  1.2461 -1.5295
 7700SOL     OW34561   2.852   0.790  16.715 -0.4639 -0.7501  0.3017
 7700SOL    HW134562   2.806   0.808  16.633  1.2963 -0.1124 -0.5392
 7700SOL    HW234563   2.920   0.733  16.681 -0.5741  0.0577 -1.2963
 7701SOL     OW34564   0.344   0.756   8.288 -0.0339  0.5061 -0.0368
 7701SOL    HW134565   0.337   0.715   8.202 -0.9795  0.1488  0.2146
 7701SOL    HW234566   0.356   0.678   8.342 -2.8891 -0.1436 -0.3773
 7702SOL     OW34567   4.582   3.072  13.175  0.5101  0.0301 -0.3891
 7702SOL    HW134568   4.525   3.146  13.154 -1.9537 -1.1881  2.0652
 7702SOL    HW234569   4.660   3.120  13.202  1.4560 -1.5689 -0.2304
 7703SOL     OW34570   4.033   4.685   5.103  0.1873 -0.5350  0.3044
 7703SOL    HW134571   4.068   4.605   5.064  1.6759 -0.6017  1.7847
 7703SOL    HW234572   4.096   0.023   5.065  1.0070 -0.9730  0.9544
 7704SOL     OW34573   3.212   0.591   2.806 -0.8161  0.1160  0.0867
 7704SOL    HW134574   3.132   0.600   2.754 -0.1296  1.2847 -0.7438
 7704SOL    HW234575   3.179   0.527   2.870 -1.6058  0.2884 -0.1505
 7705SOL     OW34576   3.660   3.418   6.888  0.2976 -0.1654 -0.0500
 7705SOL    HW134577   3.570   3.415   6.921 -0.1032 -2.3086 -1.3562
 7705SOL    HW234578   3.713   3.391   6.963 -1.6482 -0.0078  1.3693
 7706SOL     OW34579   4.191   2.109   7.974 -0.6033  0.0064  0.0533
 7706SOL    HW134580   4.207   2.024   8.014  0.3862  1.3507  2.5564
 7706SOL    HW234581   4.282   2.129   7.950 -0.8207  1.0858  0.1061
 7707SOL     OW34582   2.188   2.112   0.007  0.3100 -0.1409  0.9274
 7707SOL    HW134583   2.155   2.023  17.697  2.2054 -0.8114  0.5197
 7707SOL    HW234584   2.120   2.164  17.664  0.7363 -0.6912 -0.4109
 7708SOL     OW34585   0.541   0.476   5.919 -0.2323  0.0862 -0.0958
 7708SOL    HW134586   0.519   0.565   5.948  2.5687  0.1569  1.8203
 7708SOL    HW234587   0.536   0.483   5.824  0.6996 -1.3287 -0.2473
 7709SOL     OW34588   2.406   0.424   8.037 -0.0273 -0.0781  0.7841
 7709SOL    HW134589   2.352   0.435   8.116  0.0193 -2.7190  1.1755
 7709SOL    HW234590   2.401   0.509   7.994  1.1811 -0.8152 -0.8051
 7710SOL     OW34591   0.828   2.980  14.487 -0.0008 -0.0706  0.3801
 7710SOL    HW134592   0.782   3.018  14.412 -0.3609 -1.5980 -0.1735
 7710SOL    HW234593   0.813   3.039  14.560 -0.0342 -0.4631  0.6869
 7711SOL     OW34594   3.308   0.377   3.098  0.8112  0.3575  0.1638
 7711SOL    HW134595   3.232   0.335   3.138  0.2373 -0.4848 -1.8198
 7711SOL    HW234596   3.357   0.299   3.070 -1.5740 -0.0835 -2.7520
 7712SOL     OW34597   1.669   4.036   3.055  0.2005  0.1105 -0.5434
 7712SOL    HW134598   1.715   4.117   3.074 -0.7548  0.7376 -0.8771
 7712SOL    HW234599   1.633   4.014   3.141  0.6859  2.9335  0.3799
 7713SOL     OW34600   0.773   3.639   4.868  0.0020  0.3378  0.0824
 7713SOL    HW134601   0.817   3.667   4.948 -0.3993  0.3729  0.2897
 7713SOL    HW234602   0.689   3.624   4.911 -1.7790 -1.4914 -3.9716
 7714SOL     OW34603   2.144   1.311   8.143 -0.2655  0.1469 -0.2004
 7714SOL    HW134604   2.136   1.241   8.077  0.1528  0.8096 -0.9471
 7714SOL    HW234605   2.066   1.365   8.127  0.7809  2.4397  2.5708
 7715SOL     OW34606   2.089   2.093   8.246 -0.0730 -0.5471  0.0697
 7715SOL    HW134607   2.050   2.046   8.321 -1.4607  0.4683 -0.0239
 7715SOL    HW234608   2.182   2.072   8.253 -0.2971 -1.3026  0.8275
 7716SOL     OW34609   0.721   2.578  11.782  1.0759 -0.8755  0.1272
 7716SOL    HW134610   0.714   2.483  11.791 -1.5926 -0.4954  2.4345
 7716SOL    HW234611   0.763   2.594  11.698  1.0402  2.1385  0.6774
 7717SOL     OW34612   1.148   2.127   6.279 -0.2021 -0.2715 -0.1261
 7717SOL    HW134613   1.183   2.038   6.282  0.9273  0.1255 -2.1820
 7717SOL    HW234614   1.232   2.172   6.273  0.4069 -1.2286  1.3175
 7718SOL     OW34615   0.356   0.067   8.593  0.0037  0.2582  0.2031
 7718SOL    HW134616   0.450   0.071   8.610  0.5304 -1.9460 -2.2077
 7718SOL    HW234617   0.344   4.707   8.549 -1.2246  0.0398  0.9646
 7719SOL     OW34618   4.539   0.433   3.025  0.1089  0.2001 -0.1221
 7719SOL    HW134619   4.620   0.483   3.030 -0.1696  0.7157 -0.7310
 7719SOL    HW234620   4.477   0.503   3.046  0.5979  0.5990 -0.0109
 7720SOL     OW34621   2.103   0.744   0.432  0.3002 -0.0629  0.2720
 7720SOL    HW134622   2.063   0.754   0.519 -0.7461  1.6640 -0.3987
 7720SOL    HW234623   2.189   0.768   0.466 -0.0144  1.4511 -0.0234
 7721SOL     OW34624   0.206   2.367   0.131 -0.2901 -0.2535  0.4668
 7721SOL    HW134625   0.255   2.438   0.090  0.5803 -1.0340  0.1527
 7721SOL    HW234626   0.144   2.417   0.184  3.8204  2.0924  3.1502
 7722SOL     OW34627   3.280   4.174  11.417 -0.2115  0.4495  0.5989
 7722SOL    HW134628   3.352   4.234  11.394 -1.3188  1.5846  0.0889
 7722SOL    HW234629   3.200   4.219  11.392 -1.1663 -0.0418  2.7572
 7723SOL     OW34630   3.838   3.709  13.178 -0.2209 -0.4588 -0.1814
 7723SOL    HW134631   3.883   3.656  13.112  0.4367 -0.7310  0.4862
 7723SOL    HW234632   3.851   3.647  13.250 -0.4691  1.6801  1.7106
 7724SOL     OW34633   2.459   2.711   1.754 -0.4538  0.6581  0.0765
 7724SOL    HW134634   2.382   2.720   1.811 -0.7379 -1.0077 -0.0364
 7724SOL    HW234635   2.528   2.732   1.816 -0.1412  1.4035 -0.5201
 7725SOL     OW34636   1.857   2.636  11.385  0.1268  0.4368 -0.5066
 7725SOL    HW134637   1.813   2.698  11.326 -0.5849  0.1258 -0.3044
 7725SOL    HW234638   1.943   2.676  11.397  0.5189  0.6242 -3.9102
 7726SOL     OW34639   3.276   0.044   3.863 -0.3648 -0.0569 -0.4958
 7726SOL    HW134640   3.351   4.711   3.850  0.2465  0.3744  1.1632
 7726SOL    HW234641   3.232   0.034   3.779 -0.2386  0.9101 -0.6806
 7727SOL     OW34642   4.085   2.489  16.855  0.1094 -0.5274 -0.0064
 7727SOL    HW134643   4.069   2.408  16.904 -3.0765  0.3220  0.3545
 7727SOL    HW234644   4.024   2.489  16.781  0.3911  0.1943 -0.2397
 7728SOL     OW34645   3.731   0.781   0.541 -0.0130  0.0882 -0.2474
 7728SOL    HW134646   3.706   0.871   0.517 -0.2885  0.5095  1.5924
 7728SOL    HW234647   3.689   0.730   0.472 -0.5181 -1.1892  0.9971
 7729SOL     OW34648   0.835   1.002  15.110  0.0010 -0.3621 -0.2757
 7729SOL    HW134649   0.793   1.083  15.141 -0.8546 -0.8216 -0.2150
 7729SOL    HW234650   0.861   1.021  15.020 -0.8290 -2.0370 -0.8809
 7730SOL     OW34651   4.249   3.056   2.550  0.2392  0.2237  0.5034
 7730SOL    HW134652   4.279   3.109   2.624 -1.3899  0.6063  0.8732
 7730SOL    HW234653   4.195   3.115   2.497  1.3648 -1.6458 -2.7231
 7731SOL     OW34654   2.114   1.519   8.777  0.6761  0.1526 -0.2157
 7731SOL    HW134655   2.048   1.540   8.711 -0.9167 -0.5172  1.1726
 7731SOL    HW234656   2.189   1.510   8.718 -0.1578 -2.1939 -0.9041
 7732SOL     OW34657   1.054   4.100   7.732 -0.3975 -0.1336 -0.5758
 7732SOL    HW134658   0.983   4.062   7.783 -1.6948  1.1178 -1.4637
 7732SOL    HW234659   1.124   4.035   7.747  0.1263  0.6542  0.4179
 7733SOL     OW34660   0.244   1.779   8.391  0.6899  0.4320 -0.1022
 7733SOL    HW134661   0.336   1.796   8.409  0.7963  0.6835 -0.8928
 7733SOL    HW234662   0.248   1.723   8.313  1.7518  1.2590 -0.6394
 7734SOL     OW34663   2.375   2.418   3.245  0.0881 -0.1712 -0.1715
 7734SOL    HW134664   2.409   2.397   3.332  0.2526 -0.6914 -0.3663
 7734SOL    HW234665   2.459   2.413   3.200 -1.0927 -2.1625 -2.1752
 7735SOL     OW34666   0.521   2.987   7.095 -0.5563  0.2633 -0.1934
 7735SOL    HW134667   0.504   3.069   7.048 -0.7143 -0.2100 -0.9702
 7735SOL    HW234668   0.432   2.952   7.103  0.1186 -1.0696  1.4257
 7736SOL     OW34669   0.497   1.099   6.639 -0.4987  0.0602  0.2013
 7736SOL    HW134670   0.532   1.175   6.593 -0.2858 -0.1369  0.0373
 7736SOL    HW234671   0.423   1.082   6.580 -0.6400  0.1798  0.3434
 7737SOL     OW34672   4.163   3.056   6.460 -0.3341 -0.4496  0.0414
 7737SOL    HW134673   4.242   3.005   6.443 -0.9737 -0.9106 -1.5762
 7737SOL    HW234674   4.139   3.066   6.368 -0.3287 -2.2106 -0.1474
 7738SOL     OW34675   4.637   2.642  12.364 -0.2240  0.5462 -0.1464
 7738SOL    HW134676   4.695   2.711  12.397  0.5045 -0.4029  0.5723
 7738SOL    HW234677   4.695   2.567  12.380  0.3851  0.4622 -2.7906
 7739SOL     OW34678   2.024   3.667   2.123 -0.3951 -0.0819  0.4335
 7739SOL    HW134679   2.104   3.665   2.177 -0.9075 -0.9462  1.1736
 7739SOL    HW234680   2.056   3.616   2.049 -0.8966  2.1177 -1.2909
 7740SOL     OW34681   4.002   1.691   3.887  0.2920 -0.1266  0.1340
 7740SOL    HW134682   4.035   1.739   3.962  1.3565  0.2199 -0.5622
 7740SOL    HW234683   4.068   1.622   3.891 -2.4308 -2.7731  0.2842
 7741SOL     OW34684   1.978   4.565   3.746 -0.2664  0.0506 -0.6102
 7741SOL    HW134685   2.016   4.478   3.734 -0.3994 -0.3721  2.0757
 7741SOL    HW234686   2.021   4.599   3.667  0.1869 -1.0716 -0.8548
 7742SOL     OW34687   2.285   2.658   5.684  0.1502 -0.2800  0.0401
 7742SOL    HW134688   2.355   2.643   5.621 -1.2922 -1.1215 -1.3547
 7742SOL    HW234689   2.276   2.753   5.677 -0.9629 -0.3618  0.2570
 7743SOL     OW34690   0.104   2.974  11.232 -0.5940 -0.0403  0.2954
 7743SOL    HW134691   0.022   3.020  11.214  0.0066  0.8583 -0.1522
 7743SOL    HW234692   0.111   2.906  11.166  0.5462 -0.0369  0.4266
 7744SOL     OW34693   3.554   4.255  14.800 -0.3295  0.1954  0.3664
 7744SOL    HW134694   3.552   4.222  14.710 -0.8731 -3.0101  1.5639
 7744SOL    HW234695   3.466   4.225  14.821  0.0277  0.2158  1.8868
 7745SOL     OW34696   3.995   0.740   0.212 -0.0028  0.8076 -0.0292
 7745SOL    HW134697   4.005   0.646   0.196  0.0092  0.4969  1.9045
 7745SOL    HW234698   4.051   0.768   0.139  2.2499 -2.9560  0.2401
 7746SOL     OW34699   2.208   1.781   3.640 -0.0684 -0.1531 -0.2470
 7746SOL    HW134700   2.139   1.720   3.616  0.5201 -0.0058 -2.3382
 7746SOL    HW234701   2.218   1.833   3.560 -0.4144  1.0997  0.5144
 7747SOL     OW34702   1.690   4.326   3.155  0.0221  0.7270 -0.1178
 7747SOL    HW134703   1.646   4.330   3.240 -0.4693 -1.2829 -0.2679
 7747SOL    HW234704   1.778   4.301   3.182 -0.2122  1.3874  1.2467
 7748SOL     OW34705   3.201   2.193   8.321  0.1471 -0.1727 -0.5274
 7748SOL    HW134706   3.122   2.140   8.324 -0.2966  0.4694 -1.0264
 7748SOL    HW234707   3.265   2.124   8.338 -0.4590 -1.0168 -1.6711
 7749SOL     OW34708   2.540   0.215   4.594  0.5730 -0.1611  0.6547
 7749SOL    HW134709   2.588   0.246   4.671 -0.2170  1.8372  0.3347
 7749SOL    HW234710   2.603   0.235   4.525 -1.2550  1.1511 -0.6267
 7750SOL     OW34711   3.730   2.561   1.389  0.3628 -0.4248  0.2226
 7750SOL    HW134712   3.761   2.647   1.361 -0.7647 -0.1906 -0.2849
 7750SOL    HW234713   3.808   2.534   1.438  0.6264 -0.5863 -0.2855
 7751SOL     OW34714   1.072   4.445  14.057  0.8262  0.2504  0.2799
 7751SOL    HW134715   1.091   4.380  14.125  0.6870 -0.5101 -0.4094
 7751SOL    HW234716   1.036   4.392  13.986 -0.4915 -2.0615  2.6894
 7752SOL     OW34717   1.267   4.558   4.428 -0.1072 -0.2291  0.2171
 7752SOL    HW134718   1.275   4.647   4.461  2.3238 -0.9104  1.4783
 7752SOL    HW234719   1.289   4.506   4.505 -0.3329  0.1850  0.5588
 7753SOL     OW34720   3.621   2.666   7.324  0.0603  0.2538  0.2262
 7753SOL    HW134721   3.692   2.651   7.386  0.0949 -0.2632  0.0577
 7753SOL    HW234722   3.573   2.733   7.373  0.5109 -0.3897  1.5368
 7754SOL     OW34723   1.940   3.036   7.880 -0.5776  0.3212  0.7074
 7754SOL    HW134724   1.914   2.988   7.959  1.3620  1.0645  1.8021
 7754SOL    HW234725   2.012   3.088   7.916 -1.5282  0.2542  2.7273
 7755SOL     OW34726   3.762   0.543   4.342 -0.3316 -0.1634  0.4630
 7755SOL    HW134727   3.849   0.538   4.302  0.3184  3.4850  1.4899
 7755SOL    HW234728   3.700   0.519   4.273  1.0716 -2.1134 -0.1217
 7756SOL     OW34729   1.235   0.130   6.805 -0.1150 -0.6640 -0.1832
 7756SOL    HW134730   1.162   0.181   6.769 -1.1181  0.2656  3.2088
 7756SOL    HW234731   1.308   0.191   6.787 -2.2016  1.2344 -2.2573
 7757SOL     OW34732   3.102   3.990  15.741 -0.1138 -0.4994  0.0588
 7757SOL    HW134733   3.037   3.919  15.750  0.1797 -0.6584  0.9266
 7757SOL    HW234734   3.043   4.059  15.772 -1.3652 -3.0269  3.3134
 7758SOL     OW34735   4.159   3.503   4.381  0.6594 -0.1796  0.2447
 7758SOL    HW134736   4.101   3.434   4.349  0.2045  0.1882  0.2809
 7758SOL    HW234737   4.182   3.542   4.296 -0.6740 -1.9971 -0.9662
 7759SOL     OW34738   4.450   1.986   6.352 -0.2312 -1.0706  0.0680
 7759SOL    HW134739   4.420   2.003   6.441 -1.1809 -1.3983 -0.1821
 7759SOL    HW234740   4.420   2.062   6.301 -0.7394 -1.3024  0.0184
 7760SOL     OW34741   0.414   4.517   8.256 -0.6752  0.1892 -0.3513
 7760SOL    HW134742   0.493   4.569   8.270 -0.5480 -0.0219 -0.2896
 7760SOL    HW234743   0.391   4.507   8.349  0.7956 -2.9420 -0.3403
 7761SOL     OW34744   1.506   1.301  15.384  0.3714 -0.1955 -0.0016
 7761SOL    HW134745   1.514   1.396  15.390  1.4567 -0.3920  1.6499
 7761SOL    HW234746   1.592   1.268  15.410  0.2010 -0.1361  0.6231
 7762SOL     OW34747   1.919   2.202   8.747  0.2314 -0.1000 -0.7962
 7762SOL    HW134748   1.912   2.292   8.778 -0.3340 -0.1233 -0.8491
 7762SOL    HW234749   1.986   2.217   8.681  2.2246 -0.6319  1.0881
 7763SOL     OW34750   1.455   0.884  16.221  0.3904 -0.0573  0.2012
 7763SOL    HW134751   1.532   0.828  16.211  0.1447 -0.9245  3.2166
 7763SOL    HW234752   1.434   0.902  16.130  1.3083  1.1108  0.2084
 7764SOL     OW34753   2.345   4.510   6.375 -0.1272  0.4625 -0.3955
 7764SOL    HW134754   2.383   4.590   6.340  0.8063 -0.5585 -1.7086
 7764SOL    HW234755   2.414   4.444   6.376  0.3188  0.9377  0.1387
 7765SOL     OW34756   2.637   2.520   4.995 -0.6099 -0.2371 -0.5167
 7765SOL    HW134757   2.622   2.428   4.975  1.2107 -0.9597  1.5820
 7765SOL    HW234758   2.546   2.550   5.006 -1.0799 -2.0616  0.4925
 7766SOL     OW34759   1.998   1.789   4.845  0.2249  0.1774 -0.0098
 7766SOL    HW134760   1.946   1.764   4.921 -0.0314  1.4346  0.2279
 7766SOL    HW234761   1.932   1.851   4.813 -0.4190 -1.2622 -1.4851
 7767SOL     OW34762   0.139   2.265   5.864  0.0356 -0.0478 -0.3105
 7767SOL    HW134763   0.166   2.178   5.890  0.7859  0.3493  0.2416
 7767SOL    HW234764   0.056   2.254   5.817 -0.0237  1.9750 -0.6951
 7768SOL     OW34765   1.543   4.593  12.404 -0.1595 -0.4479 -0.2065
 7768SOL    HW134766   1.589   4.520  12.445 -0.2188 -0.6467 -0.4888
 7768SOL    HW234767   1.493   4.627  12.478 -2.9416  1.3476 -2.8856
 7769SOL     OW34768   1.687   0.140   6.381  0.1174  0.1471  0.2714
 7769SOL    HW134769   1.630   0.214   6.403 -2.5353 -2.2562  1.5453
 7769SOL    HW234770   1.666   0.074   6.448  0.9807 -1.0423 -0.6155
 7770SOL     OW34771   4.068   0.149   2.616  0.2420 -0.2343 -0.6999
 7770SOL    HW134772   4.042   0.228   2.569 -3.3959 -0.5014  0.8240
 7770SOL    HW234773   3.985   0.101   2.607 -0.2984  0.5519  0.1277
 7771SOL     OW34774   0.584   1.730   6.319 -0.4235  0.4893  0.2608
 7771SOL    HW134775   0.582   1.769   6.406  1.1156  0.9333  0.0840
 7771SOL    HW234776   0.529   1.796   6.276 -0.9969 -0.2655 -0.1685
 7772SOL     OW34777   1.355   2.471  17.157 -0.0559  0.3952  0.3951
 7772SOL    HW134778   1.368   2.564  17.136 -1.9035  0.0801 -2.0370
 7772SOL    HW234779   1.260   2.463  17.168  0.2834 -1.6451  1.7949
 7773SOL     OW34780   1.732   0.950  11.502 -0.0731 -0.9452 -0.0114
 7773SOL    HW134781   1.717   0.866  11.544  1.4941 -1.9088 -1.3810
 7773SOL    HW234782   1.656   0.946  11.444  1.9680 -1.1077 -2.7282
 7774SOL     OW34783   1.674   3.658  15.374  0.4389  0.4666  0.3749
 7774SOL    HW134784   1.678   3.684  15.466  2.0075  1.5148  0.0114
 7774SOL    HW234785   1.583   3.632  15.363  0.3820  0.2367  1.4821
 7775SOL     OW34786   1.808   0.205   2.890 -0.6047  0.0181  0.2590
 7775SOL    HW134787   1.814   0.222   2.796 -2.3263 -0.0121  0.1455
 7775SOL    HW234788   1.859   0.126   2.908  0.1038  0.3635 -0.2695
 7776SOL     OW34789   2.905   1.204   5.220 -0.1100 -0.2828 -0.2094
 7776SOL    HW134790   2.922   1.263   5.147  0.2178  0.0165  0.1094
 7776SOL    HW234791   2.865   1.130   5.175  0.4191 -1.7813  1.7472
 7777SOL     OW34792   1.315   0.800   2.227  0.4378  0.1263  0.4444
 7777SOL    HW134793   1.355   0.864   2.168 -0.4891  0.3881  0.1048
 7777SOL    HW234794   1.289   0.853   2.303 -1.8273 -0.2490 -0.0853
 7778SOL     OW34795   3.249   2.521   5.374 -0.2295  0.1965 -0.3402
 7778SOL    HW134796   3.305   2.555   5.305  0.0708 -1.2375 -0.8020
 7778SOL    HW234797   3.305   2.476   5.436  2.6389  1.8602 -1.7450
 7779SOL     OW34798   2.838   4.109   6.757 -0.1697  0.2381 -0.0938
 7779SOL    HW134799   2.899   4.124   6.685  0.8931  1.0930  0.9681
 7779SOL    HW234800   2.810   4.019   6.747 -0.2449  0.2592 -0.0723
 7780SOL     OW34801   3.752   2.425  10.731 -0.1047 -0.0113  0.1373
 7780SOL    HW134802   3.697   2.348  10.740 -0.3060  0.1761  0.4975
 7780SOL    HW234803   3.833   2.374  10.738 -0.0673  0.0673  0.2728
 7781SOL     OW34804   1.630   2.661  12.611 -0.4771 -0.5708  0.3334
 7781SOL    HW134805   1.710   2.613  12.634 -0.0291  0.2061  0.3778
 7781SOL    HW234806   1.654   2.749  12.640 -1.3697 -0.5057  0.8701
 7782SOL     OW34807   3.348   1.590   9.778 -0.6304  0.2785  0.2067
 7782SOL    HW134808   3.347   1.517   9.716  0.3467 -0.6347  1.2631
 7782SOL    HW234809   3.277   1.557   9.832 -0.9086 -0.1542 -0.4265
 7783SOL     OW34810   4.648   2.887   2.170 -0.2943 -0.4421 -0.5646
 7783SOL    HW134811   4.608   2.929   2.247  1.3709  0.0751  0.0227
 7783SOL    HW234812   4.673   2.962   2.117  1.0935 -0.9347 -0.5958
 7784SOL     OW34813   3.261   2.826  16.052  0.6851  0.1542  0.6027
 7784SOL    HW134814   3.185   2.810  15.996  0.7969  0.4978  0.3550
 7784SOL    HW234815   3.230   2.893  16.112 -0.7608  1.3072 -1.4423
 7785SOL     OW34816   0.456   3.550   6.272 -0.0101  0.7432 -0.3068
 7785SOL    HW134817   0.476   3.554   6.178  1.0737  0.8304 -0.0721
 7785SOL    HW234818   0.362   3.534   6.267 -0.2863  1.3328  3.5000
 7786SOL     OW34819   1.623   3.399   0.930 -0.1377  0.1959  0.2290
 7786SOL    HW134820   1.661   3.333   0.873 -0.2116 -0.0745  0.4873
 7786SOL    HW234821   1.685   3.472   0.931  1.4036 -1.1143 -0.8309
 7787SOL     OW34822   4.060   0.074   8.148  0.2284 -0.6034 -0.3431
 7787SOL    HW134823   4.145   0.074   8.193 -0.0192 -0.8949  0.1193
 7787SOL    HW234824   4.036   4.706   8.144 -0.3375 -0.4251 -1.1057
 7788SOL     OW34825   1.575   2.273  12.388 -0.2617 -0.4984 -0.3634
 7788SOL    HW134826   1.612   2.272  12.476  1.6982 -0.7771 -1.1864
 7788SOL    HW234827   1.548   2.364  12.373 -2.3239 -1.1259 -0.3140
 7789SOL     OW34828   1.939   2.478   1.220  0.7865 -0.4379 -0.2566
 7789SOL    HW134829   1.854   2.516   1.243  0.8434 -0.4393 -0.0492
 7789SOL    HW234830   2.002   2.542   1.252 -0.1537  0.6673 -0.6438
 7790SOL     OW34831   1.563   2.443   2.001 -0.2113  0.0430 -0.2993
 7790SOL    HW134832   1.607   2.383   2.061 -0.9401  0.0234  0.2118
 7790SOL    HW234833   1.633   2.509   2.003  0.7874 -1.0247 -0.3814
 7791SOL     OW34834   3.664   2.278  10.996  0.2621 -0.5373 -0.4870
 7791SOL    HW134835   3.752   2.315  10.990  1.0790 -2.2571  0.7014
 7791SOL    HW234836   3.671   2.187  10.968 -1.7730 -0.1671 -2.2525
 7792SOL     OW34837   0.284   4.202   4.795  0.4597 -0.1637  0.0863
 7792SOL    HW134838   0.248   4.285   4.764 -1.9443 -2.2876 -2.8976
 7792SOL    HW234839   0.290   4.152   4.713 -2.0569 -1.3916  0.6426
 7793SOL     OW34840   3.767   3.397   2.092  0.6346 -0.5654 -0.9467
 7793SOL    HW134841   3.791   3.469   2.033 -2.1296  1.7013  0.6963
 7793SOL    HW234842   3.809   3.422   2.174 -1.3701 -2.3306  0.6229
 7794SOL     OW34843   2.405   0.984   3.277  0.5204  0.3260  0.0325
 7794SOL    HW134844   2.498   0.995   3.256  0.4541  2.1418  0.6941
 7794SOL    HW234845   2.360   1.029   3.206  0.5337 -0.1861 -0.2994
 7795SOL     OW34846   4.330   3.582   2.979  0.2904  0.0188 -0.2247
 7795SOL    HW134847   4.309   3.553   3.068 -3.1222  0.7814 -0.7960
 7795SOL    HW234848   4.401   3.644   2.998  0.1726  0.0574  0.0784
 7796SOL     OW34849   3.137   3.186   9.222 -0.0011 -0.1813  0.5718
 7796SOL    HW134850   3.145   3.091   9.221  0.1523 -0.1637 -0.2904
 7796SOL    HW234851   3.092   3.201   9.139  0.2267 -0.6706  0.3594
 7797SOL     OW34852   0.944   0.768  11.592 -0.1160 -0.0176  0.3480
 7797SOL    HW134853   0.908   0.848  11.553  1.6332  0.7162  0.2357
 7797SOL    HW234854   0.909   0.771  11.681 -0.3044  1.6148  0.2198
 7798SOL     OW34855   0.372   1.404   8.885  0.4477  0.3906  0.2268
 7798SOL    HW134856   0.314   1.365   8.951  0.3002  1.3813  0.6895
 7798SOL    HW234857   0.340   1.493   8.901 -1.0396  0.2596 -2.0001
 7799SOL     OW34858   2.710   3.249  15.907  0.3449 -0.1178  0.2606
 7799SOL    HW134859   2.683   3.325  15.855 -1.6484 -0.4144  0.8312
 7799SOL    HW234860   2.798   3.231  15.876  0.6170  1.8756 -0.1506
 7800SOL     OW34861   0.670   0.320   7.189  0.4963  0.0437 -0.5762
 7800SOL    HW134862   0.648   0.412   7.205 -1.3050 -0.0955 -2.2294
 7800SOL    HW234863   0.727   0.331   7.113  0.2217 -0.1384 -0.8102
 7801SOL     OW34864   1.827   1.820  14.985  0.0462  0.2127  0.0910
 7801SOL    HW134865   1.802   1.895  15.039  2.0997  0.4067  0.7701
 7801SOL    HW234866   1.761   1.828  14.916  0.9409  2.2436 -0.5262
 7802SOL     OW34867   4.612   4.410   5.148 -0.1285 -0.2806 -0.2718
 7802SOL    HW134868   4.587   4.336   5.092 -0.5013  0.7975 -1.5415
 7802SOL    HW234869   4.545   4.411   5.215 -0.9456  0.4677 -1.1016
 7803SOL     OW34870   1.908   3.725   5.324  0.6513  0.4168  0.0173
 7803SOL    HW134871   1.944   3.645   5.288 -1.4387  0.1083 -1.3908
 7803SOL    HW234872   1.849   3.749   5.253 -1.3673 -0.4614  1.3796
 7804SOL     OW34873   4.610   2.450  12.602 -0.5631 -0.7661 -0.0687
 7804SOL    HW134874   4.687   2.502  12.626 -0.9329 -0.8367  1.2621
 7804SOL    HW234875   4.638   2.409  12.520  0.9630 -0.7219  0.4297
 7805SOL     OW34876   0.236   0.087  12.516 -0.3370  0.1924  0.7106
 7805SOL    HW134877   0.276   0.043  12.591  0.0425  0.5778  0.7349
 7805SOL    HW234878   0.144   0.066  12.528 -0.5274  1.2790  1.2420
 7806SOL     OW34879   1.024   3.608   1.876  0.1123 -0.1316  0.2494
 7806SOL    HW134880   0.975   3.526   1.866  1.0350 -1.1964  4.4264
 7806SOL    HW234881   1.111   3.572   1.857  0.8789  0.3457  2.8148
 7807SOL     OW34882   0.671   4.093   8.254  0.0580 -0.1827 -0.1288
 7807SOL    HW134883   0.624   4.146   8.189 -0.3162  2.4535  2.3065
 7807SOL    HW234884   0.599   4.047   8.297 -0.9725  1.0906 -0.4996
 7808SOL     OW34885   3.978   1.455   6.416 -0.2931 -0.7161 -0.3423
 7808SOL    HW134886   3.914   1.409   6.362 -1.7292  0.5833  0.2739
 7808SOL    HW234887   4.062   1.421   6.385  0.2983  0.2422  0.2150
 7809SOL     OW34888   1.812   2.632   2.677  0.2925  0.2838  0.4888
 7809SOL    HW134889   1.740   2.569   2.679 -0.1566  0.7409 -1.1706
 7809SOL    HW234890   1.771   2.704   2.725 -2.6195 -1.1145  0.1243
 7810SOL     OW34891   0.249   1.272  11.859 -0.5903 -0.0165 -0.3061
 7810SOL    HW134892   0.284   1.347  11.907 -1.7157 -0.0632  0.5909
 7810SOL    HW234893   0.155   1.277  11.877 -0.2953 -0.0069  1.2684
 7811SOL     OW34894   1.248   0.544   6.652 -0.2527 -0.6234 -0.0341
 7811SOL    HW134895   1.269   0.635   6.673  0.2755 -1.0864  1.4195
 7811SOL    HW234896   1.260   0.551   6.557  2.3131  0.4517  0.3634
 7812SOL     OW34897   2.140   2.777   5.387 -0.2423 -0.1270 -0.1211
 7812SOL    HW134898   2.191   2.841   5.336 -1.0904  0.1936 -0.5639
 7812SOL    HW234899   2.149   2.707   5.323  0.7584 -0.9581  0.9215
 7813SOL     OW34900   2.693   0.730  10.723 -0.5619  0.4645  0.3156
 7813SOL    HW134901   2.688   0.812  10.773 -1.5643  0.1917  0.6503
 7813SOL    HW234902   2.751   0.670  10.771 -2.6221 -1.3307  0.5360
 7814SOL     OW34903   0.112   2.319   7.386  0.8139 -0.2490 -0.0078
 7814SOL    HW134904   0.146   2.293   7.472  0.4998  0.2952  0.2789
 7814SOL    HW234905   0.125   2.237   7.337  1.3613  0.7982 -1.5923
 7815SOL     OW34906   4.249   3.663  15.537 -1.0000  0.0114 -0.4904
 7815SOL    HW134907   4.313   3.678  15.606 -0.2364 -0.4218 -1.0994
 7815SOL    HW234908   4.168   3.642  15.583 -0.8081  0.5115  0.0721
 7816SOL     OW34909   0.577   2.025   3.070 -0.1065  0.2595  0.1388
 7816SOL    HW134910   0.520   2.045   3.144 -0.8593 -1.3671 -0.0114
 7816SOL    HW234911   0.619   1.946   3.103  0.1731  0.1962 -0.3708
 7817SOL     OW34912   1.866   3.541   7.587 -0.1421  0.6953 -0.5730
 7817SOL    HW134913   1.842   3.490   7.664  1.4746  0.7915  0.0013
 7817SOL    HW234914   1.798   3.521   7.523  0.1567 -0.8524 -0.3934
 7818SOL     OW34915   4.547   0.208  14.137 -0.0501 -0.2643 -0.0019
 7818SOL    HW134916   4.502   0.215  14.053  1.2070  1.7679 -0.5107
 7818SOL    HW234917   4.482   0.222  14.205 -0.3295  0.5126 -0.4268
 7819SOL     OW34918   4.654   1.485   5.907 -0.3903 -0.6746  0.1814
 7819SOL    HW134919   4.719   1.553   5.891  1.1688 -1.8588  1.5161
 7819SOL    HW234920   4.583   1.508   5.847 -0.8301 -0.4528  0.7742
 7820SOL     OW34921   1.588   2.569   8.375 -0.7736 -0.2754  0.1043
 7820SOL    HW134922   1.599   2.476   8.357 -0.5715 -0.0963 -0.6964
 7820SOL    HW234923   1.664   2.588   8.430 -1.5505  0.7255  0.8312
 7821SOL     OW34924   0.316   3.597  14.203  0.1723  0.1568  0.3019
 7821SOL    HW134925   0.285   3.647  14.279 -1.9178 -2.1018  0.9349
 7821SOL    HW234926   0.412   3.604  14.211  0.1042  0.1282  1.1696
 7822SOL     OW34927   3.603   1.519   9.930 -0.1377 -0.1649  0.0414
 7822SOL    HW134928   3.508   1.516   9.918  0.1523  0.0396 -2.3052
 7822SOL    HW234929   3.628   1.427   9.935 -0.1459 -0.0860  1.5042
 7823SOL     OW34930   3.791   4.662   5.248 -0.6789 -0.0752 -0.7708
 7823SOL    HW134931   3.871   4.677   5.199 -0.9337  0.4014 -1.0397
 7823SOL    HW234932   3.743   0.018   5.232  0.1544  1.3390  3.7929
 7824SOL     OW34933   0.339   4.536   5.497 -0.3235  0.1165 -0.2533
 7824SOL    HW134934   0.372   4.595   5.565 -0.0091 -1.3487  0.8588
 7824SOL    HW234935   0.245   4.525   5.507 -0.0284 -2.4061 -0.1917
 7825SOL     OW34936   4.262   2.021  11.492  0.3641  0.2714 -0.0423
 7825SOL    HW134937   4.229   2.104  11.458 -0.6676 -0.1305 -0.0252
 7825SOL    HW234938   4.296   2.046  11.578 -0.6801  0.6821  0.2432
 7826SOL     OW34939   1.783   2.426   8.097  0.0255 -0.1674 -0.0641
 7826SOL    HW134940   1.867   2.414   8.140  0.5282  1.4971 -0.6234
 7826SOL    HW234941   1.760   2.500   8.153  0.0702 -0.8395  0.8482
 7827SOL     OW34942   2.630   2.911   2.909  0.2408  0.2572  0.1012
 7827SOL    HW134943   2.609   2.855   2.834  1.0198 -2.6087  2.0391
 7827SOL    HW234944   2.554   2.969   2.906 -0.5608 -0.8961 -2.4394
 7828SOL     OW34945   3.986   4.461   1.658 -0.7897  0.3415  0.5930
 7828SOL    HW134946   3.913   4.430   1.711 -1.1373 -0.0135 -0.0942
 7828SOL    HW234947   4.053   4.405   1.697  1.5344  1.8584 -1.2224
 7829SOL     OW34948   1.984   2.084   2.888  0.4798  0.1372  0.0101
 7829SOL    HW134949   1.931   2.095   2.810 -0.0937 -0.4796  0.3027
 7829SOL    HW234950   2.071   2.090   2.850  0.6867 -0.3294  0.4149
 7830SOL     OW34951   2.579   1.031   3.779 -0.0324  0.2840  0.0542
 7830SOL    HW134952   2.644   1.082   3.732 -2.3335  0.9146 -2.4562
 7830SOL    HW234953   2.501   1.046   3.725  0.9525  2.1757 -0.8661
 7831SOL     OW34954   2.214   4.247  13.940 -0.2869 -0.9936  0.5931
 7831SOL    HW134955   2.279   4.231  14.009 -0.8107  1.4567  1.6625
 7831SOL    HW234956   2.168   4.326  13.970  0.4856  0.0575 -0.9946
 7832SOL     OW34957   4.226   1.529   5.916  0.0229 -0.3017 -0.1596
 7832SOL    HW134958   4.217   1.586   5.839  0.8579  1.0376  0.7426
 7832SOL    HW234959   4.225   1.448   5.864 -1.2883  0.3113 -1.1259
 7833SOL     OW34960   3.149   4.410  13.547 -0.0912 -0.3293  0.0658
 7833SOL    HW134961   3.141   4.375  13.635 -3.3427  1.9066  0.6490
 7833SOL    HW234962   3.243   4.393  13.540 -0.2576 -1.3920  0.4172
 7834SOL     OW34963   3.131   3.909   6.589  0.0377  0.2686  0.7452
 7834SOL    HW134964   3.227   3.905   6.595 -0.0718 -0.0910  2.1096
 7834SOL    HW234965   3.092   3.889   6.674  2.1828  0.3522  1.7626
 7835SOL     OW34966   2.822   4.214   2.298  0.3882  0.2500  0.3013
 7835SOL    HW134967   2.906   4.261   2.303  1.2589 -1.1223 -1.4190
 7835SOL    HW234968   2.755   4.282   2.293 -1.2524 -1.2946  1.4869
 7836SOL     OW34969   1.870   2.449  10.732  0.0492  0.0756 -0.2788
 7836SOL    HW134970   1.787   2.403  10.718  1.0263 -1.2871 -1.6767
 7836SOL    HW234971   1.835   2.536  10.749  1.6859  1.0072 -1.6307
 7837SOL     OW34972   4.445   4.389   1.723 -0.0417  0.0534 -0.6325
 7837SOL    HW134973   4.450   4.417   1.632  0.7616 -1.3832 -1.0442
 7837SOL    HW234974   4.513   4.451   1.747 -2.2555  1.7203  1.2443
 7838SOL     OW34975   1.492   1.141   6.192  0.1336 -0.4265 -0.2449
 7838SOL    HW134976   1.515   1.073   6.256 -0.3664  0.9412  1.3749
 7838SOL    HW234977   1.406   1.169   6.224  0.4737  1.2068 -0.7650
 7839SOL     OW34978   1.608   1.379  10.393  0.4745  0.0235  0.2311
 7839SOL    HW134979   1.542   1.330  10.441  1.6451 -2.3232 -0.5546
 7839SOL    HW234980   1.580   1.466  10.422 -1.8048 -0.5269 -0.3697
 7840SOL     OW34981   1.914   2.236  12.212  0.7089  0.0025 -0.1790
 7840SOL    HW134982   1.981   2.264  12.274  0.9677  0.1211 -0.5131
 7840SOL    HW234983   1.959   2.169  12.161  0.8736 -1.2892  1.6445
 7841SOL     OW34984   4.462   2.701   2.146  0.4181 -0.1849  0.1904
 7841SOL    HW134985   4.508   2.619   2.127  0.7839  0.5399 -2.1217
 7841SOL    HW234986   4.538   2.752   2.174 -0.4277  1.0604  0.2330
 7842SOL     OW34987   0.761   0.591  11.446 -0.5206  0.3051 -0.0277
 7842SOL    HW134988   0.829   0.584  11.514  0.9616  0.6735 -1.4834
 7842SOL    HW234989   0.759   0.497  11.429 -0.8274  0.1772  0.7092
 7843SOL     OW34990   2.020   3.143  15.191 -0.2738 -0.1100 -0.0599
 7843SOL    HW134991   2.077   3.141  15.267  0.5874 -2.9880 -0.7679
 7843SOL    HW234992   1.944   3.189  15.227  0.7724 -1.3688  3.7096
 7844SOL     OW34993   1.805   4.059   1.886 -0.1829  0.3031 -0.1644
 7844SOL    HW134994   1.734   3.995   1.895 -2.4949  3.1307  1.7054
 7844SOL    HW234995   1.758   4.142   1.897  0.6827  0.5930  1.2940
 7845SOL     OW34996   1.495   0.626  12.952 -0.0313  0.1170 -0.3475
 7845SOL    HW134997   1.552   0.650  12.879  0.9894  2.9089  1.3637
 7845SOL    HW234998   1.423   0.688  12.941  0.5233  0.9717  0.7524
 7846SOL     OW34999   0.551   3.169   2.689  0.7603  0.1509 -0.3412
 7846SOL    HW135000   0.615   3.214   2.744 -0.2327 -1.7040  2.3095
 7846SOL    HW235001   0.602   3.108   2.636  2.0694  0.3141  0.7171
 7847SOL     OW35002   2.112   4.303   9.205 -0.1814 -0.3897 -0.0596
 7847SOL    HW135003   2.041   4.265   9.257 -0.8805 -0.9798 -1.4288
 7847SOL    HW235004   2.187   4.295   9.264 -0.7957 -0.5737  0.7043
 7848SOL     OW35005   1.591   3.473   8.938 -0.1339 -0.4206 -0.3272
 7848SOL    HW135006   1.543   3.544   8.897 -2.0840 -1.7215 -0.2755
 7848SOL    HW235007   1.654   3.516   8.996  0.5210  0.0482 -1.3752
 7849SOL     OW35008   2.161   4.259   5.554 -0.3619  0.0561 -0.2425
 7849SOL    HW135009   2.068   4.281   5.548 -1.2018 -2.7893  2.3265
 7849SOL    HW235010   2.164   4.228   5.645  1.6934 -0.1752 -0.3910
 7850SOL     OW35011   4.076   0.986   9.227 -0.0250 -0.1178 -0.6015
 7850SOL    HW135012   4.101   1.003   9.318  2.6501  3.5945 -2.0509
 7850SOL    HW235013   4.058   0.893   9.240 -1.5505  0.2985  0.2348
 7851SOL     OW35014   2.630   2.317   5.788  0.1719 -0.0862  0.5422
 7851SOL    HW135015   2.557   2.296   5.729 -0.4306  0.4318  1.1077
 7851SOL    HW235016   2.700   2.330   5.724 -0.3006  2.6365  0.5744
 7852SOL     OW35017   3.717   3.817  14.529  0.1980  0.2246 -0.4630
 7852SOL    HW135018   3.695   3.855  14.444 -1.3578  1.0353  0.2970
 7852SOL    HW235019   3.752   3.734  14.496  1.1010  0.4628 -0.1046
 7853SOL     OW35020   1.163   4.250  14.236 -0.0577  0.1904  0.1214
 7853SOL    HW135021   1.125   4.203  14.310  0.2822  1.1488  0.9038
 7853SOL    HW235022   1.147   4.191  14.162  3.4164  1.1551 -1.3821
 7854SOL     OW35023   3.073   3.452   4.062 -0.5316  0.6896  0.0709
 7854SOL    HW135024   3.155   3.405   4.056 -0.5955  0.7971 -1.6560
 7854SOL    HW235025   3.090   3.508   4.137 -0.2162 -0.1426  0.6094
 7855SOL     OW35026   2.347   1.244   8.808 -0.1141 -0.1032  0.0654
 7855SOL    HW135027   2.347   1.233   8.713 -2.8955  3.1084 -0.3071
 7855SOL    HW235028   2.427   1.293   8.821  0.0892 -0.7518  1.2351
 7856SOL     OW35029   2.672   1.128   0.386 -0.0384  0.5583 -0.1208
 7856SOL    HW135030   2.767   1.115   0.384 -0.2176 -0.4100 -2.0785
 7856SOL    HW235031   2.641   1.040   0.363 -0.1318  0.3624  0.7692
 7857SOL     OW35032   3.608   2.882   7.157  0.3849  0.4372 -0.2181
 7857SOL    HW135033   3.606   2.795   7.197 -0.3478  0.4912 -0.1405
 7857SOL    HW235034   3.670   2.930   7.212 -1.5987 -0.0836  2.5178
 7858SOL     OW35035   2.677   2.843  10.106 -0.3380 -0.0559 -0.4038
 7858SOL    HW135036   2.666   2.844  10.010 -2.0049  0.6779 -0.2029
 7858SOL    HW235037   2.733   2.766  10.112  0.9769  0.7748 -1.8930
 7859SOL     OW35038   2.416   1.787   7.428 -0.5722  0.0221 -0.0763
 7859SOL    HW135039   2.410   1.866   7.374 -0.1701 -0.8827 -1.4280
 7859SOL    HW235040   2.504   1.757   7.409 -0.5232  1.1859 -1.6647
 7860SOL     OW35041   4.672   4.166   2.614 -0.0964  0.2833  0.8122
 7860SOL    HW135042   4.653   4.125   2.530  0.4010  0.8727  0.4192
 7860SOL    HW235043   4.688   4.255   2.585  1.1360 -0.2757 -0.1736
 7861SOL     OW35044   4.406   1.499   5.692  0.7566 -0.1698  0.2229
 7861SOL    HW135045   4.343   1.493   5.620  1.3425  0.4618 -0.3546
 7861SOL    HW235046   4.464   1.423   5.682 -1.8651 -1.8795 -2.0325
 7862SOL     OW35047   4.391   4.454   6.930 -0.1512  0.4043 -0.0972
 7862SOL    HW135048   4.359   4.513   6.861 -1.3253 -0.2559 -0.1232
 7862SOL    HW235049   4.381   4.505   7.011  0.5691  1.0588 -0.4208
 7863SOL     OW35050   1.103   1.268  10.045  0.7501  0.2548 -0.2935
 7863SOL    HW135051   1.016   1.252  10.009  0.5511  0.5962  0.0357
 7863SOL    HW235052   1.156   1.244   9.969 -0.7860  0.3809 -1.3993
 7864SOL     OW35053   3.964   2.630   5.127 -0.4605 -0.2897 -0.7247
 7864SOL    HW135054   4.030   2.655   5.192 -1.6221  1.6824 -0.2840
 7864SOL    HW235055   3.958   2.710   5.075 -0.0446 -0.8225 -1.5852
 7865SOL     OW35056   4.401   2.528   6.872  0.0426  0.6346  0.4598
 7865SOL    HW135057   4.450   2.608   6.889  1.4893  0.0722 -1.0736
 7865SOL    HW235058   4.430   2.478   6.948  0.7879  0.6321  0.1745
 7866SOL     OW35059   1.732   0.366   5.183 -0.5649 -0.2664 -0.1026
 7866SOL    HW135060   1.805   0.424   5.162  0.5242 -2.4707 -2.4170
 7866SOL    HW235061   1.746   0.291   5.125  2.3243  0.0392  0.1743
 7867SOL     OW35062   2.979   1.464   7.700 -0.1644 -0.3201 -0.4650
 7867SOL    HW135063   3.052   1.416   7.660 -0.2335  0.1242 -1.1352
 7867SOL    HW235064   2.997   1.555   7.675 -1.2926  0.7375  2.6010
 7868SOL     OW35065   3.892   3.049   6.789 -0.3421  0.5651  0.8858
 7868SOL    HW135066   3.876   2.972   6.734  3.6136  0.6832 -0.4183
 7868SOL    HW235067   3.987   3.051   6.778 -0.6507  0.9243 -1.7888
 7869SOL     OW35068   0.455   3.931   8.288  0.5303 -0.4511  0.5947
 7869SOL    HW135069   0.428   3.841   8.306  0.7735 -0.5677  0.3861
 7869SOL    HW235070   0.390   3.961   8.224  2.6002 -0.6928 -1.6386
 7870SOL     OW35071   2.249   2.700   2.410  0.2158  0.1996  0.2616
 7870SOL    HW135072   2.201   2.697   2.493  1.1577  1.0556  0.8380
 7870SOL    HW235073   2.261   2.795   2.407  0.1426  0.0434 -4.7230
 7871SOL     OW35074   0.146   2.975   2.393  0.0796  0.5300 -0.2408
 7871SOL    HW135075   0.235   3.005   2.411  0.2356 -0.2444  0.2693
 7871SOL    HW235076   0.103   3.026   2.461  1.1188  1.7562 -0.5056
 7872SOL     OW35077   0.003   0.431   2.099  0.2942  0.8107  0.5197
 7872SOL    HW135078   0.066   0.381   2.151  0.8228  0.4712 -0.4461
 7872SOL    HW235079   4.663   0.361   2.090  1.0996  0.0803  0.3866
 7873SOL     OW35080   3.088   3.003   1.356  0.2049  0.2395 -0.2456
 7873SOL    HW135081   3.131   3.003   1.271 -0.2728  1.4364 -0.4838
 7873SOL    HW235082   3.146   2.946   1.408  0.4248 -1.0111 -1.8677
 7874SOL     OW35083   3.232   3.700   3.499  0.0471  0.3953 -0.3376
 7874SOL    HW135084   3.138   3.685   3.502  0.1936  0.0823  2.7375
 7874SOL    HW235085   3.254   3.673   3.410  2.1422 -1.2740  0.6793
 7875SOL     OW35086   0.728   4.564   1.115  0.2409 -0.2461  0.0363
 7875SOL    HW135087   0.738   4.490   1.056  1.5191  0.0957 -0.1922
 7875SOL    HW235088   0.818   4.567   1.150  0.2125  1.5177 -0.0205
 7876SOL     OW35089   2.146   0.396   4.626 -0.4507  0.0562  0.0014
 7876SOL    HW135090   2.081   0.461   4.652 -0.6337 -0.3040  0.4480
 7876SOL    HW235091   2.209   0.413   4.697 -1.3890 -0.7924  1.0253
 7877SOL     OW35092   3.602   2.920  13.818 -0.1996  0.0963  0.8951
 7877SOL    HW135093   3.643   2.834  13.826 -0.1535 -0.1297 -1.8164
 7877SOL    HW235094   3.509   2.904  13.836 -0.4394  0.6546  0.1663
 7878SOL     OW35095   2.633   1.266   6.655 -0.1847  0.2695  0.7657
 7878SOL    HW135096   2.664   1.264   6.565 -1.2383  0.3386  0.3945
 7878SOL    HW235097   2.584   1.184   6.655 -1.3468  0.9465 -0.4383
 7879SOL     OW35098   3.314   0.502  12.976 -0.1168 -0.1641 -0.3046
 7879SOL    HW135099   3.371   0.548  12.914  0.7615  0.3805  0.9039
 7879SOL    HW235100   3.286   0.436  12.913  0.4408 -3.5463  2.9868
 7880SOL     OW35101   3.386   1.744  12.219  0.2221  0.1365  0.2969
 7880SOL    HW135102   3.436   1.799  12.159  0.0643  0.2954  0.3106
 7880SOL    HW235103   3.410   1.777  12.306 -0.4154  0.8368  0.2065
 7881SOL     OW35104   1.922   0.848   2.899  0.0878 -0.3287  0.2553
 7881SOL    HW135105   1.935   0.897   2.817 -1.4407 -4.3917 -2.4407
 7881SOL    HW235106   1.939   0.914   2.966 -0.5382 -0.4410  0.5193
 7882SOL     OW35107   2.575   1.026   6.941  0.1696  0.1906 -0.4800
 7882SOL    HW135108   2.597   0.933   6.947  0.1814  0.0599 -2.5630
 7882SOL    HW235109   2.500   1.031   7.001  0.3733  0.6665 -0.2599
 7883SOL     OW35110   2.521   1.457  11.418  0.3030  0.2604  0.8856
 7883SOL    HW135111   2.591   1.479  11.357  0.0368 -0.5507  0.2762
 7883SOL    HW235112   2.554   1.494  11.500 -1.6661 -0.5833  2.0594
 7884SOL     OW35113   3.455   4.512   3.397  0.0191  0.3335  0.0696
 7884SOL    HW135114   3.409   4.455   3.459  0.9025  0.7461  1.0922
 7884SOL    HW235115   3.480   4.585   3.453  1.1618 -0.2180  0.2695
 7885SOL     OW35116   1.827   1.923   6.594  0.6727  0.0431 -0.1189
 7885SOL    HW135117   1.738   1.958   6.586 -0.4852 -2.7695  0.4635
 7885SOL    HW235118   1.864   1.952   6.511  1.8230  0.4494  0.5427
 7886SOL     OW35119   3.639   4.294   6.104  0.4143 -0.8390 -0.2391
 7886SOL    HW135120   3.717   4.274   6.051  3.0382  1.5127  2.7679
 7886SOL    HW235121   3.639   4.389   6.114  2.2301 -0.4884 -3.3810
 7887SOL     OW35122   1.015   3.557   7.534 -0.5544 -0.0089 -0.3005
 7887SOL    HW135123   0.960   3.488   7.498 -1.7135  1.6711 -1.7198
 7887SOL    HW235124   0.984   3.626   7.475  0.2352 -0.8318 -1.6648
 7888SOL     OW35125   1.497   3.201  14.155  0.3775 -0.6041 -0.2338
 7888SOL    HW135126   1.584   3.182  14.190  1.2308 -0.1392 -2.0904
 7888SOL    HW235127   1.445   3.179  14.232  0.2244  1.5948  0.2899
 7889SOL     OW35128   4.428   0.183  14.379  0.1100 -0.0493  0.3702
 7889SOL    HW135129   4.379   0.205  14.458 -0.5141  0.4220 -0.1504
 7889SOL    HW235130   4.498   0.128  14.415  1.3686  0.4839 -1.2592
 7890SOL     OW35131   3.744   0.802   4.039 -0.0288  0.2071  0.1216
 7890SOL    HW135132   3.821   0.747   4.056 -0.0908 -0.0283 -0.3872
 7890SOL    HW235133   3.704   0.798   4.126 -1.3261 -0.2882 -0.4987
 7891SOL     OW35134   2.275   1.884  14.340  0.2110  0.1812  0.3680
 7891SOL    HW135135   2.236   1.829  14.407  2.4110  0.5799  1.9556
 7891SOL    HW235136   2.360   1.842  14.327 -0.5488 -0.8314 -1.3927
 7892SOL     OW35137   1.803   1.393  16.776  0.0051 -0.2185  0.6507
 7892SOL    HW135138   1.790   1.302  16.749 -0.5014  0.5950 -1.8430
 7892SOL    HW235139   1.886   1.402  16.823  0.7639  0.9644 -0.9263
 7893SOL     OW35140   0.136   1.038  14.026  0.8596 -0.2897 -0.3145
 7893SOL    HW135141   0.056   1.027  14.077  1.7576 -1.3936  0.8617
 7893SOL    HW235142   0.166   0.948  14.014 -1.4714 -0.9028 -1.5029
 7894SOL     OW35143   4.167   1.766   3.114 -0.0726 -0.3779 -0.0833
 7894SOL    HW135144   4.157   1.704   3.042  1.5417 -0.1106 -0.5292
 7894SOL    HW235145   4.261   1.778   3.116 -0.1767  0.7801 -3.1613
 7895SOL     OW35146   0.426   0.404   7.781 -0.0068  0.2187 -0.2918
 7895SOL    HW135147   0.368   0.329   7.769 -1.9636  1.5674  0.8264
 7895SOL    HW235148   0.373   0.477   7.748  0.9214  0.4657 -1.2436
 7896SOL     OW35149   1.142   2.937   7.789 -0.3472 -0.2804 -0.8325
 7896SOL    HW135150   1.075   2.988   7.835  0.6457  0.7222 -0.5064
 7896SOL    HW235151   1.140   2.985   7.707 -1.1813 -0.1379 -0.7332
 7897SOL     OW35152   1.728   4.492   0.945  0.1169 -0.0037 -0.1210
 7897SOL    HW135153   1.702   4.421   0.887  0.3769  0.6426 -1.0145
 7897SOL    HW235154   1.808   4.466   0.990 -0.7540 -1.3786  0.6121
 7898SOL     OW35155   2.316   0.479   7.147 -0.3961  0.1736  0.4231
 7898SOL    HW135156   2.408   0.469   7.122 -0.6628  2.2199 -1.4559
 7898SOL    HW235157   2.301   0.388   7.171  0.0605 -0.0500 -0.1372
 7899SOL     OW35158   1.533   0.958  11.318 -0.6832  0.9083 -0.6246
 7899SOL    HW135159   1.455   0.906  11.296 -0.4677  0.5924 -0.6350
 7899SOL    HW235160   1.555   1.006  11.238  1.4603  1.1494  0.1154
 7900SOL     OW35161   1.822   1.911  12.903 -0.3116 -0.0963  0.3655
 7900SOL    HW135162   1.872   1.842  12.946 -0.6683  0.7572  2.1849
 7900SOL    HW235163   1.876   1.910  12.824 -1.2713  0.0404 -0.2784
 7901SOL     OW35164   2.878   0.277  16.191  0.2647 -0.4132 -0.1811
 7901SOL    HW135165   2.875   0.251  16.283 -0.6365 -1.9365 -0.6284
 7901SOL    HW235166   2.799   0.329  16.173  0.8272 -0.0583 -1.6007
 7902SOL     OW35167   2.792   2.953   1.067  0.8483 -0.2947  0.5990
 7902SOL    HW135168   2.761   3.023   1.125  1.1026 -1.1201  1.7503
 7902SOL    HW235169   2.783   2.874   1.121  1.4251 -1.1010 -0.4784
 7903SOL     OW35170   2.300   1.047  14.067 -0.3443  0.1242 -0.0922
 7903SOL    HW135171   2.371   0.991  14.100 -0.8610 -0.1480  0.5608
 7903SOL    HW235172   2.233   1.049  14.135 -0.1734 -0.4107  0.0969
 7904SOL     OW35173   1.579   1.894   6.190 -0.1013 -0.2117 -0.2810
 7904SOL    HW135174   1.599   1.982   6.159  2.1942 -0.6862 -0.1111
 7904SOL    HW235175   1.665   1.853   6.200  0.7029  1.3001 -0.9883
 7905SOL     OW35176   1.826   4.070   5.315 -0.6423 -0.0479  0.3536
 7905SOL    HW135177   1.836   4.111   5.229 -0.7117 -1.9055 -0.5346
 7905SOL    HW235178   1.759   4.007   5.291 -0.4970  0.7275 -2.1291
 7906SOL     OW35179   1.864   0.985   5.358  0.3222 -0.1025 -0.2511
 7906SOL    HW135180   1.843   1.049   5.426 -0.0160 -0.9456  0.4381
 7906SOL    HW235181   1.804   0.919   5.393  0.8687  0.4861  1.7728
 7907SOL     OW35182   0.490   0.429   5.233 -0.2207 -0.7653  0.1112
 7907SOL    HW135183   0.479   0.399   5.143 -0.8643 -2.4858  0.7747
 7907SOL    HW235184   0.499   0.345   5.278  0.8610 -0.9807 -0.5039
 7908SOL     OW35185   0.898   1.617   8.156  0.6718 -0.3869  0.0245
 7908SOL    HW135186   0.848   1.576   8.227 -0.6712  0.8659 -0.1895
 7908SOL    HW235187   0.881   1.563   8.079  1.6574 -2.1683  1.0687
 7909SOL     OW35188   1.035   4.470  17.603  0.6148  0.0060 -0.0487
 7909SOL    HW135189   0.965   4.480  17.539  0.4711  0.4595  0.1804
 7909SOL    HW235190   0.983   4.430  17.673 -0.1949  1.7694  0.3417
 7910SOL     OW35191   2.348   1.911  17.389  0.2708  0.3130  0.1236
 7910SOL    HW135192   2.295   1.892  17.312  1.6027 -0.6416 -0.5650
 7910SOL    HW235193   2.335   1.832  17.441 -1.1450  0.5194  0.0811
 7911SOL     OW35194   2.039   2.998   6.241  0.0829  0.0022  0.1206
 7911SOL    HW135195   2.106   2.957   6.296  0.8404 -0.8893 -1.4697
 7911SOL    HW235196   1.961   2.989   6.295 -0.0729  0.5341 -0.0140
 7912SOL     OW35197   3.347   0.532   4.491 -0.5640  0.3700  0.3879
 7912SOL    HW135198   3.394   0.605   4.534 -1.6683  0.4047  1.5385
 7912SOL    HW235199   3.336   0.569   4.404  0.3633 -0.9302 -0.2829
 7913SOL     OW35200   3.789   4.196   6.649 -1.0269  0.1816 -0.1261
 7913SOL    HW135201   3.881   4.190   6.676 -1.3299 -2.9151  0.2407
 7913SOL    HW235202   3.743   4.187   6.733  0.0612 -2.9054  0.1553
 7914SOL     OW35203   1.763   1.130   7.660  0.4071 -0.3897 -0.4124
 7914SOL    HW135204   1.812   1.092   7.587 -0.7974  1.6134 -2.2710
 7914SOL    HW235205   1.698   1.061   7.672 -0.1356  0.2208  0.1198
 7915SOL     OW35206   2.183   3.491   5.035  0.0550 -0.5381  0.4429
 7915SOL    HW135207   2.199   3.498   5.130  0.4354  0.3039  0.3156
 7915SOL    HW235208   2.088   3.483   5.038  0.1524 -1.5227  1.2004
 7916SOL     OW35209   4.142   1.528   8.298 -0.0430  0.0316 -0.2795
 7916SOL    HW135210   4.175   1.590   8.362  1.9890 -1.2885 -0.0615
 7916SOL    HW235211   4.194   1.544   8.220 -0.1786  0.6598 -0.2458
 7917SOL     OW35212   4.201   1.039   5.976 -0.4846 -0.2532 -0.5538
 7917SOL    HW135213   4.107   1.045   5.958 -0.2455  1.7669 -1.1946
 7917SOL    HW235214   4.229   1.122   5.938 -1.2219 -0.7713 -2.1947
 7918SOL     OW35215   2.936   1.842   2.934 -0.0133  0.5668  0.3941
 7918SOL    HW135216   2.975   1.856   3.021  2.1453  0.4190 -0.5481
 7918SOL    HW235217   2.849   1.808   2.954 -0.6564  0.7338 -2.2028
 7919SOL     OW35218   3.817   1.329   7.770  0.2404  0.6483  0.1166
 7919SOL    HW135219   3.866   1.354   7.849  1.3504 -2.0952  0.2898
 7919SOL    HW235220   3.838   1.236   7.762  0.7404  0.9213 -1.6898
 7920SOL     OW35221   4.472   0.236  10.017  0.0257 -0.5008 -0.1186
 7920SOL    HW135222   4.538   0.283   9.966  1.2599 -3.2835 -1.0685
 7920SOL    HW235223   4.434   0.174   9.955 -1.0889  1.0707 -1.0040
 7921SOL     OW35224   4.239   4.313   5.856 -0.1522 -0.2959 -0.0598
 7921SOL    HW135225   4.238   4.298   5.951  2.1017 -0.1602  0.0032
 7921SOL    HW235226   4.152   4.348   5.841  0.2301  1.7414  2.4718
 7922SOL     OW35227   3.528   4.211  15.728  0.3747  0.1780 -0.1100
 7922SOL    HW135228   3.612   4.225  15.683  0.6627  0.8818  0.6495
 7922SOL    HW235229   3.498   4.141  15.669 -0.9350  1.1762 -0.6153
 7923SOL     OW35230   0.655   3.887   2.865 -0.0468  0.2414  0.5093
 7923SOL    HW135231   0.632   3.795   2.853 -2.5055  0.7690  1.1791
 7923SOL    HW235232   0.683   3.915   2.778 -0.3361 -1.8261 -0.2446
 7924SOL     OW35233   0.250   2.703   7.592 -0.0528  0.6511 -0.0579
 7924SOL    HW135234   0.231   2.757   7.669 -1.4804 -1.8659  1.3851
 7924SOL    HW235235   0.216   2.620   7.626  3.0066 -1.3208 -1.8704
 7925SOL     OW35236   2.933   1.745   4.042 -0.1876 -0.1568 -0.3316
 7925SOL    HW135237   2.853   1.792   4.018  0.6067  2.2348  1.7352
 7925SOL    HW235238   2.968   1.705   3.963 -1.8280 -1.4569 -0.4063
 7926SOL     OW35239   3.610   4.536   7.342  0.1035  0.1599 -0.3914
 7926SOL    HW135240   3.570   4.458   7.303  0.4505 -0.8421  1.2354
 7926SOL    HW235241   3.565   4.541   7.426  0.3578 -0.4502 -0.2161
 7927SOL     OW35242   1.142   1.896  10.436  0.3187  1.4514 -0.0239
 7927SOL    HW135243   1.219   1.917  10.488  1.4881  1.1733 -1.6795
 7927SOL    HW235244   1.184   1.880  10.352 -1.4672 -1.6687 -0.3184
 7928SOL     OW35245   3.872   2.458   6.989  0.1662  0.3245  0.6157
 7928SOL    HW135246   3.913   2.371   6.995  0.0585  0.2061 -0.4531
 7928SOL    HW235247   3.951   2.512   6.995  0.5350 -0.2616  1.1208
 7929SOL     OW35248   2.029   4.548   2.644 -0.3451  1.0765  0.2650
 7929SOL    HW135249   1.940   4.514   2.637  0.4898 -0.3110 -3.6988
 7929SOL    HW235250   2.088   4.473   2.652 -0.2683  1.2095  1.0220
 7930SOL     OW35251   0.499   0.094   3.378 -0.9815  0.0147  0.2268
 7930SOL    HW135252   0.424   0.060   3.330 -0.8520 -1.8969  1.3964
 7930SOL    HW235253   0.443   0.122   3.450 -1.5911 -2.0552  0.5585
 7931SOL     OW35254   0.118   1.781   3.688  0.0298 -0.1023 -0.0870
 7931SOL    HW135255   0.203   1.740   3.709 -0.3022 -0.8128 -0.1325
 7931SOL    HW235256   0.060   1.710   3.715 -2.0220  1.2183 -1.0488
 7932SOL     OW35257   1.660   2.342  12.635 -0.3654  0.6768  0.0784
 7932SOL    HW135258   1.706   2.418  12.599  0.5691 -0.1923 -0.5586
 7932SOL    HW235259   1.702   2.325  12.720  0.6749 -2.3470 -1.0186
 7933SOL     OW35260   1.547   0.616  14.718  0.4920 -0.4545  0.1606
 7933SOL    HW135261   1.634   0.597  14.683 -0.3603 -1.9293 -1.1479
 7933SOL    HW235262   1.544   0.537  14.771 -0.3362 -0.4590  0.1039
 7934SOL     OW35263   3.122   0.136   6.773 -0.2013  0.1140  0.5738
 7934SOL    HW135264   3.156   0.217   6.735  3.1361 -0.8616  1.4781
 7934SOL    HW235265   3.201   0.082   6.777  0.5560  1.0186 -1.9263
 7935SOL     OW35266   1.429   2.652   5.861  0.0667  0.2924 -0.0446
 7935SOL    HW135267   1.470   2.599   5.929  0.0048  0.3597  0.0451
 7935SOL    HW235268   1.441   2.735   5.906  1.7782  0.5802 -1.0179
 7936SOL     OW35269   2.895   1.050  10.029  0.6874  0.3600 -0.1994
 7936SOL    HW135270   2.905   0.975  10.088  1.6269  0.8553  0.2699
 7936SOL    HW235271   2.899   1.001   9.947  1.1167  2.1242 -1.2158
 7937SOL     OW35272   3.351   4.714  13.299 -0.0206  0.8879  0.1950
 7937SOL    HW135273   3.423   4.674  13.251 -0.8466  0.9134 -1.0734
 7937SOL    HW235274   3.391   0.069  13.334 -0.7275  1.2241  0.2496
 7938SOL     OW35275   0.783   2.720  15.772 -0.4402 -0.1536 -0.1816
 7938SOL    HW135276   0.687   2.728  15.776 -0.5970 -2.2687  0.1252
 7938SOL    HW235277   0.807   2.764  15.690  1.6696 -0.2046  0.4120
 7939SOL     OW35278   4.320   2.562   3.957 -0.0867 -0.0602 -0.1006
 7939SOL    HW135279   4.313   2.473   3.924 -0.8689 -0.0474  0.0404
 7939SOL    HW235280   4.410   2.570   3.990 -0.1013  0.2855 -0.1447
 7940SOL     OW35281   3.998   3.877   4.182  0.4508 -0.3521  0.0799
 7940SOL    HW135282   3.989   3.895   4.088 -0.8709  1.4800  0.5761
 7940SOL    HW235283   4.091   3.900   4.183  0.5277 -0.4954 -3.5424
 7941SOL     OW35284   4.373   2.006   5.267 -0.0155  0.7873  0.1435
 7941SOL    HW135285   4.396   1.914   5.261  1.3792  1.2534 -1.7073
 7941SOL    HW235286   4.283   2.004   5.299  0.3230 -0.3755  1.0133
 7942SOL     OW35287   0.190   1.196  16.634 -0.0367 -0.0975 -0.3740
 7942SOL    HW135288   0.110   1.162  16.675  0.2992  0.7335  0.9674
 7942SOL    HW235289   0.216   1.272  16.685  1.9246 -0.6276 -0.5872
 7943SOL     OW35290   0.226   1.118  17.261 -0.2316 -0.1443 -0.3455
 7943SOL    HW135291   0.242   1.091  17.171  4.2315 -1.1798  0.7439
 7943SOL    HW235292   0.218   1.214  17.261 -1.8074 -0.2729 -1.3539
 7944SOL     OW35293   3.996   2.366  17.502  0.2035 -0.6069 -0.1337
 7944SOL    HW135294   3.996   2.419  17.581  1.6252 -3.2116  1.6110
 7944SOL    HW235295   3.908   2.328  17.493  0.0910 -0.3110 -0.3148
 7945SOL     OW35296   3.471   3.005   0.512  0.1500 -0.0250 -0.1238
 7945SOL    HW135297   3.549   2.950   0.516  0.6744  0.6330 -1.0476
 7945SOL    HW235298   3.436   3.007   0.601  1.6588 -0.1026  0.4743
 7946SOL     OW35299   0.725   3.675  17.220 -0.1697  0.3218  0.2748
 7946SOL    HW135300   0.774   3.734  17.162  1.6548 -0.1794  1.3072
 7946SOL    HW235301   0.753   3.592  17.181  1.2891  1.0276 -0.2001
 7947SOL     OW35302   2.547   2.233   2.927  0.4354  0.4790  0.3124
 7947SOL    HW135303   2.455   2.258   2.933  0.2724  0.3645 -1.7403
 7947SOL    HW235304   2.586   2.316   2.901 -0.4279  0.8356  0.1552
 7948SOL     OW35305   2.127   1.550  10.568  0.0769  0.0001 -0.2010
 7948SOL    HW135306   2.090   1.603  10.497 -0.9449 -0.0062  0.3266
 7948SOL    HW235307   2.216   1.546  10.534  0.3676  0.1894  0.5236
 7949SOL     OW35308   2.259   2.794   0.790  0.0419  0.0300 -0.3688
 7949SOL    HW135309   2.184   2.854   0.784 -0.0959 -0.1908 -0.8935
 7949SOL    HW235310   2.327   2.846   0.748  0.0146 -0.7334 -1.3566
 7950SOL     OW35311   0.998   1.021  17.317 -0.0279  0.0793  0.1820
 7950SOL    HW135312   1.023   1.106  17.280  0.7197  1.0113  2.8285
 7950SOL    HW235313   1.086   1.001  17.351 -0.9158 -3.8124  0.2055
 7951SOL     OW35314   3.281   1.113   3.904  0.2062  0.1291 -0.4442
 7951SOL    HW135315   3.242   1.181   3.849 -0.1379 -0.3411 -0.7913
 7951SOL    HW235316   3.319   1.058   3.835  1.8745 -0.4133  0.9228
 7952SOL     OW35317   2.410   4.534  14.648 -0.0332  0.0829  0.1301
 7952SOL    HW135318   2.331   4.480  14.652  1.6639 -2.4229  0.0202
 7952SOL    HW235319   2.435   4.508  14.559  2.2157 -1.1054  1.0840
 7953SOL     OW35320   3.758   2.559   7.553  0.5777  0.2097 -0.8830
 7953SOL    HW135321   3.704   2.528   7.625  0.1001  3.5072  0.1958
 7953SOL    HW235322   3.816   2.486   7.532  1.2710  0.3231  0.6243
 7954SOL     OW35323   2.611   1.029   4.068  0.2054  0.1367  0.1274
 7954SOL    HW135324   2.533   0.990   4.108  1.9241  0.0868  3.4055
 7954SOL    HW235325   2.572   1.030   3.981 -0.2333 -1.8005  0.3055
 7955SOL     OW35326   0.371   0.545   8.077 -0.6723 -0.0584 -0.2266
 7955SOL    HW135327   0.427   0.574   8.005 -1.5082  0.5440 -0.6440
 7955SOL    HW235328   0.412   0.464   8.107  0.2878  0.7839  0.7296
 7956SOL     OW35329   2.431   3.063   6.926 -1.0027  0.1856 -0.3673
 7956SOL    HW135330   2.432   3.019   6.841  2.6545  1.2273 -0.8895
 7956SOL    HW235331   2.372   3.135   6.904 -1.5634 -0.1382  0.0712
 7957SOL     OW35332   4.682   3.902   6.663 -0.7366 -0.1450  0.0421
 7957SOL    HW135333   4.707   3.994   6.661 -0.5195 -0.2443 -1.4001
 7957SOL    HW235334   0.009   3.868   6.590 -0.1106  0.0186  0.3968
 7958SOL     OW35335   1.875   3.326   6.478  0.0134  0.1284 -0.0726
 7958SOL    HW135336   1.818   3.365   6.411 -2.6368 -3.1242  0.2932
 7958SOL    HW235337   1.941   3.391   6.501  1.0223  0.5282 -4.0830
 7959SOL     OW35338   4.692   2.166   5.630  0.1257 -0.0854  0.2561
 7959SOL    HW135339   0.013   2.196   5.552  0.0319  1.5149  0.8076
 7959SOL    HW235340   4.718   2.074   5.628 -0.6747 -0.2313 -2.2539
 7960SOL     OW35341   4.668   1.672   4.394 -0.4361  0.6150 -0.4343
 7960SOL    HW135342   0.012   1.718   4.347  0.2115 -1.1930 -1.2490
 7960SOL    HW235343   4.646   1.729   4.468  0.8771 -0.1795  0.5681
 7961SOL     OW35344   0.156   1.953   6.396  0.3150  0.3491  0.4148
 7961SOL    HW135345   0.105   2.030   6.422  0.1635 -0.4827  2.5614
 7961SOL    HW235346   0.203   1.943   6.478  1.7863  2.9815 -0.0833
 7962SOL     OW35347   3.540   1.639   8.049 -0.2777 -0.1858 -0.0168
 7962SOL    HW135348   3.545   1.559   7.997 -2.2350 -1.0013  1.0433
 7962SOL    HW235349   3.554   1.588   8.129 -0.6750  1.7844  1.2900
 7963SOL     OW35350   3.749   2.699  13.878  0.5618  0.0585  0.5998
 7963SOL    HW135351   3.730   2.622  13.932  0.0595  0.1127  0.5007
 7963SOL    HW235352   3.839   2.675  13.857  0.1796 -1.1263  0.2705
 7964SOL     OW35353   3.286   3.210   3.008 -0.0465  0.0200 -0.3078
 7964SOL    HW135354   3.319   3.152   2.939 -0.6104 -1.5329  0.7277
 7964SOL    HW235355   3.238   3.143   3.057 -1.6181  1.1193 -0.3653
 7965SOL     OW35356   3.334   3.811  15.762 -0.1526  0.0737 -0.5248
 7965SOL    HW135357   3.281   3.891  15.759  0.0884  0.2463 -0.2739
 7965SOL    HW235358   3.407   3.842  15.709  2.7911 -0.1121  3.3888
 7966SOL     OW35359   4.203   2.288  12.541  0.5162  0.0058 -0.2626
 7966SOL    HW135360   4.204   2.383  12.549  2.3415 -0.1137  0.7450
 7966SOL    HW235361   4.248   2.255  12.619  0.1899  0.9743  0.3286
 7967SOL     OW35362   0.290   4.486   1.230  0.2342 -0.0007 -0.2999
 7967SOL    HW135363   0.231   4.421   1.192  1.7731 -1.4156 -0.2560
 7967SOL    HW235364   0.377   4.462   1.198  0.4452  0.6772 -0.2485
 7968SOL     OW35365   3.394   3.263   4.352 -0.6306 -0.1151  0.5308
 7968SOL    HW135366   3.443   3.310   4.419 -0.1599  0.6742 -0.3719
 7968SOL    HW235367   3.353   3.198   4.409  0.9374  1.3154  3.2997
 7969SOL     OW35368   0.648   0.193   4.299 -0.5790  0.3944  0.1256
 7969SOL    HW135369   0.730   0.172   4.253 -0.0560  1.7960  0.4229
 7969SOL    HW235370   0.675   0.262   4.359  0.3204  0.3930 -0.2710
 7970SOL     OW35371   0.790   0.268   2.200 -0.5528 -0.4188 -0.2182
 7970SOL    HW135372   0.717   0.206   2.209 -0.3733 -0.6185 -0.1222
 7970SOL    HW235373   0.868   0.216   2.222 -0.0162 -0.0749 -1.3186
 7971SOL     OW35374   0.115   1.631   5.706  0.0302  0.1831 -0.2049
 7971SOL    HW135375   0.146   1.565   5.644  2.2518  2.1968 -1.2233
 7971SOL    HW235376   0.188   1.634   5.768 -0.6833  1.8955  0.5422
 7972SOL     OW35377   2.146   0.020   9.049  0.1755  0.5198  0.0001
 7972SOL    HW135378   2.134   0.051   9.139 -0.5833 -0.5226  0.2529
 7972SOL    HW235379   2.063   0.054   9.017  0.0316 -0.9981 -1.2493
 7973SOL     OW35380   2.162   4.397   8.947  0.3231 -0.1940  0.3737
 7973SOL    HW135381   2.235   4.455   8.969 -0.9337  1.8139 -0.6661
 7973SOL    HW235382   2.142   4.365   9.035 -0.0465  0.5564  0.5648
 7974SOL     OW35383   0.739   2.867   8.869  0.4068  0.4699  0.1532
 7974SOL    HW135384   0.741   2.772   8.885 -1.9864  0.3692 -0.0572
 7974SOL    HW235385   0.736   2.863   8.773 -1.4691  0.1536  0.2232
 7975SOL     OW35386   1.614   3.138  10.805  0.0239  0.0247 -0.2281
 7975SOL    HW135387   1.570   3.221  10.787 -1.0225  0.0397  2.3878
 7975SOL    HW235388   1.695   3.157  10.852  0.7514 -1.2408 -0.9764
 7976SOL     OW35389   1.620   2.635  16.302 -0.0337 -0.1523 -0.4803
 7976SOL    HW135390   1.534   2.644  16.261  0.6495 -0.5091 -1.9964
 7976SOL    HW235391   1.645   2.728  16.302  1.7000 -0.6261 -1.2739
 7977SOL     OW35392   4.440   0.249   5.524  0.1492  0.4558  0.6850
 7977SOL    HW135393   4.465   0.260   5.616 -1.8567 -1.1133  1.4256
 7977SOL    HW235394   4.358   0.298   5.517  0.8540  1.9110  2.4882
 7978SOL     OW35395   2.674   4.333  13.068  0.2207 -0.6214 -0.0407
 7978SOL    HW135396   2.637   4.400  13.011 -0.5925 -0.8322  0.2260
 7978SOL    HW235397   2.751   4.306  13.019  0.2295 -0.9095  0.1315
 7979SOL     OW35398   1.845   2.715   8.297 -0.3076 -0.2411 -0.2060
 7979SOL    HW135399   1.850   2.798   8.251  2.4134 -2.0979 -3.2290
 7979SOL    HW235400   1.854   2.740   8.389 -0.8385 -0.1745 -0.1709
 7980SOL     OW35401   1.078   0.407   2.437 -0.1805  0.4567  0.5584
 7980SOL    HW135402   1.130   0.485   2.453 -0.2189  0.4502  0.7170
 7980SOL    HW235403   1.132   0.370   2.367 -1.5007  0.7662 -0.6217
 7981SOL     OW35404   0.793   0.768   2.048  0.2218  0.3519  0.7231
 7981SOL    HW135405   0.706   0.796   2.020  0.5108  0.0800 -0.4850
 7981SOL    HW235406   0.786   0.673   2.055 -1.3261  0.4837  0.8713
 7982SOL     OW35407   1.023   2.414   2.204  0.0143  0.2231 -0.2001
 7982SOL    HW135408   1.016   2.319   2.190  4.1605 -0.1022  0.0503
 7982SOL    HW235409   1.109   2.436   2.171  0.2345 -0.3389 -0.0088
 7983SOL     OW35410   4.392   0.356   6.945 -0.4517  0.0169 -0.0834
 7983SOL    HW135411   4.319   0.385   6.891 -0.5819 -0.3313 -0.0980
 7983SOL    HW235412   4.435   0.438   6.968 -1.3076  0.2976  0.5069
 7984SOL     OW35413   0.332   1.735   4.539 -0.3546  0.4269 -0.2657
 7984SOL    HW135414   0.412   1.754   4.589  0.2835  0.1703 -1.1844
 7984SOL    HW235415   0.297   1.824   4.532 -1.9213 -0.2115 -0.3470
 7985SOL     OW35416   0.610   1.025  16.615  0.1599 -0.0154 -0.1064
 7985SOL    HW135417   0.529   0.983  16.644  0.5954 -1.4061 -0.9148
 7985SOL    HW235418   0.627   1.078  16.693  1.3749  0.5677 -0.7575
 7986SOL     OW35419   2.443   3.007   3.554 -0.1188  0.5525 -0.2328
 7986SOL    HW135420   2.520   3.004   3.610 -2.5540 -0.0165  3.1186
 7986SOL    HW235421   2.416   2.915   3.551 -0.7189  0.7048  0.3152
 7987SOL     OW35422   2.194   1.154   3.379  0.6902  0.1531  0.2228
 7987SOL    HW135423   2.202   1.141   3.284 -1.3751  2.9280 -0.3327
 7987SOL    HW235424   2.102   1.131   3.394 -0.0327  2.0719 -1.2477
 7988SOL     OW35425   2.718   2.518   4.607 -0.0576  0.5509  0.3354
 7988SOL    HW135426   2.745   2.511   4.699  1.0739 -0.5752 -0.0900
 7988SOL    HW235427   2.624   2.499   4.609 -0.0020  0.4888  3.0310
 7989SOL     OW35428   1.685   3.605   6.364  0.3347 -0.0997 -0.0780
 7989SOL    HW135429   1.730   3.636   6.443 -1.3756  0.6487  0.5862
 7989SOL    HW235430   1.594   3.615   6.392  0.0387 -1.4035 -0.5827
 7990SOL     OW35431   1.565   0.930   1.281  0.1027 -0.2984 -0.3720
 7990SOL    HW135432   1.658   0.935   1.261 -0.4758  0.3359 -3.0010
 7990SOL    HW235433   1.551   1.013   1.327  2.5488 -0.8956  1.4337
 7991SOL     OW35434   2.188   1.627   0.420 -0.5191  0.0414 -0.1144
 7991SOL    HW135435   2.265   1.642   0.475  0.7744  0.7607 -2.1482
 7991SOL    HW235436   2.156   1.716   0.408  1.3663  0.4682 -1.9480
 7992SOL     OW35437   2.279   1.633   3.297 -0.1564 -0.4741  0.0532
 7992SOL    HW135438   2.188   1.662   3.294  0.4176  1.5207  2.2833
 7992SOL    HW235439   2.280   1.552   3.350  0.3541 -1.1721 -1.0234
 7993SOL     OW35440   2.396   3.315   5.015  0.1698 -0.5460  0.0336
 7993SOL    HW135441   2.447   3.306   4.935 -2.1920 -1.2448 -1.4002
 7993SOL    HW235442   2.327   3.377   4.993 -1.5708 -2.5749 -0.3393
 7994SOL     OW35443   0.542   3.325   5.149 -0.1013 -0.0800  0.3450
 7994SOL    HW135444   0.539   3.238   5.189  1.9524  0.9264  2.7339
 7994SOL    HW235445   0.554   3.393   5.216 -0.6034  0.2460  0.1044
 7995SOL     OW35446   2.989   2.170   7.508 -0.0731  1.1166 -0.1622
 7995SOL    HW135447   3.018   2.175   7.417  0.0903 -0.2534 -0.1905
 7995SOL    HW235448   3.006   2.259   7.537  0.2918  1.6211 -1.9226
 7996SOL     OW35449   2.991   0.257  11.298 -0.4604 -0.1931 -0.6229
 7996SOL    HW135450   2.926   0.186  11.303 -0.1370 -0.4385  0.1748
 7996SOL    HW235451   3.052   0.223  11.364 -0.3148  0.7504 -0.2810
 7997SOL     OW35452   3.456   2.461   4.394  0.5261 -0.5454  0.3459
 7997SOL    HW135453   3.488   2.393   4.454 -0.9530 -0.2542  1.4644
 7997SOL    HW235454   3.364   2.436   4.394 -0.5918  3.7414 -0.7567
 7998SOL     OW35455   1.847   3.603   9.125 -0.1343 -0.3006  0.1807
 7998SOL    HW135456   1.774   3.647   9.083  1.0968 -0.1820 -1.8278
 7998SOL    HW235457   1.919   3.639   9.072  0.5394 -0.3937  1.0204
 7999SOL     OW35458   0.899   0.802   9.378  0.5442 -0.3497  0.4443
 7999SOL    HW135459   0.869   0.735   9.440  1.0080 -1.8815 -0.9919
 7999SOL    HW235460   0.987   0.766   9.366  0.6443 -0.1169  0.4771
 8000SOL     OW35461   4.476   3.586   3.872  0.5621  0.1346 -0.2784
 8000SOL    HW135462   4.480   3.661   3.812 -0.5745 -0.9206 -1.6751
 8000SOL    HW235463   4.514   3.512   3.824  2.5196  0.1230  1.2789
 8001SOL     OW35464   0.819   2.163  12.115 -0.4580 -0.1301  0.2340
 8001SOL    HW135465   0.821   2.254  12.143 -0.0894  0.2004 -0.8910
 8001SOL    HW235466   0.848   2.117  12.194 -0.2666  1.9172  1.3511
 8002SOL     OW35467   3.807   3.509  13.368  0.1197  0.3937  0.1297
 8002SOL    HW135468   3.840   3.425  13.400 -1.1920 -0.0531  0.3033
 8002SOL    HW235469   3.712   3.507  13.378  0.4077 -2.7646  2.2717
 8003SOL     OW35470   4.167   2.575   4.464 -0.3578  0.7150 -0.0357
 8003SOL    HW135471   4.241   2.522   4.433  0.4418  0.2236  2.6559
 8003SOL    HW235472   4.218   2.641   4.512 -1.4923  1.0887  0.6647
 8004SOL     OW35473   2.695   2.761   3.565 -0.1228 -0.4719 -0.2717
 8004SOL    HW135474   2.784   2.733   3.587  0.6501  0.3698 -2.3762
 8004SOL    HW235475   2.707   2.799   3.478 -0.4549 -0.4583 -0.3129
 8005SOL     OW35476   3.436   3.896   8.224  0.3931  0.0791 -0.2317
 8005SOL    HW135477   3.397   3.915   8.139  1.2128  0.5004 -0.5102
 8005SOL    HW235478   3.359   3.919   8.277 -0.8543 -0.6723 -1.6998
 8006SOL     OW35479   0.183   1.293   4.405 -0.0778 -0.0715 -0.5389
 8006SOL    HW135480   0.202   1.382   4.434  0.2827 -0.5065  0.5355
 8006SOL    HW235481   0.208   1.295   4.312  1.2406 -0.5376 -0.1931
 8007SOL     OW35482   3.954   1.183  10.134 -0.3682 -0.3194  0.3534
 8007SOL    HW135483   3.885   1.171  10.200  0.7934 -0.4065  1.5668
 8007SOL    HW235484   4.027   1.143  10.181 -1.4241 -0.0795  2.2213
 8008SOL     OW35485   2.541   0.463   5.076 -0.6656  0.4816 -0.0354
 8008SOL    HW135486   2.607   0.400   5.047 -2.1748 -0.5243 -1.3059
 8008SOL    HW235487   2.593   0.539   5.099 -0.4958  0.1359  0.7156
 8009SOL     OW35488   0.752   4.683  11.501 -0.2428  0.3125 -0.1248
 8009SOL    HW135489   0.678   0.019  11.496 -2.1568 -1.8942  1.7094
 8009SOL    HW235490   0.812   4.703  11.429 -1.8142 -1.1076 -1.8156
 8010SOL     OW35491   3.038   1.985  17.186  1.0466  0.1644  0.1772
 8010SOL    HW135492   2.988   2.014  17.262  0.9680 -1.7914  0.8863
 8010SOL    HW235493   3.121   1.962  17.229  1.0204  1.0935  0.7313
 8011SOL     OW35494   0.900   4.319   4.433  0.3249 -0.4469 -0.3699
 8011SOL    HW135495   0.900   4.402   4.480 -0.0417  0.0111 -1.1782
 8011SOL    HW235496   0.889   4.258   4.507 -3.0427 -0.3909 -0.7990
 8012SOL     OW35497   4.116   2.223   6.739 -0.3800  0.0383 -0.0111
 8012SOL    HW135498   4.154   2.149   6.788  3.6405  1.9245 -0.3173
 8012SOL    HW235499   4.059   2.265   6.804 -0.9260  2.4125 -2.0378
 8013SOL     OW35500   1.298   4.649   8.424  0.4151 -0.1904  0.0853
 8013SOL    HW135501   1.376   4.657   8.369  0.0883 -0.4938 -0.4254
 8013SOL    HW235502   1.298   0.006   8.474 -2.9545  1.1782 -2.1046
 8014SOL     OW35503   4.433   1.503   6.523  0.5516  0.1500 -0.4654
 8014SOL    HW135504   4.487   1.468   6.452  1.3624 -1.6435  1.0498
 8014SOL    HW235505   4.481   1.587   6.526 -1.9634  1.5454  0.4109
 8015SOL     OW35506   3.509   3.177   2.549 -0.1720 -0.3981 -0.2891
 8015SOL    HW135507   3.471   3.094   2.576 -2.6011  1.2417  1.3306
 8015SOL    HW235508   3.587   3.184   2.604  0.7169 -3.2085 -1.1588
 8016SOL     OW35509   4.202   0.156  15.373  0.1125  0.0100 -0.1650
 8016SOL    HW135510   4.239   0.142  15.285  1.4789 -0.4295  0.4795
 8016SOL    HW235511   4.241   0.240  15.401  0.2329  0.4024 -1.4768
 8017SOL     OW35512   0.591   3.388   9.956  0.0171 -0.0575  0.1977
 8017SOL    HW135513   0.519   3.426  10.007 -0.4892 -0.7112 -0.0261
 8017SOL    HW235514   0.660   3.376  10.021  0.9084 -0.7043 -0.8615
 8018SOL     OW35515   0.434   3.502  14.854  0.4972  0.2912 -0.4370
 8018SOL    HW135516   0.511   3.446  14.858 -0.5242 -0.9786  1.0666
 8018SOL    HW235517   0.376   3.468  14.785  2.8669  0.7296 -2.6373
 8019SOL     OW35518   0.514   4.003   2.243 -0.1399  0.1211 -0.4570
 8019SOL    HW135519   0.557   4.005   2.157  1.1471  1.4092  0.2154
 8019SOL    HW235520   0.539   4.090   2.274 -0.0135  0.0055 -0.2367
 8020SOL     OW35521   3.776   0.385   3.703 -0.4488 -0.2753  0.6113
 8020SOL    HW135522   3.836   0.398   3.630 -1.5998 -0.4771 -0.3718
 8020SOL    HW235523   3.716   0.458   3.690  0.6157  0.6815  1.0580
 8021SOL     OW35524   0.068   3.637   3.451  0.1310  0.2668 -0.4274
 8021SOL    HW135525   0.074   3.679   3.537 -0.3690 -0.9434  0.1975
 8021SOL    HW235526   0.040   3.548   3.472  1.1055 -0.1737 -1.0095
 8022SOL     OW35527   3.553   3.684   3.831  0.4181 -0.0350  0.2367
 8022SOL    HW135528   3.464   3.718   3.825 -0.1881 -1.4379  1.3675
 8022SOL    HW235529   3.596   3.691   3.746  3.1231 -1.1532  1.5141
 8023SOL     OW35530   1.117   1.931  16.319 -0.3748 -0.3794  0.2114
 8023SOL    HW135531   1.181   1.950  16.250 -0.4255 -0.5771  0.1117
 8023SOL    HW235532   1.041   1.923  16.261 -0.1882  0.2111 -0.1246
 8024SOL     OW35533   0.906   4.528   3.953 -0.3712  0.2556 -0.1857
 8024SOL    HW135534   0.955   4.588   3.897 -1.5060 -0.6272 -2.1313
 8024SOL    HW235535   0.927   4.557   4.041 -0.6081  0.0615 -0.0631
 8025SOL     OW35536   0.424   3.898  15.091  0.3929  0.0861  0.1369
 8025SOL    HW135537   0.333   3.882  15.064  0.0208  2.5919 -0.0223
 8025SOL    HW235538   0.425   3.885  15.186  1.7790  0.4115  0.1702
 8026SOL     OW35539   0.892   4.678   0.809  0.4576  0.1067 -0.2281
 8026SOL    HW135540   0.965   0.006   0.842 -0.4841  1.3658 -0.1185
 8026SOL    HW235541   0.925   4.588   0.802 -0.9022 -0.5980  2.1836
 8027SOL     OW35542   2.625   0.134   2.174  0.6393  0.3999 -0.3822
 8027SOL    HW135543   2.713   0.150   2.138  0.7245  0.8970  0.0487
 8027SOL    HW235544   2.629   0.165   2.265  2.6195  2.2488 -1.1017
 8028SOL     OW35545   2.530   2.269   4.974 -0.7417 -0.3415  0.0966
 8028SOL    HW135546   2.470   2.207   5.014  0.1378  0.5141  2.7468
 8028SOL    HW235547   2.472   2.281   4.899 -1.7123  1.8575  1.1814
 8029SOL     OW35548   4.426   2.652   8.993 -0.2172  0.2834  0.2885
 8029SOL    HW135549   4.446   2.559   9.002  1.4221  0.7516  1.5100
 8029SOL    HW235550   4.489   2.677   8.925 -1.2521 -0.6246 -0.9983
 8030SOL     OW35551   4.476   2.946  14.247 -0.5406  0.1301  0.8616
 8030SOL    HW135552   4.564   2.943  14.208 -0.4270  0.0942  1.1224
 8030SOL    HW235553   4.431   2.907  14.172  0.5784  1.5323 -0.5474
 8031SOL     OW35554   3.763   4.384   8.043 -0.1020  0.3797  0.2976
 8031SOL    HW135555   3.724   4.463   8.081 -0.0094  0.9701 -0.8217
 8031SOL    HW235556   3.711   4.313   8.081  0.5616 -0.9700 -1.2961
 8032SOL     OW35557   2.126   1.327   1.413  0.3661  0.2562 -0.4661
 8032SOL    HW135558   2.069   1.310   1.488  1.4158  0.4746  0.3852
 8032SOL    HW235559   2.199   1.384   1.437 -0.3971  0.8838  0.3681
 8033SOL     OW35560   0.046   0.672   2.225 -0.0996  0.4498 -0.0962
 8033SOL    HW135561   0.131   0.635   2.250  0.0221  0.6442 -0.2182
 8033SOL    HW235562   0.012   0.601   2.172  1.1567 -0.3266  0.1236
 8034SOL     OW35563   0.783   2.336  15.006  0.1866 -0.2676  0.5898
 8034SOL    HW135564   0.876   2.324  14.983 -0.5814 -2.2524 -1.4751
 8034SOL    HW235565   0.767   2.262  15.064 -0.7270  0.1259  0.8304
 8035SOL     OW35566   1.399   1.009   8.121 -0.1051 -0.0739  0.5038
 8035SOL    HW135567   1.474   1.037   8.173  1.1961 -1.3605 -0.7129
 8035SOL    HW235568   1.383   1.083   8.062 -1.3925  1.2750  2.5230
 8036SOL     OW35569   2.356   0.944   3.570  0.4915  0.2334  0.2933
 8036SOL    HW135570   2.379   0.974   3.482 -3.1489  3.3777  0.4085
 8036SOL    HW235571   2.271   0.986   3.577  0.6726  0.2641  2.2387
 8037SOL     OW35572   2.474   4.593  11.643  0.4171  0.4098 -0.1963
 8037SOL    HW135573   2.391   4.579  11.599  0.5634  0.2307 -0.4161
 8037SOL    HW235574   2.529   4.530  11.596 -1.4519 -0.8374 -0.6831
 8038SOL     OW35575   1.968   0.041   8.127 -0.5075 -0.6968 -0.7244
 8038SOL    HW135576   1.902   0.091   8.175  0.1519 -0.8009  0.2694
 8038SOL    HW235577   2.030   0.022   8.197 -1.7353  0.0181  0.5473
 8039SOL     OW35578   3.721   1.504  16.546 -0.4596 -0.2908  0.5940
 8039SOL    HW135579   3.703   1.441  16.616  0.8059 -0.0891  1.1000
 8039SOL    HW235580   3.770   1.570  16.595 -2.2822  0.6970  1.0551
 8040SOL     OW35581   3.846   1.719   6.174 -0.6393  0.1240 -0.3607
 8040SOL    HW135582   3.924   1.665   6.168 -0.6757 -0.3755  3.5013
 8040SOL    HW235583   3.877   1.805   6.203 -1.8024  0.0704  1.0252
 8041SOL     OW35584   0.715   3.076  13.712 -0.0631 -0.1770 -0.0116
 8041SOL    HW135585   0.660   3.155  13.709  1.1814  0.7612  1.5345
 8041SOL    HW235586   0.798   3.123  13.720 -0.6291  1.0463 -1.2469
 8042SOL     OW35587   2.649   1.888   3.967  0.3996 -0.5212 -0.2573
 8042SOL    HW135588   2.577   1.919   3.912 -0.2470 -0.0158  0.8846
 8042SOL    HW235589   2.610   1.842   4.041 -0.5323 -0.2982 -0.6107
 8043SOL     OW35590   3.510   0.075   6.055  0.0337  0.5651 -0.2738
 8043SOL    HW135591   3.420   0.044   6.070  0.0367  0.8762  0.3734
 8043SOL    HW235592   3.491   0.129   5.978 -0.8430 -1.2274 -1.3322
 8044SOL     OW35593   4.367   0.289   6.477  0.1616 -0.6732 -0.7995
 8044SOL    HW135594   4.381   0.367   6.531 -2.7266 -0.5829 -0.1856
 8044SOL    HW235595   4.317   0.340   6.413  0.7463  1.0661  0.1428
 8045SOL     OW35596   3.389   2.677  13.845  0.0520 -0.1469 -0.4233
 8045SOL    HW135597   3.354   2.690  13.934 -0.6272  0.2531 -0.7414
 8045SOL    HW235598   3.471   2.637  13.871 -0.1889 -1.2749 -1.4576
 8046SOL     OW35599   2.259   2.243   7.539  0.5027  0.0125  0.0458
 8046SOL    HW135600   2.238   2.154   7.568 -1.9670  0.6244  0.1032
 8046SOL    HW235601   2.305   2.222   7.457  1.2038  1.2285  0.1362
 8047SOL     OW35602   3.560   4.456   4.772 -0.1710  0.6621 -0.1139
 8047SOL    HW135603   3.497   4.505   4.826 -0.7551  3.8266 -3.6155
 8047SOL    HW235604   3.548   4.379   4.827 -0.5164 -0.1451 -1.3326
 8048SOL     OW35605   2.011   2.039   7.164  0.2076  0.3824 -0.3187
 8048SOL    HW135606   2.003   2.045   7.259 -0.3937  3.2791 -0.5838
 8048SOL    HW235607   2.012   1.947   7.135  0.2536 -0.1493  1.3550
 8049SOL     OW35608   2.449   3.714   6.069 -0.2099 -0.2217 -0.3981
 8049SOL    HW135609   2.492   3.739   6.151 -0.2699  2.1038 -1.0519
 8049SOL    HW235610   2.374   3.671   6.112 -1.7486  2.2991 -0.5335
 8050SOL     OW35611   2.045   1.443  11.470  0.4291  0.9855 -0.0311
 8050SOL    HW135612   2.128   1.450  11.425  0.2658 -0.2299 -0.5315
 8050SOL    HW235613   2.070   1.402  11.553  3.3797  1.6058 -0.6455
 8051SOL     OW35614   1.187   4.708   8.739 -0.2618 -0.0781 -0.1411
 8051SOL    HW135615   1.263   4.722   8.796 -0.6664  1.8952 -0.0821
 8051SOL    HW235616   1.130   0.059   8.757 -0.6550 -0.2713 -0.5742
 8052SOL     OW35617   2.670   2.202   7.435 -0.0510 -0.2047  0.1767
 8052SOL    HW135618   2.702   2.121   7.475  1.8855  1.1029  1.2208
 8052SOL    HW235619   2.750   2.252   7.423  1.7087 -2.6925  1.5414
 8053SOL     OW35620   3.628   1.459   4.385  0.4375  0.0916  0.5607
 8053SOL    HW135621   3.618   1.553   4.369 -0.5482 -0.1295 -0.1582
 8053SOL    HW235622   3.677   1.436   4.306 -2.3603  0.9952 -1.4420
 8054SOL     OW35623   4.540   0.295   4.193  0.5864 -0.2496  0.0124
 8054SOL    HW135624   4.534   0.270   4.101  1.4929 -0.0958 -0.0859
 8054SOL    HW235625   4.448   0.306   4.217  0.0065 -0.3701 -2.1721
 8055SOL     OW35626   4.070   0.335   4.424 -0.0678  0.4414 -0.1354
 8055SOL    HW135627   4.034   0.397   4.487  0.3324  1.1183 -0.5787
 8055SOL    HW235628   4.010   0.334   4.349 -0.6037  1.8288  0.2862
 8056SOL     OW35629   4.515   1.751   3.121  0.4545  0.0655 -0.1797
 8056SOL    HW135630   4.508   1.735   3.027  1.4547 -1.4378  0.0076
 8056SOL    HW235631   4.513   1.847   3.128 -1.5923 -0.0383  0.6805
 8057SOL     OW35632   2.339   2.288   8.318 -0.0536 -0.5061  0.0985
 8057SOL    HW135633   2.358   2.195   8.326  2.0017 -0.2915 -2.1751
 8057SOL    HW235634   2.317   2.308   8.409 -0.7642 -0.4100 -0.0927
 8058SOL     OW35635   1.013   3.917   5.567 -0.3012 -0.0281  0.3417
 8058SOL    HW135636   1.039   4.002   5.602  1.4248 -0.5549  0.3370
 8058SOL    HW235637   1.100   3.877   5.563 -1.1335 -1.7887 -0.1734
 8059SOL     OW35638   2.487   0.998  11.943 -0.2487 -0.7579  0.0995
 8059SOL    HW135639   2.467   0.909  11.911  1.1054 -1.3929  1.0525
 8059SOL    HW235640   2.564   0.977  11.995  0.8454 -1.4536 -1.7656
 8060SOL     OW35641   0.263   1.131  14.808  0.3534 -0.3914  0.1424
 8060SOL    HW135642   0.322   1.073  14.760  0.5470 -0.3443  0.3231
 8060SOL    HW235643   0.226   1.175  14.731  0.6230 -2.5277 -1.2256
 8061SOL     OW35644   4.486   1.996   8.352  0.3528 -0.2311 -0.0467
 8061SOL    HW135645   4.581   2.002   8.340  0.2979  0.7202  0.0188
 8061SOL    HW235646   4.481   1.968   8.443 -0.1331  0.1068  0.0311
 8062SOL     OW35647   0.921   3.384  11.109  0.7759 -0.0103 -0.3122
 8062SOL    HW135648   0.942   3.291  11.118 -1.2107 -0.6108 -1.8311
 8062SOL    HW235649   0.829   3.381  11.133  0.0760  2.3568 -2.6752
 8063SOL     OW35650   1.027   3.723   5.868  0.3147 -0.2063 -0.1570
 8063SOL    HW135651   1.094   3.788   5.847  0.8188 -0.7313 -0.1745
 8063SOL    HW235652   1.073   3.639   5.863  0.7481  0.1320 -1.7697
 8064SOL     OW35653   3.376   1.163   4.146  0.2704  0.3535  0.2964
 8064SOL    HW135654   3.459   1.210   4.139  0.4824 -0.1332 -0.4833
 8064SOL    HW235655   3.354   1.142   4.056 -0.5156 -0.9411  0.7861
 8065SOL     OW35656   3.856   2.830   8.158 -0.1116 -0.6155  0.0152
 8065SOL    HW135657   3.842   2.746   8.201 -0.7106 -0.5491 -0.0496
 8065SOL    HW235658   3.908   2.810   8.080 -2.1869 -1.0595 -1.2313
 8066SOL     OW35659   0.944   4.367  12.226 -0.6830  0.1147  0.5494
 8066SOL    HW135660   1.009   4.322  12.279 -1.4712 -0.6790  0.8580
 8066SOL    HW235661   0.876   4.384  12.292  1.5327  0.4740  2.7523
 8067SOL     OW35662   4.359   0.325   2.185 -0.3587 -0.4272 -0.3462
 8067SOL    HW135663   4.343   0.403   2.133 -0.6155 -0.6576 -0.6173
 8067SOL    HW235664   4.274   0.282   2.179 -0.1604 -1.2670  2.5869
 8068SOL     OW35665   0.849   3.691  16.002  0.5019  0.1311 -0.1047
 8068SOL    HW135666   0.895   3.712  16.083 -1.7480 -0.2805  1.2831
 8068SOL    HW235667   0.805   3.773  15.980  0.7150 -0.2372 -1.9052
 8069SOL     OW35668   3.538   1.058   8.343  0.4885  0.0208 -0.7064
 8069SOL    HW135669   3.581   1.120   8.284  1.6970  1.4937  1.7244
 8069SOL    HW235670   3.582   1.082   8.424  0.3057  1.0847 -0.9257
 8070SOL     OW35671   3.326   0.296   5.107  0.4307  0.0412  0.0154
 8070SOL    HW135672   3.336   0.275   5.200  2.1637 -0.1516 -0.2297
 8070SOL    HW235673   3.250   0.238   5.102  0.1495  0.4635 -0.7237
 8071SOL     OW35674   4.455   0.051   1.847 -0.6649  0.5134 -0.4911
 8071SOL    HW135675   4.492   0.107   1.779 -1.0113 -0.1612 -1.2352
 8071SOL    HW235676   4.364   0.046   1.817 -0.1331  3.0740 -2.6018
 8072SOL     OW35677   1.194   1.699   9.415 -0.0754 -0.5653  0.6947
 8072SOL    HW135678   1.141   1.756   9.359 -0.4689  0.7490  2.4411
 8072SOL    HW235679   1.274   1.702   9.363 -3.0237  1.1335 -3.8552
 8073SOL     OW35680   3.834   3.007   4.477 -0.0656 -0.3196  0.5466
 8073SOL    HW135681   3.897   2.955   4.428  0.4156  0.5269  0.2623
 8073SOL    HW235682   3.885   3.082   4.507 -0.1328  0.3710 -1.0735
 8074SOL     OW35683   0.026   1.698   8.200 -0.2594  0.1055 -0.2929
 8074SOL    HW135684   0.013   1.789   8.227  3.2351  0.6022 -0.3350
 8074SOL    HW235685   4.713   1.646   8.271 -0.1158 -1.3955 -1.3126
 8075SOL     OW35686   0.186   0.390   2.962  0.6470  0.1782  0.1688
 8075SOL    HW135687   0.178   0.476   3.002 -2.2736 -0.7097  1.4683
 8075SOL    HW235688   0.271   0.403   2.920 -0.3061 -0.2032 -1.8630
 8076SOL     OW35689   2.168   2.295   2.172 -0.3464  0.1662  0.0516
 8076SOL    HW135690   2.085   2.249   2.183  0.5335 -1.8492 -1.6398
 8076SOL    HW235691   2.145   2.386   2.190 -2.0700 -0.6955  2.1419
 8077SOL     OW35692   4.611   1.614   3.716  0.6389 -0.3691  0.1824
 8077SOL    HW135693   4.540   1.550   3.712 -0.0541  0.3181  1.2709
 8077SOL    HW235694   4.566   1.694   3.690 -2.0513 -1.4313  1.5938
 8078SOL     OW35695   0.919   3.569  15.629 -0.0139 -0.2437 -0.0406
 8078SOL    HW135696   0.931   3.515  15.551 -2.4181 -0.8027 -0.0204
 8078SOL    HW235697   0.828   3.561  15.659 -0.0833  0.3167 -0.0941
 8079SOL     OW35698   2.172   4.546  11.848 -0.0700  0.3270  0.2126
 8079SOL    HW135699   2.123   4.464  11.839  2.6971 -1.1601 -1.2845
 8079SOL    HW235700   2.206   4.538  11.759 -1.0080  1.2386 -0.2288
 8080SOL     OW35701   2.445   3.937   1.793 -0.3127 -0.6530  0.4411
 8080SOL    HW135702   2.425   3.945   1.700 -1.2849 -0.3675  0.6792
 8080SOL    HW235703   2.499   3.858   1.785 -0.1202 -0.5904  1.1210
 8081SOL     OW35704   3.504   1.061  11.579 -0.0289  0.0688 -0.8093
 8081SOL    HW135705   3.564   1.042  11.652  0.3270  1.9174 -0.6001
 8081SOL    HW235706   3.475   0.981  11.537  0.1972 -1.2344  1.5036
 8082SOL     OW35707   2.240   1.234   2.153  0.2636 -0.2817 -0.7690
 8082SOL    HW135708   2.158   1.209   2.110 -1.5357  1.0176  1.8501
 8082SOL    HW235709   2.211   1.310   2.204 -0.1007 -1.8241  1.3356
 8083SOL     OW35710   1.473   1.123  11.868 -0.1355  0.5216  0.5185
 8083SOL    HW135711   1.537   1.139  11.798 -0.2006 -0.3178  0.2675
 8083SOL    HW235712   1.430   1.038  11.852  0.4661  0.6916 -2.0081
 8084SOL     OW35713   3.340   2.463   2.928 -0.5111  0.3401  0.2271
 8084SOL    HW135714   3.380   2.527   2.987  1.3849  0.6003 -1.3462
 8084SOL    HW235715   3.414   2.421   2.885 -0.7279 -0.1835  0.3607
 8085SOL     OW35716   3.139   2.907   8.761 -0.0652  0.3867  0.1776
 8085SOL    HW135717   3.157   2.947   8.675  1.4669  1.9183  1.2149
 8085SOL    HW235718   3.212   2.846   8.772  0.9634  1.6790  0.5574
 8086SOL     OW35719   2.789   3.079   0.289  0.0666  0.0952  0.1269
 8086SOL    HW135720   2.826   3.000   0.329  0.1102 -0.0596 -0.2246
 8086SOL    HW235721   2.729   3.109   0.357 -1.0137 -0.2807 -0.6761
 8087SOL     OW35722   3.688   2.345   5.856 -0.3291 -0.4783  0.1727
 8087SOL    HW135723   3.777   2.344   5.890  0.2914  2.5233 -1.3367
 8087SOL    HW235724   3.703   2.305   5.771 -2.3912 -0.2396 -0.2951
 8088SOL     OW35725   1.945   3.436   4.734  0.0189  0.2887 -0.1011
 8088SOL    HW135726   1.968   3.351   4.696 -0.6607  0.9490 -2.0058
 8088SOL    HW235727   1.850   3.427   4.727  0.4004 -1.2212 -3.4152
 8089SOL     OW35728   1.055   0.258   8.157  0.1994 -0.1242 -0.1140
 8089SOL    HW135729   1.148   0.241   8.145  0.7748  1.6551  1.7574
 8089SOL    HW235730   1.053   0.351   8.132 -0.1232 -0.0889  0.0452
 8090SOL     OW35731   0.468   0.663  12.468 -0.5833  0.1132  1.3631
 8090SOL    HW135732   0.558   0.672  12.437 -1.6152 -0.9225 -1.9453
 8090SOL    HW235733   0.420   0.658  12.385  0.2338  1.4408  0.8016
 8091SOL     OW35734   1.304   0.841   2.597 -0.5459  0.6950  0.4024
 8091SOL    HW135735   1.390   0.864   2.563  0.9185 -1.1326  2.8350
 8091SOL    HW235736   1.243   0.885   2.538 -1.8279 -0.9121  0.5294
 8092SOL     OW35737   0.926   0.859   2.255 -0.2077  0.2092  0.5161
 8092SOL    HW135738   0.865   0.819   2.193 -2.1577  1.4059  1.6311
 8092SOL    HW235739   0.998   0.812   2.214 -0.3321  1.0552 -0.6581
 8093SOL     OW35740   3.450   2.942   3.938  0.0372  0.1854 -0.8819
 8093SOL    HW135741   3.508   2.962   4.011 -1.2050  0.9928 -0.1169
 8093SOL    HW235742   3.431   3.032   3.908 -1.7880  0.0638 -0.0809
 8094SOL     OW35743   3.851   0.355   8.893  0.1224 -0.4058 -0.4315
 8094SOL    HW135744   3.841   0.269   8.934 -1.8657  1.5749  3.2516
 8094SOL    HW235745   3.938   0.387   8.914 -1.1515  1.6402  1.6114
 8095SOL     OW35746   1.996   1.684  10.382  0.8926  0.6448 -0.0824
 8095SOL    HW135747   1.977   1.763  10.332 -0.7698  0.0645 -0.3612
 8095SOL    HW235748   1.973   1.626  10.309  1.1479 -0.2811  0.5747
 8096SOL     OW35749   4.258   3.263   2.745  0.1190  0.3890  0.3673
 8096SOL    HW135750   4.260   3.345   2.696  2.0392 -0.5461 -1.0980
 8096SOL    HW235751   4.274   3.294   2.834 -1.3126 -1.0994  1.1514
 8097SOL     OW35752   2.375   4.010   7.698 -0.5396  0.0739 -0.2327
 8097SOL    HW135753   2.445   4.044   7.642  3.1113 -3.0416  2.3803
 8097SOL    HW235754   2.302   3.992   7.639 -1.1879 -0.4594  0.7175
 8098SOL     OW35755   0.988   3.814   7.358  0.7648 -0.0921  0.2424
 8098SOL    HW135756   0.984   3.909   7.368 -2.2797 -0.0902 -0.8144
 8098SOL    HW235757   0.900   3.793   7.388  0.1652  1.5625 -0.3409
 8099SOL     OW35758   2.458   3.864   1.530  0.1374 -0.4401 -0.2690
 8099SOL    HW135759   2.510   3.787   1.506 -0.6238 -1.2653  0.7473
 8099SOL    HW235760   2.506   3.934   1.486  1.3059 -0.7373  0.5166
 8100SOL     OW35761   2.111   3.564   5.831  0.3531 -0.0139 -0.3809
 8100SOL    HW135762   2.173   3.494   5.852  0.7003  0.3048 -0.3464
 8100SOL    HW235763   2.033   3.510   5.817  0.3539  0.4572 -2.1295
 8101SOL     OW35764   4.075   2.537  14.676 -0.1019  0.4048 -0.3617
 8101SOL    HW135765   4.009   2.492  14.623 -0.2743 -1.1751  1.1752
 8101SOL    HW235766   4.072   2.621  14.632  0.5165  1.6008  1.8581
 8102SOL     OW35767   0.612   0.444   1.707  0.2596  0.1763  0.5492
 8102SOL    HW135768   0.659   0.418   1.787 -0.7156 -3.0064  0.1030
 8102SOL    HW235769   0.587   0.534   1.726  0.9912  0.2525  1.1503
 8103SOL     OW35770   3.497   1.012  10.477  0.2987  0.8324  0.2593
 8103SOL    HW135771   3.575   1.057  10.508  0.0505  1.1578  0.4035
 8103SOL    HW235772   3.433   1.082  10.462 -1.1155 -0.7055 -0.9731
 8104SOL     OW35773   1.637   3.173   5.019  0.6242 -0.0651  0.1646
 8104SOL    HW135774   1.558   3.173   4.965  0.6055 -1.7648  0.1974
 8104SOL    HW235775   1.697   3.210   4.954  1.2265 -3.4239 -1.1718
 8105SOL     OW35776   2.284   1.665   7.863 -0.1118  0.2598  0.0454
 8105SOL    HW135777   2.314   1.620   7.784  2.4305 -1.8677  2.2006
 8105SOL    HW235778   2.233   1.738   7.827  0.5971  0.0357 -1.4074
 8106SOL     OW35779   2.424   3.514   3.507 -0.9506  0.2796  0.7007
 8106SOL    HW135780   2.402   3.421   3.510  1.1450 -0.3020 -1.5749
 8106SOL    HW235781   2.350   3.555   3.551 -1.5865  0.5140 -0.5657
 8107SOL     OW35782   2.560   2.700   6.231 -0.2056  0.4546 -0.1239
 8107SOL    HW135783   2.584   2.609   6.209 -0.0511  0.0655  1.6514
 8107SOL    HW235784   2.549   2.742   6.146 -1.7431  1.0685  0.3807
 8108SOL     OW35785   4.315   4.006  14.254 -0.4061 -0.1815 -0.1065
 8108SOL    HW135786   4.400   4.026  14.295 -0.9671  1.7560  0.1417
 8108SOL    HW235787   4.250   4.025  14.322 -0.5629 -1.3563  0.0644
 8109SOL     OW35788   4.446   3.012   2.811 -0.6252  0.1857 -0.5761
 8109SOL    HW135789   4.361   2.982   2.843 -0.1673 -1.1848 -0.6101
 8109SOL    HW235790   4.479   3.038   2.897 -1.5997 -1.4843  0.3075
 8110SOL     OW35791   4.113   3.406   5.015 -0.2866  0.0904  0.0397
 8110SOL    HW135792   4.204   3.430   5.035 -0.0565 -2.8561  2.5376
 8110SOL    HW235793   4.090   3.491   4.978 -1.7402 -0.2898  0.0728
 8111SOL     OW35794   2.278   0.741   3.267  0.4067  0.1428 -0.1072
 8111SOL    HW135795   2.194   0.764   3.307  0.1553  1.1394 -1.2128
 8111SOL    HW235796   2.329   0.822   3.275  0.9241 -0.4293  2.2777
 8112SOL     OW35797   4.675   3.025   7.549  0.3792  0.2355 -0.2103
 8112SOL    HW135798   4.694   3.009   7.456 -1.4323  2.1488 -0.8870
 8112SOL    HW235799   0.038   3.037   7.586 -0.0435 -0.7917  1.1081
 8113SOL     OW35800   4.714   0.595  11.860  0.2458 -0.0844  0.0594
 8113SOL    HW135801   4.713   0.642  11.776  2.8286 -2.9403 -1.5567
 8113SOL    HW235802   4.666   0.513  11.849 -0.5307  0.5951 -1.6622
 8114SOL     OW35803   4.480   4.167   7.934 -0.0923  0.7615 -0.3801
 8114SOL    HW135804   4.501   4.255   7.904  1.6400  0.5187  0.1121
 8114SOL    HW235805   4.449   4.122   7.856  1.9325 -1.9465  0.3783
 8115SOL     OW35806   2.203   2.382  12.044  0.0573  0.4806  0.3076
 8115SOL    HW135807   2.129   2.389  12.104 -1.3104  2.9778 -1.6311
 8115SOL    HW235808   2.226   2.290  12.045 -0.0942  0.4275 -0.5082
 8116SOL     OW35809   3.002   4.108   9.229 -0.1993  0.0939  0.0440
 8116SOL    HW135810   2.989   4.179   9.166 -0.9239 -0.2063 -0.1482
 8116SOL    HW235811   2.915   4.105   9.270  0.5520 -0.9060  1.5871
 8117SOL     OW35812   0.120   4.170   5.949 -0.2159  0.6371  0.1223
 8117SOL    HW135813   0.038   4.130   5.978 -1.1721  1.3638 -1.6188
 8117SOL    HW235814   0.146   4.206   6.034 -1.9959  1.8281  0.1544
 8118SOL     OW35815   2.466   1.524  14.619 -0.0400  0.3437  0.1300
 8118SOL    HW135816   2.451   1.448  14.563 -0.7504  0.7662 -0.2717
 8118SOL    HW235817   2.522   1.579  14.564  0.8814 -0.2196  0.5091
 8119SOL     OW35818   1.601   3.088   7.827  0.3078 -0.3976 -0.2823
 8119SOL    HW135819   1.669   3.046   7.774  1.6316  2.2383 -0.6552
 8119SOL    HW235820   1.534   3.021   7.837  0.3390 -0.6088 -1.4946
 8120SOL     OW35821   2.554   1.375  13.516 -0.3010  0.0212 -0.1004
 8120SOL    HW135822   2.597   1.347  13.596  0.1059 -0.5940 -0.5325
 8120SOL    HW235823   2.462   1.360  13.536 -0.2479 -0.1485  0.0137
 8121SOL     OW35824   2.830   4.724   6.173  0.0575  0.1946 -0.6233
 8121SOL    HW135825   2.918   0.026   6.146  0.7161  1.3491  2.6305
 8121SOL    HW235826   2.837   0.049   6.255  0.1934 -0.4618 -0.2371
 8122SOL     OW35827   4.669   1.006   4.025 -1.0668 -0.2891 -0.4802
 8122SOL    HW135828   4.631   0.947   3.960  0.3658  1.0286 -2.5083
 8122SOL    HW235829   0.008   1.053   3.971 -0.4061 -0.2958  0.2803
 8123SOL     OW35830   2.283   1.655   6.153  0.6223  0.4420  0.0374
 8123SOL    HW135831   2.233   1.615   6.224 -0.9685  1.9287 -0.2597
 8123SOL    HW235832   2.372   1.633   6.179  0.4690  1.5926  1.5700
 8124SOL     OW35833   4.493   0.961   0.927  0.4149 -0.4990  0.3693
 8124SOL    HW135834   4.512   1.005   0.845 -0.3883  1.3323  1.1691
 8124SOL    HW235835   4.571   0.998   0.968  0.5012 -1.3432  0.9836
 8125SOL     OW35836   2.294   2.278   2.999 -0.2720  0.1951  0.0789
 8125SOL    HW135837   2.221   2.331   2.966 -1.4210 -1.4383  0.0091
 8125SOL    HW235838   2.295   2.307   3.090 -0.3811  0.3049  0.0453
 8126SOL     OW35839   1.998   2.354   8.238 -0.2865 -0.0511 -0.0406
 8126SOL    HW135840   2.074   2.374   8.293  1.2140 -2.1895 -1.3670
 8126SOL    HW235841   2.014   2.260   8.233 -1.7698 -0.2132 -1.8573
 8127SOL     OW35842   2.623   4.038  12.228  0.0607 -0.1616  0.3966
 8127SOL    HW135843   2.531   4.024  12.204  0.0845  1.1561 -0.4633
 8127SOL    HW235844   2.655   3.956  12.265  1.1326 -0.0892 -0.3659
 8128SOL     OW35845   1.308   2.755   3.447 -0.2705 -0.6736 -0.0176
 8128SOL    HW135846   1.287   2.834   3.498 -0.5485 -2.4965  2.6679
 8128SOL    HW235847   1.402   2.760   3.429  0.0833  0.0530  1.9965
 8129SOL     OW35848   4.326   3.890   2.214 -0.8288 -0.1716 -0.1394
 8129SOL    HW135849   4.318   3.898   2.119 -0.7853 -0.2758 -0.1522
 8129SOL    HW235850   4.250   3.935   2.250 -0.1919 -1.4247  2.7554
 8130SOL     OW35851   3.268   1.699   1.784 -0.1335  0.3184 -0.6367
 8130SOL    HW135852   3.301   1.624   1.832 -0.6563 -0.8598 -2.1052
 8130SOL    HW235853   3.323   1.771   1.815 -3.1519  2.2038  0.3810
 8131SOL     OW35854   4.317   2.818   4.135 -0.0349 -0.2300  0.3099
 8131SOL    HW135855   4.231   2.778   4.150  0.0411  0.0672  1.4952
 8131SOL    HW235856   4.298   2.873   4.058 -2.0971 -1.0208  0.2380
 8132SOL     OW35857   2.308   3.380   5.899 -0.1833  0.0705 -0.3147
 8132SOL    HW135858   2.381   3.356   5.843  0.8706  0.6995  0.7909
 8132SOL    HW235859   2.363   3.408   5.973 -1.1633 -1.3646  0.9537
 8133SOL     OW35860   0.916   1.586  17.059  0.2360 -0.2608  0.6199
 8133SOL    HW135861   0.919   1.551  16.970  1.0002  2.2302 -0.3345
 8133SOL    HW235862   0.960   1.669  17.046  1.8780 -1.3142 -0.4526
 8134SOL     OW35863   3.196   0.810  12.911 -0.5591 -0.6836 -0.0172
 8134SOL    HW135864   3.245   0.843  12.836 -1.8937 -1.1354 -1.0871
 8134SOL    HW235865   3.171   0.890  12.957  1.3997 -0.8586  1.3663
 8135SOL     OW35866   3.394   3.917   6.522 -0.3951  0.0504  0.3086
 8135SOL    HW135867   3.403   3.834   6.569  1.1417 -0.1258 -0.3030
 8135SOL    HW235868   3.451   3.966   6.582  1.8794  0.0664 -1.8735
 8136SOL     OW35869   1.606   4.573  14.956 -0.7585 -0.0951  0.3303
 8136SOL    HW135870   1.579   4.502  15.013 -0.9319 -0.2070  0.1096
 8136SOL    HW235871   1.539   4.638  14.978  0.8001  1.3283  0.8325
 8137SOL     OW35872   2.472   2.649  17.237 -0.2584  0.4807 -0.5489
 8137SOL    HW135873   2.528   2.682  17.167 -1.0619  0.7717 -1.0541
 8137SOL    HW235874   2.535   2.630  17.306 -1.1058 -2.4096 -0.5641
 8138SOL     OW35875   1.419   4.524  14.749 -0.1500  0.6205  0.0339
 8138SOL    HW135876   1.377   4.609  14.735  0.8574  0.8811 -1.3825
 8138SOL    HW235877   1.491   4.537  14.810 -0.4329  0.5818  0.3752
 8139SOL     OW35878   0.757   0.680   8.209 -0.7100 -0.2075 -0.1993
 8139SOL    HW135879   0.831   0.646   8.258 -1.4194 -1.9825 -0.3563
 8139SOL    HW235880   0.690   0.619   8.240 -1.1161  0.0880 -0.4852
 8140SOL     OW35881   1.515   1.185  13.313  0.2912 -0.3788  0.4962
 8140SOL    HW135882   1.578   1.223  13.252 -1.5187  2.3932  0.3547
 8140SOL    HW235883   1.435   1.235  13.296 -0.7335 -1.6306  1.4976
 8141SOL     OW35884   1.417   1.831  13.422  0.8933 -0.4514  0.1529
 8141SOL    HW135885   1.447   1.742  13.441 -1.2768 -0.9148  1.4076
 8141SOL    HW235886   1.495   1.876  13.454 -0.7072  1.4641  1.3511
 8142SOL     OW35887   2.249   0.526  11.380 -0.3150  0.1950  0.2420
 8142SOL    HW135888   2.193   0.519  11.457  0.9886 -0.5020  1.1293
 8142SOL    HW235889   2.330   0.480  11.401 -1.0767 -1.2353  0.0133
 8143SOL     OW35890   3.289   1.935  17.640  0.3298  0.2526  1.0842
 8143SOL    HW135891   3.199   1.918  17.666  0.3545 -0.4010  0.7381
 8143SOL    HW235892   3.336   1.855  17.663 -2.2201 -1.2478  0.9650
 8144SOL     OW35893   4.473   1.276   7.571 -0.4216 -0.2095 -0.1224
 8144SOL    HW135894   4.512   1.269   7.658 -0.4567 -0.4272 -0.1233
 8144SOL    HW235895   4.438   1.364   7.555 -3.1804 -0.8845  2.0839
 8145SOL     OW35896   1.588   1.574   4.900 -0.5034 -0.4706  0.1887
 8145SOL    HW135897   1.495   1.555   4.910 -0.8521  0.2886 -1.5280
 8145SOL    HW235898   1.594   1.562   4.805  0.4832 -1.6684  0.4038
 8146SOL     OW35899   0.492   2.044   4.557 -0.1025  0.1746 -0.4574
 8146SOL    HW135900   0.544   2.013   4.483 -1.2588  0.5926 -1.4302
 8146SOL    HW235901   0.400   2.022   4.547 -0.4365  1.7077 -0.7351
 8147SOL     OW35902   1.977   3.033  11.898  0.0998 -0.1304 -0.1638
 8147SOL    HW135903   1.928   3.066  11.823 -0.5687 -1.0316 -0.1166
 8147SOL    HW235904   1.995   2.947  11.860  0.3756 -0.4217  0.6368
 8148SOL     OW35905   0.230   4.560   1.757 -0.8418  0.1412 -0.4944
 8148SOL    HW135906   0.216   4.493   1.690 -1.2613 -0.7574  0.4951
 8148SOL    HW235907   0.192   4.637   1.716  0.3403  1.3286  0.6275
 8149SOL     OW35908   3.963   2.267  16.100 -0.3931 -0.1982 -0.4279
 8149SOL    HW135909   3.942   2.359  16.091  1.5963  0.3607  0.5706
 8149SOL    HW235910   3.938   2.249  16.190  1.5076 -1.1289 -0.0766
 8150SOL     OW35911   1.893   0.798   2.388  0.3071 -0.5357 -0.5610
 8150SOL    HW135912   1.807   0.826   2.357 -0.3255 -1.1540  0.6339
 8150SOL    HW235913   1.913   0.725   2.330  0.2582  0.7652 -2.2052
 8151SOL     OW35914   2.223   1.095  11.852 -0.6161 -0.6961  0.3167
 8151SOL    HW135915   2.290   1.093  11.920 -2.7093 -0.5927  2.3915
 8151SOL    HW235916   2.229   1.004  11.823  1.9885 -1.2735  2.6932
 8152SOL     OW35917   1.525   3.767   3.889 -0.1349  0.0258  0.0392
 8152SOL    HW135918   1.601   3.727   3.931 -1.4699 -0.8669  1.6196
 8152SOL    HW235919   1.481   3.778   3.974  1.3784  0.4785  0.7562
 8153SOL     OW35920   4.529   4.179   3.501  0.3277 -0.3473 -0.6388
 8153SOL    HW135921   4.534   4.255   3.442  1.3878 -0.4268 -0.6588
 8153SOL    HW235922   4.506   4.115   3.434  0.5409 -0.9504 -0.1352
 8154SOL     OW35923   0.518   1.987   9.136  0.6326  0.5349 -0.2846
 8154SOL    HW135924   0.442   2.044   9.131 -0.2527 -0.8660 -3.2290
 8154SOL    HW235925   0.501   1.934   9.214  0.4439  1.3259  0.2032
 8155SOL     OW35926   2.997   0.380   3.926 -0.7274  0.3863 -0.0702
 8155SOL    HW135927   2.951   0.464   3.923 -1.3294  0.0210 -1.0145
 8155SOL    HW235928   2.932   0.326   3.971  0.9639  0.6534  2.6902
 8156SOL     OW35929   4.467   4.418   6.654 -0.0475 -0.6619 -0.1778
 8156SOL    HW135930   4.384   4.401   6.700 -0.7591  1.9379 -0.4875
 8156SOL    HW235931   4.475   4.345   6.592 -0.4242  0.7927 -1.9425
 8157SOL     OW35932   2.975   4.173   2.806 -0.2933  0.1260 -0.8560
 8157SOL    HW135933   2.950   4.134   2.889 -0.8684  2.0323 -0.1375
 8157SOL    HW235934   2.915   4.244   2.783 -0.5580  0.3273  0.4872
 8158SOL     OW35935   3.416   2.423   7.406  0.1266  0.1960  0.0490
 8158SOL    HW135936   3.450   2.500   7.360  1.5246  1.1870  2.7143
 8158SOL    HW235937   3.322   2.436   7.394 -0.2511 -0.7997  1.9548
 8159SOL     OW35938   4.087   1.477   4.821 -0.1339  0.1458  0.4332
 8159SOL    HW135939   4.064   1.392   4.784  0.5640  0.4066 -0.5774
 8159SOL    HW235940   4.010   1.503   4.872 -0.1264 -2.2439  1.6549
 8160SOL     OW35941   0.187   0.642  17.300  0.0684  0.0761 -0.1385
 8160SOL    HW135942   0.154   0.725  17.335 -0.2422 -1.1623  2.4960
 8160SOL    HW235943   0.169   0.580  17.371  0.8509 -0.3014 -0.2719
 8161SOL     OW35944   2.645   3.325   8.908 -0.2086  0.1588  0.0581
 8161SOL    HW135945   2.575   3.323   8.842  0.9166  0.8302 -1.1608
 8161SOL    HW235946   2.616   3.270   8.980  0.9480 -0.2316  0.2289
 8162SOL     OW35947   0.097   3.663   5.448 -0.1774  0.3525 -0.3822
 8162SOL    HW135948   0.059   3.588   5.494 -2.5535  1.5950 -0.3148
 8162SOL    HW235949   0.031   3.728   5.471 -0.7469 -0.5343  0.5118
 8163SOL     OW35950   4.236   1.899   4.269  0.3625 -0.3992 -0.5624
 8163SOL    HW135951   4.253   1.807   4.292  2.7352 -0.3403 -1.9968
 8163SOL    HW235952   4.207   1.940   4.350  1.2443  2.9383 -1.9459
 8164SOL     OW35953   1.603   2.250   1.274 -0.0325  0.2919 -0.5532
 8164SOL    HW135954   1.691   2.246   1.237 -0.4331 -0.7662 -1.3816
 8164SOL    HW235955   1.608   2.220   1.365 -0.4103  1.8116 -0.0231
 8165SOL     OW35956   0.094   2.287   9.816  0.1214 -0.0561  0.4653
 8165SOL    HW135957   0.131   2.290   9.904  2.1588 -0.2769 -0.3967
 8165SOL    HW235958   0.006   2.262   9.844 -0.3490  1.0991  0.0628
 8166SOL     OW35959   1.753   3.769   5.111  0.4702 -0.1252 -0.5001
 8166SOL    HW135960   1.730   3.852   5.069  3.0215  0.2736 -1.1493
 8166SOL    HW235961   1.715   3.701   5.056  1.0969  0.3276 -1.4959
 8167SOL     OW35962   1.422   4.563  13.664  0.1768  0.0678  0.1837
 8167SOL    HW135963   1.425   4.490  13.726  0.2442 -0.8569 -0.9163
 8167SOL    HW235964   1.383   4.636  13.713 -0.5505 -0.9977  1.1921
 8168SOL     OW35965   3.441   2.589   0.080  0.3899 -0.0602  0.2675
 8168SOL    HW135966   3.426   2.517   0.020  1.5827 -0.1847  0.1167
 8168SOL    HW235967   3.468   2.543   0.160 -0.5509  0.4067  0.8528
 8169SOL     OW35968   4.662   2.539   3.200 -0.3430 -0.2695 -0.4426
 8169SOL    HW135969   4.614   2.471   3.247  0.8733 -1.9582 -1.6901
 8169SOL    HW235970   0.030   2.520   3.189  0.3981  3.6918 -1.2748
 8170SOL     OW35971   4.663   0.266  16.687  0.5689  0.4978 -0.0053
 8170SOL    HW135972   4.677   0.172  16.700 -0.1170  0.4661  0.4883
 8170SOL    HW235973   0.015   0.279  16.631  0.0473  1.2303 -0.5477
 8171SOL     OW35974   0.882   1.337   6.276  0.3669 -0.0424 -0.1397
 8171SOL    HW135975   0.969   1.311   6.305 -0.3616 -2.0487  0.2050
 8171SOL    HW235976   0.872   1.275   6.204  1.4174 -1.7512  1.1856
 8172SOL     OW35977   3.180   3.384   7.970  0.3205  0.6350  0.2537
 8172SOL    HW135978   3.089   3.373   7.945  0.5506 -1.5002  0.4010
 8172SOL    HW235979   3.178   3.379   8.065 -0.1825 -1.2413  0.1360
 8173SOL     OW35980   1.276   2.113   7.127  0.5227  0.4047  0.1314
 8173SOL    HW135981   1.271   2.156   7.042 -2.4782 -1.3664 -0.5900
 8173SOL    HW235982   1.304   2.187   7.182  1.0448  0.1359  0.2230
 8174SOL     OW35983   1.068   4.397   5.441 -0.1027  0.1765  0.3216
 8174SOL    HW135984   1.008   4.462   5.404  0.0227  0.7768  1.1806
 8174SOL    HW235985   1.033   4.393   5.530  0.7893  1.8133  0.7295
 8175SOL     OW35986   2.537   2.888  10.964 -0.4376 -0.1219 -0.3836
 8175SOL    HW135987   2.476   2.829  10.921  0.3403 -1.1704 -0.0636
 8175SOL    HW235988   2.502   2.969  10.927  0.8425  0.6361  0.0384
 8176SOL     OW35989   3.665   1.730   3.052  0.7315  0.0053 -0.1683
 8176SOL    HW135990   3.679   1.638   3.033 -1.5921 -0.0962 -1.4063
 8176SOL    HW235991   3.705   1.784   2.984  2.0166 -2.0204 -0.9996
 8177SOL     OW35992   2.999   1.883   0.867  0.2799  0.1883  0.3709
 8177SOL    HW135993   3.052   1.823   0.816  2.3475  1.1537  1.3964
 8177SOL    HW235994   3.049   1.891   0.948  0.9788 -0.8816  0.0421
 8178SOL     OW35995   2.769   3.333  10.696  0.2870  0.0530  0.0910
 8178SOL    HW135996   2.773   3.297  10.608 -0.1635 -1.7889  0.8319
 8178SOL    HW235997   2.784   3.427  10.682  0.9826  0.0345  0.6792
 8179SOL     OW35998   2.251   1.348   2.797  0.5769 -0.7197 -0.1808
 8179SOL    HW135999   2.302   1.429   2.794  0.4847 -0.7009 -1.2399
 8179SOL    HW236000   2.186   1.368   2.864  2.2954  0.3888  1.1568
 8180SOL     OW36001   2.323   1.998  15.388 -0.1495 -0.4845  0.2516
 8180SOL    HW136002   2.273   2.037  15.460  0.4220 -1.6091  1.2573
 8180SOL    HW236003   2.302   2.051  15.312  0.4744 -2.6502 -1.4230
 8181SOL     OW36004   1.908   4.528   8.920  0.8521 -0.2641 -0.2882
 8181SOL    HW136005   1.869   4.441   8.932 -1.2901  0.6036 -0.9652
 8181SOL    HW236006   1.999   4.506   8.937  1.3451  2.8842  0.9852
 8182SOL     OW36007   0.945   4.067  13.636 -0.0455 -0.2618  0.0563
 8182SOL    HW136008   0.864   4.110  13.607  1.2713  1.2374 -1.3847
 8182SOL    HW236009   0.986   4.139  13.685  1.7335 -1.2832  0.0760
 8183SOL     OW36010   3.415   2.447   8.532  0.2126  0.7658  0.7103
 8183SOL    HW136011   3.428   2.538   8.506 -0.8936  0.4651 -0.9232
 8183SOL    HW236012   3.466   2.434   8.612  0.6005  0.7554  0.4609
 8184SOL     OW36013   0.442   4.437   3.207 -0.2129 -0.3060 -0.1917
 8184SOL    HW136014   0.465   4.451   3.299 -3.2626 -0.2653  0.5806
 8184SOL    HW236015   0.386   4.512   3.185 -2.0072 -1.0670  1.7801
 8185SOL     OW36016   1.176   2.264  12.222 -0.3178 -0.1376  0.6730
 8185SOL    HW136017   1.214   2.316  12.292 -1.1808 -0.4699  1.3883
 8185SOL    HW236018   1.082   2.272  12.238 -0.7234 -1.3429 -1.0946
 8186SOL     OW36019   4.246   1.084   6.256 -0.4596  0.1651 -0.0060
 8186SOL    HW136020   4.183   1.156   6.259  3.2981  3.5317 -1.6515
 8186SOL    HW236021   4.268   1.079   6.163 -0.1269 -1.5257  0.1674
 8187SOL     OW36022   1.782   2.600   2.006  0.0389 -0.1257  0.3076
 8187SOL    HW136023   1.806   2.652   2.083 -1.3662 -0.7465  1.1598
 8187SOL    HW236024   1.807   2.662   1.938  0.2187  0.1236  0.5960
 8188SOL     OW36025   1.359   3.103   0.226 -0.0125 -0.7150  0.1394
 8188SOL    HW136026   1.447   3.069   0.244 -0.4291 -3.2886 -2.7103
 8188SOL    HW236027   1.383   3.195   0.233  1.5442 -1.1572  0.9451
 8189SOL     OW36028   3.077   2.533   2.330 -0.3169  0.6353 -0.0218
 8189SOL    HW136029   2.988   2.516   2.362  0.5632 -1.2991  1.3693
 8189SOL    HW236030   3.065   2.620   2.292 -2.9111  0.3043  0.0194
 8190SOL     OW36031   2.699   0.503   7.788 -0.4105  0.1759  0.1537
 8190SOL    HW136032   2.786   0.481   7.821  0.5726  0.4517 -2.2426
 8190SOL    HW236033   2.658   0.428   7.746 -1.5160 -0.0937  1.7270
 8191SOL     OW36034   1.098   4.661  11.963  0.2531  0.2479 -0.6719
 8191SOL    HW136035   1.036   4.590  11.947 -1.6265  1.6513  0.3095
 8191SOL    HW236036   1.175   4.605  11.960 -0.0706 -0.2443  0.3150
 8192SOL     OW36037   1.314   3.594   2.703  0.0693  0.0684  0.3050
 8192SOL    HW136038   1.366   3.526   2.744 -1.3238 -1.6442 -0.7812
 8192SOL    HW236039   1.293   3.645   2.782  0.9317  0.4603  0.2878
 8193SOL     OW36040   2.020   0.838   7.039  0.2862  0.0616 -0.0691
 8193SOL    HW136041   1.964   0.885   6.976 -1.5319 -0.9488  0.7867
 8193SOL    HW236042   1.958   0.787   7.091  0.2454 -0.2877 -0.4602
 8194SOL     OW36043   3.083   4.445   6.067  0.4133  0.3528 -0.8340
 8194SOL    HW136044   3.063   4.377   6.002  0.2209  1.0836 -1.5448
 8194SOL    HW236045   3.037   4.408   6.143 -2.5458  0.2509 -2.6612
 8195SOL     OW36046   3.485   2.187  10.034 -0.7889 -0.2192 -0.0535
 8195SOL    HW136047   3.399   2.225  10.015 -0.6680 -0.2836 -0.7270
 8195SOL    HW236048   3.478   2.093  10.021  0.4413 -0.2019 -0.8854
 8196SOL     OW36049   0.794   2.421   6.051  0.1030 -0.1378 -0.1110
 8196SOL    HW136050   0.828   2.383   5.970 -0.3678 -1.2347  0.2024
 8196SOL    HW236051   0.788   2.340   6.102 -0.3436 -1.1329 -1.7493
 8197SOL     OW36052   2.763   4.373   6.696  0.0833 -0.4631 -0.0273
 8197SOL    HW136053   2.803   4.389   6.611 -1.1267  2.1448 -0.0968
 8197SOL    HW236054   2.780   4.279   6.708  0.3663 -0.2994  0.8986
 8198SOL     OW36055   2.653   2.224  11.001  0.2207  0.1650 -0.4471
 8198SOL    HW136056   2.674   2.132  11.011  1.5880  0.4040 -1.1280
 8198SOL    HW236057   2.704   2.269  11.068  0.0318  2.6332 -1.9374
 8199SOL     OW36058   2.808   2.415  10.633 -0.3618 -0.1498 -0.6276
 8199SOL    HW136059   2.763   2.471  10.696 -2.9620 -1.3278 -1.4592
 8199SOL    HW236060   2.886   2.463  10.603  1.5079 -2.5378  0.3860
 8200SOL     OW36061   1.300   4.319   5.997 -0.1923  0.6134 -0.2747
 8200SOL    HW136062   1.288   4.344   6.089  1.3667 -1.8424  0.6098
 8200SOL    HW236063   1.377   4.264   6.011  0.8536  2.4204  1.1425
 8201SOL     OW36064   0.528   3.272   2.298  0.2998  0.0876 -0.3887
 8201SOL    HW136065   0.598   3.257   2.235  0.3649 -3.3165  0.4750
 8201SOL    HW236066   0.552   3.359   2.331  2.9025 -1.2500  1.2578
 8202SOL     OW36067   0.700   0.035  13.146 -0.3146 -0.7142  0.2760
 8202SOL    HW136068   0.764   4.691  13.166 -1.7819 -1.7826  1.3153
 8202SOL    HW236069   0.725   0.056  13.056  2.6699 -0.9484  1.0269
 8203SOL     OW36070   0.020   4.669   7.812 -0.3034  0.3547  0.3703
 8203SOL    HW136071   0.055   4.580   7.809 -0.1729  0.3747  1.2124
 8203SOL    HW236072   0.016   4.669   7.908 -1.1204  0.6390  0.3441
 8204SOL     OW36073   0.958   4.687   2.687  0.1590 -0.1624 -0.1206
 8204SOL    HW136074   1.041   4.652   2.655  1.5198  2.0348  1.0078
 8204SOL    HW236075   0.970   0.057   2.687  0.3139 -0.1741  1.6219
 8205SOL     OW36076   4.429   1.536   6.084  0.0788  0.5942 -0.6093
 8205SOL    HW136077   4.344   1.515   6.045  0.3683 -1.1332 -0.2841
 8205SOL    HW236078   4.489   1.466   6.059 -2.2370 -1.1739 -1.1990
 8206SOL     OW36079   1.649   2.665   7.304 -0.7927 -0.8016  0.4376
 8206SOL    HW136080   1.732   2.671   7.352 -0.9682  0.0895  0.6447
 8206SOL    HW236081   1.593   2.722   7.357 -0.3570  0.8392 -0.8711
 8207SOL     OW36082   0.753   4.401   8.273  0.7783  0.0915  0.4291
 8207SOL    HW136083   0.835   4.352   8.271  0.9291  0.4125 -0.9410
 8207SOL    HW236084   0.763   4.445   8.358  0.8048 -0.0293  0.4893
 8208SOL     OW36085   2.324   0.380   2.825  0.0160 -0.6725 -0.0089
 8208SOL    HW136086   2.261   0.444   2.792 -0.5980 -1.8261 -1.1118
 8208SOL    HW236087   2.370   0.342   2.750 -1.0316 -0.8961 -0.5413
 8209SOL     OW36088   2.429   1.354   5.492  0.3438 -0.1528 -0.2062
 8209SOL    HW136089   2.405   1.396   5.575  1.3964  2.1761 -1.0645
 8209SOL    HW236090   2.366   1.283   5.505 -0.7932  0.7384 -0.8801
 8210SOL     OW36091   2.127   2.891   3.651  0.1842 -0.2521 -0.5610
 8210SOL    HW136092   2.051   2.840   3.678  0.2914  1.2639  2.4883
 8210SOL    HW236093   2.183   2.824   3.611 -1.8927 -2.5081  0.3431
 8211SOL     OW36094   4.470   3.703   4.371 -0.1311  0.1502  0.2815
 8211SOL    HW136095   4.482   3.618   4.329  0.8800  0.7401 -0.6238
 8211SOL    HW236096   4.453   3.766   4.301 -2.2687 -0.7982 -0.0420
 8212SOL     OW36097   2.903   2.393  12.993  0.7412  0.3627 -0.1534
 8212SOL    HW136098   2.869   2.480  12.972 -3.1050 -0.8010  1.1905
 8212SOL    HW236099   2.893   2.389  13.088 -0.6972  1.6956 -0.2520
 8213SOL     OW36100   1.118   3.192   4.869  0.1651  0.9937 -0.5435
 8213SOL    HW136101   1.118   3.251   4.794  1.1360  2.4975  0.6536
 8213SOL    HW236102   1.099   3.113   4.817 -0.3668  1.3807 -0.9491
 8214SOL     OW36103   3.396   2.493   4.070  0.9251  0.4306  0.7696
 8214SOL    HW136104   3.436   2.450   3.994  1.0510 -0.1402  1.1531
 8214SOL    HW236105   3.310   2.451   4.078  0.5683  0.9835 -0.1694
 8215SOL     OW36106   4.370   2.695   3.644  0.2974  0.3318 -0.4530
 8215SOL    HW136107   4.430   2.652   3.584 -1.8668 -1.0044 -1.6607
 8215SOL    HW236108   4.394   2.657   3.729  0.8198  1.2369 -0.1918
 8216SOL     OW36109   3.223   2.353   0.561 -0.1376  0.2074 -0.6992
 8216SOL    HW136110   3.151   2.298   0.529  0.0765 -1.0390  0.9390
 8216SOL    HW236111   3.208   2.371   0.654 -0.5508  0.1907 -0.7613
 8217SOL     OW36112   0.392   4.297   5.608 -1.0684 -0.6605 -0.5093
 8217SOL    HW136113   0.377   4.255   5.523 -0.3420 -0.5015 -0.7118
 8217SOL    HW236114   0.374   4.389   5.592 -1.4918 -1.0165 -2.1662
 8218SOL     OW36115   0.777   3.736   1.819 -0.1858 -0.1168 -0.2437
 8218SOL    HW136116   0.765   3.779   1.734  1.5716  0.8149 -0.0308
 8218SOL    HW236117   0.870   3.712   1.816  0.0091  0.7745 -1.1581
 8219SOL     OW36118   0.923   0.599   4.546 -0.5305 -0.0009 -0.5289
 8219SOL    HW136119   0.965   0.571   4.465  0.5339 -0.8145  0.3066
 8219SOL    HW236120   1.003   0.631   4.589 -0.8402 -1.3653  1.0685
 8220SOL     OW36121   3.605   0.026   4.385  0.2969  0.6149  0.7572
 8220SOL    HW136122   3.694   0.002   4.361  1.2810  3.8923  1.0513
 8220SOL    HW236123   3.562   0.016   4.300 -0.3934  1.1877  1.0355
 8221SOL     OW36124   4.291   1.986   0.331  0.2850 -0.7069  0.0133
 8221SOL    HW136125   4.373   1.990   0.379  2.2409  0.4609 -3.4207
 8221SOL    HW236126   4.248   1.920   0.385 -2.0662  0.3442 -0.5297
 8222SOL     OW36127   0.572   1.243   3.074  0.0062 -0.5798  0.1132
 8222SOL    HW136128   0.585   1.200   3.158 -0.5022 -0.0701  0.4521
 8222SOL    HW236129   0.596   1.177   3.009  0.5178 -0.6621  0.3919
 8223SOL     OW36130   2.008   2.372   5.547 -0.1749  0.2130 -0.1401
 8223SOL    HW136131   1.944   2.303   5.531 -0.1871  0.1911  0.0075
 8223SOL    HW236132   2.056   2.374   5.464  0.4530  0.5934  0.2335
 8224SOL     OW36133   1.504   1.324   7.532 -0.1726  0.2574  0.4102
 8224SOL    HW136134   1.568   1.304   7.600  1.0454  0.0323 -0.7875
 8224SOL    HW236135   1.420   1.311   7.576 -0.2076  0.5669  0.4338
 8225SOL     OW36136   1.402   2.407   5.636  0.0218 -0.1929 -0.0082
 8225SOL    HW136137   1.488   2.450   5.639  0.2349 -0.5424 -1.2328
 8225SOL    HW236138   1.406   2.357   5.718  0.1318 -2.0903 -1.1949
 8226SOL     OW36139   1.962   2.601  11.069 -0.6905  0.1094  0.2288
 8226SOL    HW136140   1.936   2.510  11.053 -1.4572 -0.2655  3.6370
 8226SOL    HW236141   1.896   2.640  11.126 -1.3535  0.5694 -0.8521
 8227SOL     OW36142   2.485   0.198  12.533  0.1601 -0.1237 -0.0207
 8227SOL    HW136143   2.425   0.147  12.587 -0.6443 -1.4715 -2.1742
 8227SOL    HW236144   2.425   0.267  12.501 -1.1487 -0.9420  0.6625
 8228SOL     OW36145   2.110   1.693  11.590  0.4374  0.6270 -0.1528
 8228SOL    HW136146   2.075   1.605  11.573  1.1192  0.0613  1.3921
 8228SOL    HW236147   2.196   1.674  11.553  0.7200  1.2823  0.1613
 8229SOL     OW36148   3.961   0.584   0.474  0.6954 -0.3512  0.6622
 8229SOL    HW136149   4.054   0.564   0.491 -0.0604 -3.9109  0.7031
 8229SOL    HW236150   3.913   0.502   0.463 -1.5954  1.0725  0.0940
 8230SOL     OW36151   3.170   0.667   6.464 -0.1642 -0.4089 -0.2331
 8230SOL    HW136152   3.194   0.583   6.426 -0.0087 -1.1630  1.5412
 8230SOL    HW236153   3.107   0.703   6.401  1.5414 -1.8829 -2.7966
 8231SOL     OW36154   4.105   2.450   2.836 -0.2020  0.3509  0.0103
 8231SOL    HW136155   4.148   2.488   2.913 -2.8324  1.2135  1.0540
 8231SOL    HW236156   4.142   2.506   2.768  2.2663 -1.3554 -0.0594
 8232SOL     OW36157   3.664   0.723   2.538  0.4172 -0.0509 -0.4216
 8232SOL    HW136158   3.735   0.764   2.588  0.9749 -3.9180  1.9398
 8232SOL    HW236159   3.701   0.712   2.450  1.0405  2.6950 -0.5053
 8233SOL     OW36160   4.345   2.368   6.664  0.1738 -0.1995  0.5132
 8233SOL    HW136161   4.363   2.412   6.748  0.4729  0.4937  0.0890
 8233SOL    HW236162   4.322   2.281   6.695 -0.2541 -0.0132  0.7128
 8234SOL     OW36163   0.649   1.934  15.784  0.0713  0.7839 -0.0833
 8234SOL    HW136164   0.586   1.921  15.713  0.4590 -1.1549 -0.0828
 8234SOL    HW236165   0.691   2.016  15.761  1.8386 -0.1397 -0.1091
 8235SOL     OW36166   0.153   1.096  17.517 -0.0696  0.4404 -0.1869
 8235SOL    HW136167   0.134   1.189  17.528  0.4479  0.5575 -0.2892
 8235SOL    HW236168   0.151   1.083  17.422  3.4763  0.0614 -0.1979
 8236SOL     OW36169   0.941   4.356   8.018  0.3356 -0.2738 -0.3388
 8236SOL    HW136170   0.977   4.440   7.988  1.6423 -0.5950  0.3136
 8236SOL    HW236171   0.849   4.366   7.994  0.6929  0.1161 -1.5851
 8237SOL     OW36172   0.689   1.651   3.367 -0.4073  1.1214  0.0293
 8237SOL    HW136173   0.646   1.638   3.451  0.0150 -0.8743 -0.0725
 8237SOL    HW236174   0.666   1.741   3.344 -2.0606  0.4468 -0.9683
 8238SOL     OW36175   1.636   1.355   2.164  0.6127  0.3783  0.1707
 8238SOL    HW136176   1.648   1.275   2.113 -1.0985  0.7522 -0.8275
 8238SOL    HW236177   1.543   1.371   2.145  0.6931 -1.3786 -1.7589
 8239SOL     OW36178   2.322   3.010  14.711 -0.0897  0.9367  0.0672
 8239SOL    HW136179   2.392   2.949  14.687 -0.8067  0.5358 -0.9880
 8239SOL    HW236180   2.274   3.022  14.629  0.4623  2.6407  0.0052
 8240SOL     OW36181   1.233   3.721  16.043 -0.1933  0.4253 -0.3422
 8240SOL    HW136182   1.314   3.749  16.085  0.1096 -1.0055  0.0211
 8240SOL    HW236183   1.166   3.741  16.107 -1.2843 -1.5403 -0.8740
 8241SOL     OW36184   0.270   2.819   3.619  0.3194 -0.1860 -0.1867
 8241SOL    HW136185   0.320   2.762   3.561  1.1426  0.8622 -0.4931
 8241SOL    HW236186   0.324   2.897   3.626  0.1766 -0.1728  0.7851
 8242SOL     OW36187   2.843   0.801   9.765  0.5629  0.1311  0.3586
 8242SOL    HW136188   2.893   0.762   9.837 -0.7028  3.2381  2.9561
 8242SOL    HW236189   2.872   0.741   9.697  2.0016 -1.1898  2.1129
 8243SOL     OW36190   1.718   1.060  16.731  0.3191 -0.6886 -0.4526
 8243SOL    HW136191   1.759   1.086  16.813 -0.1033 -0.1452 -0.4186
 8243SOL    HW236192   1.624   1.069  16.746  0.5469  0.6041  0.1486
 8244SOL     OW36193   0.241   2.891  16.934 -0.3594  0.0122  0.5294
 8244SOL    HW136194   0.246   2.870  16.841  3.7376  0.5173  0.6400
 8244SOL    HW236195   0.170   2.955  16.932  1.0665  1.5442 -0.3836
 8245SOL     OW36196   4.180   3.219  15.377 -0.4670 -0.4616  0.1716
 8245SOL    HW136197   4.240   3.282  15.338 -3.7299  2.1116 -0.7495
 8245SOL    HW236198   4.223   3.185  15.455 -0.7667  1.4762  1.1864
 8246SOL     OW36199   3.802   2.610   0.630  0.6917  0.0472  0.6642
 8246SOL    HW136200   3.820   2.525   0.590  0.2445 -0.3979  1.4055
 8246SOL    HW236201   3.891   2.634   0.656  1.0316  0.4697 -0.8816
 8247SOL     OW36202   1.250   3.977   2.668 -0.3032 -0.1348 -0.7300
 8247SOL    HW136203   1.299   4.012   2.593 -0.1991 -0.0854 -0.6399
 8247SOL    HW236204   1.313   3.926   2.718 -0.9381  1.0693  1.3115
 8248SOL     OW36205   1.874   1.908  12.125  0.0234  0.4799 -0.0752
 8248SOL    HW136206   1.833   1.950  12.201 -0.3877  1.3535 -0.7842
 8248SOL    HW236207   1.950   1.964  12.115 -0.1033  0.6101 -0.2881
 8249SOL     OW36208   0.937   3.829  12.960  0.4948  0.0771 -0.2094
 8249SOL    HW136209   1.000   3.862  13.025 -0.6467  1.9319 -0.0381
 8249SOL    HW236210   0.857   3.822  13.012 -0.1339 -0.7190 -1.3076
 8250SOL     OW36211   0.206   1.870   9.625 -0.7203 -0.1673  0.4351
 8250SOL    HW136212   0.137   1.817   9.583 -1.5300  1.0108  0.2680
 8250SOL    HW236213   0.256   1.806   9.675  0.3172  1.0379  0.9179
 8251SOL     OW36214   0.129   3.098   3.518  0.4712 -0.4920  0.2299
 8251SOL    HW136215   0.182   3.019   3.529  1.7890  0.5655  1.3634
 8251SOL    HW236216   0.200   3.161   3.531 -0.4595  0.5635  0.2448
 8252SOL     OW36217   1.583   1.590   3.932  0.0633  0.6345  0.0591
 8252SOL    HW136218   1.615   1.678   3.912 -2.3197  1.5642  0.3441
 8252SOL    HW236219   1.495   1.610   3.963 -0.1389  1.0417 -0.7757
 8253SOL     OW36220   2.700   4.249   7.052  0.5991  0.5298  0.2846
 8253SOL    HW136221   2.756   4.324   7.033  0.8265  0.2925  0.0337
 8253SOL    HW236222   2.615   4.263   7.010 -0.6194 -1.7200  1.9776
 8254SOL     OW36223   1.801   2.946   9.750 -0.0823 -0.0349  0.3527
 8254SOL    HW136224   1.881   2.896   9.733  0.8246  1.8607 -0.8760
 8254SOL    HW236225   1.732   2.882   9.731  0.0717  0.4758 -1.8893
 8255SOL     OW36226   4.230   3.211   5.317  0.0330 -0.1459  0.0039
 8255SOL    HW136227   4.275   3.279   5.266 -0.0817 -0.8997 -1.0979
 8255SOL    HW236228   4.173   3.174   5.250 -1.0078  2.4229 -0.5656
 8256SOL     OW36229   3.432   0.121   5.298 -0.7615 -0.5431 -0.7825
 8256SOL    HW136230   3.391   0.037   5.279  0.2371 -0.8514 -1.5327
 8256SOL    HW236231   3.515   0.119   5.251  0.0357  2.0055  0.5138
 8257SOL     OW36232   4.528   4.134   5.614 -0.3836  0.2036  0.1402
 8257SOL    HW136233   4.432   4.136   5.606 -0.6282 -2.6082  2.4264
 8257SOL    HW236234   4.548   4.195   5.543 -0.6565  1.0902  0.8158
 8258SOL     OW36235   3.270   4.629   6.051 -0.3814 -0.2044 -0.0382
 8258SOL    HW136236   3.207   4.557   6.057  1.5065 -1.8597  0.0459
 8258SOL    HW236237   3.252   4.648   5.959 -1.1420 -1.6649 -0.1866
 8259SOL     OW36238   1.429   2.959   3.007 -0.6814 -0.4775  0.4332
 8259SOL    HW136239   1.343   2.974   3.047 -1.2975  1.0454 -1.4679
 8259SOL    HW236240   1.400   2.966   2.916  0.2143  0.9489  0.2573
 8260SOL     OW36241   2.951   2.617   3.603  0.2708 -0.9426 -0.3016
 8260SOL    HW136242   2.989   2.658   3.525 -1.9502  2.6203  0.4892
 8260SOL    HW236243   3.012   2.628   3.676  2.3047 -1.4241 -1.9465
 8261SOL     OW36244   0.611   2.741  16.497 -0.0166 -0.0415  0.1886
 8261SOL    HW136245   0.624   2.765  16.589  1.8093  0.7613 -0.2647
 8261SOL    HW236246   0.632   2.827  16.459 -1.8902  0.0053 -0.7053
 8262SOL     OW36247   2.674   0.465   3.731 -0.7893  0.2197 -0.0072
 8262SOL    HW136248   2.752   0.518   3.717 -0.2216 -0.1704  1.7129
 8262SOL    HW236249   2.641   0.510   3.809  0.9128  1.6690 -0.1496
 8263SOL     OW36250   0.322   2.830   1.325 -0.4304 -0.3262 -0.3918
 8263SOL    HW136251   0.351   2.835   1.233 -0.5814  0.8855 -0.3718
 8263SOL    HW236252   0.259   2.759   1.315 -0.5547 -0.4316  1.1706
 8264SOL     OW36253   0.466   3.015   8.962 -0.1356  0.3092  0.3053
 8264SOL    HW136254   0.548   3.053   8.931 -0.0397 -0.6277 -0.5893
 8264SOL    HW236255   0.491   2.922   8.965 -0.7146  0.2148  2.1355
 8265SOL     OW36256   3.779   3.089   2.107  0.6303  0.2147 -0.0227
 8265SOL    HW136257   3.777   3.184   2.105  0.8378  0.2186 -0.0472
 8265SOL    HW236258   3.780   3.072   2.201 -0.3547  2.6994  0.4134
 8266SOL     OW36259   4.709   4.376   2.867  0.4695  0.1897 -0.5021
 8266SOL    HW136260   0.001   4.388   2.961  1.8271  0.3703 -0.7725
 8266SOL    HW236261   4.710   4.280   2.870 -3.1865  0.1738  0.4636
 8267SOL     OW36262   3.454   1.805   7.332  0.1061  0.2645 -0.7377
 8267SOL    HW136263   3.468   1.750   7.255  0.0355 -0.3469 -0.3165
 8267SOL    HW236264   3.465   1.737   7.399  0.9597 -0.9417 -2.1101
 8268SOL     OW36265   4.719   0.305   9.444 -0.0765  0.9183 -0.0882
 8268SOL    HW136266   0.021   0.265   9.362 -2.0007  0.2450 -0.3919
 8268SOL    HW236267   4.642   0.255   9.471  1.3394 -1.8701 -1.2543
 8269SOL     OW36268   0.725   1.027  10.363 -0.1771  0.1496 -0.0694
 8269SOL    HW136269   0.641   0.986  10.382  0.2823 -0.0487  1.5837
 8269SOL    HW236270   0.784   0.959  10.397 -0.4203  1.1932  2.4443
 8270SOL     OW36271   3.805   1.416   0.700  0.1507  0.0339 -0.1903
 8270SOL    HW136272   3.799   1.441   0.608 -1.9018 -0.8746 -0.3105
 8270SOL    HW236273   3.786   1.323   0.693 -1.3913  0.3320  0.0270
 8271SOL     OW36274   4.400   3.698   2.367 -0.0438  0.0998  0.2102
 8271SOL    HW136275   4.385   3.776   2.315  0.1128  0.4142  0.6366
 8271SOL    HW236276   4.319   3.654   2.342  0.3735 -1.6151  1.8275
 8272SOL     OW36277   2.251   3.620   4.246 -0.5370  0.0653 -0.0818
 8272SOL    HW136278   2.220   3.605   4.335 -0.9696  0.1631 -0.2130
 8272SOL    HW236279   2.275   3.713   4.248  1.1502 -0.3924  0.8528
 8273SOL     OW36280   4.063   4.683   4.740 -0.1288 -0.2030  0.3569
 8273SOL    HW136281   3.977   4.667   4.779 -0.5061 -0.3459 -0.5549
 8273SOL    HW236282   4.046   0.014   4.664 -0.5214 -1.2383 -0.3092
 8274SOL     OW36283   2.124   1.872   0.700 -0.3628  1.0615 -0.1626
 8274SOL    HW136284   2.150   1.939   0.762 -1.1317  0.7668  0.4778
 8274SOL    HW236285   2.082   1.918   0.628 -0.0688  1.8460  0.1715
 8275SOL     OW36286   4.266   3.532   6.147  0.1105 -0.0083  0.1004
 8275SOL    HW136287   4.258   3.585   6.227  0.6959  1.4316 -0.7938
 8275SOL    HW236288   4.216   3.453   6.165 -2.9059  1.9206  0.1831
 8276SOL     OW36289   4.225   2.832  14.854 -0.1663  0.0401  0.1059
 8276SOL    HW136290   4.129   2.835  14.851 -0.1319  0.8490 -0.2370
 8276SOL    HW236291   4.240   2.815  14.947  0.5955  1.4169  0.2271
 8277SOL     OW36292   4.201   0.109  10.627  0.2715 -0.3904 -0.5171
 8277SOL    HW136293   4.153   0.111  10.710  0.2360 -4.2538 -0.4657
 8277SOL    HW236294   4.129   0.099  10.564  0.7573 -1.2863 -0.9330
 8278SOL     OW36295   3.351   2.549  16.130 -0.0811  0.6311  0.6043
 8278SOL    HW136296   3.351   2.641  16.103 -1.4300  0.7932  1.1486
 8278SOL    HW236297   3.383   2.516  16.046 -0.2077  1.3743  0.2587
 8279SOL     OW36298   0.830   0.230  12.682  0.0428 -0.1643 -0.2158
 8279SOL    HW136299   0.891   0.302  12.664 -0.4400  0.7708  1.9576
 8279SOL    HW236300   0.858   0.167  12.615 -1.7803  0.3444 -1.4683
 8280SOL     OW36301   2.037   0.751   7.833  0.1622  0.2034  0.0791
 8280SOL    HW136302   2.056   0.658   7.833  1.0810  0.3923  0.2095
 8280SOL    HW236303   1.969   0.762   7.900 -0.1722 -0.4291 -0.1590
 8281SOL     OW36304   0.872   4.565   9.004  0.1708  0.6730 -0.7393
 8281SOL    HW136305   0.818   4.615   9.066 -1.2251  0.4746 -1.7771
 8281SOL    HW236306   0.856   4.473   9.027 -0.1970  0.9485  0.1098
 8282SOL     OW36307   3.656   2.493   3.732 -0.4868  0.4763  0.2118
 8282SOL    HW136308   3.695   2.524   3.650  1.3249  2.9515  2.0082
 8282SOL    HW236309   3.665   2.399   3.716  2.0553  0.4046  1.9924
 8283SOL     OW36310   4.711   1.859   1.775 -0.1913 -0.4211  0.0690
 8283SOL    HW136311   0.004   1.927   1.839 -1.4902 -0.9874  1.0193
 8283SOL    HW236312   4.618   1.845   1.793 -0.1565 -1.2383 -0.3743
 8284SOL     OW36313   1.310   1.428   6.922  0.0071 -0.7528 -0.0297
 8284SOL    HW136314   1.362   1.378   6.859 -0.6106 -3.2138  1.4275
 8284SOL    HW236315   1.346   1.513   6.895 -0.2006  0.1832  2.7110
 8285SOL     OW36316   2.131   3.730   1.737 -0.0161 -1.1443  0.2460
 8285SOL    HW136317   2.069   3.781   1.684 -1.3544 -2.0044  0.9898
 8285SOL    HW236318   2.173   3.679   1.668  0.4024  1.6494 -1.6011
 8286SOL     OW36319   2.417   2.229   0.174  0.0644 -0.4628  0.0321
 8286SOL    HW136320   2.328   2.211   0.142  0.1566 -1.8689  0.5545
 8286SOL    HW236321   2.467   2.148   0.163  1.4160  0.3035  0.4813
 8287SOL     OW36322   1.668   0.020   0.760 -0.8048 -0.4079 -0.5372
 8287SOL    HW136323   1.684   0.040   0.668 -0.6458 -0.4402 -0.5167
 8287SOL    HW236324   1.718   4.663   0.763  2.1738  1.4336  0.1313
 8288SOL     OW36325   0.491   1.252   0.969  0.9418  0.1956 -0.6164
 8288SOL    HW136326   0.540   1.317   0.918 -0.1771  0.1229 -1.7834
 8288SOL    HW236327   0.564   1.191   0.975 -1.0442 -2.1468 -0.2700
 8289SOL     OW36328   2.403   3.698  12.120  0.0701  0.7622  0.4676
 8289SOL    HW136329   2.362   3.744  12.194 -2.2188 -2.6246  1.3097
 8289SOL    HW236330   2.399   3.762  12.049 -1.8561 -0.1732 -0.2496
 8290SOL     OW36331   0.909   3.835   8.716 -0.7935 -0.0847 -0.6068
 8290SOL    HW136332   0.868   3.909   8.760 -0.0266  0.6757 -1.1770
 8290SOL    HW236333   0.875   3.758   8.762 -0.8785  1.4295  1.8420
 8291SOL     OW36334   3.371   1.652  11.575  0.3724  0.3207  0.3661
 8291SOL    HW136335   3.389   1.681  11.664  2.5404  0.1812 -0.0232
 8291SOL    HW236336   3.459   1.655  11.537 -0.6916  1.4889 -2.0315
 8292SOL     OW36337   1.902   4.130  14.249 -0.1941 -0.8404 -0.4734
 8292SOL    HW136338   1.863   4.212  14.218 -0.3265 -1.3569 -1.6862
 8292SOL    HW236339   1.835   4.061  14.248 -0.2085 -0.8364 -0.0436
 8293SOL     OW36340   3.328   3.796   3.769 -0.2908 -0.4768 -0.2034
 8293SOL    HW136341   3.238   3.796   3.802  0.0152 -0.1238  0.6215
 8293SOL    HW236342   3.327   3.760   3.680 -2.1341  1.5392 -1.0200
 8294SOL     OW36343   2.501   2.726   5.349 -0.2279 -0.0747  0.4039
 8294SOL    HW136344   2.506   2.654   5.412 -0.2354  0.2241  0.7458
 8294SOL    HW236345   2.593   2.753   5.352 -0.2166 -0.0831  0.1452
 8295SOL     OW36346   2.107   0.710   9.226  0.3681  0.3178 -0.1924
 8295SOL    HW136347   2.149   0.682   9.307 -0.0947 -1.0220 -0.4232
 8295SOL    HW236348   2.025   0.662   9.240  0.4717  0.1111 -0.3020
 8296SOL     OW36349   0.977   2.816   7.244 -0.4749 -0.5424 -0.0668
 8296SOL    HW136350   0.893   2.785   7.209 -1.0418  0.3568  0.5083
 8296SOL    HW236351   0.953   2.863   7.323  0.4961  0.2868 -0.2777
 8297SOL     OW36352   1.949   3.800   5.844  0.2600 -0.1386  1.0875
 8297SOL    HW136353   1.967   3.706   5.833  2.7748  0.5176 -0.3646
 8297SOL    HW236354   2.028   3.844   5.875  1.2305 -1.2051  0.1610
 8298SOL     OW36355   0.032   4.101   7.291 -0.1315 -0.0194 -0.4529
 8298SOL    HW136356   0.026   4.173   7.228  2.8894 -0.9848 -1.8491
 8298SOL    HW236357   4.675   4.055   7.274  0.3919 -1.6246  1.3097
 8299SOL     OW36358   0.529   3.813   5.847  1.0312  0.3977 -0.1323
 8299SOL    HW136359   0.610   3.832   5.798  1.6644 -0.3133  0.6415
 8299SOL    HW236360   0.479   3.893   5.829 -1.3038 -0.6370  1.8821
 8300SOL     OW36361   2.477   2.091   0.780 -0.0696  0.0247  0.7426
 8300SOL    HW136362   2.570   2.070   0.789  0.2797 -0.6104 -3.9315
 8300SOL    HW236363   2.485   2.173   0.731  0.0910 -0.7503 -0.5457
 8301SOL     OW36364   0.691   2.658   6.118 -0.3565  0.4119  0.6595
 8301SOL    HW136365   0.616   2.650   6.178 -0.4218 -2.9733  0.1266
 8301SOL    HW236366   0.716   2.568   6.097 -0.1914  1.0821 -2.0010
 8302SOL     OW36367   0.668   3.379  11.463  0.9041 -0.3489  0.6356
 8302SOL    HW136368   0.660   3.469  11.432 -0.5787 -1.4033 -2.0176
 8302SOL    HW236369   0.607   3.370  11.537 -1.6839 -0.1814 -1.4616
 8303SOL     OW36370   2.497   2.737   7.196  0.2468  0.0331  0.1811
 8303SOL    HW136371   2.487   2.687   7.277  2.8059 -2.0055 -0.7384
 8303SOL    HW236372   2.592   2.728   7.183 -0.4191 -1.4910 -3.4707
 8304SOL     OW36373   1.601   0.523   3.542 -0.7161  0.1965 -0.2787
 8304SOL    HW136374   1.571   0.490   3.457 -0.3806 -1.0931  0.1153
 8304SOL    HW236375   1.631   0.441   3.580  2.7055  0.2840 -2.8136
 8305SOL     OW36376   0.444   0.018   7.907  0.3129 -0.1040  0.4522
 8305SOL    HW136377   0.528   0.010   7.952  0.5133 -1.0249 -0.0787
 8305SOL    HW236378   0.393   4.672   7.946 -0.1167  1.0906  2.0441
 8306SOL     OW36379   4.127   0.134   4.117  0.0920 -0.6944 -0.8283
 8306SOL    HW136380   4.117   0.041   4.137 -0.2308 -0.4517  0.1322
 8306SOL    HW236381   4.047   0.163   4.072 -0.7201  0.9630  1.6648
 8307SOL     OW36382   4.061   0.044  13.296  0.0883  0.0461  0.5822
 8307SOL    HW136383   4.108   0.006  13.222 -1.3188  0.2779 -0.4078
 8307SOL    HW236384   3.992   4.706  13.320  1.2647 -1.9749 -1.3561
 8308SOL     OW36385   2.296   0.053  11.801 -0.1290 -0.4723 -0.0018
 8308SOL    HW136386   2.243   4.719  11.854 -2.1383  2.3550  1.1235
 8308SOL    HW236387   2.357   4.709  11.773  1.9972  0.2442  2.9132
 8309SOL     OW36388   3.809   2.927   3.240 -0.5836  0.6888  0.5852
 8309SOL    HW136389   3.817   2.832   3.233 -0.4494  0.7531 -0.1063
 8309SOL    HW236390   3.880   2.940   3.303  0.7142  2.0473 -1.1714
 8310SOL     OW36391   0.472   0.314   6.363  0.1703  0.0826 -0.3912
 8310SOL    HW136392   0.383   0.288   6.390  1.2274 -0.1094  2.9681
 8310SOL    HW236393   0.474   0.288   6.271  0.2952 -1.3957  0.0281
 8311SOL     OW36394   0.288   3.800  11.802 -0.1926 -0.1071  0.1088
 8311SOL    HW136395   0.223   3.762  11.742  0.1011 -1.4967  0.6583
 8311SOL    HW236396   0.227   3.853  11.853  0.7766  2.0661 -1.0143
 8312SOL     OW36397   4.189   2.932   9.088  0.8516 -0.4320  0.0821
 8312SOL    HW136398   4.136   2.998   9.044  0.5661  0.8012  2.2653
 8312SOL    HW236399   4.276   2.973   9.094  1.2332 -1.2903  0.3420
 8313SOL     OW36400   3.521   2.790   7.955 -0.1520 -0.4318  0.3089
 8313SOL    HW136401   3.552   2.769   8.044 -0.0853 -1.2015  0.0978
 8313SOL    HW236402   3.438   2.744   7.945 -1.1983  1.9334 -1.6931
 8314SOL     OW36403   4.683   1.569   3.404 -0.0651  0.0614  0.1804
 8314SOL    HW136404   4.692   1.487   3.453 -0.0469  0.7299  1.2835
 8314SOL    HW236405   4.651   1.529   3.324 -1.1220  1.3981 -0.0617
 8315SOL     OW36406   3.385   1.366   0.491  1.0427 -0.3729 -0.6818
 8315SOL    HW136407   3.461   1.327   0.448  0.9396  0.9274 -2.0246
 8315SOL    HW236408   3.406   1.459   0.492  0.3269 -0.2190  0.4626
 8316SOL     OW36409   1.077   3.758   2.088 -0.2720  0.1727  0.8853
 8316SOL    HW136410   1.029   3.838   2.066 -2.2091 -1.0214  0.8187
 8316SOL    HW236411   1.055   3.709   2.009  0.9090 -0.2560  0.8230
 8317SOL     OW36412   1.009   3.232  15.753  0.8243 -0.2714 -0.6940
 8317SOL    HW136413   1.039   3.318  15.782  0.6800 -0.1286 -0.9687
 8317SOL    HW236414   1.070   3.218  15.680 -0.9945 -0.8296 -2.1016
 8318SOL     OW36415   0.734   1.125   0.965  0.1148 -0.5182  0.4793
 8318SOL    HW136416   0.800   1.101   0.900 -0.8819 -0.6908 -0.4814
 8318SOL    HW236417   0.780   1.144   1.047  2.8755  0.1624 -1.2260
 8319SOL     OW36418   2.063   2.808   9.225  0.2567  0.0511 -0.0381
 8319SOL    HW136419   1.981   2.831   9.270  0.2471  0.6672 -0.3805
 8319SOL    HW236420   2.068   2.713   9.239 -0.6110  0.0683  0.3986
 8320SOL     OW36421   2.548   0.598   3.923 -0.1932 -0.2011  0.1348
 8320SOL    HW136422   2.602   0.627   3.996  1.7648 -1.0568 -0.9851
 8320SOL    HW236423   2.477   0.551   3.966 -1.0081  0.0650 -0.9048
 8321SOL     OW36424   0.357   0.698   1.728  0.3579  0.2057 -0.9611
 8321SOL    HW136425   0.449   0.725   1.727  0.4501 -0.1226 -1.9220
 8321SOL    HW236426   0.372   0.611   1.691  2.6193  0.1116  0.1849
 8322SOL     OW36427   2.431   1.530   1.134 -0.1054 -0.5616 -0.2366
 8322SOL    HW136428   2.395   1.450   1.096  0.0201  0.5069 -2.5612
 8322SOL    HW236429   2.409   1.589   1.062 -1.9503  2.1909  2.5666
 8323SOL     OW36430   4.494   0.507   5.311  0.2860  0.5353  0.9229
 8323SOL    HW136431   4.566   0.444   5.308 -0.6130 -0.3569 -1.4885
 8323SOL    HW236432   4.421   0.464   5.266  1.2097  1.6537 -1.6243
 8324SOL     OW36433   1.945   2.003   0.952 -0.2251 -0.3187 -0.2360
 8324SOL    HW136434   2.040   1.989   0.948 -0.2354 -0.4334 -0.0649
 8324SOL    HW236435   1.934   2.071   0.885  1.1913 -1.8546 -2.0240
 8325SOL     OW36436   0.989   3.130   5.993 -0.6941  0.1351 -0.0936
 8325SOL    HW136437   1.075   3.154   5.958 -0.0370  0.4942  1.7630
 8325SOL    HW236438   0.974   3.063   5.926  0.0635  0.4021 -0.5376
 8326SOL     OW36439   1.475   1.078   1.529 -0.1672  0.4648  0.6889
 8326SOL    HW136440   1.398   1.021   1.519 -1.0781  1.9597 -0.9283
 8326SOL    HW236441   1.436   1.154   1.573 -0.7812  0.9743 -0.7188
 8327SOL     OW36442   4.047   1.736  14.833  0.7488  0.1140 -0.1024
 8327SOL    HW136443   4.006   1.818  14.805  2.0103  1.3541  1.6615
 8327SOL    HW236444   3.982   1.708  14.897  0.6499 -0.9628 -0.6767
 8328SOL     OW36445   2.866   3.983   2.149  0.4264  0.4999  0.3571
 8328SOL    HW136446   2.839   4.065   2.191 -1.8277  0.2638 -0.6269
 8328SOL    HW236447   2.960   3.994   2.138  0.6959 -1.1780  1.1055
 8329SOL     OW36448   1.550   2.149   4.465  0.1372 -0.2927  0.1076
 8329SOL    HW136449   1.570   2.167   4.373  0.5058 -1.8761 -0.1295
 8329SOL    HW236450   1.460   2.116   4.465 -0.3218  0.9795 -1.2165
 8330SOL     OW36451   2.443   0.763   9.451  0.0315  0.0549 -0.2962
 8330SOL    HW136452   2.404   0.820   9.385 -0.5197 -1.6057 -1.4016
 8330SOL    HW236453   2.517   0.813   9.487 -0.3926  0.9290 -0.6317
 8331SOL     OW36454   3.664   2.140   5.032  0.1000  0.3994  0.1689
 8331SOL    HW136455   3.747   2.178   5.005 -1.3332  2.0358 -1.9197
 8331SOL    HW236456   3.607   2.217   5.035 -0.8562 -0.3904  2.4232
 8332SOL     OW36457   2.861   0.608   3.916 -0.1791  0.1997  0.5369
 8332SOL    HW136458   2.813   0.667   3.859 -1.3383 -2.6313 -1.4075
 8332SOL    HW236459   2.813   0.606   3.998  1.9765 -0.9509  1.7884
 8333SOL     OW36460   3.568   3.112   6.378  0.0882 -0.2150  0.2055
 8333SOL    HW136461   3.548   3.185   6.437 -1.0599  0.1634 -0.6412
 8333SOL    HW236462   3.655   3.084   6.405  0.6845  0.6003 -0.8990
 8334SOL     OW36463   1.601   0.050  11.362  0.5452  0.1745  0.1291
 8334SOL    HW136464   1.575   4.699  11.415  0.2233 -0.8426 -1.4870
 8334SOL    HW236465   1.545   0.117  11.402 -2.3927  0.3135 -4.1395
 8335SOL     OW36466   3.220   0.809  16.087 -0.2419  0.3467 -0.2226
 8335SOL    HW136467   3.203   0.899  16.061 -0.1895  0.9433  1.7682
 8335SOL    HW236468   3.241   0.777  15.999  0.6966  2.1527 -0.6602
 8336SOL     OW36469   2.087   2.690   1.008  0.1312  0.8674  0.3833
 8336SOL    HW136470   2.028   2.615   1.017 -0.8888  1.8596  1.8961
 8336SOL    HW236471   2.172   2.651   1.028 -0.0615  0.2967  0.0883
 8337SOL     OW36472   3.897   2.239   8.713  0.2610 -0.8912  0.7431
 8337SOL    HW136473   3.937   2.284   8.787 -0.7188 -1.1803  1.4418
 8337SOL    HW236474   3.812   2.215   8.748 -0.3356 -1.0616 -0.7994
 8338SOL     OW36475   0.546   0.880   6.231  0.3545 -0.4336 -0.2347
 8338SOL    HW136476   0.536   0.816   6.302  0.0462  0.2360  0.3210
 8338SOL    HW236477   0.635   0.915   6.241  0.3955  0.2440 -3.0282
 8339SOL     OW36478   2.948   0.799  11.073 -0.0747 -0.2947 -1.1525
 8339SOL    HW136479   2.919   0.722  11.024  0.5844 -0.0485 -1.9333
 8339SOL    HW236480   3.028   0.772  11.119 -0.3797  1.9481  0.7283
 8340SOL     OW36481   1.045   0.119   4.808  0.4548 -0.4854 -0.1198
 8340SOL    HW136482   1.089   0.148   4.888  1.3339 -2.4214  0.1138
 8340SOL    HW236483   1.103   0.158   4.742 -1.5654  0.0086 -1.5863
 8341SOL     OW36484   0.611   2.261   5.709  0.0091  0.5578  0.3019
 8341SOL    HW136485   0.522   2.235   5.731 -0.3191 -0.6279 -2.4994
 8341SOL    HW236486   0.666   2.185   5.729  0.1456  1.0293  1.7488
 8342SOL     OW36487   1.326   1.635   7.444  0.3032  0.0561  0.3357
 8342SOL    HW136488   1.316   1.627   7.349 -1.1716  0.7330  0.4343
 8342SOL    HW236489   1.268   1.570   7.485  3.3104 -2.8962 -0.1199
 8343SOL     OW36490   2.856   3.980   1.242 -0.2955  0.4693  0.4157
 8343SOL    HW136491   2.931   3.990   1.301 -1.5670 -0.7109  2.2113
 8343SOL    HW236492   2.900   4.018   1.166 -0.2336  0.2267  0.3291
 8344SOL     OW36493   1.157   3.484   3.505  0.6242  0.1138 -0.5496
 8344SOL    HW136494   1.091   3.554   3.500  0.3087 -0.1262  0.3059
 8344SOL    HW236495   1.207   3.495   3.424 -2.4457  1.0540 -2.3215
 8345SOL     OW36496   3.178   1.907   5.352  0.0797 -0.7270 -0.2455
 8345SOL    HW136497   3.139   1.945   5.431 -1.0393  0.0782 -1.1727
 8345SOL    HW236498   3.239   1.977   5.328  0.8314 -1.3289 -0.0880
 8346SOL     OW36499   2.592   2.393   1.380 -0.2238  0.0086  0.0513
 8346SOL    HW136500   2.497   2.382   1.374 -0.2127 -1.3174  2.6474
 8346SOL    HW236501   2.595   2.426   1.470 -0.5115 -0.2511  0.1542
 8347SOL     OW36502   0.538   3.480   8.606 -0.0440  0.2695  0.3602
 8347SOL    HW136503   0.633   3.482   8.589  0.0480 -0.2713  0.8108
 8347SOL    HW236504   0.522   3.495   8.699 -2.1997  1.7915 -0.2738
 8348SOL     OW36505   2.937   1.625  13.090  0.3064  0.6969 -0.3153
 8348SOL    HW136506   2.846   1.618  13.062 -0.3470  0.1275  1.9209
 8348SOL    HW236507   2.969   1.707  13.052  1.0891  0.0117 -1.1362
 8349SOL     OW36508   0.215   2.189   3.336  0.2549  0.6290  0.1918
 8349SOL    HW136509   0.310   2.199   3.347  0.7746  0.1422 -4.0250
 8349SOL    HW236510   0.227   2.134   3.259 -3.2307  0.8597 -0.5112
 8350SOL     OW36511   1.831   3.424   3.385 -0.3655 -0.2213  0.0142
 8350SOL    HW136512   1.737   3.432   3.366  0.2741  0.5447 -2.8025
 8350SOL    HW236513   1.829   3.343   3.436  0.5197  0.2485  0.7861
 8351SOL     OW36514   3.488   2.665  15.040  0.5772  0.8730  0.5151
 8351SOL    HW136515   3.574   2.667  14.998  0.1826  0.5989 -0.3050
 8351SOL    HW236516   3.436   2.615  14.977  0.9577 -0.1037  0.9697
 8352SOL     OW36517   0.051   3.968   1.875  0.2291  1.1821 -0.1840
 8352SOL    HW136518   0.042   3.932   1.963 -3.9783 -1.2127 -1.6130
 8352SOL    HW236519   4.695   3.934   1.835 -0.2031 -0.8462  2.4369
 8353SOL     OW36520   3.490   1.280   3.335 -0.1165  0.4681 -0.2839
 8353SOL    HW136521   3.410   1.306   3.382 -0.9900  1.9755 -2.6038
 8353SOL    HW236522   3.540   1.352   3.374 -0.2517 -1.0992  2.7558
 8354SOL     OW36523   3.483   4.527   2.383 -0.2866 -0.1478 -0.2295
 8354SOL    HW136524   3.570   4.507   2.349 -0.4522 -1.0554 -0.1261
 8354SOL    HW236525   3.438   4.567   2.308 -1.7617 -0.9420  0.2216
 8355SOL     OW36526   2.856   0.334  14.685 -0.2070  0.6080  0.4758
 8355SOL    HW136527   2.821   0.258  14.639  1.7368  0.0747 -0.1055
 8355SOL    HW236528   2.774   0.378  14.707 -1.0638  1.1688 -3.8827
 8356SOL     OW36529   2.399   1.172   8.530 -0.1217  0.0610 -0.4738
 8356SOL    HW136530   2.489   1.164   8.562  0.6055  0.8954 -2.3193
 8356SOL    HW236531   2.422   1.183   8.438 -1.1430  4.3767 -0.2109
 8357SOL     OW36532   2.608   2.341  10.465  0.2313  0.0069  0.4431
 8357SOL    HW136533   2.554   2.317  10.540  0.4562  0.1506  0.6507
 8357SOL    HW236534   2.691   2.366  10.504  0.8847 -1.3574 -0.0784
 8358SOL     OW36535   2.724   2.263  17.227 -0.0323  0.4194  0.2453
 8358SOL    HW136536   2.631   2.255  17.247  0.9162  0.1106  4.4050
 8358SOL    HW236537   2.763   2.194  17.281 -0.0406 -1.1424 -1.7299
 8359SOL     OW36538   4.422   3.907   7.333  0.1724  0.0233  0.0799
 8359SOL    HW136539   4.475   3.912   7.253  2.8754 -1.1642  1.7728
 8359SOL    HW236540   4.338   3.947   7.312 -0.0127  0.2582  1.2797
 8360SOL     OW36541   3.878   4.404   2.068 -0.2108  0.2732 -0.5803
 8360SOL    HW136542   3.965   4.387   2.031  0.3270 -1.1990  1.3648
 8360SOL    HW236543   3.811   4.368   2.009 -1.4474 -2.0043  2.2165
 8361SOL     OW36544   3.924   1.346   5.669  0.0425 -0.5205  0.2266
 8361SOL    HW136545   3.965   1.262   5.648  2.3793  0.4043  1.0416
 8361SOL    HW236546   3.831   1.324   5.678 -0.0116 -1.1685 -1.9259
 8362SOL     OW36547   1.326   1.672   4.045 -0.3819 -0.2534 -0.4577
 8362SOL    HW136548   1.247   1.688   4.097 -1.9813  0.3635 -3.0549
 8362SOL    HW236549   1.324   1.729   3.968 -0.8601  0.6472  0.2283
 8363SOL     OW36550   3.163   2.140  11.964 -0.9731  0.1645 -0.0931
 8363SOL    HW136551   3.237   2.167  12.017  0.0339 -0.5420 -1.1495
 8363SOL    HW236552   3.118   2.073  12.014 -0.1005 -1.3895 -1.3995
 8364SOL     OW36553   1.883   0.818   4.768 -0.2513 -0.4873  0.5838
 8364SOL    HW136554   1.935   0.859   4.837  0.3135 -1.6460  0.8390
 8364SOL    HW236555   1.799   0.858   4.792 -0.4442 -0.3958 -0.2375
 8365SOL     OW36556   4.543   4.049   3.743 -0.0817  0.6311 -0.1980
 8365SOL    HW136557   4.558   4.128   3.795 -0.9506  0.5363  0.2037
 8365SOL    HW236558   4.524   4.087   3.656  0.5223  2.9717  0.6849
 8366SOL     OW36559   3.971   1.444   7.961  0.1039 -0.2087  0.6101
 8366SOL    HW136560   3.955   1.537   7.974  0.2045 -0.2301  0.9028
 8366SOL    HW236561   3.916   1.419   8.035 -1.6385 -0.7264 -0.8528
 8367SOL     OW36562   3.191   3.536   7.154 -0.6461  0.0077  0.2515
 8367SOL    HW136563   3.179   3.505   7.064 -0.9656  1.2296 -0.1258
 8367SOL    HW236564   3.140   3.468   7.198  0.7540 -2.2927 -1.6801
 8368SOL     OW36565   3.339   0.653   5.817 -0.0923 -0.2523  0.2792
 8368SOL    HW136566   3.349   0.618   5.728 -3.2277 -1.1282  0.2759
 8368SOL    HW236567   3.324   0.746   5.800 -0.7453 -0.4741 -0.3597
 8369SOL     OW36568   4.582   1.548   8.396  0.2483  0.3753  0.2857
 8369SOL    HW136569   4.647   1.604   8.440 -0.5978  2.3757 -1.0094
 8369SOL    HW236570   4.539   1.502   8.469  1.3543 -2.5241 -0.8985
 8370SOL     OW36571   3.339   3.321   6.976  0.2394 -0.0101 -0.0219
 8370SOL    HW136572   3.349   3.233   7.012 -2.4315 -0.0827  0.5266
 8370SOL    HW236573   3.397   3.368   7.035 -1.8472  2.2608  0.2338
 8371SOL     OW36574   0.510   4.236   2.561 -0.6984 -0.0864 -0.5443
 8371SOL    HW136575   0.421   4.246   2.596 -0.0100  2.2015  0.5121
 8371SOL    HW236576   0.553   4.178   2.624  0.1205 -0.8118 -1.7715
 8372SOL     OW36577   0.783   0.360   1.205  0.6677 -0.1961  0.2152
 8372SOL    HW136578   0.832   0.282   1.229  0.6421 -0.5904 -0.9971
 8372SOL    HW236579   0.726   0.314   1.143  0.0088 -0.7831  1.2688
 8373SOL     OW36580   2.002   0.997   3.138 -0.4066  0.2069 -0.2333
 8373SOL    HW136581   1.933   1.054   3.171 -1.0221 -0.6182 -0.0935
 8373SOL    HW236582   2.026   0.953   3.220  0.1629 -0.5286 -0.7906
 8374SOL     OW36583   2.372   1.568  12.700  0.1177 -0.5030 -0.2642
 8374SOL    HW136584   2.422   1.633  12.749 -0.3706 -1.0443  0.9764
 8374SOL    HW236585   2.336   1.522  12.777 -1.8931  2.0404  0.2905
 8375SOL     OW36586   4.634   2.794  13.849  0.5146  0.3427  0.3689
 8375SOL    HW136587   4.715   2.781  13.899  0.2563 -0.3163  0.6256
 8375SOL    HW236588   4.616   2.701  13.836  1.1486  0.1936  0.5591
 8376SOL     OW36589   2.933   4.681  10.419 -0.4893  0.4206  0.1814
 8376SOL    HW136590   2.939   0.031  10.360  0.6703 -0.2864 -0.5867
 8376SOL    HW236591   2.845   4.703  10.449  0.2821 -1.3811  3.8937
 8377SOL     OW36592   1.840   0.740   5.174 -0.0417 -0.4628 -0.4609
 8377SOL    HW136593   1.831   0.835   5.168 -1.9611 -0.4958  1.7480
 8377SOL    HW236594   1.796   0.738   5.259 -0.3642 -0.1271 -0.6165
 8378SOL     OW36595   2.422   2.361  12.589  0.0942 -0.2312 -0.0267
 8378SOL    HW136596   2.416   2.349  12.494  0.7531 -0.7343 -0.0080
 8378SOL    HW236597   2.481   2.291  12.618  1.4573  1.5358  1.4207
 8379SOL     OW36598   0.761   1.867   9.044  0.6332 -0.5153  0.1896
 8379SOL    HW136599   0.792   1.874   8.953  1.8843  2.1335  0.8092
 8379SOL    HW236600   0.708   1.946   9.055  0.3941 -0.6904  0.2731
 8380SOL     OW36601   4.685   2.560   8.327  0.3226 -0.0604 -0.1870
 8380SOL    HW136602   4.665   2.644   8.369 -0.0684  0.3501 -1.2070
 8380SOL    HW236603   4.609   2.508   8.355  0.0124 -0.4596 -1.8096
 8381SOL     OW36604   0.702   0.024  15.660 -0.2701  0.7098  0.0834
 8381SOL    HW136605   0.698   0.103  15.715  1.0759  0.4517  0.5552
 8381SOL    HW236606   0.675   0.068  15.580 -2.7079  0.3870  0.7442
 8382SOL     OW36607   2.578   1.027  16.870  0.0739  0.0521  0.0672
 8382SOL    HW136608   2.611   1.074  16.794  0.7207 -1.7331 -0.7721
 8382SOL    HW236609   2.530   0.954  16.830 -0.5397 -0.2569  1.3723
 8383SOL     OW36610   1.419   1.070   0.275 -0.3034 -0.3184 -0.3425
 8383SOL    HW136611   1.349   1.031   0.326  0.9724  0.0520  1.6674
 8383SOL    HW236612   1.479   1.106   0.340  1.8214  0.8032 -2.9215
 8384SOL     OW36613   2.317   0.159   2.431  0.3527  0.4453  0.0508
 8384SOL    HW136614   2.400   0.169   2.477  0.5562 -1.2832  0.0503
 8384SOL    HW236615   2.338   0.216   2.356 -0.9622 -0.4545 -1.0041
 8385SOL     OW36616   0.092   1.040   8.762 -0.3446  0.4924  0.0429
 8385SOL    HW136617   0.104   1.135   8.761 -2.9354  0.8270 -1.3039
 8385SOL    HW236618   4.721   1.036   8.751 -0.1901 -0.4931 -0.8728
 8386SOL     OW36619   1.066   2.379   5.044 -0.0345 -0.3544  0.6553
 8386SOL    HW136620   1.012   2.448   5.083  0.7694 -0.1430  1.3839
 8386SOL    HW236621   1.152   2.419   5.055  0.4629 -0.3430 -3.3057
 8387SOL     OW36622   3.840   1.162   6.437  0.3218 -0.2608  0.2221
 8387SOL    HW136623   3.752   1.126   6.444  0.6409 -0.7939  1.3916
 8387SOL    HW236624   3.883   1.145   6.521 -0.5364  0.1199  0.7328
 8388SOL     OW36625   1.842   2.004   6.052 -0.7322  0.1140  0.4549
 8388SOL    HW136626   1.832   1.960   6.137 -3.3179  0.3695  0.2768
 8388SOL    HW236627   1.891   1.934   6.009 -0.0031  0.1404  1.2350
 8389SOL     OW36628   0.962   2.780   4.246  0.5464 -0.3611 -0.6681
 8389SOL    HW136629   0.942   2.802   4.155  0.8870 -0.1589 -0.6961
 8389SOL    HW236630   0.880   2.791   4.294  0.4366 -1.4479 -0.6182
 8390SOL     OW36631   0.914   3.843   6.110  0.1315 -0.3401  0.2482
 8390SOL    HW136632   0.997   3.816   6.070 -0.6378 -0.3142 -1.3353
 8390SOL    HW236633   0.854   3.773   6.088  0.0986  0.3135 -1.7706
 8391SOL     OW36634   3.876   0.894   0.876 -0.1096  0.1409 -0.1550
 8391SOL    HW136635   3.877   0.858   0.964 -1.1100 -0.7284 -0.4970
 8391SOL    HW236636   3.966   0.921   0.859  0.3616 -1.9568 -1.0425
 8392SOL     OW36637   3.078   3.979   1.375  0.0329  0.4957 -0.6554
 8392SOL    HW136638   3.147   4.045   1.383  1.6498 -1.5335  2.0008
 8392SOL    HW236639   3.103   3.913   1.440 -0.5257 -0.6290 -1.5744
 8393SOL     OW36640   2.115   2.261   6.347  0.0851 -0.4872 -0.0854
 8393SOL    HW136641   2.151   2.238   6.432  0.1241  1.3455  0.3906
 8393SOL    HW236642   2.187   2.306   6.303  1.2308 -1.7835  0.4383
 8394SOL     OW36643   1.936   2.452   4.453 -0.4683 -0.0514  0.1945
 8394SOL    HW136644   1.949   2.497   4.369 -3.2715 -0.6861 -0.5857
 8394SOL    HW236645   1.920   2.531   4.505  1.0278  0.2519  0.2015
 8395SOL     OW36646   2.167   3.319  14.567 -0.2361  0.1958 -0.1961
 8395SOL    HW136647   2.259   3.343  14.555 -1.2722  2.8013 -3.0216
 8395SOL    HW236648   2.149   3.363  14.651 -0.5827  1.1594 -0.7705
 8396SOL     OW36649   3.959   2.239   5.740  0.0860  0.2911  0.1662
 8396SOL    HW136650   3.901   2.209   5.670  0.4120 -0.9522  0.4183
 8396SOL    HW236651   4.038   2.224   5.688 -0.6200  1.3707 -1.2006
 8397SOL     OW36652   4.104   1.153   9.793  0.1001 -0.0165  0.0847
 8397SOL    HW136653   4.138   1.160   9.882  0.6482  1.6033 -0.2652
 8397SOL    HW236654   4.094   1.061   9.818 -3.1802  0.2178 -0.3591
 8398SOL     OW36655   4.346   4.425   3.921 -0.0681  0.1944  0.0447
 8398SOL    HW136656   4.376   4.356   3.979 -0.6537 -1.1754 -1.2688
 8398SOL    HW236657   4.376   4.389   3.837  3.2223  1.2514  0.7695
 8399SOL     OW36658   3.445   1.336   8.932 -0.0862 -0.4038  0.3236
 8399SOL    HW136659   3.430   1.379   9.016 -1.6530 -1.9164  0.8114
 8399SOL    HW236660   3.528   1.375   8.903  0.6823 -1.8150  0.6577
 8400SOL     OW36661   2.549   1.452  16.942  0.3559 -0.3933 -0.4783
 8400SOL    HW136662   2.575   1.360  16.947 -0.6853 -0.6121  0.9862
 8400SOL    HW236663   2.634   1.493  16.931 -0.3265  1.1162 -0.1365
 8401SOL     OW36664   0.239   0.806  14.007 -0.0703  0.4101  0.7216
 8401SOL    HW136665   0.165   0.763  13.964  1.0927  0.8859 -1.7269
 8401SOL    HW236666   0.272   0.749  14.076  0.0545  1.4501  1.5131
 8402SOL     OW36667   2.846   2.998   7.917 -0.0269  0.2403  0.3216
 8402SOL    HW136668   2.903   3.059   7.963  0.3633 -0.8330  1.2425
 8402SOL    HW236669   2.877   3.008   7.827 -1.9056  0.8278 -0.2608
 8403SOL     OW36670   2.933   4.523   9.389  0.5618  0.3215 -0.3625
 8403SOL    HW136671   2.922   4.613   9.359  0.0778  0.5102  0.3880
 8403SOL    HW236672   2.913   4.529   9.483 -1.0950  1.7755 -0.8212
 8404SOL     OW36673   4.493   1.043   0.655  0.2301  0.4560 -0.3180
 8404SOL    HW136674   4.558   0.992   0.606  1.1385  0.8110  0.5143
 8404SOL    HW236675   4.444   1.091   0.589  2.2041  1.3302 -1.1236
 8405SOL     OW36676   3.411   0.311  13.147  0.1578  0.0543 -0.2050
 8405SOL    HW136677   3.404   0.242  13.081  1.9312  0.6030 -0.9648
 8405SOL    HW236678   3.362   0.384  13.110 -1.8897 -1.1910  0.0531
 8406SOL     OW36679   0.539   0.963   8.467 -0.2143 -0.3490 -0.5980
 8406SOL    HW136680   0.462   0.928   8.512 -1.6423  0.8101 -2.1253
 8406SOL    HW236681   0.588   0.992   8.544 -0.5968  0.0158 -0.4937
 8407SOL     OW36682   1.969   0.683   7.444  0.4098  0.5949  0.1813
 8407SOL    HW136683   1.964   0.621   7.517 -1.5337  0.7308  0.1566
 8407SOL    HW236684   2.048   0.732   7.465  0.6783 -0.6866  2.1886
 8408SOL     OW36685   1.533   0.273   5.474 -0.0760  0.5144 -0.1957
 8408SOL    HW136686   1.445   0.235   5.479  0.2657 -0.3366 -0.6207
 8408SOL    HW236687   1.577   0.247   5.555 -0.2966 -2.7263 -1.1248
 8409SOL     OW36688   2.114   4.387   6.759 -0.0869 -0.1345  0.2392
 8409SOL    HW136689   2.086   4.428   6.678  0.4350  1.4640  0.8739
 8409SOL    HW236690   2.116   4.468   6.810  2.0548 -1.0972  1.7065
 8410SOL     OW36691   2.255   0.372   6.664  0.4030  0.1954 -0.5874
 8410SOL    HW136692   2.288   0.327   6.742 -1.1623  0.9712  0.5084
 8410SOL    HW236693   2.165   0.386   6.691  0.8277  1.2459  0.2890
 8411SOL     OW36694   3.059   1.434  13.251  0.2379  0.3881  0.2522
 8411SOL    HW136695   2.997   1.502  13.226  0.3798  0.8523  1.1378
 8411SOL    HW236696   3.082   1.446  13.344  2.3801  0.0323 -0.2244
 8412SOL     OW36697   2.823   0.842   2.379 -0.2745 -0.2343 -0.1193
 8412SOL    HW136698   2.794   0.829   2.289 -5.0006  1.7311  1.0687
 8412SOL    HW236699   2.753   0.890   2.424  1.4738  1.4307  0.8052
 8413SOL     OW36700   3.242   2.045   1.402 -0.5122 -0.1571 -0.4803
 8413SOL    HW136701   3.251   1.994   1.483  1.1897  1.5465  0.3969
 8413SOL    HW236702   3.258   2.136   1.427 -0.3831  0.1313 -1.6172
 8414SOL     OW36703   2.956   4.363   8.866  0.9419 -0.1512  0.3304
 8414SOL    HW136704   3.019   4.346   8.936  0.4618 -1.5138  0.4076
 8414SOL    HW236705   2.991   4.304   8.799  1.8905 -1.7659  2.2762
 8415SOL     OW36706   2.442   0.690   5.596  0.0303  0.3437 -0.5089
 8415SOL    HW136707   2.502   0.721   5.528  0.5675  0.7397  0.1532
 8415SOL    HW236708   2.506   0.696   5.667 -0.0448 -3.3499 -0.1005
 8416SOL     OW36709   3.828   0.621  12.696 -0.6539  0.4708 -0.5705
 8416SOL    HW136710   3.823   0.603  12.790 -0.4010 -0.1495 -0.6744
 8416SOL    HW236711   3.915   0.660  12.702 -0.6487  0.7404 -2.2797
 8417SOL     OW36712   4.429   0.021   6.107  0.5413 -0.2267  0.4037
 8417SOL    HW136713   4.344   0.016   6.064  0.6789  0.4972  0.0517
 8417SOL    HW236714   4.421   0.115   6.123  0.6570 -0.0541 -0.5615
 8418SOL     OW36715   1.155   0.232  16.993  0.6551 -0.2032 -0.1423
 8418SOL    HW136716   1.187   0.232  16.903  0.6776 -0.9160 -0.1318
 8418SOL    HW236717   1.217   0.291  17.036  0.6796 -0.8356  0.7103
 8419SOL     OW36718   0.911   0.058  12.467  0.0358  0.3838  0.8402
 8419SOL    HW136719   0.981   0.018  12.414 -3.3090 -3.2660 -0.8181
 8419SOL    HW236720   0.871   4.697  12.485  1.0284 -0.6574 -1.8277
 8420SOL     OW36721   2.844   0.668   6.671 -0.1704 -0.1880 -0.2850
 8420SOL    HW136722   2.831   0.586   6.624 -1.9704 -0.3141  0.4403
 8420SOL    HW236723   2.925   0.643   6.717 -0.9319 -0.2410  1.0289
 8421SOL     OW36724   3.921   4.389   4.641 -0.0921 -0.2350  0.2060
 8421SOL    HW136725   3.962   4.475   4.651  0.7715 -0.3768 -2.0021
 8421SOL    HW236726   3.980   4.342   4.583 -1.5048 -0.4905 -1.0194
 8422SOL     OW36727   1.570   2.157  12.146 -0.5290  0.3372  0.2992
 8422SOL    HW136728   1.534   2.183  12.231  0.1301 -0.6946  0.8858
 8422SOL    HW236729   1.630   2.230  12.130 -0.6897  0.0388 -1.6603
 8423SOL     OW36730   2.629   0.224   8.010 -0.0886  0.1911  0.6661
 8423SOL    HW136731   2.638   0.206   8.104 -1.2299  2.1912  1.1555
 8423SOL    HW236732   2.575   0.303   8.006  0.7000  0.6838 -0.3313
 8424SOL     OW36733   3.989   2.787   4.901 -0.1597 -0.0002 -0.1651
 8424SOL    HW136734   3.933   2.861   4.882 -1.0160 -0.7476 -0.5534
 8424SOL    HW236735   3.976   2.741   4.818  1.4212  0.4287 -0.6518
 8425SOL     OW36736   0.679   4.419   3.950  0.5763 -0.1157  0.1533
 8425SOL    HW136737   0.671   4.356   4.021  1.0123 -0.2959  0.0409
 8425SOL    HW236738   0.771   4.445   3.942  1.6035 -4.1948 -1.0988
 8426SOL     OW36739   1.516   1.582   7.636 -0.4068 -0.5161 -0.3853
 8426SOL    HW136740   1.459   1.635   7.581 -0.2687 -2.0438 -2.0125
 8426SOL    HW236741   1.510   1.498   7.590  0.1911 -0.5346 -0.4289
 8427SOL     OW36742   0.658   1.530  10.118 -0.3933  0.3354 -0.0013
 8427SOL    HW136743   0.593   1.577  10.067 -0.8534  0.6837  0.8968
 8427SOL    HW236744   0.699   1.467  10.059  1.5638  2.4721 -0.9297
 8428SOL     OW36745   3.546   4.094   8.411 -0.3792 -0.1684  0.3750
 8428SOL    HW136746   3.527   4.033   8.339 -0.3859  0.4790 -0.1715
 8428SOL    HW236747   3.554   4.171   8.354 -0.1124  0.1225  0.8056
 8429SOL     OW36748   2.878   1.912  16.631 -0.5774  0.1422  0.5746
 8429SOL    HW136749   2.908   1.969  16.560 -1.1808 -1.5308 -0.9939
 8429SOL    HW236750   2.813   1.855  16.591 -0.7464  1.0281 -0.4019
 8430SOL     OW36751   1.738   0.211   4.531  0.0003  0.2455  0.1990
 8430SOL    HW136752   1.772   0.139   4.478  0.3300  0.1046  0.6047
 8430SOL    HW236753   1.700   0.261   4.458  0.0548 -2.0559 -1.3949
 8431SOL     OW36754   0.755   0.096   6.334 -0.0798 -0.2697  0.0581
 8431SOL    HW136755   0.691   0.105   6.405  0.8986 -0.7844  1.0049
 8431SOL    HW236756   0.836   0.077   6.381  1.0256 -0.8299 -2.0618
 8432SOL     OW36757   3.464   4.691  15.061  0.2201  0.4544  0.1313
 8432SOL    HW136758   3.538   4.711  15.002 -0.5093 -2.1293 -1.6605
 8432SOL    HW236759   3.416   0.049  15.066 -0.9129 -0.2410  0.6284
 8433SOL     OW36760   3.115   1.816  16.206  0.4311 -0.9210 -0.1732
 8433SOL    HW136761   3.102   1.900  16.249  0.2911 -0.1884 -1.6546
 8433SOL    HW236762   3.190   1.796  16.262  1.6500  3.9246 -0.0978
 8434SOL     OW36763   3.953   0.923   6.359 -0.1598 -0.0077 -0.0583
 8434SOL    HW136764   3.921   1.012   6.339  0.7117  0.3524  0.1520
 8434SOL    HW236765   3.971   0.930   6.453  0.4431 -1.0007 -0.1037
 8435SOL     OW36766   0.597   0.949  15.762  0.0144 -0.2638 -0.1378
 8435SOL    HW136767   0.670   0.919  15.708  0.6569  1.6611 -0.3477
 8435SOL    HW236768   0.640   0.964  15.846  0.8035 -0.0079 -0.5932
 8436SOL     OW36769   2.411   1.617  13.183 -0.1711 -0.6049  0.1817
 8436SOL    HW136770   2.439   1.708  13.185  1.1390 -1.0149  0.0736
 8436SOL    HW236771   2.405   1.594  13.276  1.3861  0.4929  0.5549
 8437SOL     OW36772   4.191   4.346   8.607  0.0836  0.2822  0.6623
 8437SOL    HW136773   4.101   4.350   8.574  0.2115  2.2703  0.5584
 8437SOL    HW236774   4.207   4.429   8.652 -1.7781  1.2136 -0.3946
 8438SOL     OW36775   1.213   3.415   5.006 -0.0215  0.0438 -0.3985
 8438SOL    HW136776   1.186   3.334   4.963 -0.9288  0.1463 -0.0138
 8438SOL    HW236777   1.134   3.467   4.996 -0.2601 -0.2469 -0.0351
 8439SOL     OW36778   4.205   4.000   5.085  0.2781 -0.4514 -0.3470
 8439SOL    HW136779   4.252   3.917   5.070 -0.0721 -0.8023  0.5208
 8439SOL    HW236780   4.143   3.978   5.154 -0.6358  2.0368 -0.3941
 8440SOL     OW36781   3.357   4.323   3.546 -0.7489 -0.2425 -0.5136
 8440SOL    HW136782   3.399   4.237   3.546  0.1554  0.1992  0.3778
 8440SOL    HW236783   3.326   4.324   3.637  0.4917  2.9550 -0.1525
 8441SOL     OW36784   2.215   2.303   9.391  0.0393 -0.4236  0.2767
 8441SOL    HW136785   2.135   2.280   9.344  0.3275  0.4048 -0.6285
 8441SOL    HW236786   2.237   2.213   9.414  1.3095 -0.2117 -0.0634
 8442SOL     OW36787   3.863   2.379   2.970 -0.1982 -0.3082 -0.0402
 8442SOL    HW136788   3.953   2.406   2.956  0.2885 -1.3977  0.9411
 8442SOL    HW236789   3.840   2.398   2.879  0.9294 -0.8652 -0.4407
 8443SOL     OW36790   1.439   2.709  11.375  0.6159 -0.2340 -0.1630
 8443SOL    HW136791   1.503   2.650  11.415  2.7459  2.1630 -0.0188
 8443SOL    HW236792   1.482   2.794  11.369  0.0033  0.0585 -0.4670
 8444SOL     OW36793   4.520   4.094   2.186 -0.7374 -0.6129  0.1398
 8444SOL    HW136794   4.449   4.030   2.197 -3.0289  1.7102 -1.1232
 8444SOL    HW236795   4.587   4.028   2.169 -0.3776 -0.1645 -0.1600
 8445SOL     OW36796   3.637   1.392   1.980 -0.2738 -0.5126  0.1480
 8445SOL    HW136797   3.555   1.414   2.025 -0.2479 -1.0203  0.4334
 8445SOL    HW236798   3.601   1.358   1.899  1.1925  0.5840 -0.9650
 8446SOL     OW36799   1.393   3.950   7.144  0.4318  0.4806  0.7292
 8446SOL    HW136800   1.428   3.873   7.099 -2.4803  1.2358 -2.7670
 8446SOL    HW236801   1.366   3.910   7.227  2.2294 -0.0676  1.0551
 8447SOL     OW36802   1.057   3.723   6.704  0.6441 -0.1643  0.2820
 8447SOL    HW136803   1.022   3.646   6.659  0.2987  1.0579 -1.5532
 8447SOL    HW236804   1.090   3.692   6.788  0.5530 -0.9850  0.0161
 8448SOL     OW36805   3.037   3.675  10.626 -0.1157  0.0200 -0.2226
 8448SOL    HW136806   3.032   3.732  10.550 -0.0373  0.8551  0.3971
 8448SOL    HW236807   3.031   3.745  10.691  2.0262  0.9177 -1.0131
 8449SOL     OW36808   4.321   3.941   1.958 -0.2414  0.4110  0.2118
 8449SOL    HW136809   4.238   3.989   1.952 -0.2001  0.6132  1.3362
 8449SOL    HW236810   4.382   4.014   1.954 -0.5712  0.6980  0.4036
 8450SOL     OW36811   2.875   1.710  17.508  0.7365  0.0444  0.0615
 8450SOL    HW136812   2.903   1.786  17.560  3.9468 -1.3389  0.3303
 8450SOL    HW236813   2.960   1.675  17.481  0.7496  0.2096 -0.1081
 8451SOL     OW36814   3.262   4.651  16.250  0.1105 -0.0197 -0.5357
 8451SOL    HW136815   3.355   4.634  16.238  0.3937  1.1971 -0.0709
 8451SOL    HW236816   3.224   4.602  16.177  0.3751  0.7963 -1.2288
 8452SOL     OW36817   2.811   3.135   2.660  0.1480 -0.3778 -0.2900
 8452SOL    HW136818   2.850   3.048   2.648 -0.9833 -0.6529 -1.9649
 8452SOL    HW236819   2.726   3.111   2.623  1.5011 -1.4061 -2.7228
 8453SOL     OW36820   2.742   0.788   2.821  0.6744 -0.6093 -0.7405
 8453SOL    HW136821   2.725   0.766   2.912  2.4907  2.3702  0.2956
 8453SOL    HW236822   2.747   0.883   2.820  2.1455 -0.6785  1.9860
 8454SOL     OW36823   0.136   2.141  10.568 -0.1612  0.1713 -0.2810
 8454SOL    HW136824   0.109   2.095  10.647  0.2082  1.9739  0.8909
 8454SOL    HW236825   0.231   2.135  10.573 -0.0873  0.7607 -0.9093
 8455SOL     OW36826   2.383   1.171   1.407 -0.5160  0.2611 -0.0813
 8455SOL    HW136827   2.414   1.235   1.470 -0.0611  0.0351 -0.0800
 8455SOL    HW236828   2.289   1.172   1.425 -0.2958  3.7260  0.8297
 8456SOL     OW36829   1.301   1.053   2.829 -0.4056 -0.5538  0.5712
 8456SOL    HW136830   1.221   1.096   2.800 -0.6200 -0.9145  0.6248
 8456SOL    HW236831   1.330   0.986   2.766 -0.7724  0.9199 -1.1801
 8457SOL     OW36832   0.475   1.180  15.664 -0.0020 -0.0892 -0.2828
 8457SOL    HW136833   0.538   1.120  15.705  0.9568  0.3043 -1.1848
 8457SOL    HW236834   0.458   1.225  15.746 -0.4887 -1.5627  0.4185
 8458SOL     OW36835   3.151   4.215   5.352 -0.4070  0.2731  0.1177
 8458SOL    HW136836   3.105   4.147   5.303  0.0831 -1.0069  1.4712
 8458SOL    HW236837   3.186   4.267   5.279 -0.0897 -1.4978 -0.9790
 8459SOL     OW36838   3.810   1.289   9.517  0.5930 -0.3542 -0.9273
 8459SOL    HW136839   3.792   1.341   9.596 -0.4392 -2.4736  0.2156
 8459SOL    HW236840   3.903   1.265   9.514  0.3193 -1.2239 -2.3583
 8460SOL     OW36841   3.452   0.789   7.895  0.6729 -0.0601 -0.4957
 8460SOL    HW136842   3.397   0.711   7.897 -1.2061  1.2521 -0.1962
 8460SOL    HW236843   3.406   0.828   7.820  0.5316  1.0134  0.1387
 8461SOL     OW36844   3.310   2.963  13.575 -0.2043 -0.4006  0.7886
 8461SOL    HW136845   3.359   2.970  13.493  1.3574  0.7317  1.8192
 8461SOL    HW236846   3.302   3.054  13.605  0.4486 -0.2914  0.6483
 8462SOL     OW36847   4.381   3.899   8.843  0.2521 -0.1768  0.4653
 8462SOL    HW136848   4.338   3.985   8.843  0.6259  0.0094 -1.2801
 8462SOL    HW236849   4.306   3.843   8.822  1.8191 -2.4685  0.9967
 8463SOL     OW36850   3.326   0.367   4.806  0.6098  0.2171  0.3232
 8463SOL    HW136851   3.307   0.335   4.894 -1.4418 -0.3935 -0.3369
 8463SOL    HW236852   3.326   0.463   4.815 -0.1470  0.5709 -3.1920
 8464SOL     OW36853   1.498   4.595   1.037  0.3355 -0.0904 -0.3044
 8464SOL    HW136854   1.580   4.560   1.003  0.6380  1.0463 -0.7217
 8464SOL    HW236855   1.507   4.689   1.023  0.4466 -0.1012 -0.3052
 8465SOL     OW36856   3.496   1.077   5.010  0.0831 -0.1077 -1.3911
 8465SOL    HW136857   3.416   1.031   5.035  0.4959  1.4095  2.7265
 8465SOL    HW236858   3.461   1.165   4.998 -2.0683 -0.9412 -1.1777
 8466SOL     OW36859   0.423   1.575   6.588  0.3919  0.9766 -0.1090
 8466SOL    HW136860   0.434   1.575   6.684 -1.0618 -2.6008  0.0598
 8466SOL    HW236861   0.467   1.655   6.562  0.9145  0.8439  0.3456
 8467SOL     OW36862   0.994   2.785   3.770 -0.4772  0.3361  0.2434
 8467SOL    HW136863   0.931   2.755   3.834  1.0006 -1.5176  0.8232
 8467SOL    HW236864   1.073   2.777   3.823 -0.5079  0.3771  0.2945
 8468SOL     OW36865   1.582   1.000   7.426  0.7651 -0.2348 -0.5337
 8468SOL    HW136866   1.599   0.906   7.416 -1.4575 -0.8568  1.6704
 8468SOL    HW236867   1.537   0.995   7.510  0.0916  0.8485 -0.8263
 8469SOL     OW36868   1.920   3.075   2.210 -0.2567 -0.2019  0.3601
 8469SOL    HW136869   1.989   3.135   2.184 -0.6546 -0.5246 -1.4493
 8469SOL    HW236870   1.847   3.137   2.208  0.5210  0.6813 -0.0357
 8470SOL     OW36871   3.105   4.685  15.838 -0.4017  0.0093  0.1558
 8470SOL    HW136872   3.010   4.681  15.854 -0.3988 -1.5361 -0.2046
 8470SOL    HW236873   3.094   4.700  15.744 -1.7597  1.5169  0.5524
 8471SOL     OW36874   4.015   2.948   0.442 -0.0936 -0.1090 -0.1618
 8471SOL    HW136875   4.088   2.965   0.501 -1.0641 -0.4909  1.1530
 8471SOL    HW236876   3.947   3.004   0.478 -1.3161 -2.1311  0.6855
 8472SOL     OW36877   0.732   1.635   7.840 -0.0419  0.2284  0.6328
 8472SOL    HW136878   0.735   1.665   7.749 -0.2153 -0.3334  0.4389
 8472SOL    HW236879   0.802   1.685   7.881  0.3947  0.5064 -0.4381
 8473SOL     OW36880   2.761   0.052  15.584  0.0300 -0.1353  0.2936
 8473SOL    HW136881   2.745   0.083  15.495 -1.3846 -0.1897  0.5165
 8473SOL    HW236882   2.838   0.106  15.601 -0.0110 -0.4028  1.3306
 8474SOL     OW36883   0.420   3.022   5.547  0.6886 -0.2175  0.0536
 8474SOL    HW136884   0.448   2.952   5.605 -1.0591 -0.6437  0.3757
 8474SOL    HW236885   0.329   2.993   5.548  1.2619 -1.9815 -0.1812
 8475SOL     OW36886   4.069   0.332   1.912 -0.3150  0.1405 -0.2586
 8475SOL    HW136887   4.093   0.295   1.997 -1.0788 -0.6057 -0.3683
 8475SOL    HW236888   4.146   0.315   1.858  0.4711 -1.1876  1.3020
 8476SOL     OW36889   1.483   4.662   3.867  0.3963  0.0459 -0.0235
 8476SOL    HW136890   1.569   4.621   3.875  0.9804  1.1751 -0.4525
 8476SOL    HW236891   1.441   4.588   3.911 -0.0059  0.3519  0.1116
 8477SOL     OW36892   1.037   3.741   3.475  0.0102  0.3955 -0.3940
 8477SOL    HW136893   1.050   3.761   3.382  0.0062  2.6884  0.1079
 8477SOL    HW236894   0.948   3.774   3.486  0.1741  0.3778  0.9495
 8478SOL     OW36895   4.243   4.711   7.443  1.3644 -0.4465  0.0872
 8478SOL    HW136896   4.260   0.051   7.512 -0.4151  0.6288 -0.4534
 8478SOL    HW236897   4.243   0.046   7.368 -0.8212 -1.3046 -0.6083
 8479SOL     OW36898   0.369   1.088  12.015  0.1289 -0.7651  0.1242
 8479SOL    HW136899   0.345   1.153  11.949 -0.9996  0.2720  1.5481
 8479SOL    HW236900   0.289   1.038  12.029 -0.2581  0.2660  1.6485
 8480SOL     OW36901   0.212   0.524   0.680 -0.5474 -0.9098  0.1010
 8480SOL    HW136902   0.248   0.554   0.763  1.2621 -1.9710 -0.3167
 8480SOL    HW236903   0.134   0.479   0.712 -0.4458  0.0261  1.6648
 8481SOL     OW36904   4.042   2.122  12.428 -0.2639 -0.3527 -0.0246
 8481SOL    HW136905   4.104   2.180  12.473 -0.9708  0.5559 -0.2268
 8481SOL    HW236906   4.098   2.055  12.389 -0.1793  0.2537 -0.9477
 8482SOL     OW36907   0.243   3.222   7.200 -0.1151  0.0938 -0.1404
 8482SOL    HW136908   0.258   3.307   7.242 -1.2507 -0.3322  1.1330
 8482SOL    HW236909   0.147   3.216   7.195  0.0659 -2.2102 -0.7285
 8483SOL     OW36910   1.646   1.525   6.983  0.2820  0.4965 -0.0582
 8483SOL    HW136911   1.721   1.580   7.007 -0.3129  1.1205  0.3610
 8483SOL    HW236912   1.602   1.571   6.912  0.1916  0.1576 -0.2236
 8484SOL     OW36913   1.188   1.031  13.513 -0.7545 -0.1423  0.1505
 8484SOL    HW136914   1.141   1.072  13.440 -4.1421 -3.0382  0.7225
 8484SOL    HW236915   1.127   0.965  13.547  0.6273 -0.1601  2.5134
 8485SOL     OW36916   4.531   1.270   5.679 -0.2214 -0.0372 -0.1448
 8485SOL    HW136917   4.574   1.277   5.594 -0.7011 -2.9584 -0.6110
 8485SOL    HW236918   4.532   1.175   5.691 -2.1276 -0.0291  0.0646
 8486SOL     OW36919   2.433   4.549   0.303 -0.2130  0.7180 -0.3433
 8486SOL    HW136920   2.484   4.537   0.383 -0.5645 -1.9967 -0.5400
 8486SOL    HW236921   2.369   4.478   0.315  0.3789  0.1891 -0.3167
 8487SOL     OW36922   0.573   3.643  17.494 -0.4963  0.9006 -0.0721
 8487SOL    HW136923   0.586   3.649  17.589  0.4237  0.5658 -0.1767
 8487SOL    HW236924   0.654   3.602  17.465 -0.1685  0.7123  1.1182
 8488SOL     OW36925   1.874   3.682   2.781  0.1612 -0.2970 -0.1333
 8488SOL    HW136926   1.780   3.680   2.796  0.5160  0.7135  2.4043
 8488SOL    HW236927   1.900   3.597   2.817 -0.1981 -0.2703  0.1901
 8489SOL     OW36928   0.121   0.386  14.251 -0.1324  0.4075  1.2377
 8489SOL    HW136929   0.210   0.381  14.216 -0.6668  2.2418 -0.4439
 8489SOL    HW236930   0.100   0.478  14.232  0.8887  0.5026  0.5721
 8490SOL     OW36931   0.591   3.359   4.812  0.2988 -0.1740 -0.0688
 8490SOL    HW136932   0.532   3.304   4.761 -0.5775  0.7795 -0.0686
 8490SOL    HW236933   0.591   3.444   4.768 -2.0498  0.5589  1.3634
 8491SOL     OW36934   1.416   2.129   2.789 -0.7268 -0.4513  0.8223
 8491SOL    HW136935   1.419   2.223   2.808 -1.7025 -0.4648  1.0066
 8491SOL    HW236936   1.394   2.133   2.696 -1.2364  1.2120  1.0180
 8492SOL     OW36937   0.914   0.566   1.593 -0.6382  0.3264 -0.1872
 8492SOL    HW136938   0.987   0.627   1.583  1.4413 -2.2402 -0.7292
 8492SOL    HW236939   0.873   0.598   1.674  1.4956 -0.4739  1.2277
 8493SOL     OW36940   2.008   0.477   7.911  0.8577  1.3044 -0.3163
 8493SOL    HW136941   2.043   0.388   7.914 -0.6319  0.6901 -1.1328
 8493SOL    HW236942   1.972   0.476   8.000  1.4896  1.4341 -0.0593
 8494SOL     OW36943   1.352   0.437   1.956 -0.0776 -0.2051 -0.5750
 8494SOL    HW136944   1.308   0.360   1.991 -0.6515  0.7939  0.9048
 8494SOL    HW236945   1.399   0.385   1.890  0.3096 -0.5544 -0.0223
 8495SOL     OW36946   1.062   3.432   8.820 -0.0243  0.0656 -0.3173
 8495SOL    HW136947   1.091   3.396   8.904 -0.1130 -1.0140 -0.7437
 8495SOL    HW236948   1.021   3.351   8.788  0.6358 -0.5213  0.3190
 8496SOL     OW36949   3.988   2.234  14.762 -0.4264 -0.2831  0.2734
 8496SOL    HW136950   3.962   2.294  14.693  1.2710  0.5750  0.3802
 8496SOL    HW236951   4.076   2.270  14.773  0.1130 -0.9034 -2.0081
 8497SOL     OW36952   1.479   3.726  11.542 -0.2423  0.0047  0.3566
 8497SOL    HW136953   1.495   3.662  11.611 -0.3321  0.5567  0.8846
 8497SOL    HW236954   1.401   3.696  11.496  0.3425  1.5892 -1.6788
 8498SOL     OW36955   3.151   2.323   8.610  0.4199  0.6497 -0.2316
 8498SOL    HW136956   3.181   2.232   8.613  1.8703  1.2189  1.7644
 8498SOL    HW236957   3.058   2.301   8.621  0.6015  0.8365  1.6906
 8499SOL     OW36958   1.240   1.030   9.159 -0.5505 -0.5478 -0.7991
 8499SOL    HW136959   1.200   1.045   9.074 -1.3787 -0.8629 -0.4676
 8499SOL    HW236960   1.253   0.935   9.163 -1.1964 -0.5756  1.0387
 8500SOL     OW36961   2.201   4.028   3.970 -0.6409  0.8460  0.0130
 8500SOL    HW136962   2.211   4.098   4.034  1.2250  0.2153  0.3932
 8500SOL    HW236963   2.271   4.051   3.909 -0.4956  0.6393  0.1007
 8501SOL     OW36964   4.493   3.231  14.088  0.1446  0.0131 -0.0318
 8501SOL    HW136965   4.472   3.155  14.033 -0.0472 -1.4873  2.1401
 8501SOL    HW236966   4.570   3.194  14.130  0.4560 -1.1630 -1.6053
 8502SOL     OW36967   0.359   0.372  14.123 -0.8649  0.0861  0.4260
 8502SOL    HW136968   0.447   0.338  14.143 -0.9349 -0.6021 -0.4332
 8502SOL    HW236969   0.378   0.445  14.064  1.3797 -0.0786  0.9214
 8503SOL     OW36970   3.061   2.472   7.558  0.8718 -0.3993 -0.4638
 8503SOL    HW136971   3.099   2.435   7.638  3.1320  2.2153 -0.3008
 8503SOL    HW236972   3.106   2.557   7.550 -0.2193  0.4140  2.1364
 8504SOL     OW36973   0.408   3.452  15.772 -0.0198 -0.1213  0.4856
 8504SOL    HW136974   0.380   3.369  15.809  0.7930 -1.2813 -1.5282
 8504SOL    HW236975   0.405   3.506  15.851 -1.6532  0.5097 -0.0142
 8505SOL     OW36976   3.256   2.607   2.507  0.8700 -0.5734  0.2306
 8505SOL    HW136977   3.187   2.594   2.442  1.0660 -0.7469  0.0593
 8505SOL    HW236978   3.321   2.549   2.468 -1.7946 -3.1968 -0.3539
 8506SOL     OW36979   4.174   4.362   2.124 -0.5690 -0.2472  0.7147
 8506SOL    HW136980   4.223   4.331   2.200 -0.6819 -2.3309 -0.0584
 8506SOL    HW236981   4.240   4.411   2.074 -0.8833 -0.2405  0.3065
 8507SOL     OW36982   1.668   0.936   1.674 -0.2711 -0.5281  0.3742
 8507SOL    HW136983   1.698   0.864   1.619 -0.5308 -0.6019  0.3273
 8507SOL    HW236984   1.606   0.978   1.615 -1.1548 -0.6993  1.1819
 8508SOL     OW36985   1.760   1.739  17.697 -0.3334 -0.2875 -0.0276
 8508SOL    HW136986   1.834   1.680   0.015  0.9331  0.9899 -1.1171
 8508SOL    HW236987   1.779   1.760  17.605 -1.4875  2.1011  0.2870
 8509SOL     OW36988   2.704   3.046   4.127 -0.3678 -0.2692 -0.4832
 8509SOL    HW136989   2.663   3.014   4.207  2.2329 -1.1532  0.5063
 8509SOL    HW236990   2.648   3.122   4.114 -0.6656 -0.3661  0.2044
 8510SOL     OW36991   4.368   2.524   5.781  0.3087  0.7574 -0.3099
 8510SOL    HW136992   4.308   2.536   5.708  0.1009 -0.9569 -0.4401
 8510SOL    HW236993   4.411   2.441   5.757 -1.8505 -0.2990 -0.5830
 8511SOL     OW36994   1.475   4.123   2.548 -0.0098 -0.0334 -0.0936
 8511SOL    HW136995   1.534   4.095   2.478 -1.7072 -0.6178 -1.3030
 8511SOL    HW236996   1.526   4.105   2.627  0.0979 -2.6512 -0.7554
 8512SOL     OW36997   0.246   2.674   6.359  0.1393 -0.0659  0.4293
 8512SOL    HW136998   0.226   2.762   6.389  0.5303  0.5428 -1.0990
 8512SOL    HW236999   0.172   2.617   6.337  1.7715 -2.1690  0.3668
 8513SOL     OW37000   4.362   2.658   7.978  0.7891  0.0847 -0.6816
 8513SOL    HW137001   4.433   2.700   8.027 -0.3931  0.6862  0.5010
 8513SOL    HW237002   4.334   2.601   8.050  0.2953 -0.0188 -0.9620
 8514SOL     OW37003   1.453   1.104   5.711  0.3323 -0.0411  0.0681
 8514SOL    HW137004   1.523   1.058   5.756  0.5512  0.6540  0.4410
 8514SOL    HW237005   1.477   1.196   5.724 -0.4739  0.2702 -0.6779
 8515SOL     OW37006   2.283   2.331   6.582  0.3352  0.0746 -0.1709
 8515SOL    HW137007   2.296   2.372   6.667  0.3554 -1.1410  0.4104
 8515SOL    HW237008   2.374   2.326   6.553 -0.3543  1.9385 -2.6790
 8516SOL     OW37009   1.338   3.797   8.043  0.0863  0.3353 -0.0390
 8516SOL    HW137010   1.335   3.828   8.134 -3.5099  0.6858 -0.2515
 8516SOL    HW237011   1.346   3.878   7.994  0.5130  0.7284  0.6874
 8517SOL     OW37012   0.001   2.055   5.062 -0.1156  0.7519 -0.1751
 8517SOL    HW137013   4.714   2.028   5.153  3.4856 -1.4060 -0.3417
 8517SOL    HW237014   0.064   2.123   5.087 -0.8881  1.1913  0.5705
 8518SOL     OW37015   2.383   1.015   2.301 -0.1745  0.0659  0.1120
 8518SOL    HW137016   2.384   1.102   2.260  1.2698  0.5409  1.1339
 8518SOL    HW237017   2.288   1.007   2.309 -0.2011  0.6772  0.4378
 8519SOL     OW37018   1.706   3.378   7.762  0.6230 -0.3878  0.1411
 8519SOL    HW137019   1.744   3.339   7.840 -0.1299 -2.6468 -0.6155
 8519SOL    HW237020   1.737   3.309   7.703  2.7616  1.3370 -0.7427
 8520SOL     OW37021   0.721   1.611   7.141  0.0977  0.1921  0.4357
 8520SOL    HW137022   0.724   1.662   7.222  2.2995 -1.0044  1.1161
 8520SOL    HW237023   0.816   1.599   7.130  0.2074  1.1956  0.2840
 8521SOL     OW37024   0.893   0.633   8.665 -0.0810  0.0761  0.1479
 8521SOL    HW137025   0.946   0.704   8.702  1.7587 -1.5608  0.6002
 8521SOL    HW237026   0.812   0.681   8.645 -1.2869 -1.9329  0.2198
 8522SOL     OW37027   1.413   1.900  16.908 -0.1805  0.6598 -0.7565
 8522SOL    HW137028   1.481   1.859  16.960 -0.9464  0.1540 -0.1488
 8522SOL    HW237029   1.458   1.910  16.824 -1.5427 -0.3388 -1.6094
 8523SOL     OW37030   0.496   3.838   6.555  0.3072 -0.1364  0.1387
 8523SOL    HW137031   0.513   3.860   6.463 -0.2244  0.5190  0.1958
 8523SOL    HW237032   0.527   3.748   6.565 -0.9953 -0.6732 -0.5797
 8524SOL     OW37033   1.696   2.629  14.078 -0.6146 -0.1136 -0.4010
 8524SOL    HW137034   1.774   2.582  14.109 -0.5919 -0.5662 -1.1381
 8524SOL    HW237035   1.666   2.670  14.159 -2.3713  1.5649 -1.8889
 8525SOL     OW37036   0.016   4.166   6.625 -0.6157  0.0265  0.2485
 8525SOL    HW137037   0.016   4.133   6.535 -0.4144 -0.5804  0.4698
 8525SOL    HW237038   0.062   4.249   6.615  1.2447 -1.0284 -0.0540
 8526SOL     OW37039   4.226   0.929   0.929 -0.2027 -0.1547  0.0938
 8526SOL    HW137040   4.204   0.997   0.865 -3.2216  0.9772  2.3429
 8526SOL    HW237041   4.322   0.925   0.929 -0.0985  1.9511  0.1656
 8527SOL     OW37042   0.899   0.318   3.229  0.0723  0.0379 -0.4997
 8527SOL    HW137043   0.969   0.369   3.188  1.4118 -0.9456  0.5698
 8527SOL    HW237044   0.853   0.290   3.149  0.6072 -0.3476 -0.6756
 8528SOL     OW37045   1.649   2.965   1.490  0.1907 -0.0485  0.1575
 8528SOL    HW137046   1.627   3.058   1.492  0.4814  0.0146  0.4071
 8528SOL    HW237047   1.623   2.933   1.404 -0.6121 -1.6373  0.9902
 8529SOL     OW37048   2.683   0.993   5.733  0.0767  0.1149 -0.0097
 8529SOL    HW137049   2.729   0.977   5.651 -0.1351 -2.7214  0.4123
 8529SOL    HW237050   2.671   0.906   5.771 -0.0821 -0.3223 -1.0637
 8530SOL     OW37051   0.206   3.414   5.602  0.1558 -0.6008 -0.4092
 8530SOL    HW137052   0.253   3.495   5.580  0.4904 -0.3848  1.1210
 8530SOL    HW237053   0.280   3.355   5.591  0.2541 -0.4855 -0.3680
 8531SOL     OW37054   0.861   3.748   6.422  0.4494 -0.0401 -0.4646
 8531SOL    HW137055   0.824   3.834   6.445 -2.2500 -1.0580 -1.0124
 8531SOL    HW237056   0.904   3.764   6.338  1.7223  2.2495  0.6107
 8532SOL     OW37057   4.619   3.029  10.778  0.4817 -0.2658  0.1842
 8532SOL    HW137058   4.617   2.954  10.838 -1.2449 -2.6338 -2.8095
 8532SOL    HW237059   4.710   3.052  10.761  0.7141 -1.1298  0.2417
 8533SOL     OW37060   1.433   1.781   7.917 -0.0165  0.5400  0.0531
 8533SOL    HW137061   1.508   1.796   7.974 -0.8239 -1.9697  1.7738
 8533SOL    HW237062   1.465   1.796   7.828 -0.8575 -0.0932 -0.3553
 8534SOL     OW37063   4.561   3.046   3.774  0.2203 -0.0855  0.0031
 8534SOL    HW137064   4.627   3.019   3.838 -1.0316  0.3118  1.4483
 8534SOL    HW237065   4.472   3.042   3.809  0.8297 -4.2702  1.0407
 8535SOL     OW37066   3.492   1.627   9.013  0.2074 -0.0913  0.1498
 8535SOL    HW137067   3.575   1.581   9.002 -0.7722 -1.5588 -1.1003
 8535SOL    HW237068   3.451   1.609   8.929  1.3435 -1.7217 -0.0554
 8536SOL     OW37069   3.006   4.020   6.227 -0.0406 -0.0954 -0.5064
 8536SOL    HW137070   3.099   4.033   6.209 -0.0675 -1.8215 -1.8410
 8536SOL    HW237071   3.010   3.932   6.263 -0.1167  0.1733  0.1474
 8537SOL     OW37072   2.055   1.149   2.454 -0.1322 -0.5017 -0.3084
 8537SOL    HW137073   2.079   1.093   2.380 -0.2171 -1.2519  0.2344
 8537SOL    HW237074   2.036   1.231   2.408  0.2763  0.6915  1.7010
 8538SOL     OW37075   3.634   2.391  13.860  0.1735  0.7466  0.1480
 8538SOL    HW137076   3.567   2.373  13.926  0.5110 -0.4865  0.1656
 8538SOL    HW237077   3.714   2.359  13.903 -0.7063  0.5323  1.6057
 8539SOL     OW37078   4.389   4.558   1.216 -0.3200 -0.0134  0.0078
 8539SOL    HW137079   4.373   4.488   1.153 -0.7311 -0.3731  0.5136
 8539SOL    HW237080   4.327   4.626   1.190  0.7498  0.8575 -0.2965
 8540SOL     OW37081   3.805   2.618  15.167 -0.4395 -0.1802  0.3676
 8540SOL    HW137082   3.746   2.624  15.242  1.4308 -2.0333  1.9614
 8540SOL    HW237083   3.854   2.541  15.193  1.2789  0.8898  0.3022
 8541SOL     OW37084   4.481   4.473   4.557 -0.0078  0.4173 -0.5058
 8541SOL    HW137085   4.443   4.386   4.567  2.3968 -0.6016 -0.2698
 8541SOL    HW237086   4.441   4.527   4.626  1.3972  0.5989  0.1633
 8542SOL     OW37087   1.856   2.246   3.845 -0.2665  0.1517 -0.3610
 8542SOL    HW137088   1.821   2.216   3.761 -0.4527  1.8675 -0.9012
 8542SOL    HW237089   1.926   2.181   3.853 -0.8880 -0.5997 -1.1368
 8543SOL     OW37090   0.882   0.863   4.373  1.0037 -0.5822  0.0587
 8543SOL    HW137091   0.958   0.890   4.322 -0.2715  1.2153 -0.8571
 8543SOL    HW237092   0.920   0.868   4.461 -0.7740  1.2369  0.7067
 8544SOL     OW37093   2.708   3.502   7.834 -0.3254  0.2406  0.4703
 8544SOL    HW137094   2.617   3.479   7.849 -0.6736  0.5202 -1.3044
 8544SOL    HW237095   2.711   3.595   7.814  3.7852  0.2091  0.8874
 8545SOL     OW37096   1.111   4.629  12.325  0.5241 -0.5276  0.2592
 8545SOL    HW137097   1.191   4.666  12.288  1.5368 -1.3215  1.6688
 8545SOL    HW237098   1.104   4.540  12.292  1.7451 -0.9575  1.1995
 8546SOL     OW37099   3.678   2.531   4.886  0.4094  0.5510 -0.2124
 8546SOL    HW137100   3.763   2.515   4.926 -1.0442  3.3254  3.8628
 8546SOL    HW237101   3.690   2.622   4.861  1.0067  0.6989  0.6359
 8547SOL     OW37102   1.568   0.938   3.053 -0.0881  0.0270 -0.0586
 8547SOL    HW137103   1.498   0.883   3.090 -0.3913  0.7900  0.4941
 8547SOL    HW237104   1.635   0.874   3.029  1.3554  2.3620 -2.1904
 8548SOL     OW37105   4.479   3.555   4.139 -0.8753 -0.2269  0.0251
 8548SOL    HW137106   4.566   3.526   4.168 -1.2160 -0.6542  0.5995
 8548SOL    HW237107   4.488   3.559   4.043 -0.5717 -0.1383  0.0544
 8549SOL     OW37108   0.336   4.623  14.343  0.3085 -0.1437  0.0528
 8549SOL    HW137109   0.332   4.712  14.307 -0.5946  0.3707  1.4360
 8549SOL    HW237110   0.289   4.640  14.424  1.8201  0.8555  0.7166
 8550SOL     OW37111   1.565   2.413   7.211  0.7798 -0.1155 -0.5416
 8550SOL    HW137112   1.558   2.450   7.122 -0.3380  1.0047  0.0161
 8550SOL    HW237113   1.594   2.487   7.264  0.1306 -1.9086  2.2828
 8551SOL     OW37114   4.039   1.350   2.175 -0.0490  0.0629  0.4919
 8551SOL    HW137115   4.129   1.326   2.199  0.1749  1.5205  1.1277
 8551SOL    HW237116   4.001   1.355   2.263  0.2980 -0.4004  0.6673
 8552SOL     OW37117   0.983   2.710  12.726 -0.1502  0.1594  0.1223
 8552SOL    HW137118   0.967   2.695  12.820 -1.3718  1.6889  0.1440
 8552SOL    HW237119   1.011   2.801  12.733 -1.3753  0.6965 -2.2753
 8553SOL     OW37120   0.165   1.141   4.669 -0.2537  0.2442 -0.0758
 8553SOL    HW137121   0.203   1.130   4.582  0.3667 -0.9897  0.3503
 8553SOL    HW237122   0.112   1.219   4.653 -1.4333 -0.7622 -0.9776
 8554SOL     OW37123   2.342   2.504   6.789 -0.2113 -0.5524 -0.2716
 8554SOL    HW137124   2.335   2.581   6.845  1.3869 -0.0431 -0.7571
 8554SOL    HW237125   2.395   2.441   6.839  1.5853  1.4822  0.3648
 8555SOL     OW37126   4.168   4.441   6.727 -0.0272 -0.2384 -0.3549
 8555SOL    HW137127   4.148   4.459   6.635 -0.6405 -2.0475 -0.5924
 8555SOL    HW237128   4.110   4.504   6.768  0.7369  1.7233 -2.2472
 8556SOL     OW37129   3.470   2.724   4.298  0.0977 -0.3056  0.1001
 8556SOL    HW137130   3.450   2.690   4.211  2.0287  1.1728 -0.9071
 8556SOL    HW237131   3.515   2.652   4.343 -1.7012 -0.8811  0.9696
 8557SOL     OW37132   4.326   0.833  11.098 -0.7412  0.3322  0.1368
 8557SOL    HW137133   4.375   0.777  11.157 -2.9173 -1.3880  0.3424
 8557SOL    HW237134   4.333   0.915  11.146  1.0837 -0.6919  1.6004
 8558SOL     OW37135   2.157   3.686   6.130 -0.4929  0.1740 -0.1794
 8558SOL    HW137136   2.154   3.768   6.082  0.3019 -0.9294 -2.1332
 8558SOL    HW237137   2.111   3.617   6.081  1.1590 -1.9879  1.3064
 8559SOL     OW37138   4.132   3.411   3.162  0.9413 -0.9754  0.3970
 8559SOL    HW137139   4.076   3.348   3.208  1.1691 -2.2314 -1.0639
 8559SOL    HW237140   4.178   3.358   3.097  0.6322 -1.8821  0.9171
 8560SOL     OW37141   4.665   0.061   7.469 -0.2162 -0.0374  0.4015
 8560SOL    HW137142   4.702   4.712   7.419 -0.6728  0.6318 -0.9174
 8560SOL    HW237143   4.599   0.096   7.409  1.1715  0.1843 -0.9771
 8561SOL     OW37144   2.053   2.277   1.041 -0.6080 -0.4249 -0.0780
 8561SOL    HW137145   2.029   2.350   1.099 -2.1654 -2.2441  1.6003
 8561SOL    HW237146   2.119   2.233   1.094  0.6954  1.4789 -0.1633
 8562SOL     OW37147   4.407   2.224  13.113 -0.0652 -0.3723 -0.1016
 8562SOL    HW137148   4.462   2.235  13.035  0.4175 -1.0059  0.1488
 8562SOL    HW237149   4.411   2.129  13.119  0.6557 -0.3704 -0.5281
 8563SOL     OW37150   3.891   1.100   8.293  0.1284 -0.0421 -0.4322
 8563SOL    HW137151   3.951   1.114   8.365  1.2933  1.2730 -1.6528
 8563SOL    HW237152   3.858   1.011   8.306 -1.6672  0.8441  1.1693
 8564SOL     OW37153   3.794   2.380   4.500 -0.1684  0.4427  0.0993
 8564SOL    HW137154   3.865   2.342   4.552 -0.1875 -1.1259 -1.0110
 8564SOL    HW237155   3.724   2.316   4.507 -0.6702  1.1080  1.2206
 8565SOL     OW37156   3.117   3.767  11.858 -0.3057 -0.6538  0.0594
 8565SOL    HW137157   3.057   3.740  11.789 -0.1508 -0.7700 -0.0292
 8565SOL    HW237158   3.161   3.684  11.879 -1.8971 -1.1787  1.3235
 8566SOL     OW37159   1.313   4.021  12.128 -0.7737 -0.0006 -0.0516
 8566SOL    HW137160   1.387   4.007  12.187  0.3782  0.9701 -1.2513
 8566SOL    HW237161   1.296   4.110  12.157 -0.5584  0.2898 -0.8034
 8567SOL     OW37162   1.622   3.874  14.105  0.0899  0.0302  0.1266
 8567SOL    HW137163   1.645   3.904  14.193 -1.2659  2.0696 -0.2208
 8567SOL    HW237164   1.710   3.865  14.068  0.2088 -3.5116  1.1913
 8568SOL     OW37165   3.148   1.063   6.608  0.0357  0.2975  0.2889
 8568SOL    HW137166   3.124   0.998   6.542 -1.6793 -0.6908  1.8966
 8568SOL    HW237167   3.072   1.121   6.605 -0.7317 -0.7495 -0.1216
 8569SOL     OW37168   0.679   0.615   3.311 -0.0697 -0.0362 -0.0886
 8569SOL    HW137169   0.685   0.605   3.216  0.8154  1.1679 -0.1588
 8569SOL    HW237170   0.758   0.668   3.322  0.3899 -0.8357  0.4987
 8570SOL     OW37171   1.417   1.020   6.458  0.1955  0.7566 -0.5467
 8570SOL    HW137172   1.346   0.957   6.447  1.5816 -1.0676  0.8684
 8570SOL    HW237173   1.487   0.962   6.488 -0.2867  1.2109  1.4441
 8571SOL     OW37174   4.391   0.927  10.468 -0.3239 -0.5514  0.1482
 8571SOL    HW137175   4.333   0.901  10.540  0.1335 -2.3327 -0.1155
 8571SOL    HW237176   4.462   0.863  10.474  0.7799  0.6600 -0.0237
 8572SOL     OW37177   0.146   0.058   4.070 -0.1892  0.1070  0.0988
 8572SOL    HW137178   0.121   0.126   4.007  0.5428  0.6313  0.3677
 8572SOL    HW237179   0.234   0.089   4.091 -0.7566  2.6979 -1.3082
 8573SOL     OW37180   3.894   1.953   9.458  0.2309 -0.4476  0.1945
 8573SOL    HW137181   3.855   1.895   9.392 -1.8140 -2.2266  2.9810
 8573SOL    HW237182   3.868   1.908   9.538 -0.9520 -0.7908 -0.3802
 8574SOL     OW37183   2.544   2.719  15.422 -0.6104 -0.1473  0.1842
 8574SOL    HW137184   2.538   2.624  15.432 -1.3438  0.0053  1.2186
 8574SOL    HW237185   2.567   2.734  15.513  0.3894 -0.8111  0.0465
 8575SOL     OW37186   4.365   0.952   0.394  0.3634  0.9068 -0.0920
 8575SOL    HW137187   4.270   0.965   0.384  0.4110  1.5398  0.3605
 8575SOL    HW237188   4.404   1.026   0.349 -0.6989  1.3833 -0.2362
 8576SOL     OW37189   1.265   1.597   6.363  0.1450  0.0642 -0.3144
 8576SOL    HW137190   1.280   1.655   6.438  1.4204  0.2168 -0.6935
 8576SOL    HW237191   1.342   1.620   6.312  0.6621 -1.1769 -0.0974
 8577SOL     OW37192   0.393   1.708   1.207  0.1803 -0.2605 -0.2234
 8577SOL    HW137193   0.451   1.778   1.175  1.1155 -0.8044  0.2644
 8577SOL    HW237194   0.408   1.641   1.140 -2.7152  1.0763 -2.2018
 8578SOL     OW37195   1.847   2.383   2.898  0.0455  0.2638 -0.4199
 8578SOL    HW137196   1.939   2.391   2.872  0.2121 -0.1690  0.0352
 8578SOL    HW237197   1.846   2.461   2.954 -1.0768  0.1062 -0.2395
 8579SOL     OW37198   1.395   1.631  10.428 -0.3811  0.9798  0.2133
 8579SOL    HW137199   1.393   1.672  10.341 -0.3561  2.3577  0.8719
 8579SOL    HW237200   1.444   1.703  10.467  2.3722  0.7057 -2.7056
 8580SOL     OW37201   3.973   4.497  11.165 -0.0935 -0.4131 -0.3691
 8580SOL    HW137202   3.964   4.588  11.191  3.3136 -0.3100  0.4135
 8580SOL    HW237203   3.970   4.520  11.072  3.6715  0.6358 -0.2272
 8581SOL     OW37204   1.473   4.527   2.147  0.6724  0.2269  0.5793
 8581SOL    HW137205   1.543   4.578   2.106  1.4136 -2.5001 -1.5111
 8581SOL    HW237206   1.485   4.444   2.102 -1.1513  0.0241  0.4704
 8582SOL     OW37207   0.750   2.974   7.925 -0.3919  0.0925 -0.7404
 8582SOL    HW137208   0.702   3.018   7.855 -1.0715 -1.2298 -1.1033
 8582SOL    HW237209   0.805   3.046   7.957  2.1237 -1.6792 -0.9795
 8583SOL     OW37210   0.850   0.321   0.654  0.0192 -0.5226 -0.4398
 8583SOL    HW137211   0.783   0.259   0.625 -0.8431  0.8995 -1.4416
 8583SOL    HW237212   0.927   0.266   0.671 -0.6464 -1.3906 -0.2197
 8584SOL     OW37213   0.213   0.450   4.349  0.1807  0.3613  0.5283
 8584SOL    HW137214   0.229   0.544   4.340  0.4338  0.4641  2.0098
 8584SOL    HW237215   0.118   0.447   4.347  0.2619 -1.1660 -1.3497
 8585SOL     OW37216   3.049   0.828   3.785  0.1779 -0.7265  0.0423
 8585SOL    HW137217   2.975   0.773   3.757  0.5614 -1.0812 -0.2678
 8585SOL    HW237218   3.008   0.877   3.856  1.0619 -1.9135  1.3846
 8586SOL     OW37219   4.633   1.496   4.693 -0.1223 -0.2539 -0.1241
 8586SOL    HW137220   4.622   1.406   4.663  1.2158  0.2749 -2.2211
 8586SOL    HW237221   4.695   1.527   4.627  1.6009  0.0307  1.6747
 8587SOL     OW37222   3.464   2.621   1.964  0.0319 -0.2166  0.1389
 8587SOL    HW137223   3.460   2.696   1.904 -1.2398  0.3211  0.8872
 8587SOL    HW237224   3.517   2.650   2.039 -2.2906 -0.6834  1.9479
 8588SOL     OW37225   2.698   3.909  16.054  0.1873  0.7618  0.0545
 8588SOL    HW137226   2.672   3.890  16.145  0.0638  0.0882 -0.1223
 8588SOL    HW237227   2.724   3.999  16.071 -1.3107  0.8993  1.6452
 8589SOL     OW37228   3.396   3.653   8.298 -0.1024 -0.7204  0.5495
 8589SOL    HW137229   3.370   3.689   8.383  2.4983  0.2165  0.9363
 8589SOL    HW237230   3.426   3.731   8.252 -1.0138 -0.4588  0.4055
 8590SOL     OW37231   2.807   2.672   0.840 -0.4540 -0.4001 -0.1635
 8590SOL    HW137232   2.785   2.587   0.803 -1.1032  0.1728 -1.1085
 8590SOL    HW237233   2.837   2.652   0.929 -1.0435 -0.7800 -0.0560
 8591SOL     OW37234   1.168   4.702   3.063 -0.1217  0.1437 -0.1638
 8591SOL    HW137235   1.180   4.625   3.008 -1.0220 -0.5931  0.6515
 8591SOL    HW237236   1.178   4.669   3.153 -2.2065 -0.0660 -0.0206
 8592SOL     OW37237   0.999   0.452  16.826 -0.0824  0.0959  0.3125
 8592SOL    HW137238   0.984   0.494  16.911 -0.6261 -2.1189  1.3047
 8592SOL    HW237239   1.093   0.444  16.815 -0.3210 -0.9886 -1.0719
 8593SOL     OW37240   1.303   3.310   5.539  0.3221 -0.2881 -0.4140
 8593SOL    HW137241   1.209   3.303   5.527  0.0847  0.1112  1.2093
 8593SOL    HW237242   1.314   3.377   5.606 -0.5368 -0.2642 -0.2976
 8594SOL     OW37243   2.375   4.202   5.420  0.1938 -0.0680  0.0852
 8594SOL    HW137244   2.386   4.117   5.462 -0.9502 -0.3538 -0.2041
 8594SOL    HW237245   2.295   4.229   5.464 -0.1037 -0.4810 -0.2023
 8595SOL     OW37246   3.384   0.829  12.529  0.0799  0.4200 -0.1053
 8595SOL    HW137247   3.329   0.900  12.563  0.7157 -0.2557  2.3433
 8595SOL    HW237248   3.413   0.870  12.447  1.1072 -1.0435 -0.4582
 8596SOL     OW37249   1.806   0.990   0.431 -0.1097  0.9071  0.2218
 8596SOL    HW137250   1.793   0.928   0.502  3.2045 -1.3029 -1.0834
 8596SOL    HW237251   1.734   1.051   0.444 -0.8595  0.0461  0.0591
 8597SOL     OW37252   4.101   1.559   5.221  0.6824 -0.1927  0.4615
 8597SOL    HW137253   4.021   1.605   5.246  0.2232 -0.7754  0.0652
 8597SOL    HW237254   4.084   1.468   5.246  0.0752  0.0466  0.9366
 8598SOL     OW37255   2.527   3.072   1.593  0.4489  0.3709  0.2157
 8598SOL    HW137256   2.494   3.010   1.528  0.7590  0.0387  0.3746
 8598SOL    HW237257   2.609   3.105   1.554 -0.5870  1.4389 -1.0451
 8599SOL     OW37258   1.144   2.940  10.044 -0.1299 -0.8936 -0.2641
 8599SOL    HW137259   1.195   2.906   9.970 -1.9976  0.5485 -2.2259
 8599SOL    HW237260   1.072   2.879  10.031  1.1810 -2.4918  0.0392
 8600SOL     OW37261   2.682   3.617   3.536  0.7127 -0.1352 -0.0667
 8600SOL    HW137262   2.598   3.572   3.525  1.0947 -0.2238 -2.4760
 8600SOL    HW237263   2.648   3.704   3.517 -0.1358 -0.3548  0.4033
 8601SOL     OW37264   3.292   3.190   3.824  0.0011 -0.1231 -0.0449
 8601SOL    HW137265   3.300   3.265   3.764  0.8262  1.4037  1.9607
 8601SOL    HW237266   3.329   3.227   3.905 -2.9408 -3.5817  2.8473
 8602SOL     OW37267   1.245   0.072  10.805 -0.0299  0.3993  0.2009
 8602SOL    HW137268   1.311   0.003  10.808  0.9950  1.3734  0.1129
 8602SOL    HW237269   1.162   0.026  10.790  0.3360 -0.7675  1.7609
 8603SOL     OW37270   0.772   1.216  15.689 -0.9968  0.3990 -0.0270
 8603SOL    HW137271   0.860   1.178  15.700 -0.6932  1.9074  2.6731
 8603SOL    HW237272   0.776   1.240  15.597 -1.7647  0.6534  0.0111
 8604SOL     OW37273   2.522   1.480   6.828  0.6244  0.1147  0.1911
 8604SOL    HW137274   2.592   1.545   6.836  1.1802 -0.3971 -0.5131
 8604SOL    HW237275   2.573   1.402   6.804  0.3096  0.1194 -0.4843
 8605SOL     OW37276   3.472   2.128   1.998  0.2513  0.4735  0.1352
 8605SOL    HW137277   3.390   2.082   1.983  0.4546  0.2648 -0.3295
 8605SOL    HW237278   3.526   2.082   1.934 -0.1504 -0.5741  0.5582
 8606SOL     OW37279   2.335   3.257   3.464 -0.1404 -0.3158 -0.1731
 8606SOL    HW137280   2.321   3.245   3.558  0.8151 -1.4910 -0.1783
 8606SOL    HW237281   2.413   3.202   3.453  1.1745  1.3201  0.8289
 8607SOL     OW37282   1.156   4.591   4.161  0.6840  0.5244 -0.5957
 8607SOL    HW137283   1.242   4.577   4.121 -0.2157 -3.3299 -1.1131
 8607SOL    HW237284   1.180   4.588   4.254 -0.1179  3.0836 -0.2910
 8608SOL     OW37285   1.198   1.061  10.248 -0.5276  0.4005  0.0878
 8608SOL    HW137286   1.146   1.140  10.233 -0.8671  0.2180  0.2882
 8608SOL    HW237287   1.189   1.048  10.342 -1.8749  0.1225 -0.0744
 8609SOL     OW37288   2.467   1.794   1.385  0.6245 -0.1117  0.3365
 8609SOL    HW137289   2.493   1.769   1.297  0.0191  1.2560 -0.2370
 8609SOL    HW237290   2.544   1.765   1.434  0.9781  0.9732  0.4215
 8610SOL     OW37291   4.430   2.559   6.086  0.1749 -0.5194 -0.0801
 8610SOL    HW137292   4.403   2.550   5.995  0.0549 -1.3449  0.0437
 8610SOL    HW237293   4.509   2.614   6.081  0.8066 -1.4061  0.1598
 8611SOL     OW37294   1.020   0.301   7.612  0.0318 -0.2025 -0.2123
 8611SOL    HW137295   0.962   0.259   7.548  0.9010  0.1608 -1.2416
 8611SOL    HW237296   1.106   0.280   7.574  0.5122  0.2524  0.6212
 8612SOL     OW37297   3.382   0.547   9.223  0.1688  0.0510 -0.4186
 8612SOL    HW137298   3.388   0.492   9.144  1.9989 -2.4553  1.4472
 8612SOL    HW237299   3.292   0.521   9.244  0.2524 -0.5611 -0.8085
 8613SOL     OW37300   4.258   4.598   7.136 -0.9892 -0.5575  0.5120
 8613SOL    HW137301   4.338   4.573   7.181 -0.4769  0.2631  0.0778
 8613SOL    HW237302   4.207   4.518   7.147 -1.5848 -0.7180 -3.3947
 8614SOL     OW37303   0.332   1.621   3.768 -0.4213  0.1856 -0.2082
 8614SOL    HW137304   0.306   1.531   3.751  1.3861 -0.1574 -1.1865
 8614SOL    HW237305   0.397   1.641   3.701 -0.5894  1.0215 -0.1188
 8615SOL     OW37306   0.895   1.393   1.139 -0.5746  0.5491  0.2450
 8615SOL    HW137307   0.859   1.469   1.185 -2.4324 -1.1134  1.5910
 8615SOL    HW237308   0.930   1.429   1.058  1.2208 -1.6703  0.0327
 8616SOL     OW37309   1.529   3.088   3.393 -0.0165  0.2009  0.0078
 8616SOL    HW137310   1.622   3.080   3.416  0.0538 -0.0511 -0.3735
 8616SOL    HW237311   1.502   3.161   3.449 -0.9568  1.3826 -2.0195
 8617SOL     OW37312   2.187   2.632   6.144 -0.2515 -0.3681  0.3438
 8617SOL    HW137313   2.165   2.565   6.209  0.8672  1.0004  2.1488
 8617SOL    HW237314   2.182   2.580   6.065 -1.1296  0.2058  0.0136
 8618SOL     OW37315   4.027   2.830  15.116  0.7019 -0.1310  0.3096
 8618SOL    HW137316   4.122   2.819  15.119  0.6312 -1.1702 -1.3970
 8618SOL    HW237317   4.019   2.870  15.203  0.2502 -2.0762  1.1654
 8619SOL     OW37318   4.535   1.006   8.737  0.2318  0.2150  0.0796
 8619SOL    HW137319   4.500   1.007   8.648  0.8042 -2.9384 -0.2082
 8619SOL    HW237320   4.494   0.924   8.767 -0.0236 -0.1145 -1.1734
 8620SOL     OW37321   0.957   2.327   4.192  0.3743  0.3165  0.3664
 8620SOL    HW137322   0.922   2.390   4.255 -0.0203 -0.5205  0.9926
 8620SOL    HW237323   1.025   2.383   4.154 -0.2562  0.1403 -1.0143
 8621SOL     OW37324   3.249   2.041   4.107  0.0109  0.3425 -0.0892
 8621SOL    HW137325   3.335   2.081   4.122  0.9457 -1.0007 -1.9795
 8621SOL    HW237326   3.269   1.984   4.033 -0.4433  1.0535 -0.7692
 8622SOL     OW37327   2.795   3.461   9.599 -0.1357  0.2773  0.2839
 8622SOL    HW137328   2.868   3.491   9.653 -0.7953  3.6701 -0.6745
 8622SOL    HW237329   2.833   3.412   9.526 -0.1519  2.2318 -1.0503
 8623SOL     OW37330   2.804   2.529  11.361  0.5408 -0.5704  0.3571
 8623SOL    HW137331   2.827   2.438  11.340  0.3521 -0.0189 -2.2532
 8623SOL    HW237332   2.887   2.575  11.355  1.3431 -2.3397 -2.4030
 8624SOL     OW37333   0.440   3.014  13.146 -0.0254  0.0069 -0.2494
 8624SOL    HW137334   0.384   3.002  13.069 -0.3457  0.7398 -0.1315
 8624SOL    HW237335   0.378   3.012  13.220  1.9283 -3.1453  1.3030
 8625SOL     OW37336   4.314   4.560  12.092 -0.3139 -0.0338 -0.2211
 8625SOL    HW137337   4.303   4.654  12.081  0.6753 -0.0527 -1.3592
 8625SOL    HW237338   4.307   4.538  12.185  1.9297 -2.0531 -0.5347
 8626SOL     OW37339   2.613   3.482  11.455 -0.4072  0.4050 -0.3244
 8626SOL    HW137340   2.517   3.487  11.456 -0.3196  2.2589 -0.2583
 8626SOL    HW237341   2.637   3.458  11.544  2.8314 -0.1285 -1.3587
 8627SOL     OW37342   3.334   1.631  13.407 -0.1822  0.4631 -0.1389
 8627SOL    HW137343   3.269   1.570  13.439 -1.1880  1.1400 -0.8922
 8627SOL    HW237344   3.276   1.707  13.409  2.3599  2.4224  0.5383
 8628SOL     OW37345   3.503   3.901   5.215  0.4379 -0.2799 -0.1062
 8628SOL    HW137346   3.444   3.848   5.161 -0.4932  0.4867  0.1461
 8628SOL    HW237347   3.494   3.864   5.303 -1.2062 -0.0409 -0.1633
 8629SOL     OW37348   1.022   0.197   8.817  0.2835  0.7005  0.1401
 8629SOL    HW137349   1.041   0.286   8.787 -0.3687  1.1890  1.1504
 8629SOL    HW237350   1.003   0.223   8.908  1.2495  3.0553 -0.3400
 8630SOL     OW37351   3.650   2.149  10.740  0.7031 -0.0426  0.6239
 8630SOL    HW137352   3.641   2.088  10.668 -1.3297  1.4153 -0.3602
 8630SOL    HW237353   3.691   2.093  10.806 -0.7746 -3.6708 -1.5694
 8631SOL     OW37354   1.302   0.700   0.539  0.0770 -0.1043  0.4652
 8631SOL    HW137355   1.216   0.686   0.579 -0.1538 -1.6000 -0.5615
 8631SOL    HW237356   1.302   0.796   0.537 -0.3012 -0.1561 -2.9461
 8632SOL     OW37357   1.646   0.833   8.701 -0.1210 -0.1470  0.5646
 8632SOL    HW137358   1.645   0.905   8.765  0.3510 -0.7446  1.2382
 8632SOL    HW237359   1.731   0.804   8.732  0.6275 -1.5100 -2.7615
 8633SOL     OW37360   1.108   1.676   4.872 -0.6614  0.9323  0.6461
 8633SOL    HW137361   1.066   1.590   4.874 -1.0437  1.1004 -0.8834
 8633SOL    HW237362   1.174   1.655   4.939  2.2492  1.7883 -1.9776
 8634SOL     OW37363   3.911   1.292   3.535 -0.3127  0.0923 -0.4793
 8634SOL    HW137364   3.866   1.329   3.611 -0.3922 -1.8828  0.4151
 8634SOL    HW237365   3.837   1.262   3.482 -0.4483 -2.3253  1.0809
 8635SOL     OW37366   3.425   2.545  17.217  0.6067 -0.1648 -0.1520
 8635SOL    HW137367   3.476   2.619  17.184 -1.8062  1.7369  0.3678
 8635SOL    HW237368   3.404   2.504  17.133  0.7155 -0.2557 -0.1341
 8636SOL     OW37369   2.048   0.856  11.416 -0.2383 -0.1045  0.0104
 8636SOL    HW137370   1.990   0.908  11.473 -0.4990  0.1440 -0.4850
 8636SOL    HW237371   2.132   0.898  11.435 -0.7940  1.0861 -0.1380
 8637SOL     OW37372   2.745   1.354   7.783 -0.0611 -0.2457  0.3326
 8637SOL    HW137373   2.825   1.384   7.740 -0.0363 -0.0845  0.4885
 8637SOL    HW237374   2.687   1.377   7.711  1.6002 -0.6324 -1.1022
 8638SOL     OW37375   2.581   3.639   1.752  0.5683 -0.3371 -0.8094
 8638SOL    HW137376   2.652   3.576   1.765  1.1226  0.7601  1.5446
 8638SOL    HW237377   2.612   3.685   1.674  0.9161  0.1779 -0.3772
 8639SOL     OW37378   4.112   0.679   0.835  0.8486 -0.0149  0.0711
 8639SOL    HW137379   4.109   0.638   0.922 -0.4054  0.7449  0.3834
 8639SOL    HW237380   4.165   0.755   0.858  1.5864 -0.9161  1.3425
 8640SOL     OW37381   4.313   1.742   6.222 -0.2050 -0.7082  0.6155
 8640SOL    HW137382   4.361   1.666   6.187  0.6918  0.3491 -0.4717
 8640SOL    HW237383   4.379   1.810   6.235 -1.6970  0.6047  1.3496
 8641SOL     OW37384   2.265   1.051  10.588 -0.2812 -0.2463 -0.3405
 8641SOL    HW137385   2.292   0.998  10.663  1.7229  1.6599  0.2901
 8641SOL    HW237386   2.287   1.135  10.628  0.2483 -0.7611  0.4600
 8642SOL     OW37387   3.438   2.161   5.531  0.3029 -0.2548  0.2376
 8642SOL    HW137388   3.466   2.253   5.537 -0.3642  0.1761 -2.9437
 8642SOL    HW237389   3.393   2.145   5.614 -1.1128 -0.2106 -0.5146
 8643SOL     OW37390   0.261   4.133  12.779  0.3388 -0.6983  0.4319
 8643SOL    HW137391   0.246   4.202  12.844 -2.5029 -0.8466 -0.0418
 8643SOL    HW237392   0.339   4.087  12.809  0.3118 -0.5985  0.6562
 8644SOL     OW37393   4.023   3.225   4.527 -0.8360 -0.6019  0.0115
 8644SOL    HW137394   4.107   3.212   4.571 -0.4706 -2.1829 -1.1558
 8644SOL    HW237395   4.049   3.232   4.435  0.1854  1.7847  0.4619
 8645SOL     OW37396   3.344   1.874   3.889  0.2328 -0.2800 -0.1553
 8645SOL    HW137397   3.305   1.807   3.832  1.1008 -1.1402  0.2795
 8645SOL    HW237398   3.402   1.817   3.940 -1.6767 -2.0894  0.0469
 8646SOL     OW37399   3.332   4.714   2.545  0.0655  0.4787  0.0744
 8646SOL    HW137400   3.277   0.011   2.470  0.1187  0.1588 -0.0544
 8646SOL    HW237401   3.414   0.016   2.503 -1.2483  1.4114 -1.9342
 8647SOL     OW37402   0.825   3.463   1.576 -0.1153 -0.2566  0.2059
 8647SOL    HW137403   0.892   3.533   1.578 -1.7021  1.2899 -1.5395
 8647SOL    HW237404   0.844   3.423   1.661 -0.3546 -2.5759 -0.8611
 8648SOL     OW37405   4.427   3.664   3.261 -0.4142  0.3610 -0.2157
 8648SOL    HW137406   4.367   3.700   3.327 -0.1401 -1.9295  1.2771
 8648SOL    HW237407   4.429   3.738   3.200 -3.8842  0.3552 -0.2968
 8649SOL     OW37408   4.716   3.064  15.299  0.7758  1.2877  0.2591
 8649SOL    HW137409   4.709   3.026  15.386  0.7530  0.7699  0.0305
 8649SOL    HW237410   4.683   2.994  15.243  2.2756  0.2111  0.7108
 8650SOL     OW37411   2.557   3.865   7.252  0.3520 -0.0549 -0.5068
 8650SOL    HW137412   2.568   3.890   7.161 -0.1407  0.0976 -0.5205
 8650SOL    HW237413   2.626   3.798   7.253  0.1182 -0.3185 -2.4983
 8651SOL     OW37414   3.762   3.555  12.918  0.1602  0.1418  0.0796
 8651SOL    HW137415   3.752   3.591  12.831  0.1805  1.5296  0.6503
 8651SOL    HW237416   3.722   3.468  12.918 -1.7326  0.9967  1.2934
 8652SOL     OW37417   2.459   3.585   8.493 -0.7682 -0.4326  0.2508
 8652SOL    HW137418   2.472   3.599   8.587 -1.6351 -1.1173  0.4737
 8652SOL    HW237419   2.368   3.556   8.499 -0.4823 -1.2844  0.5015
 8653SOL     OW37420   3.572   4.033   3.705  0.4817 -0.0388  0.2655
 8653SOL    HW137421   3.528   3.955   3.670 -1.9334  2.1708 -1.6366
 8653SOL    HW237422   3.565   4.022   3.800  0.2992  0.0165  0.2596
 8654SOL     OW37423   2.760   1.495  13.347 -0.2823  0.3736  0.5205
 8654SOL    HW137424   2.733   1.545  13.424 -0.2634  0.7120  0.3071
 8654SOL    HW237425   2.675   1.459  13.320 -1.0717  2.7134 -0.1228
 8655SOL     OW37426   3.569   2.208   4.553  0.0532  0.3261 -0.4280
 8655SOL    HW137427   3.544   2.117   4.533  2.0469 -0.2332 -0.3149
 8655SOL    HW237428   3.511   2.228   4.627  0.1140 -0.8463 -0.0668
 8656SOL     OW37429   0.790   1.219   3.802  0.3555 -0.2558 -0.0974
 8656SOL    HW137430   0.826   1.136   3.834  0.1023 -1.9979 -4.2112
 8656SOL    HW237431   0.836   1.243   3.721 -0.1890  1.5181  0.1295
 8657SOL     OW37432   2.027   1.757   2.705 -0.4159  0.5598 -0.5718
 8657SOL    HW137433   1.952   1.774   2.649  0.5967  1.6399 -1.5926
 8657SOL    HW237434   2.078   1.838   2.697  1.0077 -0.1545  1.3071
 8658SOL     OW37435   4.284   3.926   6.908  0.0788  1.0906 -0.0931
 8658SOL    HW137436   4.320   3.933   6.820  1.8464 -0.6584  0.4937
 8658SOL    HW237437   4.275   4.019   6.928 -1.3733  1.1252 -0.9657
 8659SOL     OW37438   3.061   0.166   2.625  0.2298  1.0689 -0.5130
 8659SOL    HW137439   2.987   0.226   2.610  0.3977  2.0172  2.3339
 8659SOL    HW237440   3.126   0.214   2.576  1.0616  0.6459  0.1694
 8660SOL     OW37441   4.568   2.545   7.784 -0.1285 -0.0626 -1.1126
 8660SOL    HW137442   4.502   2.542   7.715 -2.6562  1.6331  1.2676
 8660SOL    HW237443   4.593   2.637   7.782 -3.2450  0.7687 -1.9953
 8661SOL     OW37444   3.906   3.780   6.047  0.2395  0.0035  0.3292
 8661SOL    HW137445   3.939   3.842   6.111 -0.7466  0.9440 -0.0820
 8661SOL    HW237446   3.935   3.820   5.965  1.9285 -1.6565  0.1155
 8662SOL     OW37447   2.630   0.211  17.342 -0.3095  0.7566 -0.2002
 8662SOL    HW137448   2.612   0.224  17.249 -0.2792  3.1981  0.1269
 8662SOL    HW237449   2.595   0.122  17.347  0.4704  0.5361  1.6565
 8663SOL     OW37450   1.380   2.117   3.793  0.4005 -0.1250 -0.1474
 8663SOL    HW137451   1.304   2.101   3.849 -1.2650 -0.9744 -2.6516
 8663SOL    HW237452   1.387   2.212   3.798  2.2326 -0.2964  0.6766
 8664SOL     OW37453   4.574   4.039   9.035  0.2905  0.1572 -0.4868
 8664SOL    HW137454   4.509   4.025   8.967 -1.4631  0.2998  1.1866
 8664SOL    HW237455   4.651   4.049   8.979  1.6062  0.4387  1.3607
 8665SOL     OW37456   3.270   2.438   7.138  0.1961  0.6942 -0.7605
 8665SOL    HW137457   3.355   2.439   7.093  1.8304  2.4594  2.4479
 8665SOL    HW237458   3.265   2.532   7.155  2.2666  0.6859 -0.1363
 8666SOL     OW37459   1.149   4.414   6.782  0.4145  0.0483  0.2763
 8666SOL    HW137460   1.231   4.412   6.833  0.2182 -0.3685  0.5824
 8666SOL    HW237461   1.100   4.348   6.832 -3.2855  0.7369 -2.4914
 8667SOL     OW37462   0.524   2.538   8.368 -0.0301 -0.1492  0.0822
 8667SOL    HW137463   0.571   2.470   8.417 -1.6745 -1.1578  0.2576
 8667SOL    HW237464   0.432   2.512   8.376  0.4160 -1.2218  1.7539
 8668SOL     OW37465   0.071   0.926   2.317 -0.2667 -0.2857  0.2074
 8668SOL    HW137466   0.136   0.950   2.251 -0.8249 -1.2689 -0.6938
 8668SOL    HW237467   0.035   0.846   2.280 -0.5460 -0.3842  0.6943
 8669SOL     OW37468   2.909   3.658   6.404 -0.5583 -0.5219 -0.4172
 8669SOL    HW137469   2.984   3.718   6.410 -2.3110  1.5751  0.5186
 8669SOL    HW237470   2.923   3.620   6.317 -0.2759 -0.0943 -0.5628
 8670SOL     OW37471   1.117   1.926   6.643 -0.1411  0.2179 -0.4814
 8670SOL    HW137472   1.050   1.954   6.581 -0.6156 -0.0235 -0.0702
 8670SOL    HW237473   1.165   2.008   6.636  1.5025 -0.4383  2.9442
 8671SOL     OW37474   2.702   1.595  12.973 -0.4812  0.5075  0.1703
 8671SOL    HW137475   2.706   1.539  12.895 -0.0662  0.5156  0.1874
 8671SOL    HW237476   2.622   1.646  12.958 -0.0961  0.7502 -1.0937
 8672SOL     OW37477   2.022   1.573   3.995 -0.7112 -0.7733 -0.1646
 8672SOL    HW137478   2.008   1.555   3.902 -0.3243 -0.0578 -0.3636
 8672SOL    HW237479   2.099   1.629   3.988 -1.5158  0.2755 -0.6534
 8673SOL     OW37480   1.857   1.387   7.609  0.4729  0.1229  0.5352
 8673SOL    HW137481   1.813   1.407   7.527 -0.5408  0.6401  1.1993
 8673SOL    HW237482   1.806   1.312   7.639 -0.3595  0.2080 -0.7074
 8674SOL     OW37483   0.411   3.885  15.368 -0.5531 -0.1886 -0.2866
 8674SOL    HW137484   0.491   3.835  15.387 -1.9622 -1.6580  1.8757
 8674SOL    HW237485   0.420   3.945  15.442 -0.4800 -0.5239 -0.0190
 8675SOL     OW37486   3.663   0.045   3.142  0.1368 -0.0798  0.0314
 8675SOL    HW137487   3.639   0.034   3.050  1.0495 -0.2222 -0.1935
 8675SOL    HW237488   3.622   0.130   3.161 -0.9389 -0.4242 -0.7283
 8676SOL     OW37489   3.683   3.047  13.599  0.3674 -0.7425 -0.2768
 8676SOL    HW137490   3.767   3.002  13.590 -0.4484 -1.8747 -2.2545
 8676SOL    HW237491   3.649   3.004  13.677 -1.2724  1.3244  0.1302
 8677SOL     OW37492   2.442   3.173   2.033  0.1891 -0.4397  0.1620
 8677SOL    HW137493   2.405   3.143   1.951 -0.9154 -2.7888  1.5348
 8677SOL    HW237494   2.435   3.269   2.035  2.5304 -0.2433 -0.3467
 8678SOL     OW37495   4.312   2.497   1.073  0.1214  0.2820 -0.0640
 8678SOL    HW137496   4.340   2.551   1.146 -0.2786 -0.7698  0.8733
 8678SOL    HW237497   4.367   2.537   1.005 -1.0342 -0.4750 -1.4650
 8679SOL     OW37498   1.684   1.925  13.415 -0.5568 -0.6219  0.0703
 8679SOL    HW137499   1.665   1.884  13.331  1.6415 -0.1523 -0.6326
 8679SOL    HW237500   1.752   1.864  13.444  1.5853  1.0240 -1.5630
 8680SOL     OW37501   1.030   2.232   5.896 -0.0805 -0.0491 -0.3203
 8680SOL    HW137502   1.121   2.203   5.887 -0.7444 -2.4185  0.7315
 8680SOL    HW237503   0.997   2.218   5.808  0.2861  2.5091 -0.8687
 8681SOL     OW37504   3.128   1.316  13.016  0.4779 -0.1232  0.3825
 8681SOL    HW137505   3.218   1.326  13.049  1.1994 -1.7261 -1.0858
 8681SOL    HW237506   3.087   1.372  13.081  0.8718 -0.5561  1.0036
 8682SOL     OW37507   0.567   2.983  17.680  0.2168 -0.0333  0.0457
 8682SOL    HW137508   0.517   3.056   0.018 -1.8777 -1.6406  0.3999
 8682SOL    HW237509   0.628   2.958   0.050  0.9346 -4.2311 -2.1276
 8683SOL     OW37510   3.783   2.891  12.702 -0.8855  0.0002  0.1797
 8683SOL    HW137511   3.767   2.965  12.761 -1.5058  0.7499 -0.9159
 8683SOL    HW237512   3.822   2.831  12.765 -1.3777  0.2833  0.7603
 8684SOL     OW37513   2.214   3.602   3.663 -0.4232  0.1764  0.2963
 8684SOL    HW137514   2.132   3.583   3.617 -0.1078 -1.2477  0.3045
 8684SOL    HW237515   2.214   3.538   3.734 -0.1018  1.0069  1.0369
 8685SOL     OW37516   3.829   3.129   2.440 -0.6041 -0.2205 -0.0930
 8685SOL    HW137517   3.845   3.150   2.532 -0.7990  1.1567 -0.3882
 8685SOL    HW237518   3.788   3.210   2.411  0.0066  0.3701  0.7132
 8686SOL     OW37519   2.593   0.758   0.332 -0.3779 -0.1323 -0.1058
 8686SOL    HW137520   2.636   0.707   0.263 -1.8322  0.0478 -1.1347
 8686SOL    HW237521   2.632   0.733   0.416 -1.6966  2.1765  1.1795
 8687SOL     OW37522   2.291   1.594  11.417 -0.5687 -0.0655  0.0915
 8687SOL    HW137523   2.291   1.668  11.355  0.9050 -0.6637 -0.6236
 8687SOL    HW237524   2.366   1.543  11.387  0.1464  1.5005 -0.7823
 8688SOL     OW37525   0.419   1.889   0.427  0.0162 -0.3059  0.3785
 8688SOL    HW137526   0.467   1.951   0.374 -0.7066  0.9193  1.1521
 8688SOL    HW237527   0.336   1.870   0.383  0.4962 -2.5492  0.4087
 8689SOL     OW37528   4.377   0.793   4.271 -0.0584  0.1128  0.4965
 8689SOL    HW137529   4.303   0.749   4.314  0.6417 -1.4209  0.1413
 8689SOL    HW237530   4.392   0.737   4.195 -0.3484 -0.0895  0.5853
 8690SOL     OW37531   2.481   0.592   3.560  0.1443  0.1914 -0.7376
 8690SOL    HW137532   2.535   0.536   3.616  0.6317  0.5146 -0.8900
 8690SOL    HW237533   2.519   0.593   3.472 -1.5471 -0.5069 -1.4728
 8691SOL     OW37534   4.167   1.373   8.695 -0.0816 -0.1039 -0.0381
 8691SOL    HW137535   4.232   1.372   8.766  0.5208  0.0696 -0.5944
 8691SOL    HW237536   4.116   1.295   8.717  0.4053  0.4810  3.2696
 8692SOL     OW37537   3.638   3.828  16.792 -0.3795  0.2014 -0.1818
 8692SOL    HW137538   3.555   3.874  16.805 -0.4139  0.0493  0.1247
 8692SOL    HW237539   3.694   3.903  16.773 -0.4233 -0.2820 -2.2618
 8693SOL     OW37540   2.323   1.334   9.553  0.7483  0.0995  0.3677
 8693SOL    HW137541   2.238   1.340   9.596 -0.0191 -6.0681 -0.2192
 8693SOL    HW237542   2.350   1.245   9.577  0.2882 -0.5934 -1.6525
 8694SOL     OW37543   1.794   1.720   7.104 -0.3906  0.4711  0.0571
 8694SOL    HW137544   1.712   1.747   7.144 -1.0054 -1.6972  0.2666
 8694SOL    HW237545   1.791   1.760   7.017 -1.5927 -2.0506 -1.0642
 8695SOL     OW37546   0.997   2.185   9.207  0.9389  0.0806 -0.4436
 8695SOL    HW137547   0.949   2.248   9.153  0.1254  0.1296  0.3503
 8695SOL    HW237548   1.066   2.153   9.148  0.3768 -3.4816  0.8530
 8696SOL     OW37549   2.031   2.565   6.789 -0.0415  0.1343  0.1124
 8696SOL    HW137550   2.083   2.524   6.859 -0.6894 -3.0130 -1.2504
 8696SOL    HW237551   2.077   2.648   6.787 -0.6739  0.5395  1.7395
 8697SOL     OW37552   2.637   1.426   0.978  0.8298  0.7364 -0.2532
 8697SOL    HW137553   2.568   1.438   0.913  1.2293 -0.3125 -0.8731
 8697SOL    HW237554   2.712   1.409   0.921  2.4079  2.3008  1.3427
 8698SOL     OW37555   3.032   3.225   6.717  0.1864  0.3509 -0.3116
 8698SOL    HW137556   3.040   3.197   6.626  2.0729 -0.8074  0.2210
 8698SOL    HW237557   2.939   3.207   6.730 -0.0444  0.5520 -1.6619
 8699SOL     OW37558   1.228   1.159  16.306 -0.4609 -0.0292 -0.3571
 8699SOL    HW137559   1.147   1.209  16.296 -0.1477  0.3094 -1.1691
 8699SOL    HW237560   1.193   1.093  16.366  0.3237  1.6359  1.9250
 8700SOL     OW37561   0.537   3.600   5.001 -0.0370 -0.2934  0.0530
 8700SOL    HW137562   0.476   3.645   5.060 -1.0753  0.3349 -1.4945
 8700SOL    HW237563   0.520   3.507   5.015  0.0221 -0.1275  1.2089
 8701SOL     OW37564   3.912   3.315   8.361 -0.0827  0.0206 -0.2166
 8701SOL    HW137565   3.940   3.234   8.318  1.0615  0.2382  0.1187
 8701SOL    HW237566   3.914   3.285   8.452  0.4671 -1.3131 -0.6598
 8702SOL     OW37567   3.318   1.366  14.605 -0.0645 -0.2633  0.7534
 8702SOL    HW137568   3.304   1.454  14.570 -1.0517 -0.7410 -0.0322
 8702SOL    HW237569   3.392   1.323  14.563 -1.7572 -1.2628 -1.2137
 8703SOL     OW37570   0.635   3.881   2.003 -0.2302  0.1399 -0.6669
 8703SOL    HW137571   0.563   3.817   1.999  0.0580 -0.2669  0.6176
 8703SOL    HW237572   0.695   3.853   1.934  2.8919  1.0089  1.7030
 8704SOL     OW37573   2.902   3.506   5.777  0.5769 -0.1668 -0.4004
 8704SOL    HW137574   2.896   3.498   5.682 -0.8557  2.9363 -0.5773
 8704SOL    HW237575   2.811   3.512   5.808  0.0699  1.2294 -2.1750
 8705SOL     OW37576   1.211   1.652   0.245  0.3897 -0.2728 -0.1134
 8705SOL    HW137577   1.130   1.608   0.220  0.3224 -1.8724  2.9130
 8705SOL    HW237578   1.186   1.692   0.329 -2.1517 -1.4273 -0.3139
 8706SOL     OW37579   2.941   1.498   3.608 -0.5191  0.1934 -0.1246
 8706SOL    HW137580   2.855   1.480   3.646 -0.9811  1.9538 -0.3264
 8706SOL    HW237581   2.936   1.478   3.514 -0.4533  1.0830 -0.3252
 8707SOL     OW37582   2.003   2.074   7.462  0.0307 -0.1409 -0.0900
 8707SOL    HW137583   2.077   2.029   7.504 -0.0273 -0.1646 -0.0127
 8707SOL    HW237584   1.995   2.154   7.514 -0.3912 -0.7996  0.8672
 8708SOL     OW37585   3.836   3.495  15.836 -0.5380 -0.7787 -0.4059
 8708SOL    HW137586   3.787   3.413  15.845  0.4400 -1.4864 -1.4084
 8708SOL    HW237587   3.768   3.558  15.856 -1.6404 -1.5363 -1.7914
 8709SOL     OW37588   2.791   3.391   6.527  0.1580 -0.0815  0.4686
 8709SOL    HW137589   2.747   3.354   6.451 -0.5772  0.2968  0.7137
 8709SOL    HW237590   2.817   3.478   6.495  0.6976 -0.1948  0.6018
 8710SOL     OW37591   1.464   1.202  11.490  0.8887 -0.4441 -0.7676
 8710SOL    HW137592   1.548   1.166  11.462  0.4740 -1.7743 -0.3052
 8710SOL    HW237593   1.422   1.126  11.529  2.2089 -0.1105  1.3654
 8711SOL     OW37594   3.633   0.499   4.102 -0.3654  0.1200  0.1291
 8711SOL    HW137595   3.587   0.415   4.098 -1.5611  0.8563 -1.6603
 8711SOL    HW237596   3.561   0.561   4.092  0.7734  1.7105  1.8152
 8712SOL     OW37597   0.565   0.477   6.586 -0.5561 -0.2390  0.3755
 8712SOL    HW137598   0.580   0.397   6.535 -0.0472 -1.1357  1.9515
 8712SOL    HW237599   0.497   0.447   6.645  0.3365 -0.4757  1.2844
 8713SOL     OW37600   1.132   3.877  11.454 -0.1555  0.3571  0.7798
 8713SOL    HW137601   1.174   3.888  11.369  1.5443 -2.6891  1.1996
 8713SOL    HW237602   1.180   3.933  11.516  2.2833 -1.5859  0.6305
 8714SOL     OW37603   1.380   0.794   7.085  0.1037  0.3358  0.6791
 8714SOL    HW137604   1.307   0.821   7.030  0.2551  2.6059  1.6201
 8714SOL    HW237605   1.356   0.840   7.165 -0.8198 -1.0624  1.1959
 8715SOL     OW37606   0.734   4.228  15.599  0.9445 -0.1820 -0.0088
 8715SOL    HW137607   0.723   4.315  15.561 -1.8144 -0.0759  0.9951
 8715SOL    HW237608   0.814   4.235  15.651  1.5478 -1.2957 -0.8073
 8716SOL     OW37609   1.266   2.124   5.364  0.4001 -0.1391 -0.2054
 8716SOL    HW137610   1.221   2.197   5.406  1.2071 -0.1013  0.6123
 8716SOL    HW237611   1.188   2.071   5.350 -0.4477  1.5257 -1.6662
 8717SOL     OW37612   0.003   0.982   7.525  0.2118  0.1597  0.0924
 8717SOL    HW137613   4.716   1.071   7.494 -1.0522  0.3755  1.1982
 8717SOL    HW237614   4.644   0.942   7.501  0.7649 -1.2239  0.4392
 8718SOL     OW37615   0.451   1.374  15.469 -0.0202 -0.1120  0.0773
 8718SOL    HW137616   0.424   1.332  15.387  1.4590  1.0957 -1.0290
 8718SOL    HW237617   0.441   1.302  15.532 -1.3074  0.1980  0.2327
 8719SOL     OW37618   2.311   3.639   7.579  0.3479  0.0287  0.1961
 8719SOL    HW137619   2.311   3.689   7.497  1.5042  0.1515  0.2692
 8719SOL    HW237620   2.358   3.694   7.641  2.4227  0.0269 -1.3479
 8720SOL     OW37621   2.347   1.817  11.234  0.3595 -0.2715  0.6920
 8720SOL    HW137622   2.318   1.869  11.160  0.2351 -0.4064  0.6470
 8720SOL    HW237623   2.428   1.860  11.262  1.7228 -2.6194  0.3232
 8721SOL     OW37624   1.352   1.914   8.712  0.0011 -0.1736  0.0886
 8721SOL    HW137625   1.352   1.881   8.802  2.4559 -0.3307  0.0413
 8721SOL    HW237626   1.445   1.902   8.690  0.6618 -1.7745  3.7278
 8722SOL     OW37627   1.433   3.042   8.656 -0.0248 -1.2104 -0.2994
 8722SOL    HW137628   1.504   3.087   8.611  1.0961 -3.4237 -0.7531
 8722SOL    HW237629   1.486   2.976   8.701  1.2564 -1.6230 -2.4306
 8723SOL     OW37630   3.102   0.106  13.231  0.4891  0.1436 -0.4885
 8723SOL    HW137631   3.174   0.058  13.271 -0.9828  1.0989  3.3639
 8723SOL    HW237632   3.033   0.050  13.267  0.7629 -1.0382 -1.8188
 8724SOL     OW37633   2.809   1.847   2.381  0.3969  0.0652 -0.0994
 8724SOL    HW137634   2.838   1.774   2.436 -0.0561 -1.2285 -1.5902
 8724SOL    HW237635   2.888   1.901   2.392 -0.0751  0.8425 -0.5719
 8725SOL     OW37636   0.834   2.147   7.423  0.8840 -0.2243  0.1758
 8725SOL    HW137637   0.828   2.163   7.329  0.5590  1.6137  0.5186
 8725SOL    HW237638   0.873   2.231   7.447 -0.2500  0.3811 -0.1323
 8726SOL     OW37639   0.057   4.037   6.386  0.0850  0.2796 -0.1999
 8726SOL    HW137640   0.114   3.991   6.325 -0.2386  0.8517 -0.9249
 8726SOL    HW237641   0.013   4.097   6.328 -2.4320  0.0113  1.4223
 8727SOL     OW37642   1.348   0.131   7.087  0.4365  0.5691  0.6153
 8727SOL    HW137643   1.285   0.166   7.150 -1.7401  0.8942 -1.7841
 8727SOL    HW237644   1.302   0.145   7.005 -0.5210 -0.6186  0.9381
 8728SOL     OW37645   1.048   4.659   6.901 -0.7023  0.5444 -0.1124
 8728SOL    HW137646   1.109   4.595   6.863 -2.0767 -0.9121  0.1632
 8728SOL    HW237647   1.105   0.012   6.901  2.8992 -2.0750 -1.9207
 8729SOL     OW37648   2.802   3.325   8.160 -0.0816 -0.1710 -0.0049
 8729SOL    HW137649   2.818   3.251   8.218  1.5651  0.2089  0.0345
 8729SOL    HW237650   2.732   3.372   8.206  2.8660  1.5792  2.7176
 8730SOL     OW37651   4.627   3.057   8.193 -0.1529  0.1118  0.3894
 8730SOL    HW137652   4.672   3.037   8.275  1.6211  4.7120  0.5045
 8730SOL    HW237653   4.537   3.076   8.219 -0.1948  2.4072 -1.4598
 8731SOL     OW37654   0.102   3.206  11.942 -0.2117 -0.2605  0.4809
 8731SOL    HW137655   0.075   3.115  11.946 -1.2452 -0.0043 -0.7270
 8731SOL    HW237656   0.189   3.199  11.903 -0.5509 -1.0932 -0.1063
 8732SOL     OW37657   1.507   4.274   6.673  0.5326  0.5449  0.3323
 8732SOL    HW137658   1.488   4.332   6.747 -1.2913  0.0410  0.2603
 8732SOL    HW237659   1.428   4.285   6.621  0.5829 -0.8758 -0.0208
 8733SOL     OW37660   4.579   3.740   2.993 -0.4862  0.0314 -0.4665
 8733SOL    HW137661   4.635   3.740   2.916 -0.4824 -1.0694 -0.4566
 8733SOL    HW237662   4.642   3.765   3.060 -2.4062  0.3036  1.2528
 8734SOL     OW37663   0.395   4.632   9.861  0.3776  0.0527  0.2412
 8734SOL    HW137664   0.393   4.717   9.817 -0.3255 -0.5309 -0.8618
 8734SOL    HW237665   0.437   4.655   9.944  0.2926 -0.6125  0.4658
 8735SOL     OW37666   3.537   0.107   2.386 -0.1825 -0.3633  0.6085
 8735SOL    HW137667   3.497   0.046   2.323  0.4089  2.1009 -2.1531
 8735SOL    HW237668   3.623   0.066   2.396  0.3533  0.5096 -0.4989
 8736SOL     OW37669   3.364   2.264   8.965 -0.2259  0.1990 -0.3690
 8736SOL    HW137670   3.374   2.306   9.051 -1.7538 -1.8232  0.7917
 8736SOL    HW237671   3.279   2.222   8.970 -0.6493  1.4910  3.8429
 8737SOL     OW37672   1.533   3.543   5.672 -0.0105 -0.1545 -0.5566
 8737SOL    HW137673   1.488   3.533   5.756  2.0210  2.4098  0.8327
 8737SOL    HW237674   1.610   3.583   5.712 -1.4068 -0.6819  2.6138
 8738SOL     OW37675   2.614   1.360   3.983  0.0834 -0.4337  0.4383
 8738SOL    HW137676   2.527   1.322   3.997  1.0687 -2.1583  1.9150
 8738SOL    HW237677   2.609   1.386   3.891  1.1644 -0.9241  0.2342
 8739SOL     OW37678   1.309   2.089   9.329 -0.0483 -0.0697  0.1606
 8739SOL    HW137679   1.364   2.027   9.281  2.5214  1.4181  1.2088
 8739SOL    HW237680   1.373   2.096   9.399 -0.7657  1.2449  0.6783
 8740SOL     OW37681   4.416   4.310   9.110  0.1122  0.2539  0.0337
 8740SOL    HW137682   4.484   4.372   9.138  1.3821 -0.7188 -0.9005
 8740SOL    HW237683   4.469   4.235   9.083  1.8597  2.1160 -1.6765
 8741SOL     OW37684   2.192   2.545   9.271  0.5281 -0.1303  0.1652
 8741SOL    HW137685   2.210   2.514   9.183 -0.6211 -0.2471 -0.0279
 8741SOL    HW237686   2.172   2.465   9.320  0.2279  0.7951  1.5672
 8742SOL     OW37687   3.398   1.686  17.662  0.5135 -0.4094 -0.3251
 8742SOL    HW137688   3.325   1.631  17.692  1.2536 -1.5676 -0.6433
 8742SOL    HW237689   3.417   1.651  17.575 -2.1020 -0.1378 -1.0050
 8743SOL     OW37690   2.634   1.835  16.990  0.6786  1.1620  0.0057
 8743SOL    HW137691   2.683   1.793  17.060 -0.3294 -2.6346 -1.5382
 8743SOL    HW237692   2.682   1.789  16.922  1.8239 -0.5748  1.9828
 8744SOL     OW37693   3.256   2.409  10.291 -0.4804 -0.1809 -0.5731
 8744SOL    HW137694   3.274   2.485  10.346 -1.1994  0.6269 -1.4618
 8744SOL    HW237695   3.241   2.336  10.351 -0.4887  0.4922  0.2429
 8745SOL     OW37696   3.361   2.038  12.366 -0.3807 -0.7125  0.0537
 8745SOL    HW137697   3.281   1.989  12.344 -1.1630 -0.2080  1.7859
 8745SOL    HW237698   3.405   1.965  12.409  0.3119 -0.0992  0.3878
 8746SOL     OW37699   3.797   2.399   2.474  0.2386 -0.1379 -0.2436
 8746SOL    HW137700   3.861   2.351   2.423  0.6853  0.5260 -0.3149
 8746SOL    HW237701   3.772   2.474   2.419  3.8726  1.8986  0.8718
 8747SOL     OW37702   1.286   1.336  13.258 -0.6451  0.1107 -0.2970
 8747SOL    HW137703   1.213   1.395  13.275  0.1131  0.8328  0.4656
 8747SOL    HW237704   1.319   1.380  13.180 -0.6717  1.6449  0.5464
 8748SOL     OW37705   1.937   2.397   7.865  0.6155 -0.2854  0.6983
 8748SOL    HW137706   1.864   2.385   7.804  0.3933 -1.1403  1.1272
 8748SOL    HW237707   1.881   2.427   7.937 -0.2428  0.2245 -0.1757
 8749SOL     OW37708   3.703   1.514   6.061 -0.2369  0.4682 -0.1091
 8749SOL    HW137709   3.692   1.460   6.139  1.1645  0.2996 -0.0355
 8749SOL    HW237710   3.735   1.598   6.095  0.4700  0.2767 -0.2966
 8750SOL     OW37711   0.049   1.190   7.752 -0.4454  0.3244 -0.5046
 8750SOL    HW137712   0.072   1.110   7.799  0.4085  1.0241  0.2690
 8750SOL    HW237713   4.684   1.206   7.784 -0.2935  0.3036 -0.0675
 8751SOL     OW37714   1.286   2.949   9.810 -0.2169  0.7994  0.3530
 8751SOL    HW137715   1.270   2.859   9.783 -1.8751  0.4315  2.5681
 8751SOL    HW237716   1.233   3.004   9.752 -1.2782 -2.2375 -1.5501
 8752SOL     OW37717   1.285   0.027  11.466  0.1710  0.1385 -0.2884
 8752SOL    HW137718   1.380   0.010  11.471 -0.5440 -3.4863  1.1852
 8752SOL    HW237719   1.257   4.667  11.430 -2.8786  0.4923  1.2630
 8753SOL     OW37720   4.288   2.070   7.305  0.1227  0.2505 -0.1968
 8753SOL    HW137721   4.351   2.020   7.357  1.0989  0.1429 -1.4803
 8753SOL    HW237722   4.272   2.153   7.349 -0.3537 -0.5826  1.1918
 8754SOL     OW37723   4.063   4.535   5.897 -0.0334 -0.8907 -0.2166
 8754SOL    HW137724   3.988   4.485   5.867  0.0878 -0.8151 -0.6456
 8754SOL    HW237725   4.029   4.563   5.982 -0.9489  2.3871 -1.7078
 8755SOL     OW37726   2.311   2.314   2.535 -0.6369  0.0919  0.3276
 8755SOL    HW137727   2.290   2.265   2.614  1.9613 -0.6800  0.5715
 8755SOL    HW237728   2.232   2.361   2.510 -1.0940  0.5372  2.6404
 8756SOL     OW37729   3.313   2.489   0.797 -0.5409 -0.0177 -0.0519
 8756SOL    HW137730   3.403   2.511   0.821 -0.1611 -2.0641  0.3725
 8756SOL    HW237731   3.281   2.440   0.873 -0.6410 -2.1199 -1.4457
 8757SOL     OW37732   3.094   1.718   6.312 -0.3693 -0.2528  0.2118
 8757SOL    HW137733   3.114   1.640   6.259  1.4039  1.9613 -2.3367
 8757SOL    HW237734   3.185   1.739   6.332 -0.3749 -1.4070  1.4157
 8758SOL     OW37735   1.016   0.210   1.876 -0.3096 -0.3192 -0.3189
 8758SOL    HW137736   0.923   0.212   1.853 -0.4507  3.2671  0.7057
 8758SOL    HW237737   1.029   0.117   1.896  2.2603  0.0824 -0.0730
 8759SOL     OW37738   0.205   2.499   8.043  0.1980  0.0091  0.1501
 8759SOL    HW137739   0.295   2.532   8.034  0.1707 -0.5498 -2.1579
 8759SOL    HW237740   0.203   2.432   7.974 -0.7116  0.5156 -0.3195
 8760SOL     OW37741   4.202   4.723   5.748  0.4421 -0.1260  0.0957
 8760SOL    HW137742   4.289   4.684   5.756  1.6275  2.4996  0.1095
 8760SOL    HW237743   4.146   4.654   5.783  0.4357 -0.0910  0.1543
 8761SOL     OW37744   1.586   1.586   3.248  0.1355 -0.4345 -0.3843
 8761SOL    HW137745   1.529   1.569   3.322  2.4769 -0.8988  1.3036
 8761SOL    HW237746   1.625   1.500   3.234 -0.2660 -0.7699  0.6014
 8762SOL     OW37747   1.273   2.413   3.540  0.0632 -0.0112 -0.2967
 8762SOL    HW137748   1.341   2.355   3.506  1.6265  1.4313  0.3507
 8762SOL    HW237749   1.300   2.424   3.631 -1.3491  2.0514 -0.1253
 8763SOL     OW37750   4.711   1.451   6.372 -0.0889 -0.1248  0.1221
 8763SOL    HW137751   4.711   1.546   6.358 -0.1484 -0.0992  0.2889
 8763SOL    HW237752   4.724   1.421   6.283  1.4177  1.3701 -0.1714
 8764SOL     OW37753   2.293   0.366  17.560 -0.1948 -0.3234  0.4515
 8764SOL    HW137754   2.339   0.399  17.483  0.7480 -0.5125  0.9399
 8764SOL    HW237755   2.265   0.451  17.595  0.9469  0.3769 -0.3115
 8765SOL     OW37756   1.063   1.888   4.707  0.1161  0.0732 -0.5574
 8765SOL    HW137757   1.087   1.821   4.772  2.4998 -0.4718 -1.9916
 8765SOL    HW237758   1.001   1.838   4.654  0.1335 -1.7337  1.1272
 8766SOL     OW37759   0.117   3.885   3.936 -0.5679 -0.6738 -0.0075
 8766SOL    HW137760   0.083   3.881   4.025  0.1601  0.6985  0.3387
 8766SOL    HW237761   0.150   3.974   3.926 -2.5684  0.4220  3.4753
 8767SOL     OW37762   2.013   2.923   1.250 -0.2647  0.1356 -0.3525
 8767SOL    HW137763   2.059   3.005   1.236  0.2068  0.3157  2.2174
 8767SOL    HW237764   1.971   2.914   1.165  0.2782  0.5870 -0.6673
 8768SOL     OW37765   4.156   4.512   0.061 -0.7790 -0.2388 -0.2523
 8768SOL    HW137766   4.116   4.597   0.073 -1.3636 -0.6034  0.3916
 8768SOL    HW237767   4.104   4.464   0.126  0.2682 -1.7396 -0.4994
 8769SOL     OW37768   0.365   1.712   7.814 -0.3090 -0.0904  0.0823
 8769SOL    HW137769   0.354   1.736   7.722  1.2943 -3.4691 -0.9707
 8769SOL    HW237770   0.378   1.618   7.807 -1.4121 -0.3227  1.1541
 8770SOL     OW37771   2.639   4.180  13.296 -0.1088 -0.2578 -0.2443
 8770SOL    HW137772   2.610   4.242  13.229 -0.7152 -0.4792 -0.1877
 8770SOL    HW237773   2.732   4.180  13.272 -0.1974  0.9222 -0.5593
 8771SOL     OW37774   3.496   2.752   8.495 -0.1691 -0.6052  0.1317
 8771SOL    HW137775   3.523   2.841   8.470 -0.4690 -0.7012 -0.5357
 8771SOL    HW237776   3.535   2.743   8.582 -0.1550  0.5746  0.2579
 8772SOL     OW37777   0.387   3.771   5.431  0.3059  0.3957 -0.3794
 8772SOL    HW137778   0.442   3.748   5.357 -0.1326  0.5249 -0.7488
 8772SOL    HW237779   0.308   3.720   5.409  2.3144 -1.8963 -2.3142
 8773SOL     OW37780   2.391   1.676  17.534 -0.0500  0.0022  0.1479
 8773SOL    HW137781   2.385   1.587  17.500  1.4366 -0.3436  0.8051
 8773SOL    HW237782   2.390   1.651  17.626 -3.1270 -1.9696 -0.4190
 8774SOL     OW37783   4.557   2.986   7.927  0.0008 -0.5650 -0.0476
 8774SOL    HW137784   4.602   3.031   7.999 -0.4479  0.4888 -0.4180
 8774SOL    HW237785   4.465   2.984   7.954  0.1285  1.8293  0.6151
 8775SOL     OW37786   1.920   0.701   8.895  0.1197 -0.2841 -0.0666
 8775SOL    HW137787   1.868   0.675   8.971  1.8496 -1.9696  0.5464
 8775SOL    HW237788   1.962   0.782   8.924 -1.8454  0.4675  0.7038
 8776SOL     OW37789   4.561   0.369   8.862  0.4323  0.3309  0.1870
 8776SOL    HW137790   4.640   0.318   8.878  0.7376  0.1795 -1.8733
 8776SOL    HW237791   4.601   0.438   8.809 -1.4984  1.4042  0.1234
 8777SOL     OW37792   4.572   1.851  15.799 -0.0406  0.2569  0.0140
 8777SOL    HW137793   4.554   1.938  15.763  0.0115 -0.3696 -1.5370
 8777SOL    HW237794   4.665   1.863  15.820 -0.5291  0.5844  2.0136
 8778SOL     OW37795   4.337   2.658   6.336 -0.2960  0.1315 -0.3693
 8778SOL    HW137796   4.376   2.627   6.254 -2.6350  0.4897 -1.6368
 8778SOL    HW237797   4.244   2.642   6.318 -0.7423  1.9559  0.3571
 8779SOL     OW37798   1.468   4.600   2.956  0.4457 -0.0571 -0.1712
 8779SOL    HW137799   1.392   4.544   2.973  0.2941  0.4718  0.9042
 8779SOL    HW237800   1.442   4.628   2.868 -0.3216 -1.0417 -0.2571
 8780SOL     OW37801   1.554   0.524   8.099  0.0607  0.0043  0.2748
 8780SOL    HW137802   1.597   0.440   8.084 -1.4680 -1.1223  2.2542
 8780SOL    HW237803   1.543   0.555   8.009  0.4363 -0.0294  0.2145
 8781SOL     OW37804   3.648   0.722   7.351  0.0077  0.6144  0.4839
 8781SOL    HW137805   3.723   0.776   7.378  1.2795 -1.6426  1.4341
 8781SOL    HW237806   3.655   0.653   7.417  1.4110  0.9474  0.6836
 8782SOL     OW37807   4.415   3.184   5.943  0.4557 -0.1114  0.1427
 8782SOL    HW137808   4.479   3.188   5.872 -2.9949  1.3853 -2.8632
 8782SOL    HW237809   4.450   3.119   6.004 -0.1302 -2.9918 -2.6113
 8783SOL     OW37810   0.211   0.780   7.476 -0.3066 -0.1513  0.6635
 8783SOL    HW137811   0.289   0.814   7.520  0.0447  0.1608 -0.2137
 8783SOL    HW237812   0.150   0.843   7.514  0.3305 -0.1673  1.7016
 8784SOL     OW37813   1.951   0.213   6.509  0.3035 -0.0826  0.7849
 8784SOL    HW137814   1.867   0.192   6.549 -0.1550  1.4056  0.5770
 8784SOL    HW237815   2.017   0.163   6.558  1.9338  2.3380  1.0453
 8785SOL     OW37816   3.328   1.021   4.487  0.3197  0.5963  0.2258
 8785SOL    HW137817   3.260   1.041   4.552  0.5891 -0.9901  0.9953
 8785SOL    HW237818   3.367   1.108   4.475 -1.7212  1.3199 -1.1894
 8786SOL     OW37819   3.615   3.337  12.873  0.2241 -0.1414  0.3786
 8786SOL    HW137820   3.521   3.337  12.854  0.0698 -0.7132  1.1147
 8786SOL    HW237821   3.642   3.245  12.871 -0.4741 -0.3603  0.8483
 8787SOL     OW37822   2.620   3.362   2.721  0.8353  0.7419  0.6719
 8787SOL    HW137823   2.606   3.267   2.711 -1.4974  1.2126 -0.7438
 8787SOL    HW237824   2.708   3.376   2.755  1.5594 -0.5633 -0.6663
 8788SOL     OW37825   4.295   3.353   6.416 -0.3441  0.4214 -0.4561
 8788SOL    HW137826   4.386   3.333   6.394 -0.7900 -0.9023 -1.0948
 8788SOL    HW237827   4.268   3.273   6.462 -1.3348  0.9286 -0.1694
 8789SOL     OW37828   1.163   0.261  17.498  0.2623 -0.5883  0.2567
 8789SOL    HW137829   1.193   0.170  17.505  1.3397 -0.2429  0.1312
 8789SOL    HW237830   1.085   0.256  17.553  0.4126 -2.1447  0.3297
 8790SOL     OW37831   2.277   0.670   8.426  0.8320 -0.2866 -0.0570
 8790SOL    HW137832   2.253   0.761   8.411 -0.8567 -0.7107  0.1001
 8790SOL    HW237833   2.336   0.673   8.502  1.5538 -0.1692 -0.6179
 8791SOL     OW37834   3.454   2.312   9.704 -0.1358  0.1354  0.3713
 8791SOL    HW137835   3.397   2.267   9.766  0.5775 -0.1677  0.8066
 8791SOL    HW237836   3.391   2.345   9.640 -0.9662  0.6591  1.4675
 8792SOL     OW37837   3.707   2.067  11.475 -0.4147 -0.0215 -0.0185
 8792SOL    HW137838   3.784   2.101  11.519 -0.6866 -1.0002  1.2259
 8792SOL    HW237839   3.647   2.120  11.527 -0.8221 -1.3555  0.8877
 8793SOL     OW37840   4.601   2.643   3.883 -0.4353 -0.1721 -0.8250
 8793SOL    HW137841   4.666   2.693   3.834 -0.2763  1.1119  0.7109
 8793SOL    HW237842   4.578   2.565   3.832 -0.3422 -0.3032 -0.6694
 8794SOL     OW37843   2.378   2.401  10.107  0.1078 -0.1996 -0.1516
 8794SOL    HW137844   2.305   2.431  10.160 -1.1189  0.4780 -2.2384
 8794SOL    HW237845   2.452   2.433  10.158 -0.1132  0.9532 -0.5619
 8795SOL     OW37846   2.716   4.522   8.832  0.1977 -0.2966 -0.4072
 8795SOL    HW137847   2.799   4.482   8.859  0.3770  1.6053  1.8786
 8795SOL    HW237848   2.686   4.574   8.907 -0.6419 -2.0846  0.5167
 8796SOL     OW37849   0.947   0.071   7.109  0.1802 -0.0072  0.1405
 8796SOL    HW137850   0.854   0.050   7.119  0.0333  0.1589 -0.9078
 8796SOL    HW237851   0.979   4.721   7.060 -2.0846 -0.5989 -0.4226
 8797SOL     OW37852   0.603   0.778   2.515  0.4156  0.3750 -0.1886
 8797SOL    HW137853   0.580   0.862   2.555  2.0641 -0.0997  1.7901
 8797SOL    HW237854   0.561   0.787   2.430  0.3179  3.9518  0.2539
 8798SOL     OW37855   2.744   2.773   5.217 -0.9399  0.3785 -0.2780
 8798SOL    HW137856   2.742   2.678   5.231 -1.8795  0.2467 -1.2980
 8798SOL    HW237857   2.798   2.785   5.140 -1.4555 -2.2612 -1.0747
 8799SOL     OW37858   0.117   4.180   8.393  0.1050 -0.1313 -0.4069
 8799SOL    HW137859   0.210   4.181   8.370  0.3776  1.2680  0.8153
 8799SOL    HW237860   0.117   4.179   8.488 -5.6563  1.3871 -0.3814
 8800SOL     OW37861   1.713   1.879   1.028  0.0209 -0.2451 -0.3707
 8800SOL    HW137862   1.749   1.808   1.081 -1.6380  1.2293  2.7196
 8800SOL    HW237863   1.792   1.920   0.992 -1.1114 -0.1627 -2.7273
 8801SOL     OW37864   1.712   1.107   6.052  0.1891 -0.0712  0.4413
 8801SOL    HW137865   1.628   1.131   6.092  0.5647  0.1824  1.0817
 8801SOL    HW237866   1.729   1.026   6.099  1.3151  0.5017  1.0170
 8802SOL     OW37867   0.713   1.773  16.000 -0.0670  0.2530  0.3614
 8802SOL    HW137868   0.645   1.707  15.990 -0.0794  0.3462 -0.1706
 8802SOL    HW237869   0.677   1.829  15.931 -0.4126  2.5347  2.3709
 8803SOL     OW37870   0.504   0.262   9.330  0.3774  0.0262  0.0653
 8803SOL    HW137871   0.469   0.248   9.418 -1.6715  0.6910 -0.6425
 8803SOL    HW237872   0.521   0.356   9.339  1.4829  0.0463 -2.2938
 8804SOL     OW37873   1.588   0.953  15.865 -0.4017 -0.0184 -0.1883
 8804SOL    HW137874   1.612   1.042  15.889 -1.6703 -0.4308  2.6424
 8804SOL    HW237875   1.673   0.913  15.881 -0.8996 -0.3715  1.5957
 8805SOL     OW37876   3.423   1.936   3.044 -0.3826 -0.1768 -0.0932
 8805SOL    HW137877   3.502   1.980   3.013  0.0347 -1.3159 -0.6283
 8805SOL    HW237878   3.437   1.843   3.028  0.9552  0.1927 -1.0794
 8806SOL     OW37879   4.556   4.277   9.846  0.1287  0.2362  0.3470
 8806SOL    HW137880   4.584   4.207   9.788  0.2790  1.0246 -0.5264
 8806SOL    HW237881   4.566   4.248   9.937 -0.6736 -1.0977  0.0036
 8807SOL     OW37882   0.205   4.550   8.065 -0.5368  0.4224  0.0661
 8807SOL    HW137883   0.147   4.607   8.116  1.9943  2.0426  1.1582
 8807SOL    HW237884   0.285   4.545   8.116  1.2699  2.1394 -2.5835
 8808SOL     OW37885   4.434   0.275   8.428  0.0784  0.2524  0.7389
 8808SOL    HW137886   4.369   0.215   8.392 -1.6005  1.7178  1.3713
 8808SOL    HW237887   4.389   0.300   8.509 -0.6310 -0.8496  0.6924
 8809SOL     OW37888   1.243   1.542  10.097  0.5708  0.0549  0.5685
 8809SOL    HW137889   1.319   1.485  10.087  0.6406  0.0943  0.8897
 8809SOL    HW237890   1.183   1.472  10.073 -0.1343  1.0469 -0.5784
 8810SOL     OW37891   2.310   0.459  16.687  0.1326  0.7593  0.5534
 8810SOL    HW137892   2.379   0.466  16.622 -0.3516 -0.4651 -0.0813
 8810SOL    HW237893   2.234   0.486  16.635 -0.1870 -0.4756  0.3873
 8811SOL     OW37894   1.869   2.227   4.302 -0.0490 -0.3100 -0.3751
 8811SOL    HW137895   1.911   2.256   4.221  1.6044 -0.5469  0.3946
 8811SOL    HW237896   1.896   2.295   4.364  2.3865  0.8237 -2.7037
 8812SOL     OW37897   4.556   0.553   0.650 -0.1505  0.0693  0.1394
 8812SOL    HW137898   4.599   0.487   0.596  1.4953  0.4407  0.9831
 8812SOL    HW237899   4.569   0.633   0.598  1.6724  0.5946  1.3943
 8813SOL     OW37900   3.618   4.031   6.232 -0.6447  0.0033 -0.2855
 8813SOL    HW137901   3.636   3.943   6.201 -1.2214 -0.4566  0.7196
 8813SOL    HW237902   3.618   4.074   6.146 -2.5343 -0.7774 -0.6772
 8814SOL     OW37903   3.415   4.229  10.581 -0.2342  0.2228  0.3771
 8814SOL    HW137904   3.391   4.306  10.633 -0.1634  1.3553 -1.2663
 8814SOL    HW237905   3.475   4.178  10.637  0.3813 -0.8918 -1.3019
 8815SOL     OW37906   0.172   0.647   5.061  0.2714  0.0937  0.3096
 8815SOL    HW137907   0.207   0.558   5.069  1.7895  0.6524 -0.1001
 8815SOL    HW237908   0.093   0.621   5.014 -0.2824  2.7538 -0.1906
 8816SOL     OW37909   0.708   4.241   4.197  0.1962  0.4444  0.1391
 8816SOL    HW137910   0.783   4.270   4.249  1.6535  0.6509 -2.1041
 8816SOL    HW237911   0.734   4.153   4.168  0.4169  0.0714  1.4601
 8817SOL     OW37912   3.385   4.051   7.472  0.3400  0.2015 -0.8533
 8817SOL    HW137913   3.350   4.000   7.546 -2.2496  1.3299 -1.3229
 8817SOL    HW237914   3.310   4.105   7.446 -0.2859  0.5194  1.6128
 8818SOL     OW37915   2.481   1.026   4.469  0.0625 -0.1241 -0.2360
 8818SOL    HW137916   2.410   1.026   4.405  1.2301 -0.4765 -1.5420
 8818SOL    HW237917   2.429   1.015   4.549  2.0910  0.0770  1.1110
 8819SOL     OW37918   2.713   0.877   3.171  0.2730 -0.2171  0.7235
 8819SOL    HW137919   2.699   0.930   3.093 -0.8358 -1.5948 -0.0147
 8819SOL    HW237920   2.716   0.945   3.238  0.6661 -0.7119  1.2153
 8820SOL     OW37921   2.640   2.704   6.734 -0.1750 -0.8800 -0.8213
 8820SOL    HW137922   2.573   2.742   6.677 -0.4192  0.1737  0.1631
 8820SOL    HW237923   2.638   2.611   6.708  0.1506 -1.1820  0.2365
 8821SOL     OW37924   2.565   1.374   0.425 -0.8100 -0.1722 -0.2616
 8821SOL    HW137925   2.557   1.327   0.507  1.1966  1.8189  1.0831
 8821SOL    HW237926   2.610   1.315   0.365 -1.6332 -0.6504 -0.4066
 8822SOL     OW37927   0.009   4.384  16.346  0.2335  0.8965 -0.8411
 8822SOL    HW137928   0.096   4.352  16.323 -0.7516 -2.3290 -0.0889
 8822SOL    HW237929   0.016   4.477  16.368  1.4894  1.0722 -1.9684
 8823SOL     OW37930   3.620   2.162  15.487  0.2607  0.5088  0.0520
 8823SOL    HW137931   3.646   2.232  15.547  1.6171  0.9098 -1.0008
 8823SOL    HW237932   3.690   2.160  15.421  0.2993  1.4744  0.0628
 8824SOL     OW37933   0.222   0.972   4.907  0.0991 -0.1801  0.0013
 8824SOL    HW137934   0.135   0.938   4.927 -0.2078  0.7434  0.2673
 8824SOL    HW237935   0.199   1.046   4.851 -0.4568  1.8069  2.8293
 8825SOL     OW37936   2.212   2.740   8.198 -0.0508 -0.2417  0.2690
 8825SOL    HW137937   2.155   2.713   8.270 -1.7759  0.9537 -0.6273
 8825SOL    HW237938   2.175   2.684   8.129 -1.1437  0.2950  0.4102
 8826SOL     OW37939   4.200   0.022   9.235 -0.0047  0.3276 -0.8333
 8826SOL    HW137940   4.247   4.705   9.308 -1.9780  2.5085  1.6487
 8826SOL    HW237941   4.159   0.100   9.272 -0.5368 -0.5678  0.4654
 8827SOL     OW37942   4.246   1.206   7.862 -0.2422 -0.2817  0.5942
 8827SOL    HW137943   4.187   1.238   7.794  1.1232 -2.1113 -1.4404
 8827SOL    HW237944   4.184   1.166   7.924 -1.4351  1.8367  0.7693
 8828SOL     OW37945   1.815   1.024  10.268 -0.2399 -0.6379  0.3762
 8828SOL    HW137946   1.834   0.939  10.229 -1.0319 -1.2565  1.3476
 8828SOL    HW237947   1.772   1.061  10.191 -0.8087  1.0335  1.4961
 8829SOL     OW37948   1.798   2.584   3.092 -0.5589  0.5852 -0.4959
 8829SOL    HW137949   1.717   2.620   3.058 -0.7683  1.1777  0.6391
 8829SOL    HW237950   1.796   2.613   3.183 -2.3942  2.4826 -1.1458
 8830SOL     OW37951   3.657   0.066   7.264 -0.9464  0.5393  0.2098
 8830SOL    HW137952   3.636   4.700   7.287  2.8596 -0.2908  0.4718
 8830SOL    HW237953   3.752   0.067   7.274 -0.7842 -0.4678 -1.3521
 8831SOL     OW37954   0.470   0.785   8.825  0.2831  0.0303 -0.2340
 8831SOL    HW137955   0.506   0.854   8.880  1.0851 -1.2874  0.9013
 8831SOL    HW237956   0.402   0.831   8.777 -0.3810  1.7087  2.3548
 8832SOL     OW37957   4.474   2.726  14.793  0.1047 -0.2773  0.0804
 8832SOL    HW137958   4.383   2.743  14.815 -0.3474 -0.7655 -1.4187
 8832SOL    HW237959   4.506   2.814  14.814  3.2968 -1.9408  2.2370
 8833SOL     OW37960   0.792   2.580  14.776 -0.0700  0.2541 -0.3233
 8833SOL    HW137961   0.814   2.671  14.795  2.9940 -0.1418 -2.0009
 8833SOL    HW237962   0.849   2.563  14.701 -0.2053  0.1447 -0.4001
 8834SOL     OW37963   0.394   1.235   8.442 -0.2661  0.0770 -0.4916
 8834SOL    HW137964   0.436   1.299   8.499 -1.3981  0.5847 -0.2113
 8834SOL    HW237965   0.423   1.154   8.484 -2.1023 -0.5476 -0.3851
 8835SOL     OW37966   0.297   2.912   6.001 -0.3014 -0.0292 -0.6149
 8835SOL    HW137967   0.392   2.915   5.990 -0.0068 -1.3559  1.5254
 8835SOL    HW237968   0.289   2.838   6.062  0.5605  0.4792  0.1239
 8836SOL     OW37969   2.327   1.976   8.398 -0.5422  0.0409  0.3531
 8836SOL    HW137970   2.417   1.970   8.429 -0.5312 -2.1540 -0.0831
 8836SOL    HW237971   2.321   1.918   8.322  1.4419  0.2277  0.0533
 8837SOL     OW37972   2.855   2.861   2.578 -0.0943  0.2445  0.2152
 8837SOL    HW137973   2.776   2.812   2.556  1.6711 -2.4869 -0.0607
 8837SOL    HW237974   2.881   2.805   2.651 -1.5796  0.6232  1.0235
 8838SOL     OW37975   3.896   2.132   4.403 -0.3194 -0.2989 -0.3442
 8838SOL    HW137976   3.952   2.133   4.480 -1.2478  0.2708  0.3197
 8838SOL    HW237977   3.899   2.037   4.396 -2.6330 -0.2853 -1.4291
 8839SOL     OW37978   2.051   2.758   2.590  0.5093  0.2153 -0.5653
 8839SOL    HW137979   1.978   2.699   2.610 -0.6927  1.5510 -0.9674
 8839SOL    HW237980   2.001   2.838   2.573  2.3763  1.3216 -0.8388
 8840SOL     OW37981   3.128   0.031   8.268 -0.3772  0.6568 -0.6555
 8840SOL    HW137982   3.069   0.083   8.323 -0.1267 -0.5990  0.8078
 8840SOL    HW237983   3.150   4.687   8.332 -0.1481  1.2066 -0.1443
 8841SOL     OW37984   0.607   3.441   7.184 -0.2546 -0.4656 -0.0326
 8841SOL    HW137985   0.572   3.392   7.109  0.1780 -1.2874  0.2992
 8841SOL    HW237986   0.641   3.521   7.144  1.3544 -1.5258 -0.7745
 8842SOL     OW37987   1.385   4.023   6.759 -0.2061  0.8268  0.3361
 8842SOL    HW137988   1.299   4.039   6.721 -0.8948 -2.3657  0.4969
 8842SOL    HW237989   1.434   4.104   6.744 -1.0433  1.5862  1.7441
 8843SOL     OW37990   0.896   2.840  11.317 -0.5933  0.6163  0.3490
 8843SOL    HW137991   0.989   2.862  11.325 -0.6052  1.3466 -1.4460
 8843SOL    HW237992   0.900   2.769  11.254  1.1600  0.5669  0.4990
 8844SOL     OW37993   1.738   4.091   0.594 -0.6156  0.0738  0.2183
 8844SOL    HW137994   1.683   4.159   0.634 -0.3820  0.7127 -0.5349
 8844SOL    HW237995   1.786   4.157   0.542  1.6861 -0.0771  2.1172
 8845SOL     OW37996   0.035   2.199   4.494  0.0139 -0.7692 -0.0641
 8845SOL    HW137997   4.705   2.263   4.449 -0.0269  0.0608  1.1662
 8845SOL    HW237998   4.717   2.189   4.579  0.6540  0.1737  0.3688
 8846SOL     OW37999   4.633   0.314   5.739 -0.1197 -0.1424 -0.6389
 8846SOL    HW138000   0.001   0.321   5.764 -0.5639  0.6873  0.8033
 8846SOL    HW238001   4.658   0.346   5.653  1.0650  1.2984  0.2588
 8847SOL     OW38002   3.454   3.478   6.544 -0.0544  0.1797  0.4077
 8847SOL    HW138003   3.547   3.454   6.550  0.0619  0.4256 -0.3915
 8847SOL    HW238004   3.427   3.413   6.609 -0.1911 -1.8529 -1.7049
 8848SOL     OW38005   3.400   3.551   7.900  0.1337 -0.5988 -0.5392
 8848SOL    HW138006   3.348   3.579   7.825  0.9408  0.1624 -0.8143
 8848SOL    HW238007   3.327   3.499   7.935 -2.2797  2.4592 -1.0333
 8849SOL     OW38008   3.751   1.158   3.385  0.5762  0.4143  0.1930
 8849SOL    HW138009   3.660   1.180   3.365  0.0616 -0.2009  1.8224
 8849SOL    HW238010   3.768   1.100   3.310  1.2907  1.0042 -0.1005
 8850SOL     OW38011   2.122   0.259   4.283 -0.4585 -0.0461  0.1064
 8850SOL    HW138012   2.072   0.333   4.316 -0.0231  0.8594 -1.2630
 8850SOL    HW238013   2.134   0.298   4.197 -1.7337 -1.1927 -0.5761
 8851SOL     OW38014   0.372   2.269   6.525 -0.0503 -0.1769 -0.7363
 8851SOL    HW138015   0.330   2.299   6.606 -0.6331 -1.2424 -0.6426
 8851SOL    HW238016   0.295   2.255   6.471 -1.5767  0.2548  1.3378
 8852SOL     OW38017   1.409   0.598   0.771  0.5958  0.2823 -0.4057
 8852SOL    HW138018   1.322   0.567   0.799  0.9569 -0.7438 -0.4028
 8852SOL    HW238019   1.386   0.628   0.684 -2.1072 -2.0353 -0.5145
 8853SOL     OW38020   1.741   2.868   4.117 -0.0683  0.6093 -0.1006
 8853SOL    HW138021   1.648   2.881   4.136 -0.1754  0.5544 -0.5910
 8853SOL    HW238022   1.752   2.923   4.040  0.2761  1.1545  0.3308
 8854SOL     OW38023   1.650   2.948   0.907 -0.3381  0.1174  0.2700
 8854SOL    HW138024   1.740   2.944   0.940  0.0820  0.7871 -0.7960
 8854SOL    HW238025   1.612   2.861   0.914 -0.5019  0.0615 -1.5225
 8855SOL     OW38026   1.566   0.523   5.367  0.5234  0.3099  0.3455
 8855SOL    HW138027   1.532   0.444   5.409 -0.3051  1.5775  2.0479
 8855SOL    HW238028   1.626   0.476   5.308  0.3245  0.4174  0.0582
 8856SOL     OW38029   0.217   0.439  16.910 -0.3007  0.0216 -0.6764
 8856SOL    HW138030   0.206   0.462  16.818 -1.2809 -2.7551 -1.2395
 8856SOL    HW238031   0.180   0.520  16.946  1.3265 -0.3158  1.7373
 8857SOL     OW38032   2.012   1.250   8.599  0.0706  0.2259 -0.1392
 8857SOL    HW138033   2.088   1.288   8.555 -1.6424  1.1663 -2.2766
 8857SOL    HW238034   2.012   1.159   8.569  1.3361  1.2552 -3.1613
 8858SOL     OW38035   1.365   0.015   7.896  0.1893  0.1494 -0.3897
 8858SOL    HW138036   1.372   4.683   7.974 -2.0182 -2.2239 -1.9161
 8858SOL    HW238037   1.339   0.098   7.936  0.2242  1.7088 -3.6708
 8859SOL     OW38038   3.245   1.337  16.418  0.2096 -0.1037  0.0843
 8859SOL    HW138039   3.291   1.294  16.489  1.2448  0.9936  0.0729
 8859SOL    HW238040   3.312   1.395  16.383  2.6286 -2.7075  0.4320
 8860SOL     OW38041   2.921   1.197   1.820  0.1659 -0.0135 -0.2135
 8860SOL    HW138042   2.871   1.164   1.895 -1.4387 -2.2851 -2.2865
 8860SOL    HW238043   2.945   1.118   1.772 -0.4277 -1.9943  2.7486
 8861SOL     OW38044   4.047   1.989  17.386  0.3600  0.2775  0.1567
 8861SOL    HW138045   4.088   1.918  17.337 -1.0334 -0.4848  0.1125
 8861SOL    HW238046   4.081   1.965  17.472 -0.8033 -1.2979  0.1627
 8862SOL     OW38047   3.416   3.414   5.088 -0.4171 -0.6935 -0.1678
 8862SOL    HW138048   3.395   3.376   5.003 -0.3799 -0.9376 -0.0697
 8862SOL    HW238049   3.511   3.426   5.085 -0.6614  1.0351 -0.6981
 8863SOL     OW38050   1.358   0.178   5.744 -0.2673  0.5044  0.0309
 8863SOL    HW138051   1.437   0.176   5.799  0.4419 -2.4099 -1.0896
 8863SOL    HW238052   1.361   0.271   5.723 -0.9037 -0.0205 -2.3801
 8864SOL     OW38053   2.426   3.273   3.717  0.1954 -0.1207 -0.2746
 8864SOL    HW138054   2.478   3.351   3.739 -1.7007  1.0395  0.1294
 8864SOL    HW238055   2.438   3.227   3.800  0.4118 -0.2230 -0.3609
 8865SOL     OW38056   0.506   2.022   7.365  0.2008  0.4228  0.5938
 8865SOL    HW138057   0.507   2.110   7.328  1.1589  0.3038  0.3526
 8865SOL    HW238058   0.500   1.967   7.286 -0.8651  2.2721 -0.6015
 8866SOL     OW38059   2.543   3.985   6.581 -0.1344 -0.3709  0.7137
 8866SOL    HW138060   2.588   3.909   6.545 -1.1124 -0.4447 -0.3628
 8866SOL    HW238061   2.459   3.945   6.601 -0.5338 -0.3559 -0.9519
 8867SOL     OW38062   1.598   1.873   7.264 -0.0259  0.1751 -0.1534
 8867SOL    HW138063   1.515   1.885   7.312 -0.8405 -1.0597 -1.2635
 8867SOL    HW238064   1.612   1.953   7.214 -1.6529  0.6925  0.1895
 8868SOL     OW38065   0.359   4.284   6.432 -0.7327 -0.2810 -0.3188
 8868SOL    HW138066   0.351   4.201   6.480 -1.2731  0.4481  0.8487
 8868SOL    HW238067   0.376   4.251   6.344  1.2860  0.1172 -0.0802
 8869SOL     OW38068   1.756   1.377   7.370  0.1949  0.2794 -0.3489
 8869SOL    HW138069   1.757   1.337   7.283 -0.7911  2.0377 -1.1585
 8869SOL    HW238070   1.661   1.386   7.371  0.3307  2.2183 -3.6673
 8870SOL     OW38071   2.535   3.812   2.902  1.0339  0.4823  0.0024
 8870SOL    HW138072   2.561   3.748   2.969  0.5694 -0.2754 -0.5372
 8870SOL    HW238073   2.573   3.895   2.930 -1.5681  1.1412  1.5726
 8871SOL     OW38074   0.265   3.132   4.420  0.8236 -0.0162 -0.4147
 8871SOL    HW138075   0.192   3.073   4.403  1.9667 -1.4079 -0.5322
 8871SOL    HW238076   0.221   3.215   4.436  2.2430  0.7575 -0.5205
 8872SOL     OW38077   3.856   1.071   7.852  0.1082 -0.3478 -0.2520
 8872SOL    HW138078   3.769   1.095   7.819  1.2403  0.5499 -2.5609
 8872SOL    HW238079   3.900   1.029   7.778  3.6789 -0.0134  1.6997
 8873SOL     OW38080   3.963   2.183   6.967 -0.0337 -0.4726 -0.0588
 8873SOL    HW138081   4.016   2.104   6.964  0.4745 -0.1741  1.0621
 8873SOL    HW238082   3.890   2.142   7.014 -2.1978  1.1378 -1.9984
 8874SOL     OW38083   2.511   3.388   9.205  0.2563  0.1039  0.5227
 8874SOL    HW138084   2.466   3.429   9.279  2.2371  0.6534  1.4301
 8874SOL    HW238085   2.553   3.314   9.247  0.0650 -1.8057 -2.6430
 8875SOL     OW38086   0.976   1.355   6.841  0.2281  0.1912 -0.4625
 8875SOL    HW138087   1.069   1.336   6.830  0.5831  1.7373 -0.0889
 8875SOL    HW238088   0.962   1.321   6.930  0.9474  0.0824 -0.3923
 8876SOL     OW38089   3.904   2.306   3.620  0.0742  0.3580 -0.0668
 8876SOL    HW138090   3.969   2.270   3.680  0.9899  2.7396  0.3641
 8876SOL    HW238091   3.827   2.259   3.651 -0.7084  0.4024 -1.9523
 8877SOL     OW38092   0.578   0.201  12.559 -0.8152  0.2153 -0.2031
 8877SOL    HW138093   0.643   0.246  12.504  0.2901 -0.4214  0.5714
 8877SOL    HW238094   0.627   0.210  12.641  0.0709  0.1948 -0.7212
 8878SOL     OW38095   4.335   1.313   2.811 -0.2951  0.0838 -0.2430
 8878SOL    HW138096   4.353   1.352   2.725 -1.2724 -0.7299 -0.8322
 8878SOL    HW238097   4.249   1.273   2.793  0.7464 -2.2167 -0.0519
 8879SOL     OW38098   1.316   3.612   7.228 -0.5129 -0.1041  0.1089
 8879SOL    HW138099   1.293   3.644   7.141 -1.5648 -1.0461  0.0396
 8879SOL    HW238100   1.256   3.656   7.289  0.9038 -1.5255  2.5102
 8880SOL     OW38101   0.358   2.237   4.843  0.1961  0.3094 -0.5308
 8880SOL    HW138102   0.339   2.151   4.879 -1.4952  0.2798 -1.4784
 8880SOL    HW238103   0.331   2.303   4.907  0.2131 -0.3657  0.1685
 8881SOL     OW38104   0.323   1.057  11.648  0.2029 -0.0887 -0.3866
 8881SOL    HW138105   0.333   1.144  11.687 -0.2935 -0.0497 -0.3521
 8881SOL    HW238106   0.387   1.062  11.576  0.3697 -0.5480 -0.2669
 8882SOL     OW38107   0.652   2.757   2.836  0.2920  0.1529  0.2148
 8882SOL    HW138108   0.604   2.681   2.870  2.8908 -2.1608 -1.2607
 8882SOL    HW238109   0.657   2.747   2.741  1.7058  0.4106  0.2653
 8883SOL     OW38110   2.310   4.290   2.092  0.7107 -0.1482 -0.7035
 8883SOL    HW138111   2.400   4.305   2.063  1.1489  0.7538  1.0943
 8883SOL    HW238112   2.265   4.260   2.013 -0.3926 -0.8900  0.2045
 8884SOL     OW38113   2.739   3.343   2.428 -0.2382  0.1177 -0.5771
 8884SOL    HW138114   2.741   3.256   2.468  1.4284  1.8380  3.0712
 8884SOL    HW238115   2.732   3.391   2.511  2.6599  1.4502 -1.0777
 8885SOL     OW38116   2.557   3.635   2.665 -0.2677  0.4049  0.1981
 8885SOL    HW138117   2.564   3.691   2.743  0.6659  1.2877 -0.5276
 8885SOL    HW238118   2.554   3.546   2.699  1.1395 -0.2914 -1.5432
 8886SOL     OW38119   2.278   2.790  17.398 -0.1246 -0.1396  0.1052
 8886SOL    HW138120   2.342   2.760  17.333  0.4247 -0.8728  0.9904
 8886SOL    HW238121   2.210   2.831  17.344 -0.2294 -0.0967  0.2705
 8887SOL     OW38122   0.750   0.185   6.802  0.3126 -0.0299  0.2116
 8887SOL    HW138123   0.789   0.241   6.869 -0.9656 -0.3637  1.2440
 8887SOL    HW238124   0.657   0.191   6.825 -0.0482 -0.6674 -1.0538
 8888SOL     OW38125   0.351   4.508   7.247  0.0614  0.2085 -0.3140
 8888SOL    HW138126   0.353   4.543   7.336  3.3914 -0.8695  0.0524
 8888SOL    HW238127   0.400   4.426   7.258  0.5352  0.6446  0.8222
 8889SOL     OW38128   3.607   1.242  14.994  0.5188 -0.1037  0.2262
 8889SOL    HW138129   3.519   1.209  14.976  0.8349 -0.0297 -1.4836
 8889SOL    HW238130   3.607   1.317  14.935  3.8145  0.8449  1.4429
 8890SOL     OW38131   3.612   3.992  11.024 -0.3842 -0.2379 -0.5204
 8890SOL    HW138132   3.619   3.906  11.065  0.2515 -0.2182 -0.5909
 8890SOL    HW238133   3.525   3.985  10.984 -0.7148 -0.9042  0.3108
 8891SOL     OW38134   1.688   0.051   8.776 -0.3036 -0.7326 -0.2380
 8891SOL    HW138135   1.618   4.715   8.754 -0.5231 -0.6307  0.1894
 8891SOL    HW238136   1.760   4.720   8.745  1.0539  1.7550 -1.5363
 8892SOL     OW38137   4.154   0.348   7.374  0.2224 -0.3494  0.1728
 8892SOL    HW138138   4.205   0.390   7.444  1.7410 -0.3440 -0.9283
 8892SOL    HW238139   4.222   0.337   7.307 -1.8065 -1.3631 -1.7265
 8893SOL     OW38140   1.896   2.500   8.781 -0.1098 -0.3303 -0.7272
 8893SOL    HW138141   1.944   2.582   8.792  0.1369 -0.3125 -1.9629
 8893SOL    HW238142   1.814   2.533   8.746 -0.1166 -0.5299 -0.8985
 8894SOL     OW38143   3.791   4.568   3.956  0.1219 -0.2350  0.0928
 8894SOL    HW138144   3.883   4.559   3.934  0.3103 -1.2251  1.2876
 8894SOL    HW238145   3.750   4.530   3.878  0.4189 -0.0690 -0.1407
 8895SOL     OW38146   4.260   2.676  16.912  0.0424  0.1172 -0.0132
 8895SOL    HW138147   4.221   2.759  16.939 -1.7358 -0.6331 -0.2546
 8895SOL    HW238148   4.184   2.627  16.881  1.9963 -3.0982  0.2765
 8896SOL     OW38149   3.065   0.477  17.526  0.3619 -0.4589  0.3573
 8896SOL    HW138150   2.992   0.419  17.500  0.8161  0.1618 -2.3418
 8896SOL    HW238151   3.130   0.435  17.469  1.5224  0.1670  1.2239
 8897SOL     OW38152   1.223   3.785   0.226  0.2820  0.0765  0.4647
 8897SOL    HW138153   1.169   3.733   0.285  0.1641  1.5084  1.6131
 8897SOL    HW238154   1.160   3.813   0.160  0.9716 -1.5316 -0.8834
 8898SOL     OW38155   3.780   4.337   3.577 -0.1206 -0.2586  0.0248
 8898SOL    HW138156   3.693   4.358   3.612 -0.9124  0.3547 -2.2761
 8898SOL    HW238157   3.833   4.366   3.651 -1.6944 -0.5583  1.2885
 8899SOL     OW38158   0.449   1.061   3.365  0.4330 -0.2264  0.0681
 8899SOL    HW138159   0.538   1.044   3.336 -0.4793 -2.1141 -1.6170
 8899SOL    HW238160   0.436   0.989   3.426  0.8561 -0.1429  0.2565
 8900SOL     OW38161   3.344   3.435  14.626  0.3585  0.2823 -0.2376
 8900SOL    HW138162   3.385   3.516  14.593  0.7368  0.3189  0.3246
 8900SOL    HW238163   3.281   3.479  14.684 -0.1425  1.0290 -1.3498
 8901SOL     OW38164   3.327   2.851   5.393  0.2460  0.0610  0.3630
 8901SOL    HW138165   3.422   2.864   5.397  0.4595 -1.7684  1.5413
 8901SOL    HW238166   3.300   2.928   5.442 -0.5609 -0.0757  0.1301
 8902SOL     OW38167   3.173   3.796  14.667 -0.0480 -0.2441  0.5000
 8902SOL    HW138168   3.081   3.821  14.667 -0.3779 -1.4362  1.4046
 8902SOL    HW238169   3.213   3.864  14.613  0.6043 -0.2080  1.0163
 8903SOL     OW38170   2.531   2.865   3.155  0.1540  0.4572  0.3993
 8903SOL    HW138171   2.452   2.811   3.147  1.6707 -1.6291 -0.5490
 8903SOL    HW238172   2.570   2.856   3.068 -1.5317  0.1642 -0.3331
 8904SOL     OW38173   2.526   3.198   0.173  0.3349  0.2785  0.2281
 8904SOL    HW138174   2.603   3.224   0.223  1.2220 -2.0913  0.0722
 8904SOL    HW238175   2.558   3.166   0.088 -1.3680 -0.2440 -0.2212
 8905SOL     OW38176   0.572   1.274   6.858 -0.5009 -0.6043  0.4210
 8905SOL    HW138177   0.531   1.261   6.772  0.6473 -0.3912 -0.1620
 8905SOL    HW238178   0.651   1.225   6.833 -0.5056 -0.6470  0.4899
 8906SOL     OW38179   0.472   2.736  15.770  0.7221 -0.1800 -0.1305
 8906SOL    HW138180   0.388   2.747  15.727 -0.0808 -1.0453  1.2473
 8906SOL    HW238181   0.467   2.641  15.776  3.1104 -0.3204 -0.3689
 8907SOL     OW38182   2.142   3.692   3.152  0.2869  0.6932  0.0817
 8907SOL    HW138183   2.105   3.621   3.205 -0.0316  0.5389 -0.3458
 8907SOL    HW238184   2.071   3.724   3.097  1.2043  0.4248 -1.2516
 8908SOL     OW38185   2.501   1.758  15.521 -0.2904  0.3468  0.3013
 8908SOL    HW138186   2.445   1.692  15.562  0.9040 -1.1776 -0.5511
 8908SOL    HW238187   2.571   1.702  15.488  0.0060 -0.0839  1.6293
 8909SOL     OW38188   2.892   0.463   9.059 -0.3729 -0.1774  0.2630
 8909SOL    HW138189   2.942   0.382   9.046  0.7218  1.0476 -3.1122
 8909SOL    HW238190   2.870   0.464   9.153 -1.4532  1.0866 -0.0090
 8910SOL     OW38191   2.081   2.374   4.676 -0.5702 -0.4853  1.0454
 8910SOL    HW138192   1.999   2.355   4.721 -0.7250 -0.6524  0.6908
 8910SOL    HW238193   2.047   2.384   4.587  0.1959  0.4309  0.8498
 8911SOL     OW38194   0.992   4.074  11.297 -0.3049 -0.1572  0.5861
 8911SOL    HW138195   0.966   3.993  11.340 -0.2437 -0.3754  0.2105
 8911SOL    HW238196   1.022   4.044  11.211  2.8709  0.8899  1.3155
 8912SOL     OW38197   4.560   2.329   1.752 -0.3945  0.7890 -0.1426
 8912SOL    HW138198   4.577   2.283   1.834  1.6479 -1.0605 -1.6021
 8912SOL    HW238199   4.514   2.259   1.707 -0.7756  1.3266 -0.5864
 8913SOL     OW38200   0.768   2.923   4.990  0.7063 -0.1796 -0.4291
 8913SOL    HW138201   0.764   2.976   4.910 -1.0685 -2.2899 -1.7316
 8913SOL    HW238202   0.817   2.972   5.057  0.8184  0.8607 -1.2608
 8914SOL     OW38203   4.033   3.063   8.246 -0.1301  0.2757 -0.6852
 8914SOL    HW138204   4.081   3.025   8.320  2.5416  2.6157 -1.2135
 8914SOL    HW238205   3.971   2.993   8.228 -0.0265 -0.3144  1.2838
 8915SOL     OW38206   2.923   2.761   2.825  0.0030 -0.2056 -0.3667
 8915SOL    HW138207   2.906   2.670   2.851 -1.4518 -0.3444 -1.7743
 8915SOL    HW238208   3.007   2.787   2.863  0.3747  0.2426 -1.4848
 8916SOL     OW38209   2.826   0.553   9.309 -0.2583  0.1830  0.2566
 8916SOL    HW138210   2.792   0.624   9.254 -1.4099  0.0361  0.7683
 8916SOL    HW238211   2.749   0.496   9.319 -1.5246  1.9496  0.7067
 8917SOL     OW38212   2.339   0.303   2.202  0.0418 -0.4528 -0.0244
 8917SOL    HW138213   2.426   0.329   2.173  1.1207 -0.8975  2.7700
 8917SOL    HW238214   2.302   0.388   2.227 -0.0354  0.0664 -1.9212
 8918SOL     OW38215   4.578   0.207   2.040  0.6781  0.2177  0.2484
 8918SOL    HW138216   4.568   0.172   1.952 -0.7482  0.4100  0.3260
 8918SOL    HW238217   4.489   0.234   2.062  1.5863  1.5567  2.3321
 8919SOL     OW38218   2.569   1.310   3.297 -0.4102  0.0932  0.0110
 8919SOL    HW138219   2.506   1.337   3.365  0.5501  0.0397  0.9322
 8919SOL    HW238220   2.508   1.319   3.224 -1.8463  1.5720  1.3739
 8920SOL     OW38221   3.671   1.736   3.339 -0.2776  0.0759  0.2933
 8920SOL    HW138222   3.667   1.736   3.243 -0.1892  0.0163  0.2897
 8920SOL    HW238223   3.737   1.800   3.363  0.7023 -0.4137 -1.1113
 8921SOL     OW38224   4.685   0.484  17.151 -0.0772 -0.0702  0.2855
 8921SOL    HW138225   0.021   0.524  17.214  1.8769 -1.1028 -0.9201
 8921SOL    HW238226   0.001   0.398  17.152 -1.6922 -0.8256 -0.3542
 8922SOL     OW38227   4.478   1.337   3.024 -0.3272  0.1038 -0.4117
 8922SOL    HW138228   4.401   1.333   3.081  1.3458 -2.3366  1.6794
 8922SOL    HW238229   4.432   1.344   2.941 -2.1482 -0.9689  0.5196
 8923SOL     OW38230   2.346   3.266   2.820  0.5171  0.1079 -0.4445
 8923SOL    HW138231   2.400   3.327   2.869  0.8240 -1.8098  1.6292
 8923SOL    HW238232   2.309   3.320   2.751 -0.3341 -1.8651 -1.5524
 8924SOL     OW38233   4.644   0.268   5.320 -0.5129 -0.1309  0.0094
 8924SOL    HW138234   4.591   0.251   5.398  0.2395  2.8932  1.1738
 8924SOL    HW238235   4.707   0.196   5.327 -1.2980 -0.9638 -1.5461
 8925SOL     OW38236   0.973   3.336   2.124 -0.0023 -0.4136 -0.0374
 8925SOL    HW138237   0.912   3.318   2.196  1.0024  1.3166  1.2467
 8925SOL    HW238238   0.985   3.430   2.135 -0.8693 -0.4741  1.3994
 8926SOL     OW38239   0.070   2.953   0.586  0.1317 -0.1117  0.3599
 8926SOL    HW138240   0.137   2.953   0.518  0.1223 -2.4755  0.3521
 8926SOL    HW238241   0.076   3.044   0.613 -2.1551  0.7898 -2.1928
 8927SOL     OW38242   1.283   1.546   5.939  0.6300 -0.2229 -0.2915
 8927SOL    HW138243   1.310   1.613   5.876  3.8406 -0.2088  1.0880
 8927SOL    HW238244   1.220   1.591   5.995  0.2487 -1.0340 -0.0619
 8928SOL     OW38245   0.872   4.170  11.617 -0.4167  0.4524 -0.6494
 8928SOL    HW138246   0.815   4.122  11.557 -1.9929  0.6405  0.7062
 8928SOL    HW238247   0.868   4.125  11.701 -0.3657  1.8004  0.0723
 8929SOL     OW38248   4.554   4.629   8.828  0.1512 -0.2413  0.1592
 8929SOL    HW138249   4.625   4.690   8.850  0.1545 -0.3223  0.3743
 8929SOL    HW238250   4.502   4.618   8.907  0.5224  0.0640  0.4436
 8930SOL     OW38251   3.201   2.325  10.041 -0.0841  0.0724 -0.1085
 8930SOL    HW138252   3.214   2.360  10.129  3.8030 -0.4058 -0.4918
 8930SOL    HW238253   3.137   2.254  10.052  1.7099 -1.6838 -0.9123
 8931SOL     OW38254   4.235   2.443   3.588 -0.0278  0.0574  0.2636
 8931SOL    HW138255   4.249   2.434   3.493 -2.0687  1.5140 -0.1737
 8931SOL    HW238256   4.283   2.523   3.609  1.8465 -1.2448  0.9846
 8932SOL     OW38257   0.854   3.268   9.675  0.0683  0.1901  0.0255
 8932SOL    HW138258   0.798   3.346   9.680 -1.7600 -0.9635 -2.0577
 8932SOL    HW238259   0.944   3.302   9.672  0.8796 -2.0209 -0.3222
 8933SOL     OW38260   3.996   3.005  15.323 -0.3133 -0.0647  0.1317
 8933SOL    HW138261   3.952   3.075  15.275 -1.2676  0.5541  1.8913
 8933SOL    HW238262   4.063   3.052  15.373 -0.1253  1.5456 -1.6058
 8934SOL     OW38263   2.179   4.055   1.852 -0.2217 -0.0639  0.3560
 8934SOL    HW138264   2.126   4.017   1.781  0.7897 -0.9888  0.0963
 8934SOL    HW238265   2.258   4.004   1.835  0.3200  1.4276 -1.6196
 8935SOL     OW38266   2.900   1.324   3.849  0.1875 -0.4575 -0.5925
 8935SOL    HW138267   2.957   1.281   3.912  0.9999  1.0688 -0.2627
 8935SOL    HW238268   2.851   1.380   3.909 -0.0214  1.9416 -2.9848
 8936SOL     OW38269   0.304   3.586   6.700 -0.6433  0.6585 -0.1778
 8936SOL    HW138270   0.274   3.654   6.760  3.4732  2.4576 -0.1650
 8936SOL    HW238271   0.312   3.515   6.764 -1.2666  0.3669 -0.4184
 8937SOL     OW38272   0.152   1.370   5.551  0.4135 -0.4653 -0.2520
 8937SOL    HW138273   0.202   1.389   5.472  1.3031  0.1217  0.4481
 8937SOL    HW238274   0.081   1.319   5.513 -1.4486  1.9589  0.0157
 8938SOL     OW38275   3.436   0.501  11.200 -0.5110  0.1128 -0.6633
 8938SOL    HW138276   3.504   0.538  11.257  2.2040 -2.5410 -2.2052
 8938SOL    HW238277   3.465   0.539  11.117  1.9816  0.1056  0.2058
 8939SOL     OW38278   3.657   1.698   7.781  0.4948 -0.0592  1.0030
 8939SOL    HW138279   3.675   1.762   7.712  0.6491 -1.9582 -0.7534
 8939SOL    HW238280   3.568   1.725   7.801  0.4965  1.0828 -0.4981
 8940SOL     OW38281   3.355   4.172  13.178  0.2909  0.9140  0.1632
 8940SOL    HW138282   3.389   4.221  13.103 -0.6393  1.3630  0.0413
 8940SOL    HW238283   3.436   4.163  13.228 -0.5945 -2.1420  1.0508
 8941SOL     OW38284   2.845   2.371   1.920  0.6031 -0.2121 -0.2829
 8941SOL    HW138285   2.863   2.460   1.892  0.6425  0.5756  2.2330
 8941SOL    HW238286   2.827   2.378   2.014 -1.4312  0.6300 -0.7419
 8942SOL     OW38287   1.615   1.237  10.146 -0.0325 -0.4064  0.2167
 8942SOL    HW138288   1.611   1.263  10.238 -2.9659 -0.6659  0.1403
 8942SOL    HW238289   1.554   1.164  10.143  1.1814 -1.5008  1.7825
 8943SOL     OW38290   2.122   0.928   5.447 -0.2057  0.9475  0.3436
 8943SOL    HW138291   2.031   0.937   5.420 -0.5974 -1.3398  0.8669
 8943SOL    HW238292   2.167   0.891   5.371 -1.0707 -2.4551  1.4859
 8944SOL     OW38293   1.922   1.066   0.819  0.2696 -0.1836 -0.2455
 8944SOL    HW138294   1.917   1.160   0.802  1.7501 -0.3769 -1.8039
 8944SOL    HW238295   1.850   1.027   0.769  0.6191 -1.3335  0.1567
 8945SOL     OW38296   2.513   2.265  12.098  0.0597  0.2781 -0.1029
 8945SOL    HW138297   2.427   2.223  12.094 -1.2869  3.0324  0.4883
 8945SOL    HW238298   2.508   2.306  12.184 -0.6603 -1.7441  0.8231
 8946SOL     OW38299   4.549   3.559  13.468  0.5820  0.3206  0.0055
 8946SOL    HW138300   4.478   3.615  13.500  0.6885  1.0146 -1.0036
 8946SOL    HW238301   4.579   3.618  13.399 -0.7592  0.6727 -0.2692
 8947SOL     OW38302   4.696   1.223   2.624  0.1485  0.2947  0.7227
 8947SOL    HW138303   4.693   1.199   2.531  2.0565  1.3478  0.3999
 8947SOL    HW238304   4.607   1.198   2.650  0.3713 -0.8854  0.3582
 8948SOL     OW38305   0.933   4.642   7.391 -0.5501 -0.3624 -0.4581
 8948SOL    HW138306   1.002   4.588   7.430 -1.8278 -0.9067  1.0808
 8948SOL    HW238307   0.882   4.574   7.347 -1.1188  0.8629 -1.6819
 8949SOL     OW38308   2.588   1.305  17.311 -0.3145  0.2147  0.1976
 8949SOL    HW138309   2.499   1.339  17.320  0.1899  1.8621 -1.1839
 8949SOL    HW238310   2.593   1.285  17.217 -0.2629  1.7969 -0.1313
 8950SOL     OW38311   3.453   1.455   5.957 -0.2953  0.2830 -0.3305
 8950SOL    HW138312   3.439   1.515   5.884  1.3726 -0.7006 -1.4659
 8950SOL    HW238313   3.543   1.478   5.980 -0.9439  1.7125  0.7780
 8951SOL     OW38314   0.853   2.179   2.408 -0.0794 -0.6217 -0.6124
 8951SOL    HW138315   0.823   2.112   2.469  0.7358 -0.3882  0.0370
 8951SOL    HW238316   0.788   2.246   2.430 -0.9624 -1.3362 -1.0206
 8952SOL     OW38317   1.979   0.710   5.560 -0.2508 -0.3518 -0.4619
 8952SOL    HW138318   2.049   0.655   5.596 -1.6157 -0.8532  1.4092
 8952SOL    HW238319   2.029   0.786   5.531  2.6842 -2.7901 -1.8633
 8953SOL     OW38320   2.963   3.077   3.645  0.1722  0.4169  0.1884
 8953SOL    HW138321   2.976   3.171   3.632 -1.8942  0.9691  2.1066
 8953SOL    HW238322   2.868   3.081   3.657  0.0989 -0.1174 -0.1869
 8954SOL     OW38323   0.139   3.483   4.513 -0.1010 -0.3527  0.1165
 8954SOL    HW138324   0.179   3.560   4.474  0.5816  0.3948  2.2924
 8954SOL    HW238325   0.155   3.495   4.607  0.4687 -0.9129  0.0900
 8955SOL     OW38326   4.515   2.858   6.890  0.0749  0.3638 -0.2875
 8955SOL    HW138327   4.579   2.878   6.821  0.2158 -2.2763 -0.9300
 8955SOL    HW238328   4.565   2.816   6.960  1.7807  1.1479 -1.0497
 8956SOL     OW38329   0.290   3.090  16.066  0.4601 -0.7963  0.3415
 8956SOL    HW138330   0.342   3.012  16.045 -1.4505 -1.3816 -2.3435
 8956SOL    HW238331   0.331   3.095  16.152 -1.6802 -0.8101  1.3581
 8957SOL     OW38332   0.928   3.860  12.668  0.4236  0.7934  0.0870
 8957SOL    HW138333   0.905   3.953  12.662  2.8161  1.3472 -0.4051
 8957SOL    HW238334   0.936   3.848  12.763  1.9192  1.4313  0.0343
 8958SOL     OW38335   1.599   2.020   8.315 -0.2508  0.2105 -0.2476
 8958SOL    HW138336   1.506   2.002   8.306 -0.2868 -0.1519  0.7995
 8958SOL    HW238337   1.613   1.978   8.400  0.4664  1.3163  0.1863
 8959SOL     OW38338   1.017   4.203   2.349  0.1880  0.2386  0.7966
 8959SOL    HW138339   0.942   4.208   2.290 -0.4518  2.2919  1.7683
 8959SOL    HW238340   0.981   4.250   2.425  0.2346  3.2339 -1.0367
 8960SOL     OW38341   0.496   3.005   4.347  0.1437 -0.0739 -0.0776
 8960SOL    HW138342   0.420   3.054   4.376 -0.3430 -1.6072  1.2012
 8960SOL    HW238343   0.517   3.043   4.261 -0.1889 -0.7128 -0.4427
 8961SOL     OW38344   3.468   1.810   6.923 -0.1115  0.0449 -0.1778
 8961SOL    HW138345   3.387   1.815   6.974  0.4058  1.7206  0.4624
 8961SOL    HW238346   3.423   1.818   6.839  0.3600 -0.5713 -0.4887
 8962SOL     OW38347   3.122   3.957  11.487 -0.6314 -0.2566 -0.4132
 8962SOL    HW138348   3.154   4.017  11.419  2.8708 -0.0580  1.4289
 8962SOL    HW238349   3.062   4.010  11.540  1.3713  0.3345  1.2612
 8963SOL     OW38350   1.047   1.605   7.584  0.2857  0.8827 -0.2139
 8963SOL    HW138351   1.093   1.683   7.616 -2.2875  1.7803  1.2837
 8963SOL    HW238352   1.078   1.539   7.647 -0.8415 -0.8375 -1.4743
 8964SOL     OW38353   4.643   3.162  16.446 -0.1340  0.0865 -0.3691
 8964SOL    HW138354   4.623   3.070  16.426  1.4543 -0.2535 -0.4003
 8964SOL    HW238355   4.685   3.165  16.532 -3.4142  1.2947  1.1702
 8965SOL     OW38356   2.244   1.852   4.922 -0.0795 -0.4304  0.0965
 8965SOL    HW138357   2.167   1.827   4.872  0.0785  1.2679 -1.0097
 8965SOL    HW238358   2.207   1.893   5.001  0.5485  0.4721 -0.0809
 8966SOL     OW38359   2.743   2.612   7.200  0.8684 -0.1189  0.4347
 8966SOL    HW138360   2.735   2.532   7.148  0.1309  0.8210 -0.8990
 8966SOL    HW238361   2.793   2.589   7.279  3.0829 -0.9048 -1.2156
 8967SOL     OW38362   3.788   0.261  11.118  0.3315  0.1398  0.2941
 8967SOL    HW138363   3.835   0.344  11.119 -1.2137  1.0170 -1.8644
 8967SOL    HW238364   3.727   0.265  11.192  0.5299 -0.3212  0.4882
 8968SOL     OW38365   3.405   2.219  11.156  0.0348 -0.5057  0.0979
 8968SOL    HW138366   3.458   2.194  11.081  1.9101  0.4696  1.1131
 8968SOL    HW238367   3.455   2.285  11.204  0.8534 -1.7251  0.9236
 8969SOL     OW38368   0.770   0.793   4.112  0.2243 -0.1776  0.3849
 8969SOL    HW138369   0.788   0.827   4.200  1.2915  1.8050 -0.5965
 8969SOL    HW238370   0.837   0.724   4.107 -0.3306 -0.5931 -1.1755
 8970SOL     OW38371   1.131   2.345   8.924 -0.1729 -0.7226 -0.5422
 8970SOL    HW138372   1.047   2.376   8.957  0.2906 -0.5518  0.4796
 8970SOL    HW238373   1.184   2.345   9.004  0.6934  0.9049 -1.1007
 8971SOL     OW38374   3.183   4.411   2.191  0.1107 -0.1811 -0.1895
 8971SOL    HW138375   3.184   4.425   2.096  2.9836  0.4026 -0.0903
 8971SOL    HW238376   3.123   4.474   2.230  0.3660 -1.2360  1.8905
 8972SOL     OW38377   2.109   0.789  12.014 -0.5294  0.0187  0.1035
 8972SOL    HW138378   2.110   0.809  11.920  4.3718  1.5782  0.4821
 8972SOL    HW238379   2.190   0.833  12.041  0.3127 -2.2617  1.2431
 8973SOL     OW38380   4.204   1.449  16.357 -0.6369  0.1411  0.4200
 8973SOL    HW138381   4.234   1.524  16.306 -0.6280  0.1229  0.3982
 8973SOL    HW238382   4.196   1.495  16.441  1.7274  1.7554 -0.2446
 8974SOL     OW38383   1.738   0.475   7.504  0.6231  0.2356 -0.2099
 8974SOL    HW138384   1.735   0.411   7.576 -0.3481  1.5956  0.9706
 8974SOL    HW238385   1.831   0.496   7.508  0.6781 -0.1191  0.3309
 8975SOL     OW38386   1.441   3.998  16.509  0.0388  0.0524 -0.0367
 8975SOL    HW138387   1.413   3.921  16.558  1.9198 -0.4156  0.2871
 8975SOL    HW238388   1.376   3.999  16.439  1.1454  0.7239 -1.0666
 8976SOL     OW38389   4.393   0.446  12.742  0.3291 -0.1902 -0.2693
 8976SOL    HW138390   4.420   0.537  12.755 -1.6631  0.4996 -0.9916
 8976SOL    HW238391   4.471   0.399  12.715 -0.8277 -0.6958 -2.7434
 8977SOL     OW38392   3.493   0.276   5.845 -0.3782 -0.4014  0.0996
 8977SOL    HW138393   3.588   0.283   5.841 -0.4925  1.5488  0.5400
 8977SOL    HW238394   3.471   0.280   5.752  0.6274 -0.9038 -0.1637
 8978SOL     OW38395   3.702   2.899  15.045 -0.3081  0.1924  0.4304
 8978SOL    HW138396   3.648   2.957  14.991 -2.0509 -2.5776 -0.8301
 8978SOL    HW238397   3.656   2.904  15.129 -0.5732 -0.1355  0.3057
 8979SOL     OW38398   0.821   1.461   9.469 -0.0563  0.3974 -0.3845
 8979SOL    HW138399   0.809   1.552   9.440  0.4707 -0.0209 -1.8968
 8979SOL    HW238400   0.912   1.452   9.494  0.4013  1.7188 -1.5614
 8980SOL     OW38401   2.396   0.091   7.895  0.3183 -0.6372 -0.0993
 8980SOL    HW138402   2.439   0.070   7.812  1.0895  1.1889 -0.1525
 8980SOL    HW238403   2.471   0.118   7.947  0.0148 -0.8912  0.4727
 8981SOL     OW38404   2.967   0.221  15.597 -0.3587  0.2521 -0.4552
 8981SOL    HW138405   2.992   0.313  15.584  1.9182 -0.4119 -0.7641
 8981SOL    HW238406   3.050   0.175  15.610 -0.3311 -0.0456 -1.6872
 8982SOL     OW38407   4.687   1.625   4.932 -0.0057 -0.7152 -0.4533
 8982SOL    HW138408   4.693   1.598   4.840  0.9695  2.1677 -1.2449
 8982SOL    HW238409   4.596   1.655   4.928  0.7678  1.7076  0.1284
 8983SOL     OW38410   1.602   3.028   0.325  0.7624 -0.1227  0.1262
 8983SOL    HW138411   1.611   2.934   0.342  0.7356 -0.0701  0.4271
 8983SOL    HW238412   1.626   3.070   0.407  1.0255 -1.4886  0.7546
 8984SOL     OW38413   1.391   2.633   4.425  0.4834  0.1394  0.2967
 8984SOL    HW138414   1.406   2.557   4.369 -1.2810  0.6295 -0.8615
 8984SOL    HW238415   1.300   2.614   4.448  0.8594 -0.6351  1.1471
 8985SOL     OW38416   1.641   3.309   6.236  0.2397  0.0373  0.2139
 8985SOL    HW138417   1.584   3.371   6.190  0.0171 -0.8988 -0.7805
 8985SOL    HW238418   1.700   3.281   6.166  1.3029  1.4014  0.5939
 8986SOL     OW38419   0.303   3.705   2.159  0.2533  0.2818  0.3055
 8986SOL    HW138420   0.217   3.669   2.181 -0.2913  0.6232 -1.3130
 8986SOL    HW238421   0.316   3.692   2.065  0.6952 -0.0972  0.4191
 8987SOL     OW38422   2.325   3.138  12.889  0.0605 -0.4901 -0.0520
 8987SOL    HW138423   2.292   3.222  12.855 -1.9061 -0.7492  1.2475
 8987SOL    HW238424   2.243   3.089  12.895 -0.8205  0.7072 -2.0667
 8988SOL     OW38425   0.704   3.994  11.485 -0.0518  0.4044 -0.4571
 8988SOL    HW138426   0.705   4.008  11.390  2.7990 -3.1385 -0.9330
 8988SOL    HW238427   0.720   3.901  11.498 -0.1513  0.5471  0.6595
 8989SOL     OW38428   4.547   1.353   6.991 -0.1709  0.3418  0.5727
 8989SOL    HW138429   4.493   1.340   6.913  1.1208 -0.3855 -0.1919
 8989SOL    HW238430   4.604   1.276   6.996 -1.0704 -0.3796 -0.3141
 8990SOL     OW38431   0.376   4.057   6.010  0.3678  0.0937 -0.3577
 8990SOL    HW138432   0.298   4.109   5.992  0.3841 -0.4280 -1.9531
 8990SOL    HW238433   0.402   4.039   5.920  2.3217 -0.5587  0.3415
 8991SOL     OW38434   4.484   4.647   3.996 -0.2208 -0.2335  0.2374
 8991SOL    HW138435   4.435   4.585   3.942  0.4624  0.9682 -1.7580
 8991SOL    HW238436   4.441   0.004   3.968 -0.8581  0.2574  2.6157
 8992SOL     OW38437   3.528   4.123  14.570 -0.5454  0.3310 -0.0807
 8992SOL    HW138438   3.449   4.177  14.573 -0.4410  0.4667  0.1748
 8992SOL    HW238439   3.524   4.095  14.478  0.2888 -0.6043  0.1763
 8993SOL     OW38440   0.672   0.993   3.246 -0.4085 -0.2238 -0.4123
 8993SOL    HW138441   0.738   0.926   3.267  0.5945  0.7041 -0.6154
 8993SOL    HW238442   0.634   0.956   3.167 -0.5019  0.1130 -0.5220
 8994SOL     OW38443   2.327   0.262   4.872  0.3545  0.1075 -0.6382
 8994SOL    HW138444   2.352   0.353   4.857 -0.5820  0.7964  1.8334
 8994SOL    HW238445   2.267   0.268   4.947  0.1294  0.3895 -0.8392
 8995SOL     OW38446   3.793   3.701   0.878  0.0561 -0.0069  0.0137
 8995SOL    HW138447   3.761   3.637   0.814 -3.4473  0.5489  1.1744
 8995SOL    HW238448   3.722   3.765   0.884  0.0869  0.0074  0.2214
 8996SOL     OW38449   4.491   2.311  15.937 -0.2562  0.1738  0.5066
 8996SOL    HW138450   4.473   2.247  15.868  1.4506  0.8895 -0.5957
 8996SOL    HW238451   4.429   2.380  15.912  1.0873  1.3840  0.5633
 8997SOL     OW38452   2.186   0.062   4.110 -1.0318 -0.2083 -0.5792
 8997SOL    HW138453   2.144   0.094   4.190  0.2435 -3.6753  1.4998
 8997SOL    HW238454   2.116   0.082   4.048 -1.3467 -2.1508 -0.8543
 8998SOL     OW38455   1.849   2.297   7.076  0.0974  0.7244 -0.0454
 8998SOL    HW138456   1.865   2.343   7.159  1.0358 -1.4595  0.9995
 8998SOL    HW238457   1.885   2.210   7.095 -4.3082 -0.2511  3.9381
 8999SOL     OW38458   3.907   2.634   5.667 -0.6677 -0.0661  0.1247
 8999SOL    HW138459   3.865   2.682   5.595  1.0458  0.0590 -0.8100
 8999SOL    HW238460   3.841   2.654   5.733  0.0766 -3.2034  1.8069
 9000SOL     OW38461   4.380   0.805   0.655  0.4734 -0.2090  0.2523
 9000SOL    HW138462   4.419   0.881   0.698  1.5207 -1.0457  0.7986
 9000SOL    HW238463   4.397   0.826   0.564 -0.8988 -0.0555  0.0307
 9001SOL     OW38464   1.240   3.999   3.592 -0.7156  0.2037 -0.2833
 9001SOL    HW138465   1.222   4.002   3.686 -0.3595  0.8807 -0.2306
 9001SOL    HW238466   1.284   3.916   3.576 -3.4232 -1.0037 -1.4804
 9002SOL     OW38467   4.677   2.798  16.132  0.2085  0.4219 -0.0764
 9002SOL    HW138468   0.043   2.791  16.104 -0.2044  3.4225 -2.1814
 9002SOL    HW238469   4.628   2.772  16.054  2.0411  0.2557 -1.1641
 9003SOL     OW38470   3.540   1.306   2.720  0.1740  0.5156  0.2224
 9003SOL    HW138471   3.600   1.269   2.785 -3.2271 -2.4611  1.6547
 9003SOL    HW238472   3.462   1.252   2.735  0.0748  0.9595  1.2616
 9004SOL     OW38473   4.041   0.692   7.876 -0.6070 -0.3538 -0.7505
 9004SOL    HW138474   4.075   0.633   7.943 -0.0940  0.4221 -0.3300
 9004SOL    HW238475   3.962   0.727   7.916 -0.6881 -2.5411  0.9624
 9005SOL     OW38476   4.021   4.671   1.976  0.2077  0.3834  0.2721
 9005SOL    HW138477   4.027   4.611   2.050 -0.2851 -0.0850 -0.0643
 9005SOL    HW238478   3.935   4.713   1.978 -0.8138 -1.7117  0.6867
 9006SOL     OW38479   3.898   2.704   0.198 -0.4504  0.4293 -0.7644
 9006SOL    HW138480   3.851   2.776   0.240  0.5755 -0.9667  2.8109
 9006SOL    HW238481   3.840   2.634   0.229  1.3570 -1.0669 -0.7370
 9007SOL     OW38482   3.624   3.629  15.456  0.1012  0.1303 -0.3511
 9007SOL    HW138483   3.662   3.692  15.396  3.2321 -2.5899 -1.2193
 9007SOL    HW238484   3.580   3.572  15.393 -1.5047 -0.7228  1.5202
 9008SOL     OW38485   2.479   2.364   1.762 -0.1167  0.6050 -0.4588
 9008SOL    HW138486   2.477   2.357   1.857 -1.3653 -3.5935 -0.8008
 9008SOL    HW238487   2.484   2.273   1.734  0.6017  0.0039  1.6764
 9009SOL     OW38488   2.605   2.762  16.514 -0.2183  0.0806  0.3688
 9009SOL    HW138489   2.510   2.750  16.522  0.0922 -2.6759 -0.0998
 9009SOL    HW238490   2.626   2.725  16.600 -0.6210 -0.4430  0.2360
 9010SOL     OW38491   1.702   0.742  16.198  0.9214  0.1936  0.4493
 9010SOL    HW138492   1.739   0.752  16.110  2.0722  0.9040  1.0249
 9010SOL    HW238493   1.683   0.649  16.209 -0.1855  0.0584 -2.4042
 9011SOL     OW38494   4.511   3.446   8.536 -0.4970 -0.3470 -0.0091
 9011SOL    HW138495   4.553   3.529   8.517  0.0562 -0.5809  0.2073
 9011SOL    HW238496   4.445   3.483   8.595 -1.5799 -0.5134 -1.1122
 9012SOL     OW38497   2.534   3.057   0.976 -0.4039 -0.0392 -0.1418
 9012SOL    HW138498   2.613   3.007   0.955 -0.6120  0.1381 -1.2979
 9012SOL    HW238499   2.472   2.989   1.003 -1.3965  0.4387 -1.2277
 9013SOL     OW38500   0.340   3.049   9.220  0.6729 -0.7074  0.7019
 9013SOL    HW138501   0.362   2.978   9.160  0.2668  1.4654 -2.0417
 9013SOL    HW238502   0.425   3.094   9.222 -0.1357  0.8764 -0.0994
 9014SOL     OW38503   1.286   0.524   8.001  0.4159  0.1145  0.1289
 9014SOL    HW138504   1.362   0.563   7.957 -0.2650 -0.5859 -1.6867
 9014SOL    HW238505   1.221   0.593   7.984 -0.1952 -0.1627  1.3164
 9015SOL     OW38506   4.080   0.730  11.086 -0.1495  0.4294 -0.2535
 9015SOL    HW138507   4.073   0.694  10.997  1.1839  0.1812 -0.2585
 9015SOL    HW238508   4.167   0.770  11.082  0.5947 -1.1411  0.2117
 9016SOL     OW38509   2.175   3.734   2.696 -0.8286  0.1726 -0.0274
 9016SOL    HW138510   2.114   3.759   2.765 -0.1722  1.4274  0.1019
 9016SOL    HW238511   2.258   3.756   2.740 -0.7636 -0.2680  0.0694
 9017SOL     OW38512   3.245   1.645   2.960  0.0254  0.0706  0.1727
 9017SOL    HW138513   3.223   1.728   3.001  1.1115  1.0314 -1.2241
 9017SOL    HW238514   3.156   1.614   2.943  0.9293 -1.6147 -1.4490
 9018SOL     OW38515   0.384   1.305  15.868  0.1422  0.0205 -0.5139
 9018SOL    HW138516   0.307   1.310  15.925  1.6851  2.2484  1.3801
 9018SOL    HW238517   0.449   1.344  15.927 -2.4362  1.5697  1.2983
 9019SOL     OW38518   1.428   2.352   7.711 -0.4274 -0.2262 -0.4953
 9019SOL    HW138519   1.435   2.435   7.663  0.4054 -0.1959 -0.3197
 9019SOL    HW238520   1.466   2.387   7.792 -1.8745  1.0428 -0.3662
 9020SOL     OW38521   3.295   3.945  14.440  0.4279 -0.1066  0.4615
 9020SOL    HW138522   3.383   3.963  14.406 -0.2103  1.6230 -0.2673
 9020SOL    HW238523   3.293   3.850  14.436  0.7828 -0.2390  2.8779
 9021SOL     OW38524   4.526   3.972   3.299 -0.4723  0.0463  0.1037
 9021SOL    HW138525   4.475   3.986   3.219 -0.2718  0.4217  0.0417
 9021SOL    HW238526   4.471   3.916   3.353  1.6067 -1.2594  0.8696
 9022SOL     OW38527   0.408   1.317   6.337  0.2950 -0.4832  0.1378
 9022SOL    HW138528   0.463   1.339   6.412  0.5687 -1.0122  0.0912
 9022SOL    HW238529   0.378   1.234   6.376 -0.5209  0.7977  2.2122
 9023SOL     OW38530   2.932   0.561   4.589 -0.6189  0.2045  0.4009
 9023SOL    HW138531   2.986   0.633   4.556  2.8581 -1.3549  2.6817
 9023SOL    HW238532   2.846   0.595   4.564  0.1710  0.6136 -1.7836
 9024SOL     OW38533   3.152   3.275   7.662 -0.0571  0.3349  0.4510
 9024SOL    HW138534   3.085   3.287   7.729  0.1274 -0.0704  0.7071
 9024SOL    HW238535   3.192   3.360   7.646 -0.1333  0.3311  0.2286
 9025SOL     OW38536   2.281   0.367  16.125 -0.0416 -0.4102  0.0657
 9025SOL    HW138537   2.207   0.374  16.185  0.7003  1.5181  0.7456
 9025SOL    HW238538   2.285   0.272  16.116 -0.3769 -0.2371 -1.8155
 9026SOL     OW38539   3.850   4.344   2.839  0.3190 -0.3755  0.0312
 9026SOL    HW138540   3.865   4.300   2.923 -0.6025  0.6885  0.7545
 9026SOL    HW238541   3.859   4.436   2.863  0.8591  0.1036 -2.0531
 9027SOL     OW38542   0.262   0.262   8.396  0.1308  0.0276  0.0340
 9027SOL    HW138543   0.289   0.191   8.454  1.6292 -1.1347 -2.1245
 9027SOL    HW238544   0.170   0.242   8.381  0.0811  1.5927 -1.6687
 9028SOL     OW38545   0.770   3.262   2.465 -0.2519 -0.0863  0.4656
 9028SOL    HW138546   0.705   3.324   2.497  0.3465  2.7484 -3.7457
 9028SOL    HW238547   0.724   3.178   2.465 -1.0811  0.3704  0.5571
 9029SOL     OW38548   4.054   4.547   6.195 -0.1086  0.2454 -1.2206
 9029SOL    HW138549   4.010   4.580   6.273  0.7233  1.3389 -1.2189
 9029SOL    HW238550   4.040   4.454   6.213  3.0499 -0.2673 -1.4702
 9030SOL     OW38551   3.135   1.673  17.424  0.6620  0.1116 -0.4085
 9030SOL    HW138552   3.175   1.634  17.347 -0.6791 -0.6936 -0.6791
 9030SOL    HW238553   3.160   1.764  17.409 -1.2632  0.3624 -1.9135
 9031SOL     OW38554   2.403   0.820   4.717 -0.0852  0.3952  0.0974
 9031SOL    HW138555   2.398   0.885   4.787 -2.3346 -1.5268  1.7210
 9031SOL    HW238556   2.330   0.843   4.660  0.7217  2.2072 -0.2079
 9032SOL     OW38557   1.694   0.564   0.166  0.1963  0.1038  0.1169
 9032SOL    HW138558   1.749   0.565   0.244 -1.3250  1.4139  1.1439
 9032SOL    HW238559   1.666   0.654   0.155  2.2648  0.7758  0.3949
 9033SOL     OW38560   1.523   0.316   0.679  0.1104  0.4190 -0.1898
 9033SOL    HW138561   1.446   0.361   0.715 -0.6384 -0.7058 -0.3890
 9033SOL    HW238562   1.496   0.225   0.689  0.8674  0.2298  0.1321
 9034SOL     OW38563   4.478   4.026   7.707  0.4083  0.1391 -0.1197
 9034SOL    HW138564   4.451   3.936   7.689 -0.8156  0.4474  0.1848
 9034SOL    HW238565   4.418   4.077   7.653 -1.9886 -0.0515  2.3889
 9035SOL     OW38566   2.551   0.840  15.511 -0.4373 -0.5602 -0.2511
 9035SOL    HW138567   2.471   0.888  15.490  0.0908  0.5338  0.2528
 9035SOL    HW238568   2.514   0.753  15.529  0.7277 -0.8174  0.9241
 9036SOL     OW38569   0.163   0.485  16.007  0.4727 -0.0950 -0.5192
 9036SOL    HW138570   0.087   0.543  16.016  0.4066 -0.6134  2.2391
 9036SOL    HW238571   0.178   0.455  16.097 -1.3289  0.6837  0.0464
 9037SOL     OW38572   4.598   4.644   3.139 -0.0358 -0.4084 -0.2169
 9037SOL    HW138573   4.570   4.706   3.205  0.2188  1.2098 -1.6325
 9037SOL    HW238574   4.642   4.696   3.072 -1.4087 -0.4866 -1.1901
 9038SOL     OW38575   0.248   2.367   2.922 -0.0769  0.3079  0.4995
 9038SOL    HW138576   0.219   2.385   2.833  0.5237  3.0720  0.8725
 9038SOL    HW238577   0.201   2.285   2.938 -0.5507  0.3263 -0.8647
 9039SOL     OW38578   2.896   2.807   6.741  0.4337  0.3012 -0.3226
 9039SOL    HW138579   2.924   2.759   6.663 -0.5106  0.2913 -0.6584
 9039SOL    HW238580   2.812   2.762   6.752  0.4618  0.2245 -0.4235
 9040SOL     OW38581   1.121   2.319   8.069  0.4806  0.3000  0.0495
 9040SOL    HW138582   1.112   2.378   8.144 -1.9657  0.4109 -0.3475
 9040SOL    HW238583   1.205   2.285   8.100 -0.0098  0.3132  1.3926
 9041SOL     OW38584   2.878   4.565   3.950 -0.2189 -0.2336  0.0958
 9041SOL    HW138585   2.870   4.655   3.920 -1.7741 -0.3819  0.0664
 9041SOL    HW238586   2.906   4.573   4.041 -0.2678 -1.2086  0.2042
 9042SOL     OW38587   2.920   3.981  16.799  0.1599 -0.1984 -0.6347
 9042SOL    HW138588   2.913   4.037  16.876 -0.6697  1.2107 -1.7596
 9042SOL    HW238589   2.846   3.921  16.810 -1.7945  2.0175 -1.8270
 9043SOL     OW38590   1.831   1.485  17.650  0.1017 -0.1952  0.0299
 9043SOL    HW138591   1.865   1.443   0.030 -0.7940  0.6837  0.8819
 9043SOL    HW238592   1.748   1.439  17.638  0.1641 -0.5844  1.0618
 9044SOL     OW38593   2.313   2.718   3.529 -0.4751  0.2212  0.3613
 9044SOL    HW138594   2.260   2.681   3.458  0.6365 -0.4853 -0.1037
 9044SOL    HW238595   2.400   2.719   3.488  0.1199  1.6838  1.6788
 9045SOL     OW38596   4.117   2.502   7.808  0.2870  0.5774  0.6988
 9045SOL    HW138597   4.163   2.498   7.891  0.5601 -0.1719  0.5053
 9045SOL    HW238598   4.182   2.518   7.740 -0.0072  0.3350  0.3613
 9046SOL     OW38599   0.520   0.566   4.034  0.1158 -0.3224  0.2440
 9046SOL    HW138600   0.538   0.567   4.129  0.0995  1.4858  0.2256
 9046SOL    HW238601   0.609   0.552   4.000  0.8209 -1.2012  2.4413
 9047SOL     OW38602   0.319   4.178  16.054 -0.4809 -0.4915  0.2368
 9047SOL    HW138603   0.349   4.230  16.129  2.1891  0.2311 -1.3046
 9047SOL    HW238604   0.227   4.164  16.073 -0.6004  1.7216  1.2532
 9048SOL     OW38605   0.952   2.568  11.228 -0.0523  0.2729  0.1502
 9048SOL    HW138606   0.871   2.569  11.176  0.0250 -0.9614  0.0280
 9048SOL    HW238607   0.929   2.499  11.289  2.3335 -0.2024  0.5254
 9049SOL     OW38608   0.923   2.168  12.572 -0.3355  0.6264 -0.0597
 9049SOL    HW138609   0.961   2.218  12.644 -3.2607  0.4925  1.5960
 9049SOL    HW238610   1.001   2.139  12.525 -1.2281  0.1931 -1.3043
 9050SOL     OW38611   4.444   1.287   4.764  0.0708  0.0547 -0.1393
 9050SOL    HW138612   4.488   1.216   4.719  2.2233  1.7533 -0.7145
 9050SOL    HW238613   4.492   1.268   4.845  0.3949  4.4787  0.7302
 9051SOL     OW38614   0.516   1.077   1.341 -0.1478 -0.2374  0.0982
 9051SOL    HW138615   0.559   1.157   1.310  1.5674 -2.1236 -2.3564
 9051SOL    HW238616   0.516   1.084   1.437 -1.7026  1.6570 -0.0382
 9052SOL     OW38617   0.407   3.049   6.376  0.0005 -0.2627  0.1036
 9052SOL    HW138618   0.485   2.998   6.353  0.2095  0.0415  0.1411
 9052SOL    HW238619   0.425   3.136   6.341  0.2946 -0.6765 -0.7771
 9053SOL     OW38620   3.998   1.639   4.609 -0.0243  0.2641  0.1240
 9053SOL    HW138621   3.946   1.572   4.565  1.7241 -2.1447  1.7063
 9053SOL    HW238622   4.039   1.586   4.678  0.2126 -1.2515 -1.1799
 9054SOL     OW38623   1.544   4.142   3.939 -0.6111  0.2880  0.5822
 9054SOL    HW138624   1.485   4.191   3.997  0.6471  0.1076  2.0222
 9054SOL    HW238625   1.607   4.103   4.000 -1.8849  0.7209  2.1827
 9055SOL     OW38626   0.536   3.348   4.158  0.0983  0.6578 -0.3236
 9055SOL    HW138627   0.621   3.387   4.135  0.4902  0.4605  0.8075
 9055SOL    HW238628   0.537   3.375   4.250 -0.4276 -0.5705  0.0453
 9056SOL     OW38629   0.370   0.775   4.788 -0.2758  0.3665 -0.5811
 9056SOL    HW138630   0.303   0.838   4.815 -0.2423  1.1200 -2.3070
 9056SOL    HW238631   0.447   0.831   4.783  0.1470 -0.0911  0.6004
 9057SOL     OW38632   1.258   4.388   3.525  0.5629  0.1901 -0.2432
 9057SOL    HW138633   1.171   4.380   3.564 -0.4969 -0.5553 -2.7614
 9057SOL    HW238634   1.246   4.358   3.435  1.1303 -2.1325  0.4598
 9058SOL     OW38635   3.043   4.227   8.253  0.0209  0.3254  0.0863
 9058SOL    HW138636   3.062   4.294   8.186 -0.9478  0.8804  0.3786
 9058SOL    HW238637   3.114   4.166   8.232  0.5020  1.0044 -0.2644
 9059SOL     OW38638   3.374   1.501   7.695  0.5442  0.2080 -0.1968
 9059SOL    HW138639   3.294   1.553   7.685  0.0888 -0.6925 -1.1842
 9059SOL    HW238640   3.390   1.477   7.604  0.1860 -0.9440  0.0483
 9060SOL     OW38641   4.392   3.571  12.919  0.1361  0.3782  0.5876
 9060SOL    HW138642   4.328   3.639  12.942 -1.1037 -1.2352  1.8525
 9060SOL    HW238643   4.406   3.596  12.827  1.7197 -2.4472  0.0516
 9061SOL     OW38644   0.991   1.571  10.190 -0.1679  0.3869 -0.3365
 9061SOL    HW138645   1.022   1.568  10.099 -0.3005 -2.1641 -0.2774
 9061SOL    HW238646   1.060   1.629  10.223  0.3045 -0.5484  0.3016
 9062SOL     OW38647   3.132   0.956  14.347  0.1105 -0.3940 -0.0977
 9062SOL    HW138648   3.045   0.928  14.318 -0.9060  0.8307  1.7844
 9062SOL    HW238649   3.166   0.877  14.388 -1.3889 -0.8196  0.3283
 9063SOL     OW38650   2.309   3.701   1.930 -0.0596 -0.1271 -0.2901
 9063SOL    HW138651   2.236   3.730   1.876 -1.7574 -1.3677  1.3489
 9063SOL    HW238652   2.344   3.782   1.967 -1.9237  0.6581 -0.2484
 9064SOL     OW38653   2.760   4.040  13.028  0.4485 -0.3361 -0.2980
 9064SOL    HW138654   2.807   4.108  12.980  0.2734  1.2046  1.7472
 9064SOL    HW238655   2.798   4.057  13.114  0.3377 -1.3016 -0.0543
 9065SOL     OW38656   4.185   0.550   9.248  0.4737  0.5752  0.0393
 9065SOL    HW138657   4.105   0.600   9.267  0.8297  0.7283  1.1663
 9065SOL    HW238658   4.239   0.619   9.209 -0.2211 -1.1901 -4.0247
 9066SOL     OW38659   1.723   0.850  17.625  0.4785 -0.1657  0.1348
 9066SOL    HW138660   1.659   0.899  17.677  1.5876 -1.1379  2.4314
 9066SOL    HW238661   1.807   0.865  17.668 -0.1638 -1.2071  1.7910
 9067SOL     OW38662   1.058   1.744   4.123 -0.0995 -0.2236  0.7526
 9067SOL    HW138663   1.016   1.790   4.196  0.7129  0.9298  0.4920
 9067SOL    HW238664   1.024   1.656   4.137 -1.3544  0.2964  0.9940
 9068SOL     OW38665   3.390   2.171   6.026 -0.1772 -0.0145  0.5863
 9068SOL    HW138666   3.400   2.264   6.006 -0.0462 -0.1732 -0.0737
 9068SOL    HW238667   3.378   2.185   6.120 -1.4289 -1.5401  0.6446
 9069SOL     OW38668   2.240   2.514   1.634 -0.2366 -0.2832 -0.0359
 9069SOL    HW138669   2.171   2.448   1.627 -0.7548  0.2517  0.0259
 9069SOL    HW238670   2.308   2.474   1.578 -0.5302  0.3135 -0.8143
 9070SOL     OW38671   2.605   0.762   7.014 -0.5804 -0.6433 -0.7456
 9070SOL    HW138672   2.653   0.696   6.965  1.7663 -1.1959  2.3321
 9070SOL    HW238673   2.527   0.714   7.043 -1.1872  0.7498 -0.0684
 9071SOL     OW38674   0.593   3.397   3.783  0.2725  0.1291  0.4965
 9071SOL    HW138675   0.609   3.382   3.876  0.0415  1.1829  0.6992
 9071SOL    HW238676   0.637   3.324   3.739  1.7499  0.5139  1.3378
 9072SOL     OW38677   0.298   2.421   7.128 -0.0745 -0.1315 -0.4863
 9072SOL    HW138678   0.314   2.377   7.045  1.2035  2.2248 -1.4750
 9072SOL    HW238679   0.205   2.397   7.138  0.4917 -1.8533  0.6411
 9073SOL     OW38680   1.615   1.403   6.154 -0.3893 -0.2693  0.2950
 9073SOL    HW138681   1.553   1.333   6.173  1.8169 -1.6350  2.4892
 9073SOL    HW238682   1.700   1.370   6.184 -1.0390  0.0201  2.4359
 9074SOL     OW38683   3.823   1.357   8.162  0.7270 -0.2124 -0.8825
 9074SOL    HW138684   3.727   1.357   8.159  0.7503  1.9503 -1.1219
 9074SOL    HW238685   3.838   1.276   8.211 -0.2986  0.5998  0.7755
 9075SOL     OW38686   0.956   3.099  11.225 -0.2440 -0.2276  0.6620
 9075SOL    HW138687   0.892   3.038  11.262  0.8395 -0.8542  1.4950
 9075SOL    HW238688   1.036   3.046  11.223  0.8485  1.4397 -0.0329
 9076SOL     OW38689   1.328   1.593   2.813 -0.5881  0.4248 -0.2499
 9076SOL    HW138690   1.238   1.560   2.818 -0.0355 -1.0778 -0.2461
 9076SOL    HW238691   1.350   1.616   2.903 -0.6000 -0.7704  0.0594
 9077SOL     OW38692   1.096   3.681  14.462 -0.0923  0.5912  0.4159
 9077SOL    HW138693   1.114   3.588  14.474  2.3754  1.3419  2.2946
 9077SOL    HW238694   1.117   3.718  14.547  2.0229 -0.9308  0.5642
 9078SOL     OW38695   2.243   0.580   9.455 -0.1767  0.0351 -0.1057
 9078SOL    HW138696   2.305   0.651   9.476  2.3724 -2.0232 -0.5962
 9078SOL    HW238697   2.296   0.504   9.482 -1.9315 -0.8151  0.9125
 9079SOL     OW38698   2.213   2.829   6.373 -0.1219  0.5744  0.1737
 9079SOL    HW138699   2.142   2.793   6.426 -0.6208  1.0598 -0.1661
 9079SOL    HW238700   2.290   2.783   6.405  0.4825  1.8378  0.5330
 9080SOL     OW38701   0.820   2.957   4.092 -0.3268  0.4473  0.4002
 9080SOL    HW138702   0.738   3.007   4.094 -0.2666  0.5177  1.2117
 9080SOL    HW238703   0.851   2.971   4.003 -0.0664 -1.1383  0.2439
 9081SOL     OW38704   0.791   4.492  12.509  0.1058 -0.4434  0.1402
 9081SOL    HW138705   0.855   4.421  12.518 -1.3379 -2.0076 -2.0132
 9081SOL    HW238706   0.772   4.522  12.598 -1.7659 -4.0872  0.9553
 9082SOL     OW38707   1.790   1.703   5.014 -0.5005  0.1507 -0.1485
 9082SOL    HW138708   1.788   1.724   5.108  0.5723 -3.0394  0.5674
 9082SOL    HW238709   1.700   1.681   4.990  0.1372 -3.8138  1.1217
 9083SOL     OW38710   1.909   1.860   4.125  0.2844 -0.2430  0.7299
 9083SOL    HW138711   1.970   1.930   4.100 -1.2629  1.8393  2.7112
 9083SOL    HW238712   1.914   1.801   4.050  1.0643 -1.9689  2.1696
 9084SOL     OW38713   2.233   1.965   7.606  0.1474 -0.1136  0.1972
 9084SOL    HW138714   2.218   1.952   7.700 -0.2989 -0.3099  0.1023
 9084SOL    HW238715   2.296   1.897   7.583 -1.2144 -0.3114 -2.9108
 9085SOL     OW38716   3.233   0.269   4.348  0.3950  0.0184  0.3530
 9085SOL    HW138717   3.233   0.332   4.275  1.0026 -0.1505  0.2071
 9085SOL    HW238718   3.226   0.186   4.301 -1.1464  0.6371 -0.5227
 9086SOL     OW38719   0.326   1.005   9.235  0.7910 -0.0015  0.2278
 9086SOL    HW138720   0.296   1.031   9.148  0.9605  0.1050  0.2008
 9086SOL    HW238721   0.367   0.919   9.221 -0.6136 -0.2566 -2.3795
 9087SOL     OW38722   2.689   0.514   1.471 -0.1123 -0.2349 -0.4156
 9087SOL    HW138723   2.781   0.509   1.496 -0.1800 -0.8372 -0.2741
 9087SOL    HW238724   2.664   0.548   1.557  0.2486 -0.1534 -0.3446
 9088SOL     OW38725   4.378   0.569   6.573 -0.8513  0.2348  0.2451
 9088SOL    HW138726   4.337   0.642   6.527  0.0576  1.0995  0.7979
 9088SOL    HW238727   4.327   0.564   6.654 -1.5573  0.0437 -0.2091
 9089SOL     OW38728   4.229   2.017   1.179  0.1898 -0.4057 -0.0199
 9089SOL    HW138729   4.184   2.096   1.208 -2.3743 -1.1526 -1.9302
 9089SOL    HW238730   4.162   1.977   1.123  0.7643  0.2113 -1.1485
 9090SOL     OW38731   0.187   3.776   4.436  0.2380  0.0010 -0.2184
 9090SOL    HW138732   0.244   3.755   4.362  0.8094 -0.8711  0.4678
 9090SOL    HW238733   0.255   3.772   4.503  0.1261  2.1496  0.0337
 9091SOL     OW38734   3.607   1.209   5.688  0.0883  1.4549 -0.3382
 9091SOL    HW138735   3.513   1.202   5.706  0.9308 -3.7214  2.1157
 9091SOL    HW238736   3.644   1.262   5.759 -0.7372  1.0328  0.4105
 9092SOL     OW38737   3.160   1.879   3.093 -0.0474 -0.1002 -0.1093
 9092SOL    HW138738   3.139   1.966   3.058 -1.7159 -0.9332 -1.1883
 9092SOL    HW238739   3.252   1.882   3.119  0.3277  0.7731 -1.5192
 9093SOL     OW38740   1.740   4.156   6.762 -0.5660  0.0498  0.4205
 9093SOL    HW138741   1.735   4.245   6.796 -2.2917  0.7877 -1.6994
 9093SOL    HW238742   1.649   4.146   6.733 -1.0171  2.8712  0.8987
 9094SOL     OW38743   2.283   0.607  17.652  0.2841 -0.8936  0.6592
 9094SOL    HW138744   2.205   0.660  17.666  0.9053 -0.0415  0.9081
 9094SOL    HW238745   2.338   0.659  17.593  1.0492 -1.7721  0.5946
 9095SOL     OW38746   4.286   0.919   2.811 -0.8489  0.6605  0.1427
 9095SOL    HW138747   4.334   0.838   2.825 -0.7017  0.7331  0.0481
 9095SOL    HW238748   4.223   0.884   2.748 -0.1299 -1.0391  0.3816
 9096SOL     OW38749   1.139   2.853   6.239 -0.0243 -0.1199  0.1273
 9096SOL    HW138750   1.175   2.851   6.328 -0.4492 -0.5264  0.2900
 9096SOL    HW238751   1.208   2.800   6.199  1.2920  0.6235  1.4123
 9097SOL     OW38752   4.100   4.503   2.963 -0.1323  0.1537 -0.3701
 9097SOL    HW138753   4.195   4.504   2.969 -0.1151  1.4943 -0.8422
 9097SOL    HW238754   4.078   4.454   3.042  0.3696 -0.7186 -0.7836
 9098SOL     OW38755   4.690   2.937   4.043 -0.5240  0.3931  0.5435
 9098SOL    HW138756   4.647   2.874   4.101 -1.6247 -1.5420 -2.3939
 9098SOL    HW238757   0.013   2.875   3.988 -0.1927  0.9305  0.2235
 9099SOL     OW38758   0.558   3.624   6.979  0.4981  0.4168 -0.2638
 9099SOL    HW138759   0.567   3.704   6.928 -0.3318  2.3766  2.6626
 9099SOL    HW238760   0.593   3.565   6.912  1.2386 -0.4157  0.8408
 9100SOL     OW38761   1.468   1.897   0.958  0.0034  0.1842 -0.8181
 9100SOL    HW138762   1.556   1.880   0.992  0.2492  0.9020 -1.1042
 9100SOL    HW238763   1.468   1.990   0.980  1.3341 -0.5653  2.3611
 9101SOL     OW38764   2.883   1.308   0.659 -0.0108  0.5295  0.5075
 9101SOL    HW138765   2.869   1.214   0.646 -0.7843  0.8245 -0.7740
 9101SOL    HW238766   2.977   1.309   0.674  0.3030  1.0221 -1.5375
 9102SOL     OW38767   2.325   3.832   6.848 -0.1597  0.5531 -0.3835
 9102SOL    HW138768   2.374   3.759   6.887  0.5969  1.4621  0.3718
 9102SOL    HW238769   2.367   3.908   6.888  0.1072 -0.7440  1.7917
 9103SOL     OW38770   4.414   0.236  10.528 -0.4074  0.2947 -0.1644
 9103SOL    HW138771   4.342   0.183  10.562 -0.4505 -0.4354 -1.4263
 9103SOL    HW238772   4.417   0.207  10.437 -0.5790 -1.8611  0.5041
 9104SOL     OW38773   2.629   3.551   5.788  0.2322 -0.2743 -0.4963
 9104SOL    HW138774   2.592   3.577   5.872 -1.3967 -0.2465 -1.2253
 9104SOL    HW238775   2.618   3.456   5.798 -0.2264 -0.2051 -0.3535
 9105SOL     OW38776   2.349   3.887  13.803 -0.4444  0.2697  0.2029
 9105SOL    HW138777   2.377   3.899  13.713  1.2173  0.4774  0.7420
 9105SOL    HW238778   2.292   3.811  13.792  1.6203 -1.1900 -0.2956
 9106SOL     OW38779   2.512   3.767  10.383  0.0980  0.8279  0.3279
 9106SOL    HW138780   2.466   3.704  10.327 -0.8041  2.0878 -0.3354
 9106SOL    HW238781   2.605   3.750  10.364 -0.1811 -0.4896  0.1490
 9107SOL     OW38782   2.341   3.796  11.868  0.0668  0.0531  1.1209
 9107SOL    HW138783   2.364   3.886  11.844 -0.7944 -0.2699 -0.9294
 9107SOL    HW238784   2.338   3.750  11.784  0.2943  0.7959  0.7050
 9108SOL     OW38785   2.706   0.895  12.036  0.1934 -0.6294  0.0416
 9108SOL    HW138786   2.706   0.800  12.035 -0.0210 -0.6135 -1.8912
 9108SOL    HW238787   2.793   0.917  12.069 -0.1188  0.9357 -0.1475
 9109SOL     OW38788   4.018   2.816  17.003  0.0982 -0.0620 -0.2311
 9109SOL    HW138789   3.969   2.798  16.923 -3.1265  0.7361  1.5735
 9109SOL    HW238790   3.976   2.891  17.044  3.0209  2.0596 -1.1087
 9110SOL     OW38791   4.425   0.407   7.444  0.1479 -0.2239 -0.1291
 9110SOL    HW138792   4.494   0.398   7.379  0.2972  2.1323 -0.2996
 9110SOL    HW238793   4.455   0.458   7.519  0.3481 -1.4306  0.6140
 9111SOL     OW38794   3.233   4.262   2.863  0.2136  0.3035 -0.2561
 9111SOL    HW138795   3.199   4.320   2.931  1.4135  0.9560 -0.2240
 9111SOL    HW238796   3.156   4.217   2.829  0.7751  1.5988 -3.2832
 9112SOL     OW38797   1.292   3.127   5.869  0.1780  0.2492  0.1977
 9112SOL    HW138798   1.276   3.032   5.868  0.4030  0.2160 -0.2900
 9112SOL    HW238799   1.381   3.121   5.903  1.2023  1.6836 -2.1931
 9113SOL     OW38800   2.434   1.871   4.171 -0.2087 -0.1447 -0.5772
 9113SOL    HW138801   2.407   1.959   4.197  1.2478  0.4127 -0.9778
 9113SOL    HW238802   2.454   1.832   4.256  1.7670 -2.3721 -2.0817
 9114SOL     OW38803   0.215   1.333  17.078 -0.1464  0.1847  0.5579
 9114SOL    HW138804   0.189   1.422  17.102  0.4500 -0.1579  2.4795
 9114SOL    HW238805   0.204   1.347  16.984  1.2634 -0.7716  0.2464
 9115SOL     OW38806   4.385   1.036   7.017  0.1500 -0.1629 -0.0145
 9115SOL    HW138807   4.367   1.108   7.077 -0.9340 -0.6383  0.2394
 9115SOL    HW238808   4.428   0.966   7.066 -1.5776  0.2636  2.1343
 9116SOL     OW38809   3.870   0.140  13.708  0.5686  0.0101  0.0825
 9116SOL    HW138810   3.862   0.209  13.774  3.0512 -0.2393  0.6371
 9116SOL    HW238811   3.777   0.130  13.686  1.1228 -2.9315 -0.9232
 9117SOL     OW38812   3.515   3.729  12.483 -0.5708 -0.1139  0.0983
 9117SOL    HW138813   3.610   3.745  12.477 -0.7048  0.7582  0.1882
 9117SOL    HW238814   3.502   3.674  12.406  3.5803 -0.2658 -0.5366
 9118SOL     OW38815   3.521   1.674   3.863  0.4533 -0.1185 -0.0408
 9118SOL    HW138816   3.540   1.627   3.781 -0.7979  0.8722 -0.8963
 9118SOL    HW238817   3.461   1.612   3.903  1.2527 -0.9278 -0.0751
 9119SOL     OW38818   4.724   3.928   4.881 -0.0470 -0.0692 -0.2217
 9119SOL    HW138819   4.662   3.876   4.931  0.5946 -0.4388  0.1904
 9119SOL    HW238820   0.083   3.888   4.907 -0.4309 -0.6929  0.0545
 9120SOL     OW38821   2.148   2.921   2.857  0.0216  0.4107 -0.1942
 9120SOL    HW138822   2.099   2.891   2.934  1.1470  1.9148  1.0853
 9120SOL    HW238823   2.125   2.844   2.804 -0.9056 -1.7376  3.2867
 9121SOL     OW38824   0.772   4.367   6.102  0.4089  0.0120 -0.1728
 9121SOL    HW138825   0.857   4.372   6.147 -0.2982  0.7425  1.0532
 9121SOL    HW238826   0.774   4.279   6.064  0.6670 -0.2069  0.3331
 9122SOL     OW38827   1.511   3.901   5.744 -0.1557  0.2520  0.1576
 9122SOL    HW138828   1.591   3.886   5.795  0.6195  1.1671 -0.7827
 9122SOL    HW238829   1.546   3.973   5.691 -1.3324  1.8543  1.5543
 9123SOL     OW38830   0.072   2.917  11.963  0.5325 -0.4547 -0.2547
 9123SOL    HW138831   0.133   2.858  11.919  1.1322  0.1268 -0.1973
 9123SOL    HW238832   0.021   2.844  11.997  0.1826 -1.5984 -3.2514
 9124SOL     OW38833   2.697   4.349   3.884 -0.2304 -0.0611 -0.1481
 9124SOL    HW138834   2.758   4.421   3.897 -0.9404  0.6090 -0.4908
 9124SOL    HW238835   2.651   4.346   3.968 -0.6732 -2.6114 -0.4778
 9125SOL     OW38836   0.791   0.886   6.432 -0.3813 -0.6167  0.3922
 9125SOL    HW138837   0.731   0.880   6.506 -1.0697  1.0953 -0.0206
 9125SOL    HW238838   0.756   0.970   6.400  1.5634 -0.1180 -0.4308
 9126SOL     OW38839   2.073   3.169   2.698  0.4082 -0.0285  0.0763
 9126SOL    HW138840   2.021   3.125   2.631  0.2330 -0.5907  0.5830
 9126SOL    HW238841   2.125   3.100   2.738  1.0828 -0.5196 -1.6490
 9127SOL     OW38842   3.688   4.410   4.509 -0.2982  0.1662  0.2900
 9127SOL    HW138843   3.775   4.397   4.548 -0.4917 -0.1256  0.6281
 9127SOL    HW238844   3.637   4.339   4.549  1.8074  0.3604  3.3435
 9128SOL     OW38845   4.260   4.419   9.493  0.2791 -0.2735  0.1700
 9128SOL    HW138846   4.303   4.463   9.420 -1.7502  0.5625 -0.5284
 9128SOL    HW238847   4.335   4.415   9.552  1.1621 -1.0267 -1.0076
 9129SOL     OW38848   3.204   4.433   5.625  0.1677  0.0421  0.1540
 9129SOL    HW138849   3.128   4.376   5.614  0.8810 -0.2921 -2.9995
 9129SOL    HW238850   3.258   4.365   5.667  0.6511 -0.0238 -0.5852
 9130SOL     OW38851   0.870   3.863  15.217 -0.0793  0.6309  0.5304
 9130SOL    HW138852   0.937   3.826  15.159  0.0132 -0.5021  1.3686
 9130SOL    HW238853   0.886   3.956  15.199 -0.2503  0.0348 -2.7587
 9131SOL     OW38854   3.985   4.389  12.691  0.6497  0.1838  0.0587
 9131SOL    HW138855   4.026   4.449  12.628 -1.0731  2.1305  0.7929
 9131SOL    HW238856   4.023   4.305  12.664  1.5897  0.3953  0.7258
 9132SOL     OW38857   2.225   2.934   5.605  0.2165 -0.4603 -0.3852
 9132SOL    HW138858   2.290   2.993   5.568 -0.6670 -0.0314 -1.2660
 9132SOL    HW238859   2.197   2.879   5.532 -4.0868 -1.4070  1.9100
 9133SOL     OW38860   0.481   3.713   8.447 -0.0072 -0.1277  1.0190
 9133SOL    HW138861   0.481   3.793   8.499 -3.2738  0.1618  0.6038
 9133SOL    HW238862   0.451   3.639   8.500  0.3576 -0.6378  0.5134
 9134SOL     OW38863   1.066   1.565   2.655 -0.1187 -0.4103 -0.6167
 9134SOL    HW138864   1.110   1.563   2.570 -0.5465  0.7968 -0.8618
 9134SOL    HW238865   0.982   1.604   2.631 -0.6144 -0.5623  0.8853
 9135SOL     OW38866   0.035   4.646  16.485 -0.3329  0.6112 -0.0563
 9135SOL    HW138867   0.120   4.631  16.528  0.0564  0.2282 -0.9654
 9135SOL    HW238868   4.706   4.663  16.563 -0.9063  0.0038 -0.3210
 9136SOL     OW38869   0.529   4.084   8.663 -0.2699 -0.0075  0.4752
 9136SOL    HW138870   0.457   4.026   8.687 -0.9748  0.9381  0.6317
 9136SOL    HW238871   0.587   4.025   8.614 -1.7871 -0.8322 -0.3482
 9137SOL     OW38872   1.635   0.647   5.009 -0.5272 -0.0257 -0.1036
 9137SOL    HW138873   1.599   0.711   4.948 -0.5275  0.4103  0.3530
 9137SOL    HW238874   1.703   0.688   5.062 -1.0671  2.3679 -1.2761
 9138SOL     OW38875   2.352   4.534   7.653 -0.0869 -0.1107 -0.1329
 9138SOL    HW138876   2.356   4.456   7.597 -1.3447  1.6748 -2.6591
 9138SOL    HW238877   2.297   4.505   7.726 -2.0355  0.5475 -1.3728
 9139SOL     OW38878   0.192   2.936   6.456 -0.1895 -0.1338 -0.0891
 9139SOL    HW138879   0.279   2.966   6.431 -0.2765 -0.6072 -0.9534
 9139SOL    HW238880   0.174   2.984   6.537 -1.5862 -1.1970  0.2400
 9140SOL     OW38881   2.115   3.154   1.856  0.1663 -0.2891 -0.2828
 9140SOL    HW138882   2.074   3.236   1.827 -0.0907 -0.2002  0.3175
 9140SOL    HW238883   2.200   3.173   1.817  0.4732 -3.3986 -1.1357
 9141SOL     OW38884   4.456   2.854   2.509  0.0293  0.4111  0.1672
 9141SOL    HW138885   4.405   2.934   2.521  0.0906  0.3506  0.8176
 9141SOL    HW238886   4.387   2.807   2.461 -1.6245  1.9724  1.0012
 9142SOL     OW38887   3.863   1.757   0.793 -0.4069 -0.0609  0.0235
 9142SOL    HW138888   3.866   1.841   0.838  1.7997 -0.0381 -0.1454
 9142SOL    HW238889   3.939   1.756   0.735 -0.6937 -0.8933 -0.3453
 9143SOL     OW38890   2.680   3.165   5.453  0.8591  0.3496  0.2340
 9143SOL    HW138891   2.764   3.127   5.481  0.2640 -0.6975  0.5968
 9143SOL    HW238892   2.664   3.113   5.374  0.7042  0.6708  0.0516
 9144SOL     OW38893   4.396   2.636   5.220  0.5043 -0.4507 -0.1089
 9144SOL    HW138894   4.326   2.672   5.165 -0.1996  1.1923  1.8704
 9144SOL    HW238895   4.392   2.689   5.300  1.9366 -0.5271  0.0075
 9145SOL     OW38896   2.716   3.137  17.652  0.6401 -0.0983  0.0280
 9145SOL    HW138897   2.646   3.096  17.601 -1.7454  2.4775  1.1689
 9145SOL    HW238898   2.705   3.223  17.610 -0.9023  0.2991  1.2195
 9146SOL     OW38899   0.979   2.998   8.900 -0.7445 -0.0703  0.5638
 9146SOL    HW138900   1.002   3.049   8.822  0.3876 -0.0442  0.9108
 9146SOL    HW238901   0.913   2.937   8.868  1.7871 -2.1999 -0.6115
 9147SOL     OW38902   4.445   2.124   1.579 -0.2423  0.4582  0.2211
 9147SOL    HW138903   4.521   2.102   1.525 -0.2342  0.1642  0.3554
 9147SOL    HW238904   4.391   2.176   1.520 -0.8586  2.1616  2.2713
 9148SOL     OW38905   2.378   1.493   4.259  0.7445 -0.0144  0.1499
 9148SOL    HW138906   2.379   1.500   4.355  1.7625  1.1824  0.0572
 9148SOL    HW238907   2.283   1.501   4.252  0.4601 -2.2255  1.6823
 9149SOL     OW38908   4.040   0.243   9.322  0.7378 -0.2982  0.1325
 9149SOL    HW138909   4.006   0.250   9.233  0.0739  1.5199  0.5172
 9149SOL    HW238910   3.995   0.313   9.371  0.1811 -1.2655  1.0134
 9150SOL     OW38911   0.437   2.451  16.826  0.0282 -0.6409  0.1926
 9150SOL    HW138912   0.475   2.462  16.914  2.9263 -0.6196 -1.0579
 9150SOL    HW238913   0.433   2.356  16.819  0.8932 -0.7356  0.9511
 9151SOL     OW38914   1.588   1.152  13.587  0.4942  0.5185  0.5493
 9151SOL    HW138915   1.572   1.145  13.493 -2.8103  0.0891  1.1424
 9151SOL    HW238916   1.681   1.131  13.589  0.3645 -0.2010 -1.2662
 9152SOL     OW38917   0.848   2.626   7.741 -0.1182  0.1442  0.2219
 9152SOL    HW138918   0.765   2.632   7.694 -1.5066 -3.7350  2.2511
 9152SOL    HW238919   0.818   2.684   7.811  1.2399  0.7966  0.2695
 9153SOL     OW38920   4.494   1.092   8.268 -0.5107 -0.1138 -0.2275
 9153SOL    HW138921   4.530   1.170   8.224  0.8255 -1.1495 -0.9580
 9153SOL    HW238922   4.553   1.020   8.249 -1.1090 -0.7688  0.4318
 9154SOL     OW38923   1.365   2.145   1.907  0.2076  0.0701 -0.3324
 9154SOL    HW138924   1.443   2.093   1.885 -0.8932 -2.0009  0.6412
 9154SOL    HW238925   1.308   2.071   1.927 -1.6594  2.1220  1.9930
 9155SOL     OW38926   4.372   0.978   7.731 -0.1185 -0.0522 -0.6854
 9155SOL    HW138927   4.391   0.983   7.637 -0.0409  0.9083 -0.6113
 9155SOL    HW238928   4.448   0.923   7.752 -1.0469 -1.1274 -0.1632
 9156SOL     OW38929   2.796   2.096   4.267  0.3878  0.0500  0.2368
 9156SOL    HW138930   2.889   2.073   4.266 -0.0683 -1.7205 -1.1377
 9156SOL    HW238931   2.790   2.132   4.178 -1.3435  0.7276  0.6465
 9157SOL     OW38932   0.539   2.895   5.099 -0.2552 -0.0145 -0.3844
 9157SOL    HW138933   0.521   2.966   5.162  0.0649  1.0472 -1.4949
 9157SOL    HW238934   0.628   2.913   5.069 -0.4935 -0.4510 -1.3303
 9158SOL     OW38935   4.349   2.790  13.690  0.2448 -0.0570  0.2951
 9158SOL    HW138936   4.348   2.734  13.768  2.6203 -0.4862  0.0375
 9158SOL    HW238937   4.257   2.812  13.680 -0.0916  0.0226  3.6531
 9159SOL     OW38938   4.131   3.910   7.904  0.1709  0.6266  0.0469
 9159SOL    HW138939   4.143   3.932   7.996  0.5450 -3.1518  0.8768
 9159SOL    HW238940   4.142   3.997   7.864  1.1924 -0.6901 -2.5208
 9160SOL     OW38941   3.739   0.377  13.331  0.5399 -0.5085  0.4999
 9160SOL    HW138942   3.720   0.448  13.393  0.3433 -1.3040  1.3603
 9160SOL    HW238943   3.739   0.425  13.248  1.0556  0.0378  0.8123
 9161SOL     OW38944   1.314   2.008   4.707 -0.1102 -0.5262 -0.0825
 9161SOL    HW138945   1.299   2.035   4.616 -3.1060 -0.4696  0.4206
 9161SOL    HW238946   1.224   1.980   4.722 -0.1943 -0.1060  0.2250
 9162SOL     OW38947   1.687   4.184   7.107 -0.0988  0.1386  0.4415
 9162SOL    HW138948   1.608   4.198   7.159 -0.1915 -2.2802  0.9610
 9162SOL    HW238949   1.659   4.164   7.018 -2.6497  0.3781  1.2162
 9163SOL     OW38950   2.427   1.058  14.605 -0.2288  0.2017  0.0955
 9163SOL    HW138951   2.374   0.982  14.582 -0.8241  1.0115 -1.2346
 9163SOL    HW238952   2.386   1.087  14.687  0.3662  0.5486  0.2720
 9164SOL     OW38953   4.563   3.212   0.566 -0.7535  0.6087 -0.1156
 9164SOL    HW138954   4.642   3.258   0.592 -0.7513  0.6887 -0.2626
 9164SOL    HW238955   4.574   3.229   0.472 -0.7871  1.4008  0.0266
 9165SOL     OW38956   1.013   3.197   7.293 -0.7507  0.4537 -0.2685
 9165SOL    HW138957   1.070   3.240   7.229 -0.3180  0.7956  0.3451
 9165SOL    HW238958   0.963   3.273   7.323 -0.8236  0.4649 -0.4193
 9166SOL     OW38959   3.631   3.954   5.927 -0.2607 -0.7822  0.2377
 9166SOL    HW138960   3.624   3.872   5.978  1.4027  0.5081  2.5406
 9166SOL    HW238961   3.585   3.930   5.847  1.8731  0.9676 -1.4790
 9167SOL     OW38962   2.886   4.634   8.623  0.2087  0.2112  0.0186
 9167SOL    HW138963   2.804   4.615   8.667  0.8409  0.3692  1.2759
 9167SOL    HW238964   2.931   4.549   8.616  1.3211  0.7913  0.0583
 9168SOL     OW38965   1.121   0.899   4.991  0.2387  0.4812 -0.9074
 9168SOL    HW138966   1.103   0.842   5.066  0.5978  1.5260 -0.0294
 9168SOL    HW238967   1.083   0.986   5.006  0.8563  0.5035  0.4927
 9169SOL     OW38968   0.980   2.319   8.586  0.6693  0.3847 -0.1673
 9169SOL    HW138969   1.044   2.256   8.553  0.4385  0.5417 -0.9328
 9169SOL    HW238970   0.969   2.383   8.515  0.7974 -0.1582 -0.6802
 9170SOL     OW38971   2.665   3.852  15.020  0.2915 -0.4455  0.4605
 9170SOL    HW138972   2.673   3.758  15.035  2.5673 -0.5609 -1.3868
 9170SOL    HW238973   2.595   3.877  15.080  0.2214 -0.3759  0.3496
 9171SOL     OW38974   3.770   3.049  12.421  0.2605  0.8216 -0.6854
 9171SOL    HW138975   3.736   2.979  12.365 -0.0094 -0.5777  1.2278
 9171SOL    HW238976   3.800   3.012  12.504 -1.7617 -0.6279 -0.6032
 9172SOL     OW38977   3.539   1.727  16.879  0.2532 -0.5050  0.1163
 9172SOL    HW138978   3.632   1.705  16.886  0.6669  1.7139  1.5833
 9172SOL    HW238979   3.510   1.639  16.858  0.8655 -0.3987 -1.1721
 9173SOL     OW38980   2.079   1.763   6.792 -0.8512  0.3575 -0.3206
 9173SOL    HW138981   2.056   1.832   6.729  1.7233 -0.4274 -2.1133
 9173SOL    HW238982   2.072   1.806   6.878 -2.3179 -0.2008 -0.1613
 9174SOL     OW38983   0.389   0.591  10.478 -0.0303 -0.2918 -0.1492
 9174SOL    HW138984   0.479   0.564  10.461  0.0937  1.5350 -2.4762
 9174SOL    HW238985   0.370   0.661  10.415  0.5287 -1.9421 -2.1323
 9175SOL     OW38986   0.348   0.221   9.114 -0.0670  0.5078  0.4535
 9175SOL    HW138987   0.412   0.251   9.050  0.3724 -0.5270  0.4086
 9175SOL    HW238988   0.404   0.225   9.191  0.9784 -0.5156 -0.2585
 9176SOL     OW38989   2.381   0.356   9.493 -0.5022  0.4769 -0.1491
 9176SOL    HW138990   2.458   0.311   9.526 -1.6138 -1.0296  0.3632
 9176SOL    HW238991   2.311   0.294   9.514 -0.6851  0.8089  0.2112
 9177SOL     OW38992   1.187   4.030   4.426  0.4296  0.3530  0.6694
 9177SOL    HW138993   1.126   3.957   4.417  0.5250  0.2238  1.0688
 9177SOL    HW238994   1.165   4.053   4.517  2.2951  1.2137  0.8913
 9178SOL     OW38995   3.354   0.448   7.287 -0.0448 -0.4010 -0.3824
 9178SOL    HW138996   3.403   0.470   7.367  0.7513 -1.9507 -0.4253
 9178SOL    HW238997   3.421   0.406   7.233  0.3277 -0.1823 -0.0924
 9179SOL     OW38998   1.300   4.577  10.396 -0.2697 -0.4140  0.0968
 9179SOL    HW138999   1.283   4.672  10.395  0.5858 -0.2973 -2.1929
 9179SOL    HW239000   1.277   4.550  10.307  3.3113  0.0600 -0.9697
 9180SOL     OW39001   2.752   2.742   8.106  0.0471 -0.2022 -0.3152
 9180SOL    HW139002   2.758   2.800   8.030  0.4981 -0.1020 -0.2037
 9180SOL    HW239003   2.660   2.715   8.104  0.4414 -1.5353 -0.1368
 9181SOL     OW39004   4.130   4.460   4.946 -0.2631 -0.5292  0.2312
 9181SOL    HW139005   4.198   4.408   4.904 -0.8131  0.2509 -1.6339
 9181SOL    HW239006   4.133   4.531   4.882 -0.3981  1.2723  2.2314
 9182SOL     OW39007   2.040   0.065  16.291 -0.6261  0.3103 -0.3123
 9182SOL    HW139008   2.039   0.159  16.274  2.8982  0.2990 -0.6208
 9182SOL    HW239009   2.134   0.053  16.276 -1.1429  0.4244 -3.7351
 9183SOL     OW39010   3.874   0.876   8.636 -0.3095  0.9168 -0.1011
 9183SOL    HW139011   3.965   0.866   8.662 -0.6582 -0.7920  0.4841
 9183SOL    HW239012   3.850   0.808   8.573 -0.1497  0.4577  0.3359
 9184SOL     OW39013   2.007   1.764   6.050 -0.0113  0.2220  0.4466
 9184SOL    HW139014   2.057   1.731   6.125  2.6555  0.6950 -1.1213
 9184SOL    HW239015   2.074   1.755   5.983  0.1018  0.3117  0.5476
 9185SOL     OW39016   0.683   1.491   3.083  0.0945 -0.0880  0.2054
 9185SOL    HW139017   0.617   1.555   3.059  1.5510  1.5316  0.5077
 9185SOL    HW239018   0.626   1.415   3.077 -0.6166  0.6160 -1.8768
 9186SOL     OW39019   1.223   3.969   6.376 -0.0435 -0.5939  0.0544
 9186SOL    HW139020   1.198   3.978   6.468 -0.4181 -1.3429  0.0269
 9186SOL    HW239021   1.137   3.987   6.337  0.3480  0.4131 -0.3321
 9187SOL     OW39022   0.660   3.654  11.402 -0.0846 -0.3544 -0.6308
 9187SOL    HW139023   0.630   3.673  11.491 -0.4973  0.2172 -0.8884
 9187SOL    HW239024   0.755   3.661  11.413 -0.3406  1.7575  0.2344
 9188SOL     OW39025   1.675   3.335   4.059 -0.4796 -0.0807  0.1227
 9188SOL    HW139026   1.710   3.257   4.018  0.8031  1.2323 -1.2886
 9188SOL    HW239027   1.586   3.336   4.025  0.3128  0.6866 -1.9192
 9189SOL     OW39028   1.903   2.577  16.502 -0.1222 -0.2002  0.0825
 9189SOL    HW139029   1.902   2.661  16.457 -1.3082 -1.3846 -2.0601
 9189SOL    HW239030   1.988   2.576  16.547 -0.1378 -0.1443  0.1130
 9190SOL     OW39031   3.510   0.721   6.717  0.4336  0.1442 -0.4169
 9190SOL    HW139032   3.457   0.676   6.650  0.3039  1.1781 -1.0063
 9190SOL    HW239033   3.532   0.811   6.693 -0.1984 -0.5541 -3.7093
 9191SOL     OW39034   0.011   4.700  16.123 -0.4338 -0.1314  0.2599
 9191SOL    HW139035   4.659   0.022  16.090 -0.5468 -0.8205 -0.4448
 9191SOL    HW239036   0.028   4.640  16.050  2.2872 -0.0838  0.8506
 9192SOL     OW39037   2.453   4.111  15.448 -0.2493 -0.2993  0.4454
 9192SOL    HW139038   2.435   4.140  15.538  2.9186  1.3980  0.5462
 9192SOL    HW239039   2.462   4.195  15.403 -0.5531 -0.3831  0.2370
 9193SOL     OW39040   0.182   3.978   5.570  0.1039  0.0588  0.3000
 9193SOL    HW139041   0.198   4.056   5.517 -1.0465 -1.2878 -2.0366
 9193SOL    HW239042   0.225   3.906   5.524 -0.9958 -0.6921  0.4477
 9194SOL     OW39043   3.138   0.912   5.520 -0.1760 -0.6024  0.7435
 9194SOL    HW139044   3.180   0.979   5.466  0.3700  0.5082  2.5462
 9194SOL    HW239045   3.189   0.914   5.601  1.2300  2.5661 -0.1976
 9195SOL     OW39046   4.157   1.775   3.652 -0.1991  0.0313 -0.3973
 9195SOL    HW139047   4.070   1.743   3.674  0.4186 -0.6124  1.0894
 9195SOL    HW239048   4.206   1.741   3.727 -2.2833 -1.3524  0.3387
 9196SOL     OW39049   2.453   3.206   8.474 -0.3933 -0.1007  0.2496
 9196SOL    HW139050   2.369   3.232   8.435  0.2569  2.5166  0.5643
 9196SOL    HW239051   2.495   3.150   8.409 -1.2811 -0.5446  0.0652
 9197SOL     OW39052   0.922   1.513  13.029 -0.1296 -0.6012 -0.2958
 9197SOL    HW139053   0.838   1.527  13.073  0.0482 -0.7463  0.0902
 9197SOL    HW239054   0.894   1.481  12.943 -1.6533  0.7765 -0.3182
 9198SOL     OW39055   2.489   4.209   1.858  0.0556  0.0695  0.0586
 9198SOL    HW139056   2.572   4.191   1.813 -0.7214  0.8914 -1.6883
 9198SOL    HW239057   2.450   4.121   1.860 -0.7545  0.4422  0.5910
 9199SOL     OW39058   2.822   2.614   1.125  0.2297 -0.1957  0.2951
 9199SOL    HW139059   2.832   2.635   1.217  0.6107  0.6210  0.0650
 9199SOL    HW239060   2.810   2.519   1.127 -1.2258 -0.0373 -0.9433
 9200SOL     OW39061   3.119   2.774  13.823  0.2796 -0.2476 -0.0684
 9200SOL    HW139062   3.158   2.832  13.888 -0.9758 -0.4578  0.8679
 9200SOL    HW239063   3.070   2.717  13.882  1.0533 -0.7797  0.0637
 9201SOL     OW39064   3.984   1.542  12.895  0.3426  0.1393  0.3384
 9201SOL    HW139065   3.971   1.449  12.917 -3.2343  0.7768  0.8402
 9201SOL    HW239066   4.018   1.533  12.806  1.3287  0.0057  0.7344
 9202SOL     OW39067   3.874   0.463  15.393  0.0597 -0.0766  0.6109
 9202SOL    HW139068   3.930   0.531  15.431 -0.1129  0.6582 -0.4474
 9202SOL    HW239069   3.937   0.426  15.331 -1.0437 -0.0079 -0.5523
 9203SOL     OW39070   2.738   0.934   4.497  0.0725  0.0924  0.1415
 9203SOL    HW139071   2.786   1.017   4.493  0.0107  0.0633 -0.9662
 9203SOL    HW239072   2.650   0.964   4.477 -0.0753 -0.0083  0.6318
 9204SOL     OW39073   3.361   0.727   4.264  0.6364 -0.0403  0.1573
 9204SOL    HW139074   3.291   0.792   4.256 -0.2056 -0.6863  2.2152
 9204SOL    HW239075   3.350   0.674   4.185  2.0485 -0.0506 -0.0480
 9205SOL     OW39076   4.535   1.960   4.274  0.3477 -0.1263  0.1188
 9205SOL    HW139077   4.463   1.911   4.234 -0.0599  2.1853 -1.9681
 9205SOL    HW239078   4.492   2.017   4.338  1.1983  0.5075  0.1280
 9206SOL     OW39079   3.485   1.845   9.506  0.0321  0.6322  0.4192
 9206SOL    HW139080   3.526   1.909   9.564  1.6476 -0.2637  0.2829
 9206SOL    HW239081   3.510   1.762   9.548 -0.6213 -0.5460 -1.5148
 9207SOL     OW39082   3.039   0.526   1.284  0.6569 -0.2266 -0.7450
 9207SOL    HW139083   2.985   0.526   1.363  1.2579 -1.4415 -0.3303
 9207SOL    HW239084   3.007   0.603   1.238  2.0836  0.7106 -0.1785
 9208SOL     OW39085   4.101   3.682   4.898 -0.0035 -0.3250  0.3980
 9208SOL    HW139086   4.175   3.743   4.908  0.2314 -0.7161  1.0202
 9208SOL    HW239087   4.089   3.687   4.803  1.6953 -0.3585  0.1739
 9209SOL     OW39088   1.192   2.547   8.752 -0.4575  0.1013 -0.6674
 9209SOL    HW139089   1.177   2.460   8.789  0.8075  0.2064  0.0766
 9209SOL    HW239090   1.104   2.584   8.744 -0.9569 -1.3150 -1.8373
 9210SOL     OW39091   2.602   0.192  17.057 -0.1152 -0.5140 -0.1672
 9210SOL    HW139092   2.514   0.183  17.022  0.0410  0.2197 -0.7415
 9210SOL    HW239093   2.657   0.159  16.986 -1.5976  0.3737 -1.6965
 9211SOL     OW39094   2.613   2.543   1.598  0.3327  0.9587  0.6661
 9211SOL    HW139095   2.569   2.614   1.645 -0.5641  0.8834 -0.0326
 9211SOL    HW239096   2.575   2.465   1.637 -1.4780  1.1669 -0.6442
 9212SOL     OW39097   2.309   3.080   7.771 -0.4386 -0.0515  0.5825
 9212SOL    HW139098   2.298   3.127   7.854  1.1550  1.2659  0.0636
 9212SOL    HW239099   2.400   3.051   7.776 -0.0592  0.7129 -1.7133
 9213SOL     OW39100   0.509   2.660  14.789  0.2956  0.2377  0.0604
 9213SOL    HW139101   0.437   2.705  14.745 -0.0365  0.4694  0.8279
 9213SOL    HW239102   0.565   2.732  14.818  0.4159  0.7299 -1.4051
 9214SOL     OW39103   3.795   3.279  13.491  0.7827  0.7471  0.7974
 9214SOL    HW139104   3.730   3.208  13.489  0.1070  1.3671  0.8175
 9214SOL    HW239105   3.806   3.284  13.586  3.1391  1.7413  0.4656
 9215SOL     OW39106   2.861   0.924   6.792  0.3433  0.1299 -0.2706
 9215SOL    HW139107   2.846   0.874   6.713  0.6789 -1.2358  0.5336
 9215SOL    HW239108   2.900   0.869   6.860 -0.4283  0.1475  0.1978
 9216SOL     OW39109   2.381   2.704   4.805  0.0807  0.4542 -0.6931
 9216SOL    HW139110   2.289   2.728   4.817 -0.9690 -4.3010  0.7136
 9216SOL    HW239111   2.415   2.705   4.895 -0.2959  1.3625 -0.5551
 9217SOL     OW39112   0.884   0.248   3.904  0.3544 -0.2154  0.0752
 9217SOL    HW139113   0.962   0.221   3.953  0.8552  0.3379 -0.4265
 9217SOL    HW239114   0.921   0.262   3.817 -0.6483 -1.5047 -0.5569
 9218SOL     OW39115   1.139   1.060   3.197  0.1730 -0.4417 -0.1068
 9218SOL    HW139116   1.134   1.028   3.287  1.2292  0.6303  0.3289
 9218SOL    HW239117   1.160   0.976   3.156 -0.6870 -0.8699  0.3160
 9219SOL     OW39118   4.708   2.025   0.292 -0.3604  0.3028  0.2218
 9219SOL    HW139119   0.022   1.938   0.302  1.5362  1.1852  0.6510
 9219SOL    HW239120   0.065   2.072   0.277 -0.2123 -0.7706 -2.1767
 9220SOL     OW39121   1.199   0.080   2.436 -0.7083 -0.9216  0.2580
 9220SOL    HW139122   1.261   0.025   2.389 -0.3829 -0.1404 -0.2261
 9220SOL    HW239123   1.232   0.170   2.440  2.2841 -2.0628  0.8509
 9221SOL     OW39124   3.038   1.923   4.883 -0.5633 -0.1318 -0.4881
 9221SOL    HW139125   3.121   1.890   4.919 -0.0064 -0.1579 -1.8022
 9221SOL    HW239126   3.068   2.003   4.839  2.3537 -0.6803  0.4926
 9222SOL     OW39127   1.147   0.515   0.832 -0.3142  0.3012  0.0697
 9222SOL    HW139128   1.172   0.555   0.916 -0.1429  0.0104  0.1578
 9222SOL    HW239129   1.053   0.535   0.823 -0.4384 -0.2547  0.1191
 9223SOL     OW39130   1.837   3.421  17.146 -0.0749  0.5842  0.7154
 9223SOL    HW139131   1.805   3.424  17.056 -0.1705  1.6925  0.7872
 9223SOL    HW239132   1.926   3.386  17.143 -0.2382  0.0739  1.7123
 9224SOL     OW39133   0.856   3.145   4.373  0.4592  0.2714 -0.4807
 9224SOL    HW139134   0.765   3.150   4.343  0.3440  1.6248  0.1058
 9224SOL    HW239135   0.900   3.088   4.310 -0.0428 -0.6352 -0.0187
 9225SOL     OW39136   4.012   2.949   8.554  0.0401 -0.3708 -0.6410
 9225SOL    HW139137   4.053   2.892   8.490 -0.4560 -1.4498  0.0035
 9225SOL    HW239138   4.001   2.897   8.634 -1.5844 -2.0750 -1.9695
 9226SOL     OW39139   0.156   4.356   6.200 -0.2624  0.2661  0.1515
 9226SOL    HW139140   0.173   4.426   6.137 -3.5885  0.6115 -0.3921
 9226SOL    HW239141   0.166   4.397   6.286 -1.9316 -0.4668  0.7066
 9227SOL     OW39142   0.297   1.687   7.110  0.6772  0.0219 -0.3154
 9227SOL    HW139143   0.292   1.660   7.018 -1.9821  2.9888 -1.0548
 9227SOL    HW239144   0.360   1.622   7.141  0.4862 -0.2185 -0.4258
 9228SOL     OW39145   1.190   0.744   4.025  0.5052 -0.0387  0.0729
 9228SOL    HW139146   1.168   0.782   3.940  0.2317 -1.6399 -0.5776
 9228SOL    HW239147   1.285   0.752   4.017  0.5195 -0.4010 -0.1102
 9229SOL     OW39148   0.904   4.606   5.384 -0.1147 -0.0380  0.3081
 9229SOL    HW139149   0.880   4.646   5.301  0.2207 -1.3612 -0.4221
 9229SOL    HW239150   0.977   4.658   5.420  1.9763 -2.6386 -0.1991
 9230SOL     OW39151   3.934   0.401   2.924 -0.2531  0.4544 -0.9524
 9230SOL    HW139152   3.983   0.476   2.889 -2.5274  1.4139 -2.1368
 9230SOL    HW239153   3.866   0.401   2.856 -0.0918  2.6931 -1.1233
 9231SOL     OW39154   3.081   0.314   4.581 -0.2088  0.2013 -0.5942
 9231SOL    HW139155   3.089   0.304   4.486 -0.0518 -0.7256 -0.4819
 9231SOL    HW239156   3.017   0.386   4.582  0.5424  0.9046 -2.2589
 9232SOL     OW39157   0.333   1.480   2.469  0.0768 -0.2932 -0.2563
 9232SOL    HW139158   0.353   1.531   2.391 -0.8752 -2.4601 -1.9224
 9232SOL    HW239159   0.420   1.449   2.494 -0.3926 -0.0239  1.7038
 9233SOL     OW39160   4.508   3.582  10.066 -0.5967 -0.3072 -0.0206
 9233SOL    HW139161   4.594   3.590  10.107 -2.0239 -1.6080  3.2086
 9233SOL    HW239162   4.502   3.489  10.048 -0.4612 -0.6928  1.9540
 9234SOL     OW39163   1.189   4.663   9.321  0.0903 -0.4432  0.2659
 9234SOL    HW139164   1.170   4.623   9.406 -0.7945 -0.1419  0.2141
 9234SOL    HW239165   1.281   4.691   9.320 -0.4752  1.3358 -1.9508
 9235SOL     OW39166   4.234   0.302  14.574 -1.0401 -0.3466 -0.0097
 9235SOL    HW139167   4.193   0.225  14.615 -0.3743 -1.0048 -0.5795
 9235SOL    HW239168   4.165   0.367  14.581 -0.7226  0.0747 -0.7845
 9236SOL     OW39169   0.569   3.783  11.689 -0.2272 -0.0328 -0.4469
 9236SOL    HW139170   0.493   3.767  11.744  1.3087  1.0561  1.9872
 9236SOL    HW239171   0.625   3.714  11.723 -0.7405  0.0772  0.6436
 9237SOL     OW39172   4.311   3.979   0.952  0.1216 -0.4480  0.5576
 9237SOL    HW139173   4.372   4.026   0.895 -1.2856 -0.6761 -1.1498
 9237SOL    HW239174   4.225   4.014   0.928 -0.8939 -2.9674  0.4567
 9238SOL     OW39175   0.644   3.781  15.663  0.0835  0.5277 -0.1825
 9238SOL    HW139176   0.675   3.691  15.668  1.4617  1.1009  1.8450
 9238SOL    HW239177   0.672   3.806  15.575  1.4954  1.4228  0.5108
 9239SOL     OW39178   0.040   2.180   2.879  0.4017 -0.8884  1.1265
 9239SOL    HW139179   4.720   2.185   2.795 -0.3331 -0.7645  1.5204
 9239SOL    HW239180   0.053   2.087   2.894 -0.3850 -1.2552 -0.4346
 9240SOL     OW39181   1.201   1.782   5.167 -0.9594 -0.2861  0.3753
 9240SOL    HW139182   1.229   1.813   5.081  1.4095 -2.0244  0.4929
 9240SOL    HW239183   1.284   1.788   5.214  0.3762 -0.7975 -1.9278
 9241SOL     OW39184   4.311   3.851   5.589  0.2430  0.0870 -0.4130
 9241SOL    HW139185   4.245   3.797   5.545  1.4157 -0.7811 -1.1158
 9241SOL    HW239186   4.366   3.784   5.630 -0.3534 -1.5954 -2.3679
 9242SOL     OW39187   0.297   0.176   3.546 -0.0996  0.3173 -0.6778
 9242SOL    HW139188   0.271   0.262   3.514  1.6497  0.7858 -0.8745
 9242SOL    HW239189   0.323   0.209   3.632 -0.4046  0.4993 -0.6580
 9243SOL     OW39190   2.858   1.050   6.076  0.6367  0.7271  0.3295
 9243SOL    HW139191   2.799   1.071   6.149 -1.6057 -1.2500 -0.9039
 9243SOL    HW239192   2.817   1.104   6.009 -0.1058 -1.2642 -0.8088
 9244SOL     OW39193   1.498   2.465   4.028 -0.1583 -0.5031  0.8763
 9244SOL    HW139194   1.463   2.454   4.116 -1.7622  2.2256  0.5842
 9244SOL    HW239195   1.588   2.492   4.046  0.4505 -1.5836 -0.5116
 9245SOL     OW39196   3.073   4.011   5.189 -0.0516 -0.3537 -0.0057
 9245SOL    HW139197   3.001   3.952   5.211  1.3907 -0.9610  3.0854
 9245SOL    HW239198   3.044   4.048   5.106  0.0362 -1.4631 -0.5236
 9246SOL     OW39199   1.981   3.329   8.547 -0.0286  0.5432  0.2671
 9246SOL    HW139200   2.010   3.330   8.638 -1.4509  0.1519  0.7212
 9246SOL    HW239201   1.913   3.396   8.538  0.0802  0.4879 -0.9737
 9247SOL     OW39202   2.995   3.638   3.673  0.3534  0.6393  0.1636
 9247SOL    HW139203   3.049   3.685   3.736 -0.3093  1.3800  0.1831
 9247SOL    HW239204   2.916   3.693   3.669  0.6031  0.9530 -0.3536
 9248SOL     OW39205   2.870   0.712   7.277 -0.3066 -0.1524 -0.1666
 9248SOL    HW139206   2.926   0.729   7.353 -1.8087  0.0830  0.8846
 9248SOL    HW239207   2.798   0.664   7.319  0.1140  0.3380  1.1127
 9249SOL     OW39208   1.237   2.424   6.513  0.5024  0.1007 -0.1266
 9249SOL    HW139209   1.324   2.463   6.505  0.3846  0.9831  2.9576
 9249SOL    HW239210   1.201   2.494   6.567  1.6031  0.8578 -0.3606
 9250SOL     OW39211   0.920   2.989   5.760 -0.3803 -0.3020 -0.3895
 9250SOL    HW139212   0.981   2.969   5.689  0.7218  0.9373  0.2012
 9250SOL    HW239213   0.868   2.909   5.769 -1.3221 -0.0249 -3.2265
 9251SOL     OW39214   0.502   2.874   4.812  0.2036  0.0478 -0.5489
 9251SOL    HW139215   0.486   2.913   4.899  1.4648 -1.7241  0.4714
 9251SOL    HW239216   0.458   2.789   4.812  0.7947 -0.2564  0.8682
 9252SOL     OW39217   2.193   3.967  10.640  0.3068  0.3761 -0.4891
 9252SOL    HW139218   2.283   3.959  10.608 -0.0161  0.6200 -1.4859
 9252SOL    HW239219   2.154   3.952  10.554  1.1724  1.0188 -0.9979
 9253SOL     OW39220   3.524   0.695  15.000 -0.2084  0.2028 -0.5175
 9253SOL    HW139221   3.576   0.657  15.070 -2.4328  2.6984  2.4646
 9253SOL    HW239222   3.513   0.780  15.042  0.0077 -0.8665  1.6558
 9254SOL     OW39223   4.066   3.397  16.435  0.1739  0.5104  0.0869
 9254SOL    HW139224   4.105   3.378  16.350  1.5811  1.5982  0.4953
 9254SOL    HW239225   4.125   3.353  16.497  1.4541  0.9359 -0.8492
 9255SOL     OW39226   1.280   1.424   4.733 -0.0045  0.1837 -0.4207
 9255SOL    HW139227   1.204   1.442   4.677  0.1416  0.9691 -0.3740
 9255SOL    HW239228   1.342   1.487   4.696 -3.2384  3.3237 -0.5383
 9256SOL     OW39229   0.257   1.982   3.148 -0.5179 -0.0347  0.1050
 9256SOL    HW139230   0.219   1.922   3.083  1.2667 -0.8569 -0.1618
 9256SOL    HW239231   0.285   1.921   3.215  1.9658  0.7990 -0.1610
 9257SOL     OW39232   4.404   1.311   9.130 -0.2328  0.3113  0.4891
 9257SOL    HW139233   4.423   1.290   9.222  1.5155  1.4891  0.3829
 9257SOL    HW239234   4.371   1.400   9.137  0.0591  0.5219 -0.8975
 9258SOL     OW39235   2.594   1.353   8.817 -0.2202 -0.0949 -0.5911
 9258SOL    HW139236   2.636   1.393   8.894 -0.4034  0.2623 -0.6753
 9258SOL    HW239237   2.662   1.291   8.792 -1.0450 -1.1028 -0.3197
 9259SOL     OW39238   3.673   3.284   1.004 -0.2546 -0.3722 -0.0690
 9259SOL    HW139239   3.742   3.219   1.018  0.0416  0.0479  0.4196
 9259SOL    HW239240   3.712   3.365   1.037 -0.4226 -0.4464  0.3180
 9260SOL     OW39241   0.906   4.657   0.142 -0.3035 -0.1227  0.5742
 9260SOL    HW139242   0.909   4.691   0.053  3.1399  0.8021  1.0314
 9260SOL    HW239243   0.916   4.562   0.136 -1.8715 -0.2146 -0.3189
 9261SOL     OW39244   1.545   2.901  14.215 -0.1923  0.2910 -0.2022
 9261SOL    HW139245   1.500   2.956  14.280 -0.3429  1.1884 -1.0793
 9261SOL    HW239246   1.609   2.855  14.269 -0.6751 -0.8082 -0.5651
 9262SOL     OW39247   4.291   0.616   6.043  0.2891  0.2278 -0.4826
 9262SOL    HW139248   4.255   0.697   6.007 -1.2638  0.0666  0.7254
 9262SOL    HW239249   4.246   0.552   5.988 -1.1260  0.3578  0.5268
 9263SOL     OW39250   1.647   0.925   4.907  1.0283  0.1426 -0.1652
 9263SOL    HW139251   1.669   0.998   4.965 -0.4373  0.8378 -0.4653
 9263SOL    HW239252   1.553   0.944   4.898  1.2855  1.9367  1.0190
 9264SOL     OW39253   2.658   2.060  16.732  0.2811 -0.0033 -0.1240
 9264SOL    HW139254   2.728   1.997  16.719  2.8634  2.7239  0.5808
 9264SOL    HW239255   2.685   2.112  16.808  0.1988 -0.2574  0.0820
 9265SOL     OW39256   4.648   0.263   6.379  0.4139 -0.0964  0.2176
 9265SOL    HW139257   4.561   0.238   6.409  0.7239  0.0516  1.2579
 9265SOL    HW239258   4.703   0.191   6.411  0.7365 -0.3056 -0.7960
 9266SOL     OW39259   0.219   4.252   1.697  0.7272 -0.2882 -0.3056
 9266SOL    HW139260   0.174   4.231   1.779 -0.3300  0.9765 -0.5679
 9266SOL    HW239261   0.145   4.277   1.642  0.6970 -0.6555 -0.4357
 9267SOL     OW39262   1.107   0.847   2.982  0.7817  0.4345  0.1712
 9267SOL    HW139263   1.078   0.811   2.898  1.5538 -1.7855  0.8726
 9267SOL    HW239264   1.187   0.896   2.964  0.7572  1.0527  1.7353
 9268SOL     OW39265   4.006   1.874  11.566 -0.0601 -0.3390  0.2199
 9268SOL    HW139266   4.070   1.933  11.525 -1.9556  0.4637 -1.5613
 9268SOL    HW239267   3.985   1.829  11.484  1.7137 -1.1345  0.2071
 9269SOL     OW39268   2.112   0.120   2.583 -0.0941  0.4368  0.0582
 9269SOL    HW139269   2.156   0.047   2.626  0.1613 -0.8367 -2.3930
 9269SOL    HW239270   2.178   0.139   2.517 -0.2532 -0.3640 -0.3281
 9270SOL     OW39271   2.246   4.300   3.832  0.5046  0.0835 -0.2034
 9270SOL    HW139272   2.247   4.387   3.871 -1.3006 -0.1276  0.3434
 9270SOL    HW239273   2.166   4.303   3.780  0.2801 -0.0011  0.1367
 9271SOL     OW39274   4.657   3.024   8.880  0.1971 -0.2969  0.5143
 9271SOL    HW139275   4.615   3.099   8.838  0.5348 -1.3103 -1.6596
 9271SOL    HW239276   0.014   3.074   8.890 -1.3713  2.3332  0.2496
 9272SOL     OW39277   1.088   0.483   1.904 -0.6817 -0.1560 -0.1445
 9272SOL    HW139278   1.072   0.395   1.872 -1.9217  0.4487 -1.1954
 9272SOL    HW239279   1.183   0.476   1.918 -0.7308 -0.8366 -0.1517
 9273SOL     OW39280   3.946   2.559  17.088 -0.0259  0.1792  0.2515
 9273SOL    HW139281   3.969   2.649  17.064 -1.1248  0.7991  1.4948
 9273SOL    HW239282   4.004   2.511  17.030 -1.0485 -1.1797  0.3619
 9274SOL     OW39283   1.144   4.051  14.046  0.1606  0.4815 -0.0831
 9274SOL    HW139284   1.228   4.022  14.010  0.2844  0.7080  0.0259
 9274SOL    HW239285   1.116   3.976  14.099 -0.1021  0.6685  0.0446
 9275SOL     OW39286   2.065   3.043   3.432  0.1652  0.0022 -0.0414
 9275SOL    HW139287   2.114   3.013   3.509 -0.5483  0.1282  0.4619
 9275SOL    HW239288   2.120   3.115   3.400 -0.0389  0.0729 -0.2286
 9276SOL     OW39289   3.293   0.952   8.390  0.0485  0.1568 -0.1400
 9276SOL    HW139290   3.256   1.028   8.433  0.1680  1.2391 -1.9518
 9276SOL    HW239291   3.385   0.980   8.385  0.5754 -1.7114 -1.3130
 9277SOL     OW39292   4.559   0.961   7.968  0.6777 -0.2115 -0.4210
 9277SOL    HW139293   4.600   0.947   8.054 -1.6386  0.4907  0.8165
 9277SOL    HW239294   4.468   0.936   7.983  0.4200  1.1642  0.3781
 9278SOL     OW39295   4.354   3.555   7.044  0.4938 -0.4899 -0.2246
 9278SOL    HW139296   4.443   3.530   7.020  0.3256 -1.2923 -0.0275
 9278SOL    HW239297   4.380   3.578   7.133  0.9253 -3.7185  0.5068
 9279SOL     OW39298   3.875   0.537   6.790 -0.4265  0.7852 -0.0502
 9279SOL    HW139299   3.811   0.497   6.848 -0.3768 -0.3836 -0.7895
 9279SOL    HW239300   3.890   0.466   6.727  0.1127  1.0947 -0.2779
 9280SOL     OW39301   3.415   2.903   1.840 -0.4205 -0.2681 -0.0742
 9280SOL    HW139302   3.344   2.961   1.867  0.0657 -0.2279  1.1112
 9280SOL    HW239303   3.470   2.917   1.917  1.6833 -2.3809 -1.1924
 9281SOL     OW39304   2.551   0.123   4.923 -0.7522 -0.4992  0.1593
 9281SOL    HW139305   2.470   0.171   4.905  0.3541  0.7607 -1.4970
 9281SOL    HW239306   2.534   0.090   5.011 -1.1842 -2.3367 -0.6129
 9282SOL     OW39307   2.569   1.209   2.755  0.4305 -0.2945 -0.4454
 9282SOL    HW139308   2.516   1.276   2.711  0.7772  1.2990  1.5631
 9282SOL    HW239309   2.652   1.250   2.730  0.1312  0.8330  0.3782
 9283SOL     OW39310   2.695   4.377   8.582  0.7890  0.1000  0.5994
 9283SOL    HW139311   2.643   4.302   8.609 -0.4090  0.8699  0.4044
 9283SOL    HW239312   2.701   4.440   8.654 -1.2774  1.3204 -0.3064
 9284SOL     OW39313   1.716   4.724   2.093 -0.3148 -0.2550  0.1462
 9284SOL    HW139314   1.802   4.691   2.117  0.2565  0.6349 -0.6901
 9284SOL    HW239315   1.747   0.080   2.052  0.6027 -0.3531  0.6518
 9285SOL     OW39316   1.944   0.558   4.723  0.0331 -0.1834  0.7012
 9285SOL    HW139317   1.919   0.646   4.752  3.0036  1.7832 -2.6235
 9285SOL    HW239318   1.872   0.508   4.760  0.5257 -1.5545 -0.2000
 9286SOL     OW39319   1.370   1.267  10.488  0.2850  0.4416  0.0695
 9286SOL    HW139320   1.401   1.176  10.487  0.2599  0.4447 -0.9584
 9286SOL    HW239321   1.294   1.267  10.430  0.7022  0.4360 -0.4815
 9287SOL     OW39322   1.986   4.361   4.844  0.3617  0.1482  0.1132
 9287SOL    HW139323   2.042   4.323   4.776 -0.9335  1.8260 -1.9213
 9287SOL    HW239324   1.961   4.452   4.828  1.4086  0.5336  0.6699
 9288SOL     OW39325   0.584   2.471   7.397  0.7269  0.6520 -0.4316
 9288SOL    HW139326   0.514   2.430   7.448  1.0789  1.2148  0.4851
 9288SOL    HW239327   0.546   2.545   7.350  0.6949  0.7061 -0.3190
 9289SOL     OW39328   3.307   4.164   8.567 -0.2276 -0.4833 -0.1678
 9289SOL    HW139329   3.256   4.101   8.617  0.9569 -0.0301  1.6363
 9289SOL    HW239330   3.390   4.115   8.561  0.3342  0.6616 -1.8359
 9290SOL     OW39331   0.187   4.495   7.494 -0.3984 -0.0056 -0.4326
 9290SOL    HW139332   0.123   4.474   7.562  1.1320  0.1875  1.0764
 9290SOL    HW239333   0.272   4.464   7.526 -1.9652 -0.6944  3.0764
 9291SOL     OW39334   2.969   4.541  16.700 -0.1248  0.2211 -0.2658
 9291SOL    HW139335   2.920   4.547  16.618  0.1744 -1.6638 -0.5860
 9291SOL    HW239336   3.047   4.593  16.685  1.2644 -1.2532  1.7938
 9292SOL     OW39337   3.318   3.865   4.078  0.6265  0.0509 -0.0306
 9292SOL    HW139338   3.321   3.857   3.983 -0.3620 -0.6959  0.0026
 9292SOL    HW239339   3.396   3.819   4.110  1.6275  0.6885 -1.5457
 9293SOL     OW39340   0.775   4.366   0.944  0.0072  0.3108  0.1441
 9293SOL    HW139341   0.769   4.289   0.888 -0.0303 -1.7212  2.9055
 9293SOL    HW239342   0.869   4.381   0.960  0.0736  1.9631 -1.8155
 9294SOL     OW39343   0.125   0.605   5.791  1.0096 -0.5433  0.1445
 9294SOL    HW139344   0.096   0.561   5.712 -2.8499  0.4104  1.0040
 9294SOL    HW239345   0.164   0.525   5.827 -3.3633 -2.5214  0.4933
 9295SOL     OW39346   3.529   3.579  12.710  0.3699  0.0055  0.0484
 9295SOL    HW139347   3.517   3.653  12.650 -1.3921 -0.6688 -0.4190
 9295SOL    HW239348   3.442   3.580  12.750  0.3268 -2.7391  0.0638
 9296SOL     OW39349   1.173   2.923   7.052 -0.8348  0.2843  0.1196
 9296SOL    HW139350   1.120   2.923   7.132  0.9878  1.3658  1.3290
 9296SOL    HW239351   1.238   2.990   7.075 -0.4042  0.1393 -0.6968
 9297SOL     OW39352   2.340   0.299   6.004  0.3068  0.4227 -0.4159
 9297SOL    HW139353   2.279   0.248   5.951  0.3180  0.3627 -0.3717
 9297SOL    HW239354   2.425   0.255   6.004  1.2998  2.3668 -0.4167
 9298SOL     OW39355   0.286   4.053   6.565 -0.5645  0.2525  0.5198
 9298SOL    HW139356   0.356   3.993   6.542 -1.1206  0.0156 -0.5418
 9298SOL    HW239357   0.207   4.004   6.541  1.0165 -2.7099  1.3337
 9299SOL     OW39358   4.515   0.656   5.578  0.3449  0.2142  0.5568
 9299SOL    HW139359   4.469   0.607   5.510  0.4288 -0.9745  1.3593
 9299SOL    HW239360   4.475   0.626   5.660 -0.6845 -0.1866 -0.0887
 9300SOL     OW39361   3.555   4.636   7.839  0.3393 -0.2422 -0.3432
 9300SOL    HW139362   3.610   4.683   7.902  1.4018 -0.7286 -0.9107
 9300SOL    HW239363   3.552   4.698   7.766  2.2468 -0.1649 -0.3709
 9301SOL     OW39364   3.515   1.126   7.874 -0.4018 -0.5843 -0.4587
 9301SOL    HW139365   3.510   1.220   7.893 -1.2247 -0.6356 -0.4120
 9301SOL    HW239366   3.452   1.094   7.938  0.1008  1.5940  1.1050
 9302SOL     OW39367   2.818   0.401  17.419  0.1056  0.2343  0.1199
 9302SOL    HW139368   2.748   0.454  17.381  0.7180 -0.2238 -1.6169
 9302SOL    HW239369   2.767   0.320  17.420 -0.2415  0.4651  1.1875
 9303SOL     OW39370   4.319   0.383   0.857 -0.2612  0.4429  0.7938
 9303SOL    HW139371   4.392   0.333   0.895 -0.7265 -1.6153 -1.0601
 9303SOL    HW239372   4.250   0.367   0.922 -2.5657 -0.0733 -1.7995
 9304SOL     OW39373   0.611   1.292  13.161  0.4059  0.3565 -0.3981
 9304SOL    HW139374   0.555   1.243  13.101 -0.5684  1.2631 -0.2239
 9304SOL    HW239375   0.547   1.301  13.232 -0.1900  0.9864 -1.0128
 9305SOL     OW39376   0.139   3.559   8.156  0.5375  0.3087 -0.8765
 9305SOL    HW139377   0.231   3.546   8.132  0.7284  1.0109 -0.5031
 9305SOL    HW239378   0.097   3.513   8.084 -0.6931 -0.0315  0.0519
 9306SOL     OW39379   2.489   2.315   6.906  0.0033 -0.4023  0.4367
 9306SOL    HW139380   2.434   2.333   6.982  0.0731  2.6653 -0.2700
 9306SOL    HW239381   2.568   2.291   6.955  1.7546  2.3480 -1.0395
 9307SOL     OW39382   4.418   4.385   2.546  1.0533  0.0532 -0.1439
 9307SOL    HW139383   4.469   4.454   2.502  1.8225 -1.0877 -1.0246
 9307SOL    HW239384   4.400   4.425   2.631 -1.0616  0.9820 -0.9972
 9308SOL     OW39385   0.884   1.634  17.404 -0.3443 -0.3987  0.2873
 9308SOL    HW139386   0.820   1.578  17.448 -0.1287 -1.0338 -0.2153
 9308SOL    HW239387   0.897   1.578  17.328  1.2694 -0.1333  0.3593
 9309SOL     OW39388   0.812   1.742   7.591  0.4330 -0.1272 -0.0452
 9309SOL    HW139389   0.902   1.712   7.597  0.0101 -1.8011 -1.9502
 9309SOL    HW239390   0.812   1.800   7.514 -0.7237 -1.9222 -1.3968
 9310SOL     OW39391   4.393   2.325   9.204  0.0131 -0.2569  0.2793
 9310SOL    HW139392   4.298   2.316   9.198  0.2836 -1.4813 -2.3841
 9310SOL    HW239393   4.420   2.303   9.115  1.5394 -1.5005  1.0431
 9311SOL     OW39394   0.472   3.966   0.225 -0.2815 -0.3993 -0.6927
 9311SOL    HW139395   0.531   3.981   0.151  1.4381  1.3558  1.0097
 9311SOL    HW239396   0.530   3.986   0.299 -2.4261 -0.8641  1.1238
 9312SOL     OW39397   4.538   2.982   3.352  0.8030 -0.0776 -0.1360
 9312SOL    HW139398   4.553   3.033   3.432  0.0389  1.8495 -1.2301
 9312SOL    HW239399   4.555   2.898   3.395  1.2142 -1.5962 -3.2719
 9313SOL     OW39400   1.547   2.339   2.432 -0.3753 -0.1398  0.5125
 9313SOL    HW139401   1.619   2.291   2.391 -0.6193  1.0044 -1.2904
 9313SOL    HW239402   1.479   2.357   2.367  1.1441  1.6987 -0.5591
 9314SOL     OW39403   2.411   1.970   2.537  1.0179 -0.3496 -0.3182
 9314SOL    HW139404   2.466   2.024   2.593  0.7324  2.0596 -2.3694
 9314SOL    HW239405   2.371   2.033   2.478 -3.6973 -1.1265  2.0855
 9315SOL     OW39406   0.186   2.029  15.172 -0.6886  0.0090 -0.0310
 9315SOL    HW139407   0.104   2.051  15.130 -0.4061  1.5925  0.2445
 9315SOL    HW239408   0.204   1.953  15.117 -3.4585 -0.3141 -0.4938
 9316SOL     OW39409   4.623   4.500   9.148  0.2288  0.4958  0.4243
 9316SOL    HW139410   4.715   4.475   9.156 -0.0717 -1.0380 -0.8067
 9316SOL    HW239411   4.630   4.577   9.091  1.3786  0.2748  0.2663
 9317SOL     OW39412   3.952   3.817   1.054  1.0197 -0.2596 -0.3210
 9317SOL    HW139413   4.002   3.873   0.995 -0.9205  0.3842 -1.3719
 9317SOL    HW239414   3.886   3.781   0.994 -2.0693  1.9278  1.7982
 9318SOL     OW39415   4.042   1.727   2.463 -0.2468  0.2137 -0.0395
 9318SOL    HW139416   4.091   1.698   2.540 -1.3609  2.1216  1.4021
 9318SOL    HW239417   4.044   1.647   2.410 -3.7565  0.9408 -1.2870
 9319SOL     OW39418   0.537   2.732  10.651 -0.3110 -0.4506 -0.5358
 9319SOL    HW139419   0.512   2.712  10.560 -1.1636 -2.0714  0.0518
 9319SOL    HW239420   0.628   2.758  10.637 -0.3536 -0.3961 -0.7101
 9320SOL     OW39421   4.231   1.374   4.393  0.2171 -0.0715  0.1950
 9320SOL    HW139422   4.173   1.319   4.445  1.7668 -0.4033  1.5954
 9320SOL    HW239423   4.271   1.433   4.458  0.2559  0.1112  0.0047
 9321SOL     OW39424   3.834   0.998   4.361  0.3251 -0.3362  0.4728
 9321SOL    HW139425   3.909   0.939   4.364  0.9353  0.5955  2.8822
 9321SOL    HW239426   3.759   0.938   4.358 -0.1752  0.2477  1.2988
 9322SOL     OW39427   3.238   1.995   1.933 -0.0078  0.5552 -0.3987
 9322SOL    HW139428   3.164   2.032   1.885 -1.2511 -2.5129 -0.8415
 9322SOL    HW239429   3.190   1.944   1.998 -0.9268  1.2940 -0.5056
 9323SOL     OW39430   3.021   1.708   7.352  0.1990 -0.2019  0.1683
 9323SOL    HW139431   3.067   1.632   7.317  1.0254  0.3455  0.0783
 9323SOL    HW239432   2.974   1.741   7.276  1.4352  1.9362  0.3469
 9324SOL     OW39433   0.406   1.394   6.068 -0.3541  0.2361 -0.0220
 9324SOL    HW139434   0.359   1.328   6.018 -0.4470 -0.3500  0.8488
 9324SOL    HW239435   0.384   1.369   6.158  1.5831 -1.0308  0.1068
 9325SOL     OW39436   1.905   2.194   3.131 -0.2071  0.5325  0.5547
 9325SOL    HW139437   1.956   2.162   3.057 -0.5118  1.1381  0.0845
 9325SOL    HW239438   1.815   2.201   3.100  0.0516 -0.1096 -0.3366
 9326SOL     OW39439   0.649   2.321  11.772 -0.0408  0.1799 -0.1241
 9326SOL    HW139440   0.706   2.268  11.716 -0.2539  0.2289 -0.3849
 9326SOL    HW239441   0.560   2.287  11.767  0.6323 -1.5599 -0.3359
 9327SOL     OW39442   4.530   4.449   7.846 -0.4194 -0.2235  0.3845
 9327SOL    HW139443   4.590   4.452   7.772 -0.3191  0.9127  0.5128
 9327SOL    HW239444   4.461   4.512   7.826  1.8308  1.8433 -0.7967
 9328SOL     OW39445   1.901   2.797  14.505 -0.1681 -0.1331  0.1596
 9328SOL    HW139446   1.991   2.765  14.508 -0.0714  0.1574  0.4752
 9328SOL    HW239447   1.887   2.826  14.595  1.4575  0.0561  0.3438
 9329SOL     OW39448   4.365   3.929   3.091 -0.2582 -0.4784 -0.2657
 9329SOL    HW139449   4.359   3.927   2.996 -0.0005  0.5231 -0.2991
 9329SOL    HW239450   4.273   3.927   3.119  0.1595  1.9245  1.2395
 9330SOL     OW39451   2.374   0.847   0.455 -0.8250  0.6233 -0.3500
 9330SOL    HW139452   2.388   0.925   0.401 -0.3451  1.5207  1.0693
 9330SOL    HW239453   2.448   0.806   0.410 -2.5232 -1.5662 -1.1604
 9331SOL     OW39454   1.667   1.988  12.672 -0.0923 -0.4002 -0.1686
 9331SOL    HW139455   1.688   1.964  12.762  2.0275  1.9757 -0.0138
 9331SOL    HW239456   1.674   1.904  12.627  1.7757 -0.1793 -0.3028
 9332SOL     OW39457   1.234   4.228  16.375  0.1776  0.1207 -0.3133
 9332SOL    HW139458   1.240   4.138  16.344 -1.8283 -0.1726  0.1501
 9332SOL    HW239459   1.208   4.273  16.295 -0.0599 -1.1720 -0.9527
 9333SOL     OW39460   4.598   3.896   5.139  0.1220 -0.0832 -0.1776
 9333SOL    HW139461   4.635   3.813   5.167  2.3081  1.0227  0.1770
 9333SOL    HW239462   4.540   3.916   5.213  0.6745  1.8568 -0.2663
 9334SOL     OW39463   2.777   4.245  12.133  0.7998 -0.1257  0.3494
 9334SOL    HW139464   2.724   4.294  12.071  0.5529 -1.3664 -0.4183
 9334SOL    HW239465   2.719   4.171  12.152  0.5707  0.2493  1.1247
 9335SOL     OW39466   2.705   1.738   2.982  0.0340  0.4423  0.5824
 9335SOL    HW139467   2.629   1.743   3.041 -0.9582 -1.3837 -0.5560
 9335SOL    HW239468   2.664   1.735   2.895  0.7316  1.8349  0.1887
 9336SOL     OW39469   4.180   1.615   2.898  0.6938 -0.3876  0.0196
 9336SOL    HW139470   4.135   1.531   2.895 -1.7999  0.9565 -0.3879
 9336SOL    HW239471   4.204   1.631   2.806  0.6049 -0.9540 -0.0989
 9337SOL     OW39472   2.036   2.494   3.876 -0.2805 -0.0388  0.5972
 9337SOL    HW139473   2.087   2.461   3.950 -0.3228 -1.5788 -0.0483
 9337SOL    HW239474   1.966   2.430   3.890 -1.2401  0.5787 -1.3851
 9338SOL     OW39475   0.101   3.904  12.055 -0.9944  0.9014  0.3804
 9338SOL    HW139476   0.020   3.854  12.054 -0.4821  0.0721  0.1132
 9338SOL    HW239477   0.112   3.919  12.149  1.6647  3.2210 -0.3025
 9339SOL     OW39478   0.733   1.295  15.440  0.3173 -0.0522 -0.0527
 9339SOL    HW139479   0.708   1.261  15.354 -0.5278 -1.3252  0.7116
 9339SOL    HW239480   0.658   1.348  15.469  1.5403  0.8171  1.5261
 9340SOL     OW39481   2.125   2.869   8.695 -0.2035 -0.0161 -0.2038
 9340SOL    HW139482   2.130   2.814   8.773 -0.0038 -1.3634 -1.1601
 9340SOL    HW239483   2.166   2.949   8.729  1.2798 -1.1334  0.6482
 9341SOL     OW39484   3.890   3.790   3.232  0.2393 -0.0784  0.1938
 9341SOL    HW139485   3.798   3.764   3.227  0.0395  0.8079 -0.6267
 9341SOL    HW239486   3.932   3.706   3.251  0.2493  0.0001  0.5344
 9342SOL     OW39487   4.334   4.603   4.753 -0.6231 -0.1193  0.1570
 9342SOL    HW139488   4.332   4.642   4.840  1.4226  1.6681 -0.6080
 9342SOL    HW239489   4.242   4.616   4.730 -1.1446 -0.7944  1.8614
 9343SOL     OW39490   3.056   4.142  14.400 -0.7403  0.0587  0.2998
 9343SOL    HW139491   3.124   4.204  14.376 -0.9166  0.5550  1.0922
 9343SOL    HW239492   3.116   4.068  14.412 -1.6004 -0.5788  0.6612
 9344SOL     OW39493   3.534   0.209  10.782  0.6630  0.4972 -0.1984
 9344SOL    HW139494   3.605   0.150  10.809 -0.8203  0.1251  2.8328
 9344SOL    HW239495   3.532   0.196  10.687 -2.8006 -1.0610  0.0811
 9345SOL     OW39496   0.604   3.525  10.269 -0.5920  0.7699 -0.6034
 9345SOL    HW139497   0.636   3.455  10.212 -1.4879 -1.3800  1.5080
 9345SOL    HW239498   0.572   3.465  10.337 -0.0383  1.1647  0.0049
 9346SOL     OW39499   0.958   0.253  17.176  1.0247  0.2999  0.4021
 9346SOL    HW139500   0.967   0.181  17.238 -0.4988  0.7738  1.1635
 9346SOL    HW239501   1.022   0.241  17.106  1.4915  1.1591  0.6851
 9347SOL     OW39502   1.238   1.636  13.539 -0.5484  0.4812 -0.6471
 9347SOL    HW139503   1.164   1.591  13.499 -0.0803 -0.2281 -0.7115
 9347SOL    HW239504   1.316   1.583  13.523 -0.9202 -0.1410 -0.4251
 9348SOL     OW39505   3.282   4.263  14.320  0.1262 -0.3623 -0.4182
 9348SOL    HW139506   3.295   4.291  14.410  2.2600 -0.7870 -0.5890
 9348SOL    HW239507   3.368   4.258  14.277  0.6693  0.2449  0.6109
 9349SOL     OW39508   4.098   0.105  10.888  0.0269  0.2194 -0.5836
 9349SOL    HW139509   4.067   0.051  10.960  1.1677  2.2113  1.4123
 9349SOL    HW239510   4.031   0.173  10.880  1.4171  1.7832  1.2225
 9350SOL     OW39511   3.203   0.610  13.457  0.2349 -0.2629 -0.3247
 9350SOL    HW139512   3.127   0.553  13.447  1.1946 -2.0988  2.7557
 9350SOL    HW239513   3.227   0.595  13.548  1.2105  2.6428 -0.1169
 9351SOL     OW39514   1.659   4.120  16.622  0.6522  0.3255  0.4337
 9351SOL    HW139515   1.576   4.083  16.591  1.3936  0.7462 -2.0499
 9351SOL    HW239516   1.721   4.064  16.577 -0.4014 -0.3823 -0.1373
 9352SOL     OW39517   0.915   3.008  12.464  0.1245 -0.2859 -0.3542
 9352SOL    HW139518   0.851   3.074  12.489 -0.1785 -0.7782  0.1684
 9352SOL    HW239519   0.967   3.055  12.398  0.4922  1.6477  1.3386
 9353SOL     OW39520   2.940   3.547   4.488  0.0809  0.0684  0.4651
 9353SOL    HW139521   2.922   3.455   4.467  2.6290 -0.7667  1.9740
 9353SOL    HW239522   2.876   3.550   4.559 -0.1498  0.6903  0.2341
 9354SOL     OW39523   1.296   0.931   0.751  0.1395  0.0200  0.0060
 9354SOL    HW139524   1.375   0.919   0.804 -2.1517 -0.7907  3.2896
 9354SOL    HW239525   1.222   0.940   0.812  3.1312  0.9639  3.4796
 9355SOL     OW39526   3.155   4.476   1.497  0.1924 -0.3907  0.0886
 9355SOL    HW139527   3.194   4.563   1.504 -0.5682  0.0753 -1.5929
 9355SOL    HW239528   3.199   4.437   1.422 -0.0565 -0.4107 -0.0479
 9356SOL     OW39529   2.580   3.653   5.139  0.6300  0.0114  0.1608
 9356SOL    HW139530   2.517   3.724   5.149  2.9240  2.2498 -1.1801
 9356SOL    HW239531   2.558   3.595   5.212  2.9520  0.2951  1.0809
 9357SOL     OW39532   2.982   1.521   3.025 -0.2602  0.0726  0.1908
 9357SOL    HW139533   2.894   1.489   3.046 -0.3543 -0.6290 -1.3187
 9357SOL    HW239534   2.969   1.615   3.015  1.7064  0.0728 -2.2900
 9358SOL     OW39535   3.081   2.249   0.070  0.4658 -0.3285  0.3506
 9358SOL    HW139536   3.170   2.215   0.078  0.4937 -0.6371 -1.1710
 9358SOL    HW239537   3.078   2.343   0.088 -2.1790 -0.1435 -0.9603
 9359SOL     OW39538   2.040   4.518   5.212 -0.4736 -0.4768  0.4077
 9359SOL    HW139539   1.953   4.495   5.246 -0.4712  0.1070  0.8101
 9359SOL    HW239540   2.079   4.432   5.201  1.3434  0.6871 -2.3131
 9360SOL     OW39541   0.729   4.290   7.039 -0.0751  0.0499  0.1616
 9360SOL    HW139542   0.723   4.314   6.946 -1.2705 -0.9399 -0.0153
 9360SOL    HW239543   0.818   4.258   7.054 -0.9666 -2.1396  0.7102
 9361SOL     OW39544   2.853   0.565   2.717  0.5059 -0.0807 -0.0137
 9361SOL    HW139545   2.919   0.615   2.669 -0.5897  1.0567 -0.3203
 9361SOL    HW239546   2.811   0.635   2.766 -0.7553 -0.4323 -0.5736
 9362SOL     OW39547   4.573   1.599   2.608 -0.4346  0.5310 -1.0435
 9362SOL    HW139548   4.530   1.520   2.639 -0.3304  0.4614 -1.0760
 9362SOL    HW239549   4.666   1.577   2.616 -0.5580  0.6972  0.8813
 9363SOL     OW39550   2.761   2.501   6.216  0.2550  0.1210 -0.3851
 9363SOL    HW139551   2.769   2.406   6.201  2.8192  0.4264 -1.0267
 9363SOL    HW239552   2.814   2.496   6.296 -0.6574 -0.3970  0.1798
 9364SOL     OW39553   2.591   3.988   1.321  0.2317 -0.1629  0.5643
 9364SOL    HW139554   2.553   3.975   1.234  3.2740 -0.2812 -0.7379
 9364SOL    HW239555   2.684   3.998   1.301  0.9131 -2.4227  2.5478
 9365SOL     OW39556   1.413   0.043  11.776 -0.5173 -0.4272  0.0000
 9365SOL    HW139557   1.379   4.701  11.716 -2.4551  0.5952 -0.0275
 9365SOL    HW239558   1.479   4.719  11.825  0.0970  2.3584  1.9771
 9366SOL     OW39559   2.715   2.472   3.494 -0.2995 -0.1345 -0.0423
 9366SOL    HW139560   2.650   2.518   3.547 -0.6098 -2.1094  1.2741
 9366SOL    HW239561   2.796   2.517   3.516 -0.8192  1.9686 -2.3310
 9367SOL     OW39562   0.641   4.682   0.638 -0.5139 -0.1027 -0.2672
 9367SOL    HW139563   0.717   4.692   0.694 -0.8923  0.4218  0.1464
 9367SOL    HW239564   0.580   0.025   0.669  1.3155  2.7537 -2.8744
 9368SOL     OW39565   0.630   4.015  11.197  0.0724  0.3030  0.2202
 9368SOL    HW139566   0.541   4.049  11.204 -0.0366 -0.2444  1.5472
 9368SOL    HW239567   0.632   3.955  11.123 -1.1435 -0.6789  0.9874
 9369SOL     OW39568   0.461   3.145  11.819 -0.2767  0.0652 -0.4680
 9369SOL    HW139569   0.457   3.228  11.773 -2.0422  0.8720  1.1342
 9369SOL    HW239570   0.374   3.113  11.796  0.1515 -0.7426 -0.9587
 9370SOL     OW39571   4.695   4.431   8.679  0.0878  0.2287  0.2617
 9370SOL    HW139572   4.646   4.469   8.752  1.4288 -0.5677  1.5792
 9370SOL    HW239573   4.629   4.470   8.621  0.3512  0.0873 -0.1287
 9371SOL     OW39574   1.149   0.368   3.428  0.1065  0.1138 -0.5590
 9371SOL    HW139575   1.227   0.423   3.437 -1.2866  1.8989  0.4910
 9371SOL    HW239576   1.177   0.283   3.392 -0.0685 -1.2983  2.6474
 9372SOL     OW39577   4.292   0.215   4.898  0.0696  0.7330  0.0848
 9372SOL    HW139578   4.329   0.177   4.818  0.0802 -0.0864  0.4825
 9372SOL    HW239579   4.199   0.215   4.876  0.2541 -3.8534 -0.5464
 9373SOL     OW39580   3.221   3.042   4.669 -0.1502 -0.2453 -0.4168
 9373SOL    HW139581   3.248   3.131   4.649  0.5747 -0.6537 -1.2795
 9373SOL    HW239582   3.218   3.011   4.579 -0.3492  0.7312 -0.7396
 9374SOL     OW39583   3.362   3.941  16.739 -0.0030  0.0729  0.2851
 9374SOL    HW139584   3.384   3.951  16.646  2.1940 -3.1622  0.4472
 9374SOL    HW239585   3.269   3.920  16.738 -0.2723  1.2505  1.1799
 9375SOL     OW39586   2.602   1.430   3.615  0.0185  0.3402 -0.2400
 9375SOL    HW139587   2.507   1.443   3.613  0.1038  0.9738 -0.1742
 9375SOL    HW239588   2.636   1.517   3.637  0.2028 -0.4114  2.4214
 9376SOL     OW39589   3.101   4.066   3.787  0.2336 -0.5578 -0.1624
 9376SOL    HW139590   3.024   4.037   3.835  0.7391  0.6302  1.3419
 9376SOL    HW239591   3.160   4.104   3.852  0.4054  0.0124 -0.6426
 9377SOL     OW39592   1.825   4.179   6.020  0.1746  0.2207 -0.4754
 9377SOL    HW139593   1.920   4.165   6.016  0.0986  0.2635 -2.5667
 9377SOL    HW239594   1.818   4.242   6.092 -0.6293  1.1690 -1.3890
 9378SOL     OW39595   0.230   3.779   6.887 -0.8008 -0.0537 -0.2218
 9378SOL    HW139596   0.234   3.790   6.982 -2.0894  1.0786 -0.3050
 9378SOL    HW239597   0.192   3.863   6.859  1.4891  0.9367 -0.3873
 9379SOL     OW39598   0.811   2.967   9.876 -0.2457  0.5238  0.3295
 9379SOL    HW139599   0.822   3.033   9.945 -0.1546 -0.8863  1.6502
 9379SOL    HW239600   0.801   3.017   9.794  1.2015  0.1571 -0.0603
 9380SOL     OW39601   4.474   0.722   8.829  0.1948  0.4619  0.2623
 9380SOL    HW139602   4.558   0.688   8.861 -0.0632 -0.7373 -0.3230
 9380SOL    HW239603   4.501   0.708   8.738  0.9508  1.6848  0.2991
 9381SOL     OW39604   2.425   3.595   0.511 -0.2228 -0.1959  0.1388
 9381SOL    HW139605   2.335   3.584   0.480 -0.2191 -1.4403  0.5693
 9381SOL    HW239606   2.442   3.539   0.587 -0.6337  0.1950  0.5204
 9382SOL     OW39607   1.693   1.300   4.288  0.5260  0.1337  0.4785
 9382SOL    HW139608   1.646   1.362   4.231  1.3889  0.9971  0.7022
 9382SOL    HW239609   1.735   1.239   4.227  1.5088 -1.0073  2.2993
 9383SOL     OW39610   4.133   0.706   3.435  0.0860 -0.2915 -0.4152
 9383SOL    HW139611   4.154   0.680   3.345  2.4768  1.5277 -0.3669
 9383SOL    HW239612   4.206   0.763   3.458 -0.8296  0.2665  1.1445
 9384SOL     OW39613   2.687   4.330   3.575  0.8660  0.6350  0.6548
 9384SOL    HW139614   2.734   4.247   3.581  0.0956  0.1596  0.0980
 9384SOL    HW239615   2.670   4.340   3.669  0.5887  1.2693  0.5428
 9385SOL     OW39616   0.023   0.462   6.875 -0.0113  0.0972  0.3055
 9385SOL    HW139617   0.104   0.493   6.834 -0.9734  0.7819 -1.0760
 9385SOL    HW239618   0.035   0.367   6.868  2.5005  0.2647  2.1389
 9386SOL     OW39619   3.130   4.692  16.504 -0.2387 -0.4481  0.8038
 9386SOL    HW139620   3.175   4.664  16.424  1.1887 -0.0663  1.4702
 9386SOL    HW239621   3.176   0.049  16.522  0.2450 -0.6903  0.6624
 9387SOL     OW39622   1.339   1.486  12.353  0.2260  0.3439  0.7112
 9387SOL    HW139623   1.371   1.560  12.302 -1.1628 -0.9253 -2.0090
 9387SOL    HW239624   1.394   1.488  12.431 -1.5162 -1.7606  2.0276
 9388SOL     OW39625   4.327   3.303  13.859 -0.0908  0.4538 -0.5327
 9388SOL    HW139626   4.317   3.211  13.884  1.1923  0.0841 -1.4343
 9388SOL    HW239627   4.417   3.313  13.888 -0.8501  0.7063  1.7444
 9389SOL     OW39628   3.161   1.313   3.153  0.2028 -0.0695 -0.1032
 9389SOL    HW139629   3.132   1.378   3.090  2.4912 -1.3904 -2.4995
 9389SOL    HW239630   3.192   1.373   3.221  0.3058 -0.5908  0.3138
 9390SOL     OW39631   1.774   3.925  15.285 -0.2900  0.3803  0.1649
 9390SOL    HW139632   1.771   3.833  15.312  1.8235  0.1003 -0.5851
 9390SOL    HW239633   1.805   3.964  15.367 -3.5646 -0.0715  1.6347
 9391SOL     OW39634   0.584   3.971   1.176 -0.0496 -0.1920 -0.0745
 9391SOL    HW139635   0.609   3.982   1.268  1.2888 -0.6550 -0.3799
 9391SOL    HW239636   0.604   3.877   1.167  2.2584 -0.0839  4.1033
 9392SOL     OW39637   2.371   4.093   8.061  0.4398 -0.0678 -0.1127
 9392SOL    HW139638   2.321   4.136   7.992  2.3080 -1.3756 -2.2776
 9392SOL    HW239639   2.334   4.129   8.142 -1.9041 -2.5681 -0.1088
 9393SOL     OW39640   0.575   4.257   2.307  0.3581  0.1008 -0.2676
 9393SOL    HW139641   0.555   4.350   2.295 -0.9168 -0.3549 -1.7571
 9393SOL    HW239642   0.554   4.250   2.400 -0.0687 -1.6336 -0.4815
 9394SOL     OW39643   1.731   2.899  12.671  0.3136  0.1861 -0.1754
 9394SOL    HW139644   1.812   2.905  12.621  0.7498  0.3428  0.5647
 9394SOL    HW239645   1.767   2.869  12.754  1.4142 -0.5357 -0.9129
 9395SOL     OW39646   1.048   1.502  13.389 -0.5766  0.0568  0.5406
 9395SOL    HW139647   0.984   1.431  13.387 -0.6471  0.1528 -0.3719
 9395SOL    HW239648   0.993   1.580  13.387 -0.5707  0.1291  2.8408
 9396SOL     OW39649   0.422   3.210  16.285  0.0688  0.0169 -0.5863
 9396SOL    HW139650   0.502   3.210  16.233  0.0076 -0.0348 -0.6804
 9396SOL    HW239651   0.452   3.157  16.359  2.0744  0.0415 -1.3902
 9397SOL     OW39652   2.369   3.342   8.115  0.0081 -0.2192 -0.2845
 9397SOL    HW139653   2.343   3.327   8.206  0.9419  0.7555  0.1376
 9397SOL    HW239654   2.452   3.387   8.130 -0.8522  0.8128  1.2970
 9398SOL     OW39655   3.615   3.221   8.510  0.2989  0.4380 -1.3106
 9398SOL    HW139656   3.651   3.155   8.451  0.1313  0.7921 -1.8045
 9398SOL    HW239657   3.690   3.280   8.510  2.1065 -1.8492 -0.5583
 9399SOL     OW39658   0.952   4.572   9.743  0.1842 -0.5870  0.3310
 9399SOL    HW139659   0.935   4.623   9.663  0.8659  1.5294  1.5485
 9399SOL    HW239660   0.896   4.623   9.802 -0.1506 -2.0022  1.2259
 9400SOL     OW39661   1.293   1.809   5.839  0.2756 -0.1932 -0.3164
 9400SOL    HW139662   1.380   1.839   5.814  1.4978 -2.1565  1.5621
 9400SOL    HW239663   1.267   1.777   5.753  0.7640  1.3173 -1.0249
 9401SOL     OW39664   1.925   3.682  17.462  0.2653 -0.5485  0.1863
 9401SOL    HW139665   1.921   3.777  17.448 -0.7521 -0.7043 -0.5585
 9401SOL    HW239666   1.915   3.670  17.557 -3.0237 -1.2481 -0.2400
 9402SOL     OW39667   1.544   1.538   4.216 -0.1338 -1.1262  0.0776
 9402SOL    HW139668   1.582   1.548   4.129 -1.5855 -2.7558 -0.7577
 9402SOL    HW239669   1.493   1.618   4.227  1.4719 -0.0794 -0.2269
 9403SOL     OW39670   3.391   4.575   1.678 -0.0627 -0.7362  0.2382
 9403SOL    HW139671   3.431   4.510   1.621 -1.0376  1.2995 -2.7970
 9403SOL    HW239672   3.332   4.617   1.615 -0.8400  0.4934  1.7968
 9404SOL     OW39673   3.031   4.680   9.005  0.3385  0.2923  0.6227
 9404SOL    HW139674   3.102   4.667   9.068  0.0465  0.5295  1.0027
 9404SOL    HW239675   2.983   4.600   9.025  0.8502  0.0728  0.9544
 9405SOL     OW39676   1.787   0.485   8.596  0.3542 -0.5387  0.1630
 9405SOL    HW139677   1.723   0.424   8.632 -0.6879 -0.6382 -1.8700
 9405SOL    HW239678   1.756   0.500   8.507 -2.2101 -1.2930  0.9366
 9406SOL     OW39679   0.426   2.916  11.094 -0.3944  0.1210  0.1902
 9406SOL    HW139680   0.437   2.924  10.999 -1.3016  0.3524  0.1022
 9406SOL    HW239681   0.410   2.821  11.095 -1.5429  0.3096 -1.1879
 9407SOL     OW39682   0.513   4.485   6.997 -0.1301  0.5657  0.0904
 9407SOL    HW139683   0.559   4.404   7.016 -0.9289 -0.0793 -0.7109
 9407SOL    HW239684   0.439   4.486   7.058 -0.5081 -1.3089 -0.3398
 9408SOL     OW39685   3.180   2.923   1.112  0.0508 -0.3511 -0.5075
 9408SOL    HW139686   3.107   2.890   1.060 -0.1819  0.6975 -0.8415
 9408SOL    HW239687   3.254   2.898   1.056 -1.1293 -0.8005 -1.8639
 9409SOL     OW39688   2.032   3.437   3.214 -0.6153 -0.0058  0.1772
 9409SOL    HW139689   1.953   3.449   3.267 -1.1800 -1.4890 -0.3520
 9409SOL    HW239690   2.000   3.443   3.124 -2.6371  2.0774  1.0414
 9410SOL     OW39691   4.643   2.397  13.256  0.1187  0.0170  0.1449
 9410SOL    HW139692   4.586   2.470  13.231 -1.1966 -1.2386 -0.5159
 9410SOL    HW239693   4.663   2.372  13.166 -1.6250 -0.6467 -0.0515
 9411SOL     OW39694   0.933   4.419  11.964  0.4870 -0.4958  0.1795
 9411SOL    HW139695   0.846   4.456  11.970  0.9558  0.8100 -1.2491
 9411SOL    HW239696   0.957   4.408  12.056 -0.4727 -0.5207  0.4202
 9412SOL     OW39697   0.068   2.408  12.363  0.1714 -0.0665 -0.0462
 9412SOL    HW139698   0.151   2.427  12.320 -0.5328  0.2891 -1.2433
 9412SOL    HW239699   0.026   2.350  12.299  2.1676 -0.9187 -0.5801
 9413SOL     OW39700   0.653   1.408   8.989 -0.5313  0.0464 -0.1659
 9413SOL    HW139701   0.703   1.329   9.006  1.0340  1.1322  0.2740
 9413SOL    HW239702   0.565   1.381   8.963 -0.0141 -0.5782 -1.2604
 9414SOL     OW39703   1.738   3.719   3.619 -0.4391  0.1777 -0.2342
 9414SOL    HW139704   1.727   3.743   3.527 -2.3792 -2.4275 -0.6665
 9414SOL    HW239705   1.699   3.786   3.674 -0.3289  2.2455 -2.6826
 9415SOL     OW39706   2.778   2.973   4.995  0.2808  0.0132  0.2746
 9415SOL    HW139707   2.845   2.974   5.063  0.9354 -0.5829 -0.3632
 9415SOL    HW239708   2.822   2.924   4.925 -0.6126  0.2609 -0.4694
 9416SOL     OW39709   0.688   2.956   6.236  0.4071  0.0118 -0.0080
 9416SOL    HW139710   0.730   2.937   6.320  0.7671  1.1935  0.0847
 9416SOL    HW239711   0.712   2.882   6.180 -0.5231  0.4307 -0.9521
 9417SOL     OW39712   4.190   2.301   6.230 -0.1109 -0.2509 -1.0331
 9417SOL    HW139713   4.165   2.226   6.177  0.8284 -2.5933  1.8436
 9417SOL    HW239714   4.179   2.266   6.319 -1.7724  1.3163 -0.6124
 9418SOL     OW39715   4.655   0.654   6.067 -0.3214 -0.5990  0.2469
 9418SOL    HW139716   4.718   0.582   6.074  1.0104  0.6603  1.1369
 9418SOL    HW239717   4.633   0.656   5.974  2.5652  0.8577 -0.4011
 9419SOL     OW39718   3.818   1.837   8.916  0.0000 -0.5149 -0.0254
 9419SOL    HW139719   3.756   1.872   8.852 -1.0586 -1.2047  0.6217
 9419SOL    HW239720   3.838   1.909   8.975 -3.1296 -0.4748  0.9788
 9420SOL     OW39721   0.232   2.095   0.127 -0.1507  0.1705  0.3106
 9420SOL    HW139722   0.236   2.191   0.129  0.4731  0.1996 -1.7460
 9420SOL    HW239723   0.197   2.068   0.042  0.8247  1.2524 -0.4245
 9421SOL     OW39724   2.750   1.176   3.650  0.0767 -1.0053  0.2697
 9421SOL    HW139725   2.708   1.262   3.644  0.7915 -0.7431 -0.9199
 9421SOL    HW239726   2.802   1.194   3.728  0.6879 -2.3041  0.1550
 9422SOL     OW39727   1.968   2.723   8.931 -0.3710 -0.1339  0.5677
 9422SOL    HW139728   1.900   2.788   8.947  2.5432  3.1229 -0.2435
 9422SOL    HW239729   1.917   2.652   8.970 -0.8692 -0.6150 -0.9464
 9423SOL     OW39730   1.276   3.994   3.175  0.1723 -0.2411 -0.0637
 9423SOL    HW139731   1.359   3.967   3.216 -0.9258 -2.2751  0.8338
 9423SOL    HW239732   1.239   3.909   3.151  0.4324 -0.7156  1.1812
 9424SOL     OW39733   0.280   3.917   0.893  0.5419 -0.1210  0.2125
 9424SOL    HW139734   0.260   3.845   0.952  3.6800 -2.7062 -1.8461
 9424SOL    HW239735   0.372   3.938   0.912  0.9225 -1.6462  0.0091
 9425SOL     OW39736   1.115   0.682   8.998  0.0339 -0.5397 -0.1621
 9425SOL    HW139737   1.184   0.702   9.061  0.4812 -1.8057 -0.2566
 9425SOL    HW239738   1.097   0.773   8.974  0.4777  0.6061  3.8877
 9426SOL     OW39739   3.256   3.521   8.811 -0.4957 -0.1474  0.2284
 9426SOL    HW139740   3.193   3.590   8.792 -1.1870 -0.4925  1.2564
 9426SOL    HW239741   3.324   3.538   8.746 -1.5365  3.0866 -0.0130
 9427SOL     OW39742   4.097   2.225  11.389 -0.4105  0.6343  0.0747
 9427SOL    HW139743   4.137   2.220  11.303  0.1673  1.2083  0.3090
 9427SOL    HW239744   4.008   2.247  11.361 -0.8384 -0.6508  0.4336
 9428SOL     OW39745   1.675   3.442   3.700 -0.0856 -0.2253 -0.3262
 9428SOL    HW139746   1.618   3.445   3.623  1.8821 -1.7623 -1.8471
 9428SOL    HW239747   1.693   3.536   3.693 -1.1741  0.0169  0.1558
 9429SOL     OW39748   0.954   3.182   8.694 -0.0391 -0.2748 -0.5816
 9429SOL    HW139749   1.010   3.214   8.622 -0.5519 -0.7399 -1.1879
 9429SOL    HW239750   0.876   3.184   8.638 -0.4849  1.0271  0.0937
 9430SOL     OW39751   0.418   2.161  16.788  0.2436 -0.4879 -0.0975
 9430SOL    HW139752   0.463   2.078  16.803 -2.3954 -1.8950  0.1101
 9430SOL    HW239753   0.405   2.171  16.694  1.1657 -0.1647 -0.1902
 9431SOL     OW39754   3.075   1.569   0.500 -0.4225 -0.1150  0.0469
 9431SOL    HW139755   3.038   1.588   0.414  1.0903  0.3800 -0.4977
 9431SOL    HW239756   3.080   1.473   0.507 -3.8283 -0.4664 -2.3840
 9432SOL     OW39757   2.431   4.311   7.319 -0.4116  0.3378 -0.0930
 9432SOL    HW139758   2.363   4.321   7.252 -0.8272  0.9969  0.4313
 9432SOL    HW239759   2.501   4.337   7.259 -0.5554 -1.5349 -1.0745
 9433SOL     OW39760   3.691   2.259   7.583 -0.0193 -0.5123  0.0184
 9433SOL    HW139761   3.760   2.300   7.635  0.2403 -1.4589  0.4184
 9433SOL    HW239762   3.624   2.225   7.642  0.1869 -2.7247 -1.0426
 9434SOL     OW39763   1.982   4.223  10.165 -0.3437  0.3439 -0.0083
 9434SOL    HW139764   2.030   4.306  10.170  1.2131 -0.5708  0.3824
 9434SOL    HW239765   1.904   4.221  10.220 -0.8735 -0.9127 -0.8247
 9435SOL     OW39766   3.197   2.951   1.622  0.6118  0.2582  0.7652
 9435SOL    HW139767   3.266   2.894   1.589 -0.6055 -1.0154  0.4367
 9435SOL    HW239768   3.251   2.997   1.687 -0.3122  0.4155  1.4196
 9436SOL     OW39769   0.695   1.423  16.581 -0.6615 -0.1376 -0.1686
 9436SOL    HW139770   0.743   1.383  16.509 -0.1540  1.7280 -0.8419
 9436SOL    HW239771   0.734   1.393  16.664 -0.3964  0.6523 -0.0071
 9437SOL     OW39772   2.995   2.849   0.905 -0.1721  0.0388  0.0652
 9437SOL    HW139773   2.936   2.909   0.951 -0.7838 -1.7061  1.5776
 9437SOL    HW239774   2.930   2.790   0.867  0.9500  0.0649 -1.8603
 9438SOL     OW39775   3.431   0.629  11.914  0.5147 -0.0634  0.1634
 9438SOL    HW139776   3.361   0.670  11.864  0.2578  1.6203  1.9147
 9438SOL    HW239777   3.478   0.707  11.943  0.8964  0.6782 -2.5071
 9439SOL     OW39778   4.133   4.556  12.557 -0.2272 -0.5052  0.3179
 9439SOL    HW139779   4.195   4.528  12.490  1.2704 -2.0717  2.3285
 9439SOL    HW239780   4.056   4.568  12.502  1.7951 -1.2020 -2.6910
 9440SOL     OW39781   4.694   2.602  15.182 -0.1331 -0.2290 -0.6706
 9440SOL    HW139782   4.676   2.693  15.156 -1.5887 -0.1515  0.5925
 9440SOL    HW239783   0.013   2.572  15.102 -1.9759 -1.9370 -1.0008
 9441SOL     OW39784   4.375   1.505   7.484  0.0518  0.3075  0.2568
 9441SOL    HW139785   4.408   1.504   7.394 -0.9199 -0.3678 -0.0925
 9441SOL    HW239786   4.281   1.525   7.478  0.4987  1.9860 -1.4598
 9442SOL     OW39787   0.329   3.862  11.003 -0.7802  0.1937 -0.7581
 9442SOL    HW139788   0.367   3.950  11.008 -1.2856  0.3212  1.2579
 9442SOL    HW239789   0.336   3.851  10.909  0.5346 -1.1737 -0.4977
 9443SOL     OW39790   1.067   4.274   7.027  0.0184  0.4813  0.1435
 9443SOL    HW139791   1.046   4.183   7.047 -1.4082  0.2085 -2.7485
 9443SOL    HW239792   1.143   4.286   7.085  0.4185  1.5333 -0.5913
 9444SOL     OW39793   4.608   4.454   6.016  0.3072  0.2014  0.4314
 9444SOL    HW139794   4.666   4.433   5.942  1.8097  2.2081  1.0313
 9444SOL    HW239795   4.656   4.523   6.062  0.8020 -0.3926  0.7941
 9445SOL     OW39796   2.278   3.688   6.382 -0.4728 -0.2843  0.2715
 9445SOL    HW139797   2.234   3.670   6.300 -2.0335  1.4193  0.7417
 9445SOL    HW239798   2.280   3.605   6.430 -0.9988 -0.6646 -0.3737
 9446SOL     OW39799   3.603   2.405  17.365  0.0580  0.4262 -0.3949
 9446SOL    HW139800   3.543   2.469  17.327 -0.3691 -0.0035 -0.4484
 9446SOL    HW239801   3.661   2.387  17.291 -1.2659  1.5858 -1.7120
 9447SOL     OW39802   0.603   1.915   2.461 -0.0966 -0.0925 -0.0531
 9447SOL    HW139803   0.572   1.843   2.516  1.0823 -1.2228 -0.8435
 9447SOL    HW239804   0.602   1.880   2.372  1.1909  3.0000 -1.2582
 9448SOL     OW39805   4.649   1.294   0.731 -0.2068  0.8134 -0.1469
 9448SOL    HW139806   4.703   1.280   0.809 -1.3373  1.2035  0.7095
 9448SOL    HW239807   4.600   1.212   0.721 -0.3612  0.9709 -0.6851
 9449SOL     OW39808   1.534   0.246  12.563 -0.4833 -0.4456  0.1896
 9449SOL    HW139809   1.573   0.262  12.477  0.1920  2.0263  0.9546
 9449SOL    HW239810   1.493   0.165  12.532  0.8215 -1.1353  0.2354
 9450SOL     OW39811   2.616   1.953  17.297  0.3736 -0.1369  0.3020
 9450SOL    HW139812   2.648   1.890  17.233 -0.1416  0.1983 -0.2842
 9450SOL    HW239813   2.531   1.964  17.255  0.5662 -0.9137 -0.2928
 9451SOL     OW39814   4.073   2.756   4.250 -0.0614  0.5452  0.2075
 9451SOL    HW139815   4.107   2.718   4.331 -0.9778 -2.7490 -0.9582
 9451SOL    HW239816   4.006   2.693   4.226 -0.7913  0.8107  1.5250
 9452SOL     OW39817   3.485   0.136   7.660  0.0280 -0.1045  0.0156
 9452SOL    HW139818   3.429   0.179   7.596  0.7597  1.4746  0.4323
 9452SOL    HW239819   3.458   0.185   7.738  1.1886  0.7244 -0.1070
 9453SOL     OW39820   4.468   1.389   3.724 -0.5027  0.3995  0.0937
 9453SOL    HW139821   4.408   1.374   3.651 -2.8865  2.0339  1.7058
 9453SOL    HW239822   4.477   1.298   3.753 -0.9384  0.5462  0.6770
 9454SOL     OW39823   2.655   1.563   4.528  0.9808  0.3717  0.1237
 9454SOL    HW139824   2.700   1.600   4.452  0.9732 -0.2059 -0.1593
 9454SOL    HW239825   2.707   1.596   4.602 -0.2637 -2.0253  2.0826
 9455SOL     OW39826   1.865   0.220   2.610  0.3879 -0.1347  0.1255
 9455SOL    HW139827   1.952   0.183   2.598  0.5183  0.0141  0.6299
 9455SOL    HW239828   1.879   0.297   2.555 -1.0249  0.8395  1.1282
 9456SOL     OW39829   0.799   4.453  12.978 -0.0851  0.2653  0.0279
 9456SOL    HW139830   0.783   4.377  13.035 -2.8040  0.5236 -0.3997
 9456SOL    HW239831   0.860   4.501  13.034  1.1408 -2.0954  0.7473
 9457SOL     OW39832   1.939   0.232   3.589  0.1213 -0.2564  0.2780
 9457SOL    HW139833   1.980   0.297   3.532  0.6065 -0.9201 -0.1327
 9457SOL    HW239834   2.009   0.215   3.652  0.6409  1.6690  0.2093
 9458SOL     OW39835   0.046   1.714   6.334  0.4958  0.0762 -0.3763
 9458SOL    HW139836   0.063   1.807   6.351  1.2168 -0.2904  0.9456
 9458SOL    HW239837   0.134   1.681   6.315  1.3744  1.4807  1.2406
 9459SOL     OW39838   2.558   3.871   3.779  0.1091  0.6566  0.5500
 9459SOL    HW139839   2.547   3.964   3.800  1.5378  0.6859  1.1700
 9459SOL    HW239840   2.503   3.868   3.701  0.1171  0.9938  0.5282
 9460SOL     OW39841   0.634   1.187   1.956 -0.5774 -0.4456  0.1919
 9460SOL    HW139842   0.687   1.252   2.002 -0.4536 -0.0348 -0.5201
 9460SOL    HW239843   0.551   1.236   1.956  0.3632  1.1797 -2.4598
 9461SOL     OW39844   1.660   0.392   3.911  0.1243  0.6894 -0.5592
 9461SOL    HW139845   1.688   0.349   3.831 -2.1269  0.0161 -1.0050
 9461SOL    HW239846   1.618   0.316   3.952  0.1137  1.4106  0.7987
 9462SOL     OW39847   1.198   0.142   3.301  0.6993 -0.4826  0.0077
 9462SOL    HW139848   1.291   0.123   3.286  0.8090 -0.5917  0.8090
 9462SOL    HW239849   1.187   0.147   3.206  0.9621 -0.6224 -0.0304
 9463SOL     OW39850   4.684   3.555   0.929 -0.7194 -0.3815  0.5829
 9463SOL    HW139851   4.701   3.477   0.981 -1.3043 -0.9509 -0.0858
 9463SOL    HW239852   4.590   3.565   0.942 -0.8159 -0.0024 -0.3635
 9464SOL     OW39853   2.027   0.693   4.499 -0.3082 -0.2833  0.5514
 9464SOL    HW139854   1.999   0.625   4.437  0.3355  0.4806 -0.5681
 9464SOL    HW239855   1.990   0.652   4.578 -1.9133  0.1504  0.0200
 9465SOL     OW39856   3.438   2.991   3.527  0.2025 -0.2686  0.7218
 9465SOL    HW139857   3.444   3.086   3.519 -0.9615 -0.3166 -0.5807
 9465SOL    HW239858   3.363   2.973   3.584  0.7571 -0.2767  1.4486
 9466SOL     OW39859   3.333   2.221   5.027  0.2913  0.1095  1.1624
 9466SOL    HW139860   3.304   2.179   5.108 -1.2330 -1.3955 -0.1665
 9466SOL    HW239861   3.395   2.285   5.063  2.4036  0.3158 -2.8167
 9467SOL     OW39862   4.017   3.257   5.484  0.4121 -0.1931  0.1599
 9467SOL    HW139863   4.073   3.324   5.524  0.7967  0.3700 -1.3105
 9467SOL    HW239864   4.086   3.204   5.444 -0.0937  0.0330 -0.9946
 9468SOL     OW39865   0.515   2.173   1.085 -0.3059  0.9604  0.2655
 9468SOL    HW139866   0.496   2.181   0.992  0.7745 -4.2400 -0.3979
 9468SOL    HW239867   0.472   2.250   1.124 -0.2213  1.6213 -0.9677
 9469SOL     OW39868   3.208   3.216   2.475  0.0908 -0.3939  0.2491
 9469SOL    HW139869   3.148   3.212   2.550 -0.3531  0.5498 -0.0640
 9469SOL    HW239870   3.288   3.245   2.518 -0.7414  2.4489 -0.1521
 9470SOL     OW39871   4.042   1.578  16.549 -0.3915 -0.0609  0.2668
 9470SOL    HW139872   4.087   1.585  16.634  2.0838  0.1478 -1.0511
 9470SOL    HW239873   3.971   1.641  16.555  0.6812  1.0495  1.4421
 9471SOL     OW39874   2.119   0.218   0.671  0.2464 -0.2560 -0.2989
 9471SOL    HW139875   2.189   0.270   0.709 -0.0864 -1.1724  1.5872
 9471SOL    HW239876   2.037   0.254   0.703  0.5162 -1.1655  1.4003
 9472SOL     OW39877   3.193   3.655   4.227  0.3240 -0.2156  0.3484
 9472SOL    HW139878   3.209   3.656   4.321 -0.5427 -2.5141  0.5268
 9472SOL    HW239879   3.257   3.714   4.188 -0.5992 -0.0682 -0.9437
 9473SOL     OW39880   4.424   0.901  12.322 -0.0130 -0.0699  0.1926
 9473SOL    HW139881   4.492   0.847  12.282  0.2318  0.3734  0.0116
 9473SOL    HW239882   4.359   0.905  12.251  0.9667 -0.9059 -0.7492
 9474SOL     OW39883   3.896   1.044  13.437 -0.2783 -0.4175  0.3158
 9474SOL    HW139884   3.967   1.108  13.440  0.1284 -0.8812  0.5251
 9474SOL    HW239885   3.857   1.069  13.520  0.1829 -0.0721  0.4223
 9475SOL     OW39886   1.520   0.738   4.707  0.2010 -0.3328 -0.1133
 9475SOL    HW139887   1.573   0.793   4.648 -0.3936  0.3307 -0.0299
 9475SOL    HW239888   1.454   0.802   4.735 -2.0596 -2.6414 -0.2117
 9476SOL     OW39889   4.408   1.506   4.099  0.5181 -0.1101 -0.3205
 9476SOL    HW139890   4.374   1.575   4.157 -1.9521 -1.5121 -0.0946
 9476SOL    HW239891   4.500   1.530   4.104  0.5492 -0.4196  0.4842
 9477SOL     OW39892   0.848   0.542   7.366 -0.0819  0.0367  0.4416
 9477SOL    HW139893   0.880   0.520   7.453 -0.4484  1.6966  0.9916
 9477SOL    HW239894   0.752   0.540   7.373 -0.1364 -1.3347 -0.5973
 9478SOL     OW39895   2.463   0.017   6.335 -0.3040  0.2985 -0.0299
 9478SOL    HW139896   2.494   4.719   6.423 -1.5462  2.0994  0.8730
 9478SOL    HW239897   2.444   0.110   6.351 -4.8010 -0.5698 -0.2701
 9479SOL     OW39898   0.516   2.312  14.759  0.0827  0.0900 -0.9067
 9479SOL    HW139899   0.461   2.240  14.790  1.3163 -0.6215 -0.3737
 9479SOL    HW239900   0.585   2.262  14.716 -0.1382 -0.1148 -1.0167
 9480SOL     OW39901   2.444   1.161  15.212  0.0073 -0.4618  0.1989
 9480SOL    HW139902   2.487   1.164  15.298 -0.5558  3.3172  0.3185
 9480SOL    HW239903   2.517   1.181  15.153 -0.8432  1.5407 -0.1593
 9481SOL     OW39904   0.887   3.989   1.992  0.6539  0.3514 -0.5768
 9481SOL    HW139905   0.796   3.983   2.021  0.7407  1.7302 -0.0033
 9481SOL    HW239906   0.881   4.044   1.914  3.4224 -0.7287 -1.5284
 9482SOL     OW39907   2.849   2.258   6.292 -0.3683  0.1027  0.4278
 9482SOL    HW139908   2.771   2.202   6.289 -0.4517  0.3738 -1.9670
 9482SOL    HW239909   2.887   2.239   6.378 -0.1248  1.3911  0.6107
 9483SOL     OW39910   0.582   1.420   3.572 -0.5075 -0.2339 -0.2580
 9483SOL    HW139911   0.524   1.388   3.641 -0.7735  1.9887  0.5574
 9483SOL    HW239912   0.579   1.516   3.580 -3.7381 -0.2651 -0.8272
 9484SOL     OW39913   1.083   1.656   3.726 -0.4213  0.2322 -0.5617
 9484SOL    HW139914   1.030   1.689   3.799 -1.7439  0.9978 -1.8776
 9484SOL    HW239915   1.113   1.740   3.691  2.8524 -0.2422  1.0035
 9485SOL     OW39916   0.922   4.087   1.473 -0.5840  0.0701 -0.1192
 9485SOL    HW139917   0.976   4.069   1.396 -2.3782  0.8442 -1.5865
 9485SOL    HW239918   0.847   4.031   1.451 -2.1573  0.4370  4.2976
 9486SOL     OW39919   0.809   0.369  11.325  0.3706 -0.2595 -0.6894
 9486SOL    HW139920   0.852   0.297  11.371  0.1699  0.0041 -0.0989
 9486SOL    HW239921   0.864   0.377  11.246 -0.3679  2.0695 -0.9706
 9487SOL     OW39922   1.358   3.719   6.291  0.3691 -0.0859 -0.1626
 9487SOL    HW139923   1.310   3.791   6.331  0.5844  0.2162 -0.4568
 9487SOL    HW239924   1.358   3.748   6.200 -0.1169 -2.9872 -1.0850
 9488SOL     OW39925   0.869   2.314  12.344  0.8133  0.2052 -0.2077
 9488SOL    HW139926   0.881   2.400  12.384  0.4361  0.1615  0.0007
 9488SOL    HW239927   0.879   2.257  12.420 -1.3179  1.9371  1.3726
 9489SOL     OW39928   0.572   1.744   8.304  0.0771 -0.1395  0.0413
 9489SOL    HW139929   0.599   1.836   8.305 -2.0448  0.4644  2.3655
 9489SOL    HW239930   0.557   1.729   8.210 -1.3680  1.1723  0.0640
 9490SOL     OW39931   3.033   0.780   7.006 -0.1540  0.7560 -0.8330
 9490SOL    HW139932   3.002   0.858   7.052 -4.1254 -2.9280  2.7121
 9490SOL    HW239933   3.044   0.711   7.072 -4.0104  0.4340 -0.5402
 9491SOL     OW39934   1.131   0.874   3.764  0.1138 -0.3430  0.2476
 9491SOL    HW139935   1.083   0.930   3.825  0.5239 -0.2201  0.4572
 9491SOL    HW239936   1.060   0.825   3.722  0.9375 -0.7219 -0.7067
 9492SOL     OW39937   4.395   3.568   6.686 -0.0420  0.3967  0.1491
 9492SOL    HW139938   4.355   3.545   6.770 -1.6098 -1.2440 -1.0416
 9492SOL    HW239939   4.488   3.545   6.688 -0.3711 -0.8466  1.1479
 9493SOL     OW39940   0.222   0.895   1.913 -0.2451  0.0303  0.0198
 9493SOL    HW139941   0.131   0.868   1.905 -0.4824 -0.1882  3.7079
 9493SOL    HW239942   0.246   0.882   1.821 -2.4814  0.1593 -0.5616
 9494SOL     OW39943   3.320   4.637   5.225  0.1838 -0.1739  0.0220
 9494SOL    HW139944   3.352   4.572   5.287  0.7495  1.6064  1.6005
 9494SOL    HW239945   3.239   4.590   5.206 -1.1990  2.0979  0.2851
 9495SOL     OW39946   3.333   3.227   7.314  0.0747  0.1051 -0.4995
 9495SOL    HW139947   3.339   3.207   7.407 -1.4786  0.0113 -0.4148
 9495SOL    HW239948   3.421   3.262   7.301  0.0653  0.4532  0.4040
 9496SOL     OW39949   1.913   3.833   3.062 -0.2667  0.0575  0.1637
 9496SOL    HW139950   1.932   3.856   2.971  0.1971 -1.8144 -0.2058
 9496SOL    HW239951   1.842   3.770   3.060 -1.5193  1.4560  0.6304
 9497SOL     OW39952   3.516   4.627  11.677  0.3391  0.2198 -0.0309
 9497SOL    HW139953   3.580   4.632  11.749 -0.4895 -0.1896  0.7285
 9497SOL    HW239954   3.475   4.543  11.696  3.2691 -1.4204 -0.9228
 9498SOL     OW39955   2.870   3.710   2.230  0.9742  0.0397 -0.4690
 9498SOL    HW139956   2.818   3.692   2.308  0.5097  0.7495 -0.6122
 9498SOL    HW239957   2.859   3.804   2.215  0.5995 -0.1535 -1.3714
 9499SOL     OW39958   3.823   4.428   5.386 -0.1570 -0.9633 -0.1096
 9499SOL    HW139959   3.895   4.368   5.368 -0.9914 -1.7356 -0.8905
 9499SOL    HW239960   3.827   4.493   5.317  2.5091  0.3555  1.2909
 9500SOL     OW39961   3.296   0.958   7.035 -0.7427 -0.2041 -0.0023
 9500SOL    HW139962   3.222   0.898   7.023  0.2342 -1.5347  0.6226
 9500SOL    HW239963   3.246   1.022   7.086  0.8010  1.3194 -0.4006
 9501SOL     OW39964   3.592   4.603   2.650  0.4204 -0.1462  0.5438
 9501SOL    HW139965   3.509   4.588   2.695 -0.0588 -1.1362 -0.6572
 9501SOL    HW239966   3.562   4.590   2.560  0.3321  0.4153  0.4946
 9502SOL     OW39967   2.125   4.639   8.329 -0.0386  0.5372  0.3166
 9502SOL    HW139968   2.195   4.600   8.276  0.4046  2.1419 -0.2633
 9502SOL    HW239969   2.135   4.597   8.415  0.2911 -0.2248 -0.0895
 9503SOL     OW39970   1.929   3.428   4.409  0.4342 -0.0100 -0.1774
 9503SOL    HW139971   1.993   3.441   4.479  0.1490 -0.6128  0.1990
 9503SOL    HW239972   1.904   3.518   4.388 -0.6717 -0.8884 -2.7319
 9504SOL     OW39973   4.238   2.058   6.910  0.3714 -0.2552 -0.3905
 9504SOL    HW139974   4.274   1.989   6.854 -2.8018 -1.4037 -1.0176
 9504SOL    HW239975   4.242   2.014   6.995  0.3699  1.9963  0.7725
 9505SOL     OW39976   3.179   4.171   7.360 -0.9445  0.0255  0.4509
 9505SOL    HW139977   3.123   4.249   7.354  0.1828  0.7804 -0.2209
 9505SOL    HW239978   3.152   4.122   7.283  0.4903  0.1675 -0.1378
 9506SOL     OW39979   1.566   2.331  14.136  0.4532  0.0768 -0.2373
 9506SOL    HW139980   1.590   2.353  14.226 -2.8473  3.0934 -0.0697
 9506SOL    HW239981   1.555   2.420  14.102 -2.8374 -0.1842  0.2043
 9507SOL     OW39982   1.954   2.582   1.534 -0.0045  0.5491  0.0899
 9507SOL    HW139983   2.013   2.511   1.558  1.0426  1.6987  0.9339
 9507SOL    HW239984   1.871   2.540   1.556 -0.4148  1.7520  0.8615
 9508SOL     OW39985   1.668   2.705  14.372  0.7361 -0.2314  0.1955
 9508SOL    HW139986   1.626   2.719  14.457  1.2193  2.1199  0.0276
 9508SOL    HW239987   1.756   2.732  14.399  1.0801 -0.4413 -0.6952
 9509SOL     OW39988   1.498   4.297   7.309 -0.1962  0.1401 -0.1459
 9509SOL    HW139989   1.502   4.375   7.366  0.7924 -0.2824  0.3607
 9509SOL    HW239990   1.521   4.223   7.365  0.2214  0.3228 -0.0734
 9510SOL     OW39991   0.824   3.826   3.980  0.2670  0.4772  0.5515
 9510SOL    HW139992   0.834   3.837   4.075 -1.7683  2.7756  0.4949
 9510SOL    HW239993   0.776   3.905   3.954  1.6085  1.3572  0.7489
 9511SOL     OW39994   0.043   1.765  13.186  0.0601 -0.5786 -0.6006
 9511SOL    HW139995   4.695   1.733  13.132 -1.9809  3.2536 -0.1585
 9511SOL    HW239996   0.097   1.686  13.187 -1.0957 -1.3712 -0.6866
 9512SOL     OW39997   0.476   0.462   5.646  0.1872 -0.1766 -0.6032
 9512SOL    HW139998   0.432   0.377   5.642 -0.8139  0.3395 -0.3291
 9512SOL    HW239999   0.467   0.492   5.556  2.0122 -1.3781 -1.1855
 9513SOL     OW40000   2.626   1.222   0.663 -0.3126  0.0087 -0.2475
 9513SOL    HW140001   2.644   1.134   0.631  1.5545  0.5116 -0.5939
 9513SOL    HW240002   2.708   1.271   0.659  0.8809 -1.9066  0.7117
 9514SOL     OW40003   4.338   0.278   6.128 -0.3269 -0.2087 -0.5590
 9514SOL    HW140004   4.322   0.349   6.190  0.7956  0.2289 -0.7680
 9514SOL    HW240005   4.261   0.224   6.145  0.6850 -1.4433  0.0899
 9515SOL     OW40006   1.102   2.395   7.786 -0.0403 -0.1131  0.1036
 9515SOL    HW140007   1.138   2.353   7.864  1.1095  1.2633  0.3277
 9515SOL    HW240008   1.140   2.483   7.791  0.3265 -0.1121 -2.7070
 9516SOL     OW40009   4.302   3.477   5.315 -0.1351  0.3443  0.3806
 9516SOL    HW140010   4.235   3.491   5.382  1.0915  2.7744  1.0948
 9516SOL    HW240011   4.273   3.517   5.233  0.1864  3.1072  1.5994
 9517SOL     OW40012   2.401   3.013   2.793 -0.6675  0.4370 -0.1606
 9517SOL    HW140013   2.363   3.099   2.806  2.0362  1.7445 -0.9725
 9517SOL    HW240014   2.319   2.964   2.801 -1.5632  1.9732  0.0582
 9518SOL     OW40015   1.666   0.038  12.828 -0.2348  0.0498 -0.2216
 9518SOL    HW140016   1.692   0.113  12.883  2.0638 -1.4024  0.6717
 9518SOL    HW240017   1.749   4.717  12.815 -0.1172  0.6347 -1.4333
 9519SOL     OW40018   3.280   1.833   4.985 -0.0342  0.5390 -0.1208
 9519SOL    HW140019   3.261   1.764   5.048  0.7065 -0.5667 -1.1194
 9519SOL    HW240020   3.355   1.881   5.021 -1.2387  2.4338 -0.1133
 9520SOL     OW40021   3.917   3.956   3.923 -0.0339 -0.2134 -0.2210
 9520SOL    HW140022   3.932   3.990   3.835  0.6506 -0.6945 -0.2913
 9520SOL    HW240023   3.844   4.010   3.955 -0.4444 -2.0879  1.9803
 9521SOL     OW40024   2.007   1.196   2.014 -0.0475  0.6703  0.2177
 9521SOL    HW140025   2.058   1.244   1.948 -2.7472 -1.4572 -3.3886
 9521SOL    HW240026   2.008   1.108   1.977 -0.2560 -0.4130  2.8512
 9522SOL     OW40027   3.875   1.288  12.334  0.6818 -0.0038 -0.4408
 9522SOL    HW140028   3.835   1.375  12.339  0.1061 -0.2488 -0.7218
 9522SOL    HW240029   3.898   1.280  12.427 -1.5309  1.3533  0.2174
 9523SOL     OW40030   1.653   1.783  12.403 -0.4617 -0.0695 -0.3583
 9523SOL    HW140031   1.724   1.749  12.458 -2.0212  0.2365  1.8054
 9523SOL    HW240032   1.687   1.865  12.366 -2.7672  0.7322 -0.6661
 9524SOL     OW40033   2.589   4.044   3.292 -0.0642  0.1377  0.5017
 9524SOL    HW140034   2.663   4.101   3.272 -0.7936  0.9754  0.1869
 9524SOL    HW240035   2.540   4.057   3.210  0.5403  1.5963  0.3906
 9525SOL     OW40036   0.070   0.839  10.485  0.4974  0.4083  0.0197
 9525SOL    HW140037   0.067   0.775  10.414 -0.9334  0.7509 -0.2437
 9525SOL    HW240038   4.712   0.818  10.530 -0.7678  0.4229 -2.2751
 9526SOL     OW40039   3.530   4.434   7.634  0.0654 -0.0678 -0.2912
 9526SOL    HW140040   3.538   4.493   7.708  1.0630 -0.4364 -0.1034
 9526SOL    HW240041   3.435   4.423   7.631  0.2984 -1.8365 -1.3799
 9527SOL     OW40042   3.399   4.494   5.444 -0.6413 -0.2887  0.5731
 9527SOL    HW140043   3.404   4.412   5.396 -1.8226  1.3964 -2.4188
 9527SOL    HW240044   3.333   4.479   5.511 -1.0946  1.2799  0.4936
 9528SOL     OW40045   4.318   0.651  16.890 -0.4279  0.3611  0.5380
 9528SOL    HW140046   4.384   0.587  16.862 -0.3127  1.5101 -1.8390
 9528SOL    HW240047   4.246   0.601  16.930 -0.8599 -0.7455 -1.6250
 9529SOL     OW40048   1.879   0.558  17.561 -0.4813 -0.0583  0.4919
 9529SOL    HW140049   1.935   0.607  17.622  1.1145 -0.2095 -0.8577
 9529SOL    HW240050   1.940   0.522  17.496 -1.3285 -0.5056 -0.0581
 9530SOL     OW40051   2.769   0.528   8.337 -0.4133  0.2861  0.1180
 9530SOL    HW140052   2.857   0.567   8.342 -0.7917  0.9581  1.6367
 9530SOL    HW240053   2.751   0.550   8.246 -0.3413  0.9694  0.2684
 9531SOL     OW40054   3.507   3.928   6.766  0.0830 -0.0522 -0.1595
 9531SOL    HW140055   3.474   3.862   6.826 -1.3788  1.1816  0.3985
 9531SOL    HW240056   3.593   3.933   6.809  0.4444 -0.5266 -0.8337
 9532SOL     OW40057   2.633   4.701   1.144  0.0628  0.3738  0.0001
 9532SOL    HW140058   2.641   0.071   1.160 -1.5171  0.6655 -0.9704
 9532SOL    HW240059   2.576   4.708   1.067  0.1829 -0.4444 -0.1693
 9533SOL     OW40060   4.545   0.826   2.622 -0.2514  0.3372 -0.7876
 9533SOL    HW140061   4.626   0.811   2.573 -0.0252  2.9815 -1.2069
 9533SOL    HW240062   4.488   0.776   2.564  2.5607 -1.7361 -1.7784
 9534SOL     OW40063   2.076   0.568   5.356  0.2402  0.4893  0.2500
 9534SOL    HW140064   2.027   0.485   5.347  0.7025  0.3326 -0.8466
 9534SOL    HW240065   2.015   0.615   5.412 -0.4399 -0.2579  0.1384
 9535SOL     OW40066   2.435   2.049  15.065  0.0480  0.0956 -0.7207
 9535SOL    HW140067   2.422   2.087  14.979 -2.5963  3.5764  1.2142
 9535SOL    HW240068   2.346   2.058  15.100  0.8722  0.8214  1.2139
 9536SOL     OW40069   0.727   0.232  16.528 -0.4370 -0.3788  0.0333
 9536SOL    HW140070   0.780   0.228  16.608  0.3681 -1.8382 -0.5615
 9536SOL    HW240071   0.763   0.301  16.472 -0.8651 -1.4180 -1.5285
 9537SOL     OW40072   4.501   1.138  10.371 -0.0416  0.3258 -0.8880
 9537SOL    HW140073   4.446   1.207  10.408  0.6367 -0.1267  0.9534
 9537SOL    HW240074   4.461   1.056  10.399  0.8765 -0.4191 -1.7724
 9538SOL     OW40075   0.649   4.175   1.998  0.3111 -0.0183 -0.4038
 9538SOL    HW140076   0.677   4.100   1.946 -0.1953 -0.3817 -0.1426
 9538SOL    HW240077   0.594   4.231   1.943 -2.1022 -1.8028  0.2288
 9539SOL     OW40078   1.936   3.842   3.985 -0.0004 -0.1775  0.3511
 9539SOL    HW140079   1.995   3.886   3.923 -0.5186  0.0665  0.0272
 9539SOL    HW240080   1.967   3.752   3.981 -1.7735 -0.7112 -1.5807
 9540SOL     OW40081   2.081   3.056  12.178  0.2947 -0.3062  0.7024
 9540SOL    HW140082   2.024   3.047  12.101  0.3813 -2.4973  0.9006
 9540SOL    HW240083   2.028   3.064  12.257 -0.3543  0.6401  0.1794
 9541SOL     OW40084   1.607   4.527  11.787  0.1330  0.5495 -0.4209
 9541SOL    HW140085   1.687   4.578  11.784 -0.2169  0.9558 -2.5840
 9541SOL    HW240086   1.645   4.439  11.799  0.0827  0.7894  1.4367
 9542SOL     OW40087   0.682   4.239   1.362  0.4676  0.1351  0.0217
 9542SOL    HW140088   0.698   4.272   1.451  3.7960 -1.3255 -0.0244
 9542SOL    HW240089   0.685   4.144   1.376  0.9906  0.1974  0.3747
 9543SOL     OW40090   3.747   1.818   4.856 -0.2425  0.8866  0.2867
 9543SOL    HW140091   3.699   1.900   4.851 -0.6976  0.5201 -1.5107
 9543SOL    HW240092   3.724   1.785   4.943  0.7659 -2.1398 -0.5885
 9544SOL     OW40093   1.106   4.031   4.141 -0.3189  0.2048  0.3178
 9544SOL    HW140094   1.088   4.125   4.151 -1.7463 -0.0193 -0.1905
 9544SOL    HW240095   1.117   3.999   4.231  0.0498 -0.5162  0.0065
 9545SOL     OW40096   2.389   0.467   1.580  0.3505 -0.6622  0.4504
 9545SOL    HW140097   2.322   0.416   1.625  1.4152 -0.2660  2.4711
 9545SOL    HW240098   2.456   0.476   1.647  0.2391  2.1632  0.1573
 9546SOL     OW40099   4.500   4.204   5.017 -0.2389  0.1865 -0.7975
 9546SOL    HW140100   4.416   4.207   4.971 -0.7362 -0.4864  0.0632
 9546SOL    HW240101   4.517   4.110   5.021  1.7614  0.6401  1.2393
 9547SOL     OW40102   1.812   0.952   1.156  0.2136 -0.1893  0.4006
 9547SOL    HW140103   1.904   0.966   1.179  0.4656 -2.5061  0.7962
 9547SOL    HW240104   1.804   0.935   1.062 -1.3130  1.0100  0.3042
 9548SOL     OW40105   3.804   2.110  12.291  0.3725 -0.2421 -0.2189
 9548SOL    HW140106   3.756   2.141  12.368  0.8247  1.3883 -0.5946
 9548SOL    HW240107   3.887   2.101  12.337  0.3077  0.2456 -0.0013
 9549SOL     OW40108   1.512   0.763   9.142 -0.6152  0.1631 -0.4973
 9549SOL    HW140109   1.417   0.764   9.148 -0.4893 -0.4654  1.8555
 9549SOL    HW240110   1.533   0.734   9.231  1.0165  3.4177  0.1734
 9550SOL     OW40111   3.270   1.303  14.315  0.0567  0.2796  0.3101
 9550SOL    HW140112   3.256   1.295  14.220  0.1758 -2.0820  0.4809
 9550SOL    HW240113   3.339   1.239  14.334 -0.0442  0.2319  0.5093
 9551SOL     OW40114   3.864   2.008  17.093  0.0033  0.4972 -0.5255
 9551SOL    HW140115   3.788   2.063  17.073 -1.1757 -1.1450 -0.5811
 9551SOL    HW240116   3.837   1.992  17.184 -0.7171  0.6154 -0.7213
 9552SOL     OW40117   1.584   1.892  11.778 -0.3903 -0.1186  0.1988
 9552SOL    HW140118   1.537   1.972  11.753  1.3509  1.2126  1.1612
 9552SOL    HW240119   1.537   1.873  11.859  0.5273  1.2030  1.0388
 9553SOL     OW40120   4.279   1.093   5.597 -0.3143  0.0934  0.5443
 9553SOL    HW140121   4.340   1.148   5.548 -1.2048  0.3191 -0.3136
 9553SOL    HW240122   4.301   1.010   5.556  0.1872  0.8021 -0.6206
 9554SOL     OW40123   0.610   1.910  13.246  0.0744 -0.3789  0.2866
 9554SOL    HW140124   0.686   1.873  13.290  1.2264  0.3633 -1.1006
 9554SOL    HW240125   0.645   1.912  13.158  0.2288  1.0594  0.3767
 9555SOL     OW40126   3.716   3.347   2.786 -0.7122  0.2095 -0.2971
 9555SOL    HW140127   3.706   3.256   2.757 -1.6212 -0.0149  0.7381
 9555SOL    HW240128   3.626   3.380   2.784 -0.2136  1.5434 -1.0100
 9556SOL     OW40129   0.310   3.300   2.813  0.1172  0.4356  0.0661
 9556SOL    HW140130   0.388   3.252   2.787  1.5338  3.7205 -1.7124
 9556SOL    HW240131   0.250   3.252   2.756  0.1810 -0.7013  0.9599
 9557SOL     OW40132   4.016   1.899  11.041 -0.5097 -0.0705 -0.2621
 9557SOL    HW140133   4.070   1.850  11.104 -0.3526  1.5643  0.8588
 9557SOL    HW240134   3.957   1.949  11.097  0.3506 -0.1776  0.7502
 9558SOL     OW40135   4.643   1.655   4.077  0.3807 -0.3358 -0.8258
 9558SOL    HW140136   4.697   1.711   4.133 -0.4436 -0.9697  0.6048
 9558SOL    HW240137   4.610   1.705   4.003  0.0263 -0.2907 -0.6381
 9559SOL     OW40138   1.893   4.271   5.505 -0.0973 -0.0961 -0.2533
 9559SOL    HW140139   1.817   4.323   5.529  0.0542 -0.3858  0.8250
 9559SOL    HW240140   1.863   4.213   5.434  0.6643  0.7564 -1.2840
 9560SOL     OW40141   3.813   3.172  12.042  0.2434 -0.3169  0.0983
 9560SOL    HW140142   3.872   3.204  11.973  1.4064 -0.6311  0.9606
 9560SOL    HW240143   3.823   3.079  12.026 -1.0793 -0.1128 -1.9227
 9561SOL     OW40144   3.971   2.273  10.741  0.0967 -0.4095  0.7272
 9561SOL    HW140145   4.044   2.232  10.787  0.9169 -0.4790 -0.6425
 9561SOL    HW240146   3.987   2.226  10.659  2.1129  2.1779 -0.3478
 9562SOL     OW40147   0.596   3.945   4.987  0.4245  0.0427  0.0211
 9562SOL    HW140148   0.500   3.945   4.984  0.5012  0.4063 -2.2370
 9562SOL    HW240149   0.617   3.853   5.004 -0.0229  0.1823  1.2889
 9563SOL     OW40150   1.164   2.501   8.293  0.1320  0.4087  0.4065
 9563SOL    HW140151   1.083   2.531   8.335 -0.1405  0.3941 -0.1094
 9563SOL    HW240152   1.225   2.486   8.364  0.9718  3.4440  0.3339
 9564SOL     OW40153   2.907   0.382   4.856 -0.1288  0.1162  0.4874
 9564SOL    HW140154   2.915   0.371   4.951 -1.2952  2.2550  0.8510
 9564SOL    HW240155   2.977   0.441   4.829  0.8404 -0.2505  2.2287
 9565SOL     OW40156   1.351   0.926  15.968  0.0011  0.0202  0.4282
 9565SOL    HW140157   1.308   1.011  15.957 -1.2475 -0.6073  0.5766
 9565SOL    HW240158   1.427   0.940  15.911  0.2763  1.6556  1.1818
 9566SOL     OW40159   3.928   1.246  10.611 -0.5239 -0.3492 -0.6546
 9566SOL    HW140160   4.017   1.219  10.589 -0.3479  0.7124 -1.2453
 9566SOL    HW240161   3.940   1.336  10.641  0.5489 -0.3069 -1.2320
 9567SOL     OW40162   0.692   3.318   5.730  0.3766  0.0452  0.7073
 9567SOL    HW140163   0.702   3.272   5.814 -0.5677 -3.1503 -0.9110
 9567SOL    HW240164   0.724   3.407   5.741  0.8069 -0.2493  1.8619
 9568SOL     OW40165   1.522   1.319   3.277 -0.0894 -0.2890 -0.6507
 9568SOL    HW140166   1.473   1.270   3.343  0.2351  0.7591  0.3669
 9568SOL    HW240167   1.452   1.340   3.216 -0.9245 -0.8601  0.1150
   4.72442   4.72442  17.69924
