Membrane in water
40167
    1TCq1    O1    1   4.461   3.228  11.245 -0.0892  0.3996  0.1851
    1TCq1    C1    2   4.387   3.311  11.167 -0.4000  0.2284  0.0976
    1TCq1    O2    3   4.429   3.383  11.077 -0.6515 -0.0166 -0.0488
    1TCq1    C2    4   4.246   3.271  11.182 -0.5660 -0.1244  0.0794
    1TCq1    C3    5   4.157   3.272  11.077  0.6976 -0.1282  0.2372
    1TCq1    C4    6   4.028   3.236  11.096 -0.9412 -0.0535 -0.6916
    1TCq1    C5    7   3.981   3.210  11.218  0.7128  0.8153 -0.0363
    1TCq1    C6    8   4.070   3.216  11.322  0.3469 -0.3090  0.3842
    1TCq1    C7    9   4.204   3.234  11.308 -0.3813 -0.0928 -0.8155
    1TCq1    C8   10   4.023   3.156  11.448 -0.6024 -0.1014  0.2280
    1TCq1    O4   11   3.905   3.158  11.474  0.2510  0.3156 -0.0574
    1TCq1    C9   12   3.929   3.248  10.989 -0.2717 -0.1063  0.2277
    1TCq1    O5   13   3.806   3.219  11.013  0.1208  0.2245  0.0169
    1TCq1    O6   14   3.964   3.328  10.900 -0.3572 -0.1495 -0.3498
    1TCq1    H1   15   4.413   3.149  11.278 -1.5422  0.8604 -0.8603
    1TCq1    H2   16   4.198   3.310  10.985  0.1765  0.3314  0.1923
    1TCq1    H3   17   3.880   3.178  11.240  0.8393 -0.9314 -2.0222
    1TCq1    H4   18   4.266   3.250  11.395 -0.1832 -0.2822 -0.9251
    2MPD2     C   19   4.124   2.952  11.904 -0.0263  0.2315  0.4573
    2MPD2    C1   20   4.026   3.037  11.866 -0.4559  0.3882 -0.7422
    2MPD2    C2   21   4.015   3.085  11.741 -1.0628 -0.0821  0.3688
    2MPD2    C3   22   4.111   3.048  11.646 -0.4001  0.7400 -0.2069
    2MPD2    C4   23   4.207   2.955  11.686 -0.1112 -0.1526 -0.6104
    2MPD2    C5   24   4.207   2.906  11.811 -0.1454 -0.1978 -0.1380
    2MPD2     H   25   3.942   3.161  11.716 -2.0054 -1.5304 -1.2549
    2MPD2    H1   26   4.287   2.915  11.625  0.7721 -0.1339  0.5135
    2MPD2    H2   27   4.143   2.911  12.003  1.2507  0.7082  0.4081
    2MPD2    H3   28   4.290   2.844  11.845 -1.4215 -1.9942 -0.2566
    2MPD2     N   29   4.125   3.093  11.516  0.0636  0.0262 -0.0815
    2MPD2    H5   30   4.205   3.071  11.457  1.2362  2.3945  0.6355
    2MPD2    N1   31   3.934   3.090  11.955  0.3107 -0.4412  0.1371
    2MPD2    H7   32   3.858   3.152  11.927  0.4304 -0.0671  0.6293
    3TCq1    O1   33   4.157   0.099   9.874  0.0841 -0.3435  0.2233
    3TCq1    C1   34   4.145   0.202   9.956 -0.5426 -0.5136  0.4986
    3TCq1    O2   35   4.216   0.302   9.973 -0.3021 -0.2441 -0.0352
    3TCq1    C2   36   4.028   0.181  10.036 -0.1884  0.3683 -0.4227
    3TCq1    C3   37   3.968   0.061  10.053 -0.7278  0.3223  0.0004
    3TCq1    C4   38   3.848   0.047  10.117 -0.6620 -0.6571  0.6007
    3TCq1    C5   39   3.787   0.163  10.169  0.3236  0.1434 -0.1214
    3TCq1    C6   40   3.843   0.288  10.137 -0.6514  0.2116 -0.6026
    3TCq1    C7   41   3.968   0.295  10.075 -0.2028  0.4309 -0.5495
    3TCq1    C8   42   3.772   0.406  10.175 -0.1757  0.0339 -0.0446
    3TCq1    O4   43   3.824   0.512  10.139  0.5053  0.1500 -0.2231
    3TCq1    C9   44   3.793   4.649  10.157  0.5071  0.0623 -0.9503
    3TCq1    O5   45   3.860   4.547  10.135 -0.6939 -0.1680  0.0206
    3TCq1    O6   46   3.706   4.647  10.250  0.2638 -0.0700 -0.2977
    3TCq1    H1   47   4.080   0.045   9.848  0.4772  0.3313 -2.4570
    3TCq1    H2   48   4.018   4.696  10.016 -0.6677  0.0991  0.6255
    3TCq1    H3   49   3.693   0.150  10.220  0.7008 -0.4784  0.4178
    3TCq1    H4   50   4.015   0.391  10.059  1.4035 -0.1465  0.6905
    4MPD2     C   51   3.544   0.666  10.554 -0.2549 -0.2727  1.2056
    4MPD2    C1   52   3.517   0.537  10.573 -0.2388  0.0261 -0.1996
    4MPD2    C2   53   3.572   0.447  10.485 -0.2324 -0.5317  0.0020
    4MPD2    C3   54   3.651   0.486  10.378 -0.1780  0.1327  0.1885
    4MPD2    C4   55   3.667   0.620  10.354  0.0321  0.0635 -0.3042
    4MPD2    C5   56   3.617   0.705  10.447  0.2496  0.6988 -0.1264
    4MPD2     H   57   3.547   0.342  10.490 -1.3385 -0.2171  1.1767
    4MPD2    H1   58   3.715   0.661  10.266 -0.6029  1.8333  0.1774
    4MPD2    H2   59   3.503   0.745  10.615  1.6059  1.5396  0.0990
    4MPD2    H3   60   3.622   0.811  10.429 -0.1640  0.7901  0.2874
    4MPD2     N   61   3.694   0.383  10.291  0.1595  0.5398  0.6631
    4MPD2    H5   62   3.672   0.286  10.311  2.1479  0.2641  1.5186
    4MPD2    N1   63   3.436   0.487  10.677 -0.2153 -0.8603  0.8388
    4MPD2    H7   64   3.402   0.392  10.664 -2.5299  0.1938 -0.6244
    5TCq1    O1   65   4.492   1.811  12.362  0.7707  0.0173  0.2614
    5TCq1    C1   66   4.534   1.800  12.234  0.1249  0.2935  0.3159
    5TCq1    O2   67   4.617   1.716  12.192 -0.0701  0.0227  0.5655
    5TCq1    C2   68   4.436   1.863  12.151 -0.6527 -0.2156 -0.0760
    5TCq1    C3   69   4.325   1.933  12.193 -0.5218 -0.4258  0.5810
    5TCq1    C4   70   4.222   1.960  12.106 -0.1577  0.6408 -0.4906
    5TCq1    C5   71   4.230   1.916  11.975  0.3212  0.3684  0.3393
    5TCq1    C6   72   4.348   1.850  11.931  0.3546  0.0830 -1.6489
    5TCq1    C7   73   4.445   1.823  12.021  0.4746 -0.2743  0.4329
    5TCq1    C8   74   4.348   1.773  11.804 -0.8633 -0.5030  0.1754
    5TCq1    O4   75   4.427   1.679  11.786 -0.1474 -0.4568 -0.0961
    5TCq1    C9   76   4.105   2.026  12.157  0.4476 -0.9201 -0.4603
    5TCq1    O5   77   3.993   2.004  12.105 -0.2449 -0.2052 -0.2158
    5TCq1    O6   78   4.120   2.087  12.267 -0.3863  0.3262  0.0768
    5TCq1    H1   79   4.409   1.861  12.374  0.3857 -0.7550  0.7603
    5TCq1    H2   80   4.312   1.969  12.294  0.3588 -0.0826  0.5743
    5TCq1    H3   81   4.131   1.915  11.929  0.9162 -0.6785 -0.9062
    5TCq1    H4   82   4.533   1.776  11.977  1.3251  0.0201  1.8139
    6MPD2     C   83   4.160   1.888  11.513  0.0871 -0.0074 -0.4756
    6MPD2    C1   84   4.230   1.798  11.588  0.1881  0.2311  0.5471
    6MPD2    C2   85   4.263   1.672  11.540  0.4118 -0.6608 -0.5721
    6MPD2    C3   86   4.226   1.635  11.406  0.1127 -0.1664 -0.3307
    6MPD2    C4   87   4.150   1.725  11.334  0.3603  0.6419  0.1123
    6MPD2    C5   88   4.115   1.848  11.391 -0.5937  0.1312  0.0388
    6MPD2     H   89   4.328   1.609  11.600  0.1963  0.9842  1.4115
    6MPD2    H1   90   4.095   1.701  11.244  0.2481 -2.6662  1.0729
    6MPD2    H2   91   4.136   1.984  11.558  1.7842  0.3940 -0.4493
    6MPD2    H3   92   4.053   1.918  11.336 -0.6008 -0.4199 -0.6571
    6MPD2     N   93   4.245   1.499  11.365 -0.0689 -0.6844 -0.5347
    6MPD2    H5   94   4.263   1.429  11.436  0.4966 -1.0298 -1.0253
    6MPD2    N1   95   4.271   1.844  11.714  0.4741  0.0526 -0.1746
    6MPD2    H7   96   4.232   1.932  11.747  1.2964  0.1482  0.5508
    7TCq1    O1   97   0.657   1.062  13.239  0.3100  0.0014  0.7417
    7TCq1    C1   98   0.770   1.091  13.314  0.9236 -0.1988 -0.4535
    7TCq1    O2   99   0.870   1.154  13.272  0.9387  0.0957  0.2738
    7TCq1    C2  100   0.762   1.026  13.444 -0.3887 -0.0863  0.0700
    7TCq1    C3  101   0.638   1.010  13.502  0.1745  0.0155 -0.0827
    7TCq1    C4  102   0.625   0.924  13.603 -0.0631 -0.1820 -0.1394
    7TCq1    C5  103   0.732   0.857  13.649  0.2141 -0.0008  0.2517
    7TCq1    C6  104   0.857   0.883  13.591  0.1229  0.0628 -0.3503
    7TCq1    C7  105   0.880   0.977  13.488  0.0025 -0.8614  0.1947
    7TCq1    C8  106   0.963   0.793  13.628 -0.0636 -0.0521 -0.0888
    7TCq1    O4  107   0.945   0.677  13.664 -0.1190  0.1351  0.7005
    7TCq1    C9  108   0.496   0.905  13.663  0.2236 -0.1943 -0.3900
    7TCq1    O5  109   0.397   0.972  13.621  0.0569  0.4063 -0.4098
    7TCq1    O6  110   0.501   0.840  13.771  0.4456 -0.5097  0.4288
    7TCq1    H1  111   0.615   0.983  13.277  0.7345 -1.2377 -1.3920
    7TCq1    H2  112   0.551   1.068  13.471  0.7921  0.5413 -0.8535
    7TCq1    H3  113   0.729   0.774  13.719  0.3529 -1.0406 -0.9698
    7TCq1    H4  114   0.977   1.009  13.453 -0.7147  0.0751 -0.9224
    8MPD2     C  115   1.468   0.699  13.651 -0.5502  0.6048 -0.0584
    8MPD2    C1  116   1.369   0.611  13.649 -0.2983  0.0297 -0.0286
    8MPD2    C2  117   1.238   0.660  13.645 -0.2344 -0.3309  0.2485
    8MPD2    C3  118   1.208   0.798  13.647 -0.1130 -0.1417 -0.0770
    8MPD2    C4  119   1.316   0.881  13.644 -0.3801 -0.2487  0.1706
    8MPD2    C5  120   1.447   0.835  13.650 -0.1800 -0.5071 -0.4485
    8MPD2     H  121   1.157   0.588  13.647 -2.3489  2.0241 -1.0987
    8MPD2    H1  122   1.298   0.987  13.656 -0.0117  0.1011 -2.3916
    8MPD2    H2  123   1.568   0.665  13.675 -0.7781  0.9259  1.3216
    8MPD2    H3  124   1.526   0.910  13.659 -0.8048  0.2755 -1.5109
    8MPD2     N  125   1.079   0.856  13.633  0.3451 -0.1986 -1.0021
    8MPD2    H5  126   1.080   0.958  13.626 -0.3349 -0.2162 -1.4156
    8MPD2    N1  127   1.402   0.472  13.641  0.3371  0.1376 -0.3772
    8MPD2    H7  128   1.501   0.450  13.638  0.3556  0.2722 -0.7779
    9TCq1    O1  129   3.751   4.020   9.880  0.3699  0.1795  0.6197
    9TCq1    C1  130   3.798   3.899   9.920 -1.0184  0.2042  0.1886
    9TCq1    O2  131   3.772   3.792   9.862 -0.4389 -0.3948  0.1535
    9TCq1    C2  132   3.815   3.912  10.068  0.2492  0.8155  0.6742
    9TCq1    C3  133   3.865   4.023  10.123  0.3247  0.1506  0.2829
    9TCq1    C4  134   3.853   4.045  10.258  0.7280  0.3269  0.1519
    9TCq1    C5  135   3.789   3.958  10.338  0.1344  0.1315 -0.4482
    9TCq1    C6  136   3.738   3.841  10.281 -0.2837  0.4947  0.0367
    9TCq1    C7  137   3.750   3.825  10.144 -0.0074 -0.0741 -0.4444
    9TCq1    C8  138   3.662   3.745  10.353 -0.2227  0.0167 -0.2018
    9TCq1    O4  139   3.628   3.646  10.294 -0.3848 -0.3397 -0.3866
    9TCq1    C9  140   3.880   4.177  10.307  0.0706 -0.2019 -0.8672
    9TCq1    O5  141   3.888   4.267  10.225  0.6384 -0.0049  0.0048
    9TCq1    O6  142   3.874   4.201  10.432 -0.2175 -0.8117  0.0391
    9TCq1    H1  143   3.732   4.085   9.950  0.7364 -0.4115  1.2625
    9TCq1    H2  144   3.907   4.094  10.053 -1.7459  0.1802 -0.9482
    9TCq1    H3  145   3.776   3.977  10.444  3.0814  0.1222 -0.0982
    9TCq1    H4  146   3.703   3.738  10.099  0.5585 -0.5226 -0.1814
   10MPD2     C  147   3.515   3.577  10.547 -0.1687  0.8300  0.1324
   10MPD2    C1  148   3.585   3.693  10.581 -0.2113 -0.2874 -0.1416
   10MPD2    C2  149   3.596   3.731  10.710  0.8244  0.5232 -0.6696
   10MPD2    C3  150   3.545   3.652  10.811  0.5677  0.1081  0.0227
   10MPD2    C4  151   3.486   3.534  10.778 -0.0706 -0.5019  0.0333
   10MPD2    C5  152   3.470   3.497  10.646  1.3313 -0.5025  0.1049
   10MPD2     H  153   3.643   3.826  10.734  1.2337 -0.2100  1.4060
   10MPD2    H1  154   3.456   3.471  10.861 -1.1868 -0.7839 -0.5901
   10MPD2    H2  155   3.504   3.538  10.447  2.6334  0.7785 -0.1558
   10MPD2    H3  156   3.414   3.407  10.622 -0.7234  0.5355  0.9746
   10MPD2     N  157   3.558   3.675  10.952  0.1921 -0.0238  0.8277
   10MPD2    H5  158   3.503   3.620  11.016 -0.0568  0.3316  0.9211
   10MPD2    N1  159   3.645   3.776  10.490 -0.3901  0.2410  0.5286
   10MPD2    H7  160   3.700   3.852  10.529  0.0297  0.2895 -0.1566
   11TCq1    O1  161   0.145   3.763  14.330 -0.4271  0.6368  0.2109
   11TCq1    C1  162   0.181   3.785  14.460  0.6985 -0.3249  0.1538
   11TCq1    O2  163   0.227   3.708  14.539  0.2410 -0.3545  0.0775
   11TCq1    C2  164   0.118   3.913  14.501  0.0063 -0.1119  0.3624
   11TCq1    C3  165   0.197   4.004  14.573 -0.3250  0.6214 -0.3962
   11TCq1    C4  166   0.150   4.130  14.576  0.4962 -0.4030  0.1093
   11TCq1    C5  167   0.031   4.165  14.521  0.5698  0.7887 -0.0838
   11TCq1    C6  168   4.678   4.074  14.462  0.0182 -0.6494  0.8313
   11TCq1    C7  169   4.721   3.944  14.446 -0.1137 -0.7695  0.0895
   11TCq1    C8  170   4.547   4.123  14.412 -0.2067 -0.0483  0.4258
   11TCq1    O4  171   4.532   4.244  14.405  0.4069  0.2307 -0.4758
   11TCq1    C9  172   0.239   4.228  14.624 -0.3345  0.2390  1.3759
   11TCq1    O5  173   0.244   4.338  14.562 -0.2017  0.0514  0.3304
   11TCq1    O6  174   0.296   4.212  14.733  0.5235  0.3135  0.4408
   11TCq1    H1  175   0.104   3.838  14.281 -0.7159 -0.3588 -1.0749
   11TCq1    H2  176   0.297   3.980  14.606  0.2667 -2.3093 -4.1893
   11TCq1    H3  177   0.006   4.270  14.525 -0.1262  0.6071  0.2914
   11TCq1    H4  178   4.664   3.868  14.394 -2.2586 -0.3791  1.8265
   12MPD2     C  179   4.284   4.181  14.288 -0.0798  0.4447 -0.0049
   12MPD2    C1  180   4.332   4.059  14.325 -0.0032  0.0667 -0.0350
   12MPD2    C2  181   4.255   3.945  14.304  0.0389  0.3688  0.3570
   12MPD2    C3  182   4.124   3.959  14.261  0.0110 -0.1799 -0.2059
   12MPD2    C4  183   4.080   4.086  14.230  0.3769 -0.3288 -0.0354
   12MPD2    C5  184   4.159   4.198  14.253  0.3459 -0.0015  0.0661
   12MPD2     H  185   4.297   3.851  14.334  2.3535  1.1264 -0.5484
   12MPD2    H1  186   3.983   4.114  14.189  0.5230  0.0028 -0.1552
   12MPD2    H2  187   4.340   4.274  14.284  1.6388 -0.5653  0.2518
   12MPD2    H3  188   4.120   4.292  14.214  0.1066 -0.5700 -1.0794
   12MPD2     N  189   4.048   3.845  14.238 -0.6219  0.0871  0.1424
   12MPD2    H5  190   4.097   3.756  14.238  2.4977  1.8194 -0.5071
   12MPD2    N1  191   4.463   4.032  14.371 -0.5827 -0.2379  0.2429
   12MPD2    H7  192   4.498   3.937  14.368  1.6762  0.5210  1.9863
   13TCq1    O1  193   3.249   3.769  10.145  0.1272 -0.4250 -0.0353
   13TCq1    C1  194   3.374   3.821  10.121 -0.4020 -0.0243 -0.1033
   13TCq1    O2  195   3.416   3.813  10.002  0.3964  0.1060 -0.1713
   13TCq1    C2  196   3.385   3.937  10.200 -0.0993  0.1516  0.7258
   13TCq1    C3  197   3.435   4.048  10.139  0.5456  0.6520 -0.0558
   13TCq1    C4  198   3.505   4.138  10.212  0.2689  0.6094 -0.1840
   13TCq1    C5  199   3.510   4.127  10.353 -0.3478 -0.5904 -0.0903
   13TCq1    C6  200   3.432   4.031  10.408 -0.7468 -0.2419 -0.7290
   13TCq1    C7  201   3.386   3.917  10.336  0.6843  0.2585 -0.4878
   13TCq1    C8  202   3.404   4.033  10.551  0.0074  0.9185 -0.2712
   13TCq1    O4  203   3.481   4.100  10.617 -0.4680 -0.1819  0.3469
   13TCq1    C9  204   3.585   4.243  10.146  0.9002 -0.1261 -0.1750
   13TCq1    O5  205   3.617   4.353  10.198 -0.0818 -0.0449  0.0340
   13TCq1    O6  206   3.628   4.200  10.031  0.1963  0.6063 -0.2169
   13TCq1    H1  207   3.233   3.761  10.242  1.2345 -0.1144  0.1753
   13TCq1    H2  208   3.444   4.044  10.031 -2.0555 -1.7224 -0.1720
   13TCq1    H3  209   3.559   4.208  10.406  0.3910 -1.9679  1.3049
   13TCq1    H4  210   3.327   3.835  10.376  0.9168 -0.0673 -0.8135
   14MPD2     C  211   3.151   3.801  10.694  0.2237 -0.4437  0.0440
   14MPD2    C1  212   3.257   3.896  10.698  0.4543  0.4604  0.5867
   14MPD2    C2  213   3.300   3.931  10.828 -0.5707 -0.3628  0.0503
   14MPD2    C3  214   3.244   3.884  10.943 -0.0370 -0.1702  0.3351
   14MPD2    C4  215   3.148   3.788  10.926 -0.1729 -0.0815 -0.4567
   14MPD2    C5  216   3.102   3.748  10.805  0.4291 -0.7673  0.1821
   14MPD2     H  217   3.373   4.011  10.828 -3.3444  2.1517  1.0761
   14MPD2    H1  218   3.125   3.731  11.015  2.7031 -2.4667 -1.2053
   14MPD2    H2  219   3.106   3.775  10.598  0.2086  1.6823 -0.5205
   14MPD2    H3  220   3.027   3.671  10.805  0.5851 -0.9165 -0.0954
   14MPD2     N  221   3.300   3.934  11.067  0.1975  0.1383 -0.0103
   14MPD2    H5  222   3.383   3.992  11.066  0.2320  0.0331 -2.9785
   14MPD2    N1  223   3.297   3.955  10.580  0.0756  0.4309 -0.5807
   14MPD2    H7  224   3.239   3.938  10.499  0.2374 -0.4065 -0.5175
   15TCq1    O1  225   1.735   3.988   1.562  0.2136 -0.0534 -0.2016
   15TCq1    C1  226   1.682   3.861   1.561 -0.0209  0.1743  0.1428
   15TCq1    O2  227   1.709   3.782   1.471  0.0636 -0.0387  0.2610
   15TCq1    C2  228   1.566   3.839   1.650 -0.0780  0.9124 -0.3170
   15TCq1    C3  229   1.476   3.940   1.676  0.5043  0.2327 -0.3287
   15TCq1    C4  230   1.355   3.907   1.727 -0.2648  0.6544 -0.2414
   15TCq1    C5  231   1.318   3.777   1.734  0.2408  0.1507  0.0813
   15TCq1    C6  232   1.409   3.678   1.701  0.4092 -0.0097 -0.0836
   15TCq1    C7  233   1.539   3.708   1.677  0.5995  0.2775  0.4432
   15TCq1    C8  234   1.366   3.543   1.658  0.4762 -0.9310 -0.1297
   15TCq1    O4  235   1.437   3.440   1.664 -0.4626 -0.1013 -0.1396
   15TCq1    C9  236   1.257   4.016   1.754  0.3261 -0.2981  0.0153
   15TCq1    O5  237   1.319   4.115   1.806  0.6602  0.1852  0.0819
   15TCq1    O6  238   1.141   3.980   1.780 -0.4429  0.0761 -0.1920
   15TCq1    H1  239   1.716   4.053   1.632  0.0914  0.9721 -1.1819
   15TCq1    H2  240   1.492   4.039   1.634 -0.6243  0.4752 -0.1811
   15TCq1    H3  241   1.217   3.759   1.770  0.0920 -0.4224 -0.6214
   15TCq1    H4  242   1.597   3.622   1.644 -0.1267  0.5189 -1.4425
   16MPD2     C  243   1.029   3.479   1.528 -0.1734  0.2667 -0.5882
   16MPD2    C1  244   1.151   3.448   1.570 -0.4497  0.3363 -0.2081
   16MPD2    C2  245   1.195   3.315   1.568  1.2329 -0.3874 -0.2332
   16MPD2    C3  246   1.115   3.212   1.522  0.4896  0.9730 -0.5180
   16MPD2    C4  247   0.986   3.248   1.470 -0.2994  0.3147  0.2541
   16MPD2    C5  248   0.953   3.381   1.466  0.1273 -0.3007 -0.5305
   16MPD2     H  249   1.293   3.285   1.601 -0.0912 -1.9644  2.2925
   16MPD2    H1  250   0.910   3.181   1.430 -0.3337  0.7072 -0.3356
   16MPD2    H2  251   0.985   3.577   1.540  0.6255  0.6335 -0.6661
   16MPD2    H3  252   0.854   3.411   1.436  0.4056  1.3896  0.2395
   16MPD2     N  253   1.174   3.082   1.520 -0.0710 -0.6933  0.2231
   16MPD2    H5  254   1.273   3.080   1.541  0.5510  1.3796 -2.4642
   16MPD2    N1  255   1.231   3.548   1.633  0.3761 -0.0180  0.3783
   16MPD2    H7  256   1.185   3.638   1.642  0.8895  0.2431  0.4321
   17TCq1    O1  257   2.901   2.520  11.574  0.0640  0.1848 -0.5591
   17TCq1    C1  258   2.964   2.430  11.501  0.6854 -0.6023  0.2652
   17TCq1    O2  259   2.897   2.347  11.439  0.6963 -0.0261  0.2455
   17TCq1    C2  260   3.066   2.503  11.432 -0.1032  0.1261 -0.4071
   17TCq1    C3  261   3.167   2.564  11.505  0.2896  0.0610  0.3391
   17TCq1    C4  262   3.278   2.616  11.435 -0.5238 -0.1275 -0.5272
   17TCq1    C5  263   3.282   2.601  11.301 -0.2588 -0.0284  0.2280
   17TCq1    C6  264   3.181   2.540  11.231  0.4996  0.2774 -0.3792
   17TCq1    C7  265   3.067   2.502  11.295 -0.3825 -0.0232  0.1477
   17TCq1    C8  266   3.184   2.547  11.085  0.4229  0.4916 -0.0471
   17TCq1    O4  267   3.092   2.486  11.032 -0.4281 -0.2255 -0.6325
   17TCq1    C9  268   3.396   2.653  11.504  0.1835  0.0231 -0.1948
   17TCq1    O5  269   3.485   2.714  11.436  0.0845 -0.5122 -0.2804
   17TCq1    O6  270   3.391   2.645  11.624  0.0873  0.1823  0.0375
   17TCq1    H1  271   2.950   2.602  11.595 -1.4596  1.2600 -1.1765
   17TCq1    H2  272   3.163   2.571  11.613 -0.2697  0.5639  0.2810
   17TCq1    H3  273   3.369   2.635  11.247  0.4858 -2.9415 -0.3674
   17TCq1    H4  274   2.979   2.464  11.244  1.1735 -1.1941 -1.6909
   18MPD2     C  275   3.250   2.546  10.801  0.0013  0.0871 -0.0600
   18MPD2    C1  276   3.299   2.638  10.895 -0.6012  0.2917  0.2017
   18MPD2    C2  277   3.381   2.742  10.860  0.6691 -0.1846  0.9180
   18MPD2    C3  278   3.427   2.748  10.727 -0.3093 -1.1315 -0.1910
   18MPD2    C4  279   3.361   2.671  10.631  0.8244 -0.4912  0.7687
   18MPD2    C5  280   3.285   2.570  10.675  1.0938 -0.0827 -0.3291
   18MPD2     H  281   3.423   2.811  10.933 -0.8262  1.7595 -0.0382
   18MPD2    H1  282   3.379   2.680  10.525 -0.3482 -1.1858  0.5058
   18MPD2    H2  283   3.187   2.463  10.830  1.2893 -0.7058  0.5013
   18MPD2    H3  284   3.237   2.504  10.602  1.3810 -0.6188 -0.0343
   18MPD2     N  285   3.525   2.836  10.684 -0.6831 -0.7298 -0.3349
   18MPD2    H5  286   3.547   2.855  10.586  3.0123 -0.6038  0.5241
   18MPD2    N1  287   3.275   2.630  11.033 -0.0190  0.6105  0.7320
   18MPD2    H7  288   3.327   2.688  11.099  0.0896  1.1099  0.2030
   19TMC2    C1  289   0.277   3.942  13.974 -0.3773  0.6837 -0.2961
   19TMC2    C2  290   0.256   4.014  13.861  0.2217  0.2795 -0.3444
   19TMC2    C3  291   0.217   3.951  13.747 -0.0914  0.7039  0.1992
   19TMC2    C4  292   0.257   3.804  13.986  0.2285  0.0334  0.4492
   19TMC2    C5  293   0.213   3.753  13.872  0.4209  0.5261  0.0507
   19TMC2    C6  294   0.184   3.821  13.750  0.4107  0.1185 -0.3331
   19TMC2     C  295   0.333   4.014  14.084 -0.3796  0.3447  0.1925
   19TMC2     O  296   0.319   4.134  14.080 -0.3407  0.0312 -0.8872
   19TMC2     H  297   0.276   4.119  13.844 -2.1243  0.7000 -0.6147
   19TMC2    H1  298   0.260   3.756  14.083 -1.7328 -1.2160 -0.1163
   19TMC2    H2  299   0.152   3.769  13.661 -0.0196 -0.0995 -0.0522
   19TMC2    C7  300   0.167   3.614  13.882  0.1605  0.6642  0.2839
   19TMC2    C8  301   0.194   4.030  13.633 -0.0285  0.1147  0.6500
   19TMC2    O1  302   0.171   3.569  13.998  0.4331 -0.2412 -0.0052
   19TMC2    O2  303   0.249   4.015  13.528  0.0335  0.5297 -0.2556
   19TMC2    O5  304   0.061   4.047  13.630 -0.1420 -0.5129 -0.5410
   19TMC2    H5  305   0.023   4.043  13.720  1.3348 -0.2985  0.0985
   20MPD2     C  306   0.452   4.118  14.336 -0.6661  0.5724  0.4110
   20MPD2    C1  307   0.468   3.988  14.294  0.9657  0.6989  0.9071
   20MPD2    C2  308   0.521   3.902  14.384 -0.0363 -0.2162 -0.8861
   20MPD2    C3  309   0.553   3.946  14.511  0.2966 -0.6954 -0.6229
   20MPD2    C4  310   0.541   4.076  14.544  0.0901 -0.0548  0.6088
   20MPD2    C5  311   0.504   4.167  14.455 -0.0428 -0.0701  0.4177
   20MPD2     H  312   0.542   3.801  14.351 -1.9588 -1.0655  0.4801
   20MPD2    H1  313   0.571   4.115  14.640  0.8781  1.6862 -0.3487
   20MPD2    H2  314   0.416   4.195  14.268 -0.2439  1.6000  1.3371
   20MPD2    H3  315   0.502   4.273  14.474  1.8144 -0.1117  0.8919
   20MPD2     N  316   0.604   3.867  14.610  0.5432  0.5346 -0.1680
   20MPD2    H5  317   0.630   3.911  14.698 -1.1760  2.2925 -0.5322
   20MPD2    N1  318   0.409   3.938  14.173 -0.7521  0.5909  0.4197
   20MPD2    H7  319   0.423   3.841  14.144  1.2543  0.6857  1.0269
   21MPD2     C  320   2.468   4.129  14.688 -0.2795 -0.0654 -0.0803
   21MPD2    C1  321   2.525   4.105  14.813  0.6276  0.3962 -0.5386
   21MPD2    C2  322   2.453   4.144  14.929 -0.5152  0.5906 -0.2632
   21MPD2    C3  323   2.329   4.206  14.920  0.1852  0.3933  0.4682
   21MPD2    C4  324   2.270   4.212  14.795 -0.5184  0.0117  1.1182
   21MPD2    C5  325   2.339   4.178  14.684 -0.7462 -0.1073  0.8210
   21MPD2     H  326   2.499   4.128  15.026 -0.1910 -1.8011 -0.8093
   21MPD2    H1  327   2.167   4.246  14.790 -0.3617  0.1471 -0.9504
   21MPD2    H2  328   2.512   4.105  14.591 -1.2553  2.6940 -1.2097
   21MPD2    H3  329   2.294   4.206  14.589 -0.0911 -0.1947  0.4895
   21MPD2     N  330   2.245   4.253  15.025  0.0987 -0.1539 -0.2564
   21MPD2    H5  331   2.158   4.299  15.003  0.5581 -0.1825 -2.1641
   21MPD2    N1  332   2.643   4.032  14.832  0.5459 -0.4357 -0.7063
   21MPD2    H7  333   2.678   4.003  14.923  1.1803  1.2271 -0.4167
   22TCq2    C1  334   2.282   4.268  15.156  0.2228 -0.7485 -0.3991
   22TCq2    O2  335   2.374   4.216  15.214  0.2600 -0.4433 -0.1941
   22TCq2    C2  336   2.202   4.352  15.228  0.2157  0.4435  0.1819
   22TCq2    C3  337   2.232   4.361  15.361 -0.1849 -0.3235 -0.1291
   22TCq2    C4  338   2.202   4.478  15.423  0.0988 -0.2608 -1.0391
   22TCq2    C5  339   2.133   4.579  15.364 -0.3100  0.2122  0.1262
   22TCq2    C6  340   2.088   4.562  15.240  0.8617  0.2170  0.1278
   22TCq2    C7  341   2.129   4.451  15.163 -0.0891  0.3311  0.2989
   22TCq2    C8  342   1.991   4.658  15.191  0.4438 -0.0505  0.4245
   22TCq2    O4  343   1.990   0.043  15.246  0.3536  0.0525 -0.0316
   22TCq2    C9  344   2.277   4.502  15.548  0.1437 -0.0016  0.0745
   22TCq2    O5  345   2.363   4.422  15.583 -0.0225  0.0685 -0.6399
   22TCq2    O6  346   2.234   4.599  15.620  0.2219  0.2942  0.3794
   22TCq2    H2  347   2.298   4.292  15.412  2.4932 -0.5679 -3.8321
   22TCq2    H3  348   2.105   4.668  15.420  2.5378  1.3519 -0.2785
   22TCq2    H4  349   2.114   4.456  15.056 -1.0641  1.1064  0.4657
   23MPD2     C  350   4.092   0.388  14.737  0.2213  0.6861 -0.2455
   23MPD2    C1  351   4.188   0.459  14.811  0.0407 -1.3444  0.3502
   23MPD2    C2  352   4.163   0.592  14.854  0.0220  0.1522  0.1989
   23MPD2    C3  353   4.050   0.658  14.806 -0.2359 -0.3203 -0.2626
   23MPD2    C4  354   3.963   0.587  14.723  0.0077 -0.4659  0.7164
   23MPD2    C5  355   3.983   0.449  14.691  0.1821 -0.6982 -0.3000
   23MPD2     H  356   4.239   0.641  14.913  2.3814 -1.6194 -1.3721
   23MPD2    H1  357   3.874   0.629  14.678  1.1102  0.5830 -0.5087
   23MPD2    H2  358   4.092   0.283  14.710  0.0988  0.2060  1.6605
   23MPD2    H3  359   3.911   0.394  14.633 -0.0508  1.2317 -1.8433
   23MPD2     N  360   4.004   0.785  14.845 -0.3022  0.0912  0.0330
   23MPD2    H5  361   3.923   0.827  14.801 -0.8324 -0.5395  0.3960
   23MPD2    N1  362   4.304   0.396  14.864  0.0113 -0.1147  0.8389
   23MPD2    H7  363   4.357   0.454  14.928 -0.6097  2.0901 -0.6708
   24TCq2    C1  364   4.080   0.874  14.917 -0.4281  0.0383  0.2329
   24TCq2    O2  365   4.185   0.854  14.977  0.0187  0.5922 -0.5434
   24TCq2    C2  366   4.045   1.008  14.878 -0.3316  0.5867 -1.1121
   24TCq2    C3  367   4.154   1.092  14.883 -0.3580  0.5709  0.1724
   24TCq2    C4  368   4.149   1.208  14.805  0.3285 -0.4148 -0.1656
   24TCq2    C5  369   4.040   1.240  14.730 -0.2391  0.2134 -1.0499
   24TCq2    C6  370   3.935   1.150  14.731  1.0935  0.3906  0.0075
   24TCq2    C7  371   3.933   1.035  14.804 -0.0851 -0.0736  0.0267
   24TCq2    C8  372   3.813   1.193  14.664 -0.2891 -0.1034 -0.0845
   24TCq2    O4  373   3.801   1.312  14.636  0.2463  0.2140  0.2313
   24TCq2    C9  374   4.254   1.299  14.815 -0.2403 -0.2139 -0.0324
   24TCq2    O5  375   4.336   1.272  14.906 -0.5575  0.1883 -0.0185
   24TCq2    O6  376   4.261   1.387  14.727 -0.3197  0.8665  0.0464
   24TCq2    H2  377   4.254   1.064  14.915 -0.2430  1.1143  0.2927
   24TCq2    H3  378   4.042   1.330  14.669 -0.9364  0.6454 -0.4308
   24TCq2    H4  379   3.852   0.964  14.800 -0.6378  0.6083 -0.8607
   25TMC2    C1  380   3.839   2.643  11.729  0.0105  0.2387 -0.3873
   25TMC2    C2  381   3.945   2.630  11.813 -0.0700 -0.4384  0.5905
   25TMC2    C3  382   3.928   2.674  11.944 -0.0415 -0.5208 -0.0971
   25TMC2    C4  383   3.725   2.710  11.759 -0.8699  0.0687 -0.1630
   25TMC2    C5  384   3.725   2.763  11.889 -0.2623 -0.0921 -0.5823
   25TMC2    C6  385   3.815   2.736  11.986 -0.1500  0.5156 -0.2290
   25TMC2     C  386   3.854   2.580  11.595 -0.5191  0.6492 -0.4272
   25TMC2     O  387   3.967   2.543  11.557 -0.4323  0.7891  0.0450
   25TMC2     H  388   4.028   2.566  11.783 -0.9881 -2.4207  2.2827
   25TMC2    H1  389   3.644   2.714  11.686 -0.4566 -1.7742 -0.7400
   25TMC2    H2  390   3.791   2.737  12.092  3.3450  0.7405  0.5550
   25TMC2    C7  391   3.614   2.841  11.927  0.0640  0.5734 -0.3719
   25TMC2    C8  392   4.021   2.623  12.043 -0.8082 -0.5280 -0.3163
   25TMC2    O1  393   3.591   2.840  12.046 -0.0559  0.1743  0.4785
   25TMC2    O2  394   4.049   2.506  12.055 -0.1913  0.4720  0.5470
   25TMC2    O5  395   4.022   2.710  12.145 -0.2040 -0.1320  0.2384
   25TMC2    H5  396   4.001   2.804  12.123  0.4239 -0.0155  0.1098
   26MPD2     C  397   3.675   2.314  11.200 -0.3582  0.2445  0.1640
   26MPD2    C1  398   3.579   2.316  11.296  0.3820  0.2795 -0.0243
   26MPD2    C2  399   3.596   2.396  11.411 -0.2434 -0.3499 -0.2947
   26MPD2    C3  400   3.717   2.464  11.427  0.1817  0.0165 -0.4251
   26MPD2    C4  401   3.815   2.453  11.333 -0.0635  0.1695  0.3719
   26MPD2    C5  402   3.794   2.383  11.217  0.0282 -0.5336  0.4731
   26MPD2     H  403   3.517   2.412  11.484  0.0561  2.4400 -0.5742
   26MPD2    H1  404   3.914   2.496  11.345  0.8871 -1.9288  0.0507
   26MPD2    H2  405   3.675   2.258  11.108 -2.2295 -0.0524  0.3441
   26MPD2    H3  406   3.863   2.379  11.133 -1.4067  0.9884 -0.7858
   26MPD2     N  407   3.730   2.544  11.544 -0.6288  0.2540 -0.2907
   26MPD2    H5  408   3.648   2.552  11.603 -0.7009 -0.1610 -0.3287
   26MPD2    N1  409   3.466   2.248  11.264 -0.7078  0.1636  0.2373
   26MPD2    H7  410   3.474   2.182  11.187 -2.3972  2.0684 -1.5553
   27TMC2    C1  411   2.320   4.463  12.223 -0.0730 -0.0786  0.1359
   27TMC2    C2  412   2.373   4.382  12.129 -0.3169 -0.7850  0.1342
   27TMC2    C3  413   2.359   4.424  11.999  0.4150 -0.6465  0.5355
   27TMC2    C4  414   2.281   4.590  12.193  0.3907  0.1873  0.4560
   27TMC2    C5  415   2.287   4.632  12.063  0.6751  0.6607 -0.5685
   27TMC2    C6  416   2.319   4.550  11.959  0.1128  0.4392 -0.4080
   27TMC2     C  417   2.314   4.413  12.358 -0.1140 -0.8128 -0.3047
   27TMC2     O  418   2.399   4.327  12.385 -0.1742 -0.3218  0.6539
   27TMC2     H  419   2.435   4.299  12.160  1.0658 -0.4684 -1.7802
   27TMC2    H1  420   2.244   4.654  12.272  2.6271  1.8917  0.1225
   27TMC2    H2  421   2.323   4.586  11.857 -1.2244 -0.1913 -0.6825
   27TMC2    C7  422   2.272   0.047  12.044  0.9664  0.2881 -0.0565
   27TMC2    C8  423   2.456   4.367  11.908  0.5109  0.1222 -0.1177
   27TMC2    O1  424   2.309   0.113  12.136 -0.4075  1.2227  0.3911
   27TMC2    O2  425   2.536   4.431  11.839 -0.0248  0.0599 -0.3414
   27TMC2    O5  426   2.452   4.236  11.913 -0.1203 -0.1581 -0.3819
   27TMC2    H5  427   2.376   4.205  11.967 -0.0055  1.3363  0.6312
   28MPD2     C  428   2.152   4.350  12.833 -1.0140  0.0753  0.5097
   28MPD2    C1  429   2.053   4.420  12.767  0.4427  0.8649  0.7541
   28MPD2    C2  430   2.077   4.478  12.639  0.3808  0.2828 -0.5392
   28MPD2    C3  431   2.197   4.437  12.572 -0.5093  0.5231 -0.5556
   28MPD2    C4  432   2.291   4.364  12.643  0.4658 -0.3175  0.6954
   28MPD2    C5  433   2.271   4.322  12.771  0.4980 -0.6676  0.1830
   28MPD2     H  434   2.002   4.539  12.591  0.7160  0.4619 -0.8342
   28MPD2    H1  435   2.387   4.345  12.597 -1.1626  1.4149 -3.4780
   28MPD2    H2  436   2.129   4.313  12.932  0.1612 -0.8844  0.4167
   28MPD2    H3  437   2.342   4.256  12.818  1.2466 -0.1035 -0.1491
   28MPD2     N  438   2.221   4.480  12.444 -0.2162 -0.6154 -0.3870
   28MPD2    H5  439   2.153   4.540  12.397  2.0183  1.5705 -0.8684
   28MPD2    N1  440   1.935   4.444  12.850 -0.2817 -0.3674  0.7931
   28MPD2    H7  441   1.920   4.386  12.931  3.7599  0.5340  2.1962
   29MPD2     C  442   1.245   1.823  14.326  0.2307 -0.9773 -0.3989
   29MPD2    C1  443   1.299   1.783  14.450 -0.4890 -0.5227  0.4494
   29MPD2    C2  444   1.326   1.878  14.548 -0.1768  0.0697 -0.3137
   29MPD2    C3  445   1.305   2.009  14.524  0.3801  0.6402  0.1375
   29MPD2    C4  446   1.240   2.044  14.404 -0.1304  0.4653 -0.2659
   29MPD2    C5  447   1.211   1.952  14.311  0.5757  0.3035 -0.5126
   29MPD2     H  448   1.382   1.845  14.635 -0.3819  0.6693  0.0429
   29MPD2    H1  449   1.210   2.145  14.382  0.9821  1.2670  1.9388
   29MPD2    H2  450   1.214   1.752  14.251 -2.2120 -0.8831  0.5064
   29MPD2    H3  451   1.151   1.968  14.222  1.7077 -1.3722 -1.5868
   29MPD2     N  452   1.345   2.111  14.615 -0.3257  0.2627 -0.6028
   29MPD2    H5  453   1.333   2.207  14.584  1.6789  0.5695 -0.4494
   29MPD2    N1  454   1.327   1.650  14.490 -0.0160 -0.2896  0.0895
   29MPD2    H7  455   1.350   1.645  14.589  2.2291 -1.5008 -0.5017
   30TCq2    C1  456   1.403   2.088  14.740  0.1975  1.1471  0.0765
   30TCq2    O2  457   1.426   1.984  14.807  0.1414  0.1125 -0.8810
   30TCq2    C2  458   1.419   2.217  14.803 -0.2195  0.5998 -0.0620
   30TCq2    C3  459   1.398   2.224  14.937  0.1816 -0.2018 -0.6192
   30TCq2    C4  460   1.402   2.344  15.001  0.0771 -0.4154 -0.1335
   30TCq2    C5  461   1.460   2.452  14.941 -0.2044 -0.8437 -0.7015
   30TCq2    C6  462   1.478   2.444  14.802 -0.0908  0.5619 -0.0696
   30TCq2    C7  463   1.431   2.333  14.731 -0.2191 -0.3226  0.2844
   30TCq2    C8  464   1.502   2.570  14.736  0.3348  0.0338  0.0270
   30TCq2    O4  465   1.425   2.593  14.646  0.3092 -0.0369  0.0625
   30TCq2    C9  466   1.350   2.365  15.132 -0.2638 -0.3343  0.3008
   30TCq2    O5  467   1.325   2.259  15.191 -0.0687 -0.3029 -0.2136
   30TCq2    O6  468   1.334   2.480  15.178 -0.3792  0.0041  0.3825
   30TCq2    H2  469   1.375   2.131  14.987  0.4818 -0.0091 -0.1236
   30TCq2    H3  470   1.468   2.551  14.984 -2.2358 -0.7894 -0.4534
   30TCq2    H4  471   1.451   2.337  14.625  1.0143  0.3318  0.5430
   31MPD2     C  472   3.991   1.646  15.006 -0.4700  0.1066 -0.0963
   31MPD2    C1  473   3.860   1.678  14.988 -0.7387  0.1156 -0.2430
   31MPD2    C2  474   3.770   1.573  15.015  0.2269  0.1828  0.3494
   31MPD2    C3  475   3.805   1.443  15.040  0.2845 -0.2430  0.0617
   31MPD2    C4  476   3.941   1.415  15.035 -0.5027  0.7901  0.0027
   31MPD2    C5  477   4.035   1.516  15.026 -0.1369  0.0395  0.3360
   31MPD2     H  478   3.666   1.601  15.005  0.2957  0.1889 -0.3479
   31MPD2    H1  479   3.989   1.319  15.024  0.6178  1.3429  0.0267
   31MPD2    H2  480   4.074   1.715  14.996 -0.3049  0.0735  1.1096
   31MPD2    H3  481   4.141   1.496  15.013 -0.1454 -0.0510  0.4126
   31MPD2     N  482   3.717   1.328  15.064  0.0843 -0.0399 -0.3640
   31MPD2    H5  483   3.767   1.248  15.100  0.1405  0.4483  0.6607
   31MPD2    N1  484   3.834   1.796  14.926  0.2032  0.1376  0.0263
   31MPD2    H7  485   3.912   1.848  14.887  0.3292 -0.7755 -0.9416
   32TCq2    C1  486   3.583   1.327  15.059  0.1703  0.3144  0.1339
   32TCq2    O2  487   3.517   1.428  15.053 -0.0869 -0.0073 -0.1493
   32TCq2    C2  488   3.526   1.195  15.069 -0.3142 -0.8314  0.1910
   32TCq2    C3  489   3.390   1.185  15.099 -0.6061  0.3943  0.2660
   32TCq2    C4  490   3.344   1.056  15.114  0.1410  0.0876 -0.0311
   32TCq2    C5  491   3.416   0.944  15.087  0.3084 -0.5157 -0.0390
   32TCq2    C6  492   3.544   0.964  15.043 -0.2606  0.0544  0.1701
   32TCq2    C7  493   3.604   1.087  15.042  0.6648  0.4826 -0.2442
   32TCq2    C8  494   3.636   0.852  15.062  1.2714 -0.6932 -1.0299
   32TCq2    O4  495   3.754   0.877  15.081  0.1522 -0.0200  0.3859
   32TCq2    C9  496   3.211   1.036  15.155  0.3416 -0.1729  0.9340
   32TCq2    O5  497   3.152   1.140  15.188  0.2927 -0.3386 -0.2685
   32TCq2    O6  498   3.155   0.921  15.146  0.0721 -0.1262 -0.7087
   32TCq2    H2  499   3.324   1.264  15.133  1.0424  2.5407 -1.5112
   32TCq2    H3  500   3.372   0.847  15.106  0.6765 -1.0469 -1.9437
   32TCq2    H4  501   3.706   1.092  15.005 -0.1357 -1.3376 -2.6501
   33MPD2     C  502   3.951   3.520  10.428  0.7685  0.4609 -0.2691
   33MPD2    C1  503   3.895   3.404  10.370  0.7466  0.1605  0.1889
   33MPD2    C2  504   3.876   3.396  10.231  0.3622  0.3228  0.2641
   33MPD2    C3  505   3.909   3.509  10.153 -0.3039 -0.0193 -0.1644
   33MPD2    C4  506   3.983   3.611  10.211  0.8793  0.5682 -0.0049
   33MPD2    C5  507   4.002   3.620  10.344  0.1097 -0.0980 -0.0173
   33MPD2     H  508   3.843   3.305  10.183  0.7120  0.3170  0.0405
   33MPD2    H1  509   4.014   3.694  10.148  1.1059 -0.8061 -1.7113
   33MPD2    H2  510   3.958   3.527  10.536 -0.2414 -1.8230 -0.0450
   33MPD2    H3  511   4.048   3.704  10.396 -0.5858  1.9781 -2.7254
   33MPD2     N  512   3.874   3.522  10.013 -0.5002  0.0383  0.6203
   33MPD2    H5  513   3.913   3.599   9.960  1.2650  0.7193  2.9311
   33MPD2    N1  514   3.854   3.301  10.447  0.1037  0.5534 -0.1759
   33MPD2    H7  515   3.866   3.307  10.548  0.9683 -1.9936 -0.1302
   34TCq2    C1  516   3.782   3.444   9.939  0.1265 -0.3003  0.4568
   34TCq2    O2  517   3.715   3.348   9.984 -0.5429  0.5994  0.3298
   34TCq2    C2  518   3.802   3.454   9.791 -0.3466 -0.0221  0.7336
   34TCq2    C3  519   3.697   3.405   9.718  0.0596  0.0777  0.1748
   34TCq2    C4  520   3.681   3.444   9.589  0.0663 -0.5960  0.8115
   34TCq2    C5  521   3.764   3.539   9.535 -0.7917  0.0129  0.1754
   34TCq2    C6  522   3.872   3.585   9.612  0.3866  0.2556 -0.1142
   34TCq2    C7  523   3.894   3.539   9.740  0.4408 -0.1831  0.8632
   34TCq2    C8  524   3.939   3.707   9.573  0.3806  0.1145 -0.3355
   34TCq2    O4  525   4.043   3.745   9.626 -0.1143 -0.6095 -0.0889
   34TCq2    C9  526   3.577   3.388   9.502  0.5506 -0.2163  0.1313
   34TCq2    O5  527   3.522   3.463   9.416 -0.1109  0.0899 -0.1315
   34TCq2    O6  528   3.521   3.283   9.550 -0.1999 -0.0605 -0.2066
   34TCq2    H2  529   3.619   3.346   9.765  1.6826 -1.0462  1.4966
   34TCq2    H3  530   3.749   3.558   9.429 -3.6322 -0.8963  0.4010
   34TCq2    H4  531   3.990   3.559   9.785  1.3182  4.3004 -3.0051
   35MPD2     C  532   1.623   0.697  12.255  0.0171  0.3942  0.6074
   35MPD2    C1  533   1.569   0.583  12.204  0.4765  0.3439  0.1139
   35MPD2    C2  534   1.515   0.584  12.072 -0.7281 -0.0781  0.6645
   35MPD2    C3  535   1.519   0.697  11.998  0.1665  0.3979  0.0002
   35MPD2    C4  536   1.570   0.812  12.056  0.1975  0.1785 -0.0010
   35MPD2    C5  537   1.615   0.814  12.183  0.0620 -0.2115 -0.3099
   35MPD2     H  538   1.479   0.493  12.026 -1.1531 -0.1559  1.1450
   35MPD2    H1  539   1.590   0.905  12.004  0.1973 -1.1481 -2.3554
   35MPD2    H2  540   1.664   0.701  12.356  3.3928 -1.4100 -0.6883
   35MPD2    H3  541   1.653   0.908  12.222 -2.2636 -0.6121  2.9629
   35MPD2     N  542   1.458   0.693  11.876 -0.7174  0.0669  0.3064
   35MPD2    H5  543   1.421   0.603  11.847 -0.5698  0.6351 -1.6303
   35MPD2    N1  544   1.559   0.471  12.289 -0.7299  0.1205 -0.4461
   35MPD2    H7  545   1.562   0.487  12.389  0.5799  0.3626 -0.5227
   36TCq2    C1  546   1.440   0.797  11.783 -0.2602 -0.8674  0.0990
   36TCq2    O2  547   1.457   0.917  11.808 -0.2008  0.3157  0.1298
   36TCq2    C2  548   1.399   0.761  11.651 -0.2883  0.8864  0.3389
   36TCq2    C3  549   1.382   0.851  11.553 -0.2089  0.1411  0.3662
   36TCq2    C4  550   1.315   0.810  11.436  1.1764 -0.4964  0.0594
   36TCq2    C5  551   1.281   0.685  11.418  0.5206  0.2861  0.4490
   36TCq2    C6  552   1.305   0.591  11.513 -0.6630  0.3334  0.1572
   36TCq2    C7  553   1.371   0.624  11.627 -0.7202  0.2345  0.6699
   36TCq2    C8  554   1.229   0.464  11.512  0.0086 -0.0675 -0.0606
   36TCq2    O4  555   1.231   0.391  11.612  0.2636  0.3971 -0.1162
   36TCq2    C9  556   1.283   0.915  11.344 -0.4727 -0.0825  0.4417
   36TCq2    O5  557   1.215   0.887  11.240 -0.5591  0.1788 -0.2237
   36TCq2    O6  558   1.284   1.031  11.383 -0.8518 -0.1706 -0.2016
   36TCq2    H2  559   1.422   0.952  11.558 -0.8513  0.3643  0.8657
   36TCq2    H3  560   1.223   0.662  11.330 -0.8633  0.5968  1.2730
   36TCq2    H4  561   1.378   0.549  11.705  1.4155 -0.2997 -0.0406
   37TMC2    C1  562   3.664   1.253  11.692  0.0248  0.7545  0.7491
   37TMC2    C2  563   3.747   1.290  11.586  1.1675 -0.0049 -0.5079
   37TMC2    C3  564   3.865   1.222  11.579  0.5190 -1.1491 -0.6781
   37TMC2    C4  565   3.702   1.176  11.799 -0.1123 -0.3953 -0.4272
   37TMC2    C5  566   3.816   1.108  11.784  0.1158  0.3293 -0.4303
   37TMC2    C6  567   3.896   1.130  11.674  0.2253  0.5006  0.5537
   37TMC2     C  568   3.528   1.244  11.665  0.6847 -0.2681 -1.0558
   37TMC2     O  569   3.479   1.324  11.586  0.7801 -0.2061  0.5896
   37TMC2     H  570   3.704   1.345  11.503  0.2410 -0.6273 -0.4373
   37TMC2    H1  571   3.635   1.154  11.881  0.5256  1.3938  0.5774
   37TMC2    H2  572   3.984   1.071  11.653 -0.0274  0.2520  0.1768
   37TMC2    C7  573   3.804   0.973  11.823 -0.2102  0.2327  0.3272
   37TMC2    C8  574   3.934   1.224  11.444 -0.3758 -0.3291  0.1878
   37TMC2    O1  575   3.684   0.946  11.835 -0.3141  0.1775  0.4549
   37TMC2    O2  576   4.008   1.138  11.403  0.5015  0.4154  0.0738
   37TMC2    O5  577   3.893   1.334  11.377 -0.0744  0.0746  0.0059
   37TMC2    H5  578   3.875   1.408  11.440  0.7088  0.4734 -0.2479
   38MPD2     C  579   3.109   0.955  11.625  0.5543  0.8049  0.0961
   38MPD2    C1  580   3.207   0.886  11.691 -0.1382 -0.3720  0.6109
   38MPD2    C2  581   3.327   0.939  11.721  0.3729 -0.3747 -0.0969
   38MPD2    C3  582   3.353   1.070  11.684 -0.1945  0.9493  0.2893
   38MPD2    C4  583   3.253   1.143  11.626 -0.4595 -0.4631 -0.7188
   38MPD2    C5  584   3.131   1.088  11.595  0.2309 -0.2165  0.0327
   38MPD2     H  585   3.393   0.869  11.771 -0.5438  0.8683  2.8340
   38MPD2    H1  586   3.275   1.245  11.596  1.7145 -0.0528  2.3189
   38MPD2    H2  587   3.018   0.910  11.587  0.8115  0.5802 -0.2602
   38MPD2    H3  588   3.060   1.137  11.529  0.3881  0.1457  0.1338
   38MPD2     N  589   3.481   1.120  11.709  0.3190 -0.0347 -0.5158
   38MPD2    H5  590   3.545   1.059  11.758 -0.5740 -0.4382  0.1682
   38MPD2    N1  591   3.194   0.754  11.733 -0.1090 -0.8340  0.3548
   38MPD2    H7  592   3.273   0.703  11.772  0.0123 -1.5418 -0.8228
   39MPD2     C  593   1.778   1.911   1.493  0.0642  0.1716 -0.5026
   39MPD2    C1  594   1.748   1.983   1.598  0.0759 -0.0711  0.5511
   39MPD2    C2  595   1.629   2.056   1.595 -0.1930  0.4350  0.3273
   39MPD2    C3  596   1.546   2.057   1.485  0.2175  0.0734 -0.2011
   39MPD2    C4  597   1.591   1.992   1.372 -0.1424  0.3941  0.7205
   39MPD2    C5  598   1.703   1.912   1.376  0.3131 -0.7631 -0.2424
   39MPD2     H  599   1.597   2.117   1.678  0.5689  2.2253 -0.7059
   39MPD2    H1  600   1.526   1.993   1.286 -0.3528 -0.1392  0.8793
   39MPD2    H2  601   1.872   1.857   1.491  1.3328  2.3428  0.3287
   39MPD2    H3  602   1.730   1.843   1.296 -0.4601 -0.0540 -1.1209
   39MPD2     N  603   1.423   2.135   1.476  0.2029  0.0146  0.5809
   39MPD2    H5  604   1.379   2.146   1.385 -0.9911 -0.0639  1.1542
   39MPD2    N1  605   1.852   1.990   1.696  0.4973  0.1692 -0.0464
   39MPD2    H7  606   1.943   1.952   1.672 -0.7893 -0.9687 -3.0865
   40TCq2    C1  607   1.846   2.079   1.797  0.3240  0.7255 -0.1920
   40TCq2    O2  608   1.744   2.129   1.847 -0.2116  0.3987 -0.1654
   40TCq2    C2  609   1.964   2.093   1.881  0.2455  0.1080  0.0295
   40TCq2    C3  610   1.952   2.116   2.016 -0.3823  0.4551 -0.3759
   40TCq2    C4  611   2.055   2.096   2.095 -0.8814 -0.3349  0.5165
   40TCq2    C5  612   2.183   2.087   2.037  0.1326 -0.6734 -0.0228
   40TCq2    C6  613   2.196   2.072   1.899 -0.1331  0.5985 -0.1436
   40TCq2    C7  614   2.085   2.067   1.819  0.5088 -0.4317 -0.0380
   40TCq2    C8  615   2.327   2.051   1.845  0.3981  1.4369 -0.0458
   40TCq2    O4  616   2.418   2.018   1.921  0.2733  0.0266  0.3215
   40TCq2    C9  617   2.043   2.102   2.236  0.2485 -0.2099 -0.0318
   40TCq2    O5  618   1.946   2.165   2.278  0.3364  1.1959 -0.0033
   40TCq2    O6  619   2.122   2.041   2.312 -0.1579 -0.6435  0.5080
   40TCq2    H2  620   1.850   2.119   2.054 -0.7042  0.3510 -1.2078
   40TCq2    H3  621   2.268   2.105   2.102 -0.4478  2.0018  0.0301
   40TCq2    H4  622   2.093   2.026   1.719  0.3778 -1.3873  0.3449
   41TMC2    C1  623   0.273   0.468  13.500 -0.0772  0.0869 -0.1110
   41TMC2    C2  624   0.184   0.565  13.548 -0.1767  0.2389  0.3013
   41TMC2    C3  625   0.186   0.688  13.497 -0.0842  0.1597  0.3283
   41TMC2    C4  626   0.379   0.513  13.427  0.0869  0.1726 -0.3101
   41TMC2    C5  627   0.381   0.641  13.389  0.7161  0.5086  0.0888
   41TMC2    C6  628   0.287   0.732  13.418  0.0972 -0.5021  0.1562
   41TMC2     C  629   0.302   0.340  13.572  0.1854  0.5116  0.4831
   41TMC2     O  630   0.395   0.274  13.529 -0.1027  0.0057  0.5104
   41TMC2     H  631   0.104   0.529  13.611 -2.5296  1.4180 -2.0389
   41TMC2    H1  632   0.443   0.433  13.391 -2.7212 -1.9962 -0.4449
   41TMC2    H2  633   0.302   0.829  13.371  0.5168 -0.5588  0.1680
   41TMC2    C7  634   0.487   0.705  13.312  0.0937 -0.3772  0.1393
   41TMC2    C8  635   0.085   0.781  13.532 -0.2512 -0.0150 -0.6493
   41TMC2    O1  636   0.501   0.825  13.301  0.0552  0.6156 -0.8757
   41TMC2    O2  637   4.687   0.758  13.545 -0.4521  0.0539  0.1316
   41TMC2    O5  638   0.150   0.896  13.561 -0.3167 -0.0266 -0.2231
   41TMC2    H5  639   0.248   0.899  13.560 -0.2902 -2.2769 -2.2358
   42MPD2     C  640   0.310   0.117  13.745 -0.2937  0.1543 -0.3886
   42MPD2    C1  641   0.235   0.228  13.776 -0.2101  1.0202 -0.0048
   42MPD2    C2  642   0.179   0.247  13.902 -0.1345 -0.1658 -0.0644
   42MPD2    C3  643   0.193   0.145  13.996  0.2148 -0.1172 -0.5694
   42MPD2    C4  644   0.245   0.027  13.946 -0.5565  0.6211 -0.0035
   42MPD2    C5  645   0.319   0.009  13.827  0.6369 -0.2195 -0.2748
   42MPD2     H  646   0.135   0.342  13.928 -0.9767 -1.2457  2.4789
   42MPD2    H1  647   0.226   4.661  14.002 -0.5721 -0.2272 -1.3845
   42MPD2    H2  648   0.358   0.103  13.649 -1.6477  0.8822 -1.1640
   42MPD2    H3  649   0.357   4.637  13.797 -1.7370 -1.3361  0.2899
   42MPD2     N  650   0.132   0.146  14.124  0.1822  0.2173  0.4454
   42MPD2    H5  651   0.161   0.072  14.187 -1.1458  0.1865  1.0024
   42MPD2    N1  652   0.220   0.326  13.681 -0.1440 -0.1855 -0.6105
   42MPD2    H7  653   0.168   0.409  13.706 -0.4050 -0.2648 -0.8941
   43MPD2     C  654   1.540   2.991   0.713 -0.9660 -0.8899  0.2451
   43MPD2    C1  655   1.668   3.043   0.681 -0.0791 -0.4647  0.0482
   43MPD2    C2  656   1.719   3.154   0.750  0.8098 -0.6569 -0.1557
   43MPD2    C3  657   1.642   3.206   0.853 -0.5831  0.2755  0.6587
   43MPD2    C4  658   1.528   3.146   0.893 -0.7336  0.2391  0.0395
   43MPD2    C5  659   1.475   3.048   0.816 -0.2419 -0.2242  0.1804
   43MPD2     H  660   1.806   3.203   0.708  3.0652 -3.5807  1.1613
   43MPD2    H1  661   1.468   3.187   0.973 -1.7011  0.7029 -0.9288
   43MPD2    H2  662   1.482   2.919   0.656  0.9740 -1.1946 -1.3172
   43MPD2    H3  663   1.381   3.001   0.845 -0.4828  1.4627  2.1150
   43MPD2     N  664   1.692   3.315   0.927 -0.4936  0.6337 -0.1127
   43MPD2    H5  665   1.625   3.369   0.981 -0.3095  0.8498 -0.1006
   43MPD2    N1  666   1.748   2.961   0.594  0.3243 -0.4485 -0.7156
   43MPD2    H7  667   1.837   3.000   0.565 -0.6120  1.7965 -0.6069
   44TCq2    C1  668   2.150   3.626   1.110  0.0916 -0.3114  0.1445
   44TCq2    O2  669   2.223   3.530   1.100 -0.2449 -0.6962 -0.6179
   44TCq2    C2  670   2.012   3.616   1.067 -0.1742  0.5060  0.3538
   44TCq2    C3  671   1.919   3.718   1.078  0.5125 -0.4967  0.1078
   44TCq2    C4  672   1.791   3.693   1.044  0.1567  0.7881 -0.1880
   44TCq2    C5  673   1.750   3.574   1.000  0.4371  0.7977 -0.1646
   44TCq2    C6  674   1.844   3.478   0.999  0.6251  0.0769 -0.2448
   44TCq2    C7  675   1.977   3.495   1.019 -0.2241 -0.1707  0.0478
   44TCq2    C8  676   1.828   3.347   0.935  0.1279  0.0262 -0.7839
   44TCq2    O4  677   1.934   3.290   0.898 -0.2298  0.0922 -0.5368
   44TCq2    C9  678   1.697   3.801   1.018  0.2774  0.0795 -0.7257
   44TCq2    O5  679   1.744   3.913   1.047  0.0104  0.7705  0.0900
   44TCq2    O6  680   1.578   3.772   0.984  0.4989 -0.2278  0.2422
   44TCq2    H2  681   1.950   3.822   1.070 -1.1972 -0.0041 -0.1025
   44TCq2    H3  682   1.650   3.572   0.960  0.3511  1.1662  0.0284
   44TCq2    H4  683   2.048   3.413   1.023  1.4472  1.1236 -2.7169
   45TMC2    C1  684   3.047   0.210  10.190 -0.3785  0.0358  0.0992
   45TMC2    C2  685   3.142   0.137  10.262 -0.0014 -0.4894  0.4703
   45TMC2    C3  686   3.237   0.213  10.329  0.2032  0.0788 -0.5844
   45TMC2    C4  687   3.046   0.345  10.187 -0.2743  0.1615 -0.4992
   45TMC2    C5  688   3.155   0.412  10.253 -0.1210  0.3895 -0.2307
   45TMC2    C6  689   3.253   0.351  10.327  0.1168 -0.2791 -0.1003
   45TMC2     C  690   2.940   0.131  10.136  0.3147  0.1102 -0.0865
   45TMC2     O  691   2.946   0.010  10.161 -0.6478 -0.1200  0.3077
   45TMC2     H  692   3.141   0.029  10.262 -0.7556 -0.5013 -2.3371
   45TMC2    H1  693   2.964   0.401  10.146  1.3815  1.2440 -2.3423
   45TMC2    H2  694   3.331   0.409  10.374 -1.8970 -0.2347  3.1826
   45TMC2    C7  695   3.160   0.553  10.233 -0.1970 -0.3604 -0.9221
   45TMC2    C8  696   3.324   0.152  10.417 -0.2256 -0.6628 -0.6195
   45TMC2    O1  697   3.044   0.600  10.232 -0.1801 -0.7531  0.4134
   45TMC2    O2  698   3.374   0.207  10.511  0.0491 -0.0711  0.7664
   45TMC2    O5  699   3.372   0.043  10.362  0.0366 -0.4314 -0.1305
   45TMC2    H5  700   3.351   0.047  10.266 -0.0555  0.0173 -0.0902
   46MPD2     C  701   2.710   0.011   9.987  0.7324  0.3193 -0.0036
   46MPD2    C1  702   2.772   0.127   9.953  0.2104 -0.0499  0.1085
   46MPD2    C2  703   2.726   0.199   9.847  0.0333 -0.0420 -0.0460
   46MPD2    C3  704   2.617   0.160   9.769 -0.5406  0.1066  0.1298
   46MPD2    C4  705   2.559   0.042   9.808 -0.7113 -0.4521  0.2582
   46MPD2    C5  706   2.607   4.698   9.911  0.2182 -0.0023 -0.6302
   46MPD2     H  707   2.771   0.295   9.822 -0.3025 -0.0254 -0.5842
   46MPD2    H1  708   2.482   4.715   9.750 -1.1583  0.2631  0.2246
   46MPD2    H2  709   2.749   4.669  10.064  1.1880 -0.6749 -1.0830
   46MPD2    H3  710   2.552   4.609   9.940 -1.5686  0.5810 -2.1796
   46MPD2     N  711   2.565   0.247   9.672 -0.7256  0.8142  0.9534
   46MPD2    H5  712   2.612   0.336   9.665 -1.8681  1.4365  1.2314
   46MPD2    N1  713   2.874   0.186  10.026 -0.5822 -0.6703 -0.0113
   46MPD2    H7  714   2.888   0.286  10.015 -1.3467 -0.6011 -0.3483
   47TMC2    C1  715   4.601   1.262   9.559 -0.5447  0.0963  0.7657
   47TMC2    C2  716   4.556   1.313   9.444  0.1919  0.2201 -0.3348
   47TMC2    C3  717   4.447   1.391   9.439 -0.5600 -0.0849 -0.3953
   47TMC2    C4  718   4.539   1.292   9.679 -0.1093 -0.1007  0.5732
   47TMC2    C5  719   4.424   1.361   9.666 -0.5242 -0.1161 -0.1812
   47TMC2    C6  720   4.375   1.422   9.551  0.2578  0.1207  0.5407
   47TMC2     C  721   0.008   1.209   9.570 -0.1659  0.0743 -0.0769
   47TMC2     O  722   0.074   1.241   9.667  0.0544 -0.1430 -0.0828
   47TMC2     H  723   4.597   1.287   9.347  0.2856 -4.2431  0.9161
   47TMC2    H1  724   4.590   1.284   9.774  1.2345  2.3559  0.0514
   47TMC2    H2  725   4.274   1.461   9.542  0.3294 -0.4576 -2.7353
   47TMC2    C7  726   4.343   1.352   9.783 -0.4646  0.6002  0.1859
   47TMC2    C8  727   4.395   1.426   9.311 -0.9767 -0.7795  0.3113
   47TMC2    O1  728   4.254   1.439   9.789 -0.0658 -0.1761 -0.1426
   47TMC2    O2  729   4.431   1.367   9.207  0.1878 -0.0858 -0.2744
   47TMC2    O5  730   4.342   1.555   9.313 -0.4065 -0.1791 -0.4340
   47TMC2    H5  731   4.350   1.596   9.402  0.7957  0.5893 -0.8985
   48MPD2     C  732   0.261   1.049   9.543  0.2513  0.0649 -0.2776
   48MPD2    C1  733   0.158   1.041   9.456 -0.8189  0.5195 -0.4790
   48MPD2    C2  734   0.161   0.942   9.365 -0.2880 -0.3730  0.1473
   48MPD2    C3  735   0.263   0.850   9.358 -0.1889 -0.2491  0.7733
   48MPD2    C4  736   0.374   0.869   9.435 -0.0592 -0.9075 -0.0642
   48MPD2    C5  737   0.379   0.979   9.522  0.3708 -0.5990 -0.3677
   48MPD2     H  738   0.082   0.934   9.291  0.9098  0.4506 -1.2155
   48MPD2    H1  739   0.456   0.797   9.434  1.1640  0.4709  1.0472
   48MPD2    H2  740   0.260   1.131   9.614 -0.0283 -0.1071 -0.0864
   48MPD2    H3  741   0.461   0.986   9.592 -0.4896 -1.2693  0.7066
   48MPD2     N  742   0.259   0.756   9.254  0.1689  0.0476 -0.4071
   48MPD2    H5  743   0.181   0.770   9.190 -1.1020  0.1445  1.1553
   48MPD2    N1  744   0.038   1.121   9.466 -0.2080 -0.1274  0.0178
   48MPD2    H7  745   4.687   1.100   9.401  0.2240 -2.9276  0.4627
   49MPD2     C  746   2.803   3.687  10.372  0.0794 -0.0855 -0.1801
   49MPD2    C1  747   2.804   3.579  10.291  0.4553  0.8284  0.1569
   49MPD2    C2  748   2.853   3.455  10.338 -0.7569  0.7645 -0.1509
   49MPD2    C3  749   2.908   3.444  10.465 -0.2814 -0.3345  0.6633
   49MPD2    C4  750   2.910   3.553  10.546 -0.6291 -0.2390  0.1646
   49MPD2    C5  751   2.863   3.672  10.499 -0.0687 -0.6012 -0.4056
   49MPD2     H  752   2.865   3.361  10.286  1.5038  0.5655  0.7161
   49MPD2    H1  753   2.964   3.551  10.641  1.6631  2.2710 -1.0710
   49MPD2    H2  754   2.757   3.780  10.341  3.8498  1.8313 -0.0771
   49MPD2    H3  755   2.876   3.761  10.561  1.6749 -0.5326 -0.8757
   49MPD2     N  756   2.961   3.327  10.519 -0.0835 -0.0406  0.2039
   49MPD2    H5  757   3.015   3.349  10.602 -1.6530  0.7156  1.0225
   49MPD2    N1  758   2.762   3.573  10.155 -0.5541 -0.8060  0.7032
   49MPD2    H7  759   2.773   3.484  10.107 -0.0699 -0.0857 -0.5017
   50TCq2    C1  760   2.711   3.672  10.080  0.5816 -0.0275 -0.8624
   50TCq2    O2  761   2.701   3.790  10.106  0.5172 -0.2798 -0.2640
   50TCq2    C2  762   2.683   3.630   9.946  0.0888 -0.7957  0.4031
   50TCq2    C3  763   2.671   3.499   9.918 -0.2520  0.4438  0.3582
   50TCq2    C4  764   2.619   3.468   9.792  0.3428  0.2573  0.7493
   50TCq2    C5  765   2.564   3.568   9.713 -0.2394 -1.2499 -0.1685
   50TCq2    C6  766   2.584   3.701   9.742 -0.4649  0.4588 -0.2690
   50TCq2    C7  767   2.646   3.739   9.859  0.2172  0.6062 -0.0844
   50TCq2    C8  768   2.582   3.797   9.646  0.2400 -0.1781 -0.7418
   50TCq2    O4  769   2.530   3.762   9.541 -1.0351  1.3547 -0.2928
   50TCq2    C9  770   2.580   3.331   9.765 -0.0766  0.9153 -0.2035
   50TCq2    O5  771   2.627   3.235   9.838 -0.2052 -0.1949 -0.6460
   50TCq2    O6  772   2.509   3.322   9.660  0.0660 -0.3121  0.4710
   50TCq2    H2  773   2.678   3.412   9.981 -0.5472 -0.4643 -0.8464
   50TCq2    H3  774   2.529   3.533   9.617 -0.5142 -1.3244 -0.0411
   50TCq2    H4  775   2.666   3.840   9.893  0.7955  0.7951 -0.9935
   51MPD2     C  776   4.570   1.228   1.236  0.0813  0.1012  0.3017
   51MPD2    C1  777   4.511   1.327   1.313 -0.7290 -0.6178  0.6620
   51MPD2    C2  778   4.542   1.326   1.450  0.3410  0.4926  0.0728
   51MPD2    C3  779   4.634   1.240   1.515 -1.0164 -0.6101  0.6499
   51MPD2    C4  780   4.707   1.157   1.439 -0.4936  0.1419  0.3046
   51MPD2    C5  781   4.669   1.153   1.303 -0.0414 -0.3321  0.5466
   51MPD2     H  782   4.487   1.399   1.508 -2.1502 -2.4735  1.4912
   51MPD2    H1  783   0.064   1.092   1.469  0.8090  0.9650 -1.4293
   51MPD2    H2  784   4.553   1.214   1.130 -0.8463 -1.7430  0.6967
   51MPD2    H3  785   0.004   1.082   1.245  1.4979  1.4062 -0.0304
   51MPD2     N  786   4.674   1.248   1.648 -0.0053  0.3347  0.8115
   51MPD2    H5  787   0.010   1.178   1.690 -1.4309 -0.1671  1.9988
   51MPD2    N1  788   4.408   1.413   1.263 -0.6801  0.3460 -0.0844
   51MPD2    H7  789   4.362   1.475   1.329 -1.0357 -1.0789  1.0048
   52TCq2    C1  790   4.646   1.353   1.735  0.5485  0.0504 -0.3114
   52TCq2    O2  791   4.590   1.461   1.712 -0.3289  0.0482  0.0729
   52TCq2    C2  792   0.007   1.340   1.857  0.3426 -0.2522 -0.1342
   52TCq2    C3  793   0.056   1.216   1.900  0.0988  0.4139 -0.0188
   52TCq2    C4  794   0.164   1.216   1.988  0.8716 -0.0008 -0.0547
   52TCq2    C5  795   0.200   1.330   2.051 -0.5511 -0.4429  0.2901
   52TCq2    C6  796   0.140   1.448   2.014 -0.2512  0.8132 -0.0358
   52TCq2    C7  797   0.045   1.459   1.918  0.1341 -0.2980 -0.1853
   52TCq2    C8  798   0.166   1.571   2.085 -0.4433  0.1306  0.3585
   52TCq2    O4  799   0.082   1.658   2.079 -0.2687 -0.1202  0.0148
   52TCq2    C9  800   0.237   1.091   2.019 -1.0875  0.5425 -0.3588
   52TCq2    O5  801   0.210   0.993   1.941  0.1693 -0.6103 -0.1803
   52TCq2    O6  802   0.327   1.095   2.109 -0.2685  0.8235  0.8727
   52TCq2    H2  803   0.022   1.127   1.849  1.2348  0.6272 -1.1453
   52TCq2    H3  804   0.276   1.323   2.128  1.4613  0.5935 -1.6189
   52TCq2    H4  805   0.006   1.555   1.886  1.2093 -0.0828 -0.8286
   53TMC2    C1  806   3.585   0.276  11.915  0.4015 -0.3525  0.9646
   53TMC2    C2  807   3.548   0.157  11.867  0.1013 -0.8213  0.2460
   53TMC2    C3  808   3.453   0.089  11.942 -0.3238 -0.5817  0.0019
   53TMC2    C4  809   3.534   0.332  12.026 -0.6781 -0.6494  0.0618
   53TMC2    C5  810   3.435   0.267  12.091  0.5199  1.0536 -0.0580
   53TMC2    C6  811   3.398   0.138  12.058 -0.0419  0.3530  0.3125
   53TMC2     C  812   3.718   0.321  11.871  0.6727  0.1738  0.2508
   53TMC2     O  813   3.807   0.235  11.856  0.0479  0.0890 -0.6066
   53TMC2     H  814   3.590   0.112  11.777 -0.7769  0.1703 -0.6570
   53TMC2    H1  815   3.578   0.417  12.076 -1.3936 -0.5700  0.5544
   53TMC2    H2  816   3.334   0.073  12.116  2.3866 -2.1547  0.1933
   53TMC2    C7  817   3.383   0.330  12.210 -0.6935  0.6422 -0.3331
   53TMC2    C8  818   3.411   4.686  11.895 -0.0427  0.3592  0.0603
   53TMC2    O1  819   3.369   0.452  12.200  0.2161 -0.2374 -0.0496
   53TMC2    O2  820   3.364   4.601  11.969 -0.2651  0.6706  0.1491
   53TMC2    O5  821   3.399   4.688  11.761 -0.0356  0.2607  0.1052
   53TMC2    H5  822   3.410   0.057  11.734  1.5315 -0.3067 -1.2341
   54MPD2     C  823   3.964   0.487  11.859 -0.3285  0.5369  0.8753
   54MPD2    C1  824   3.838   0.537  11.850  0.0557  1.0765  0.3732
   54MPD2    C2  825   3.816   0.672  11.832 -0.6435  0.0140  0.7360
   54MPD2    C3  826   3.926   0.762  11.830 -0.0981 -0.6898 -0.6970
   54MPD2    C4  827   4.055   0.704  11.859  0.1638 -0.0204 -0.3752
   54MPD2    C5  828   4.074   0.569  11.872  0.3669  0.4048  0.0729
   54MPD2     H  829   3.715   0.711  11.832 -1.0043 -0.9215  1.1620
   54MPD2    H1  830   4.133   0.774  11.887  0.9737  0.0339 -2.7595
   54MPD2    H2  831   3.972   0.388  11.900  0.0991 -0.6109 -1.9617
   54MPD2    H3  832   4.167   0.530  11.911  1.0580 -0.4576 -2.4758
   54MPD2     N  833   3.919   0.899  11.815 -0.7716  0.5118  0.5550
   54MPD2    H5  834   4.010   0.942  11.802 -0.0912  0.0544  3.9599
   54MPD2    N1  835   3.726   0.455  11.852 -0.2233  0.4660 -0.0409
   54MPD2    H7  836   3.637   0.500  11.834 -1.8157 -1.5817  2.6001
   55MPD2     C  837   4.193   3.898   0.646  0.4847 -0.0516 -0.8672
   55MPD2    C1  838   4.209   3.766   0.684 -0.2765 -0.1303 -0.6211
   55MPD2    C2  839   4.114   3.712   0.770  0.3868 -0.2863 -0.1159
   55MPD2    C3  840   3.997   3.775   0.811 -0.3107 -0.1911 -0.6703
   55MPD2    C4  841   3.982   3.902   0.769  0.3074  0.0444 -0.2547
   55MPD2    C5  842   4.082   3.963   0.688  0.6632  0.0747  0.0642
   55MPD2     H  843   4.123   3.613   0.812  0.2656  0.7963  2.4720
   55MPD2    H1  844   3.905   3.972   0.799 -1.0761 -3.0535  3.3105
   55MPD2    H2  845   4.263   3.948   0.581  1.5057  2.5905  2.2719
   55MPD2    H3  846   4.061   4.065   0.657 -2.7272 -0.5181  0.3879
   55MPD2     N  847   3.906   3.706   0.886  0.0914  0.0118 -0.1607
   55MPD2    H5  848   3.930   3.611   0.910 -2.2276  0.1460  2.6401
   55MPD2    N1  849   4.321   3.695   0.640  0.2050 -0.6866 -0.3253
   55MPD2    H7  850   4.381   3.745   0.575 -0.5483  1.5969  0.7250
   56TCq2    C1  851   4.343   3.561   0.656 -0.1425  0.0884  0.3107
   56TCq2    O2  852   4.294   3.480   0.734  0.5405 -0.3638 -0.8404
   56TCq2    C2  853   4.452   3.512   0.571 -0.2525  0.2848  0.1234
   56TCq2    C3  854   4.510   3.596   0.485 -0.6079  0.1839 -0.3151
   56TCq2    C4  855   4.616   3.543   0.402  0.6057 -0.0678 -0.8061
   56TCq2    C5  856   4.650   3.407   0.401 -0.1938  0.4700 -0.3653
   56TCq2    C6  857   4.580   3.329   0.483 -0.5556  0.0323  0.8268
   56TCq2    C7  858   4.482   3.377   0.565  0.1139 -0.1991  0.4294
   56TCq2    C8  859   4.599   3.181   0.465  0.9580  0.5863  0.3183
   56TCq2    O4  860   4.676   3.144   0.378  0.9795 -0.2383  0.0118
   56TCq2    C9  861   4.689   3.623   0.309  0.3852  0.0810  0.7573
   56TCq2    O5  862   4.654   3.742   0.288  0.0698  0.3481  0.5834
   56TCq2    O6  863   0.044   3.559   0.236  0.0563 -0.3477 -0.2041
   56TCq2    H2  864   4.493   3.703   0.478 -1.3065  0.1617  1.1544
   56TCq2    H3  865   0.008   3.371   0.339  0.3644  1.2956 -0.1101
   56TCq2    H4  866   4.420   3.321   0.634 -0.7167  0.3081  0.0941
   57TMC2    C1  867   3.508   4.155  14.544 -0.1284 -0.1716  0.1869
   57TMC2    C2  868   3.608   4.096  14.611 -0.6083 -1.0820 -0.2305
   57TMC2    C3  869   3.730   4.095  14.544 -0.6148 -0.2634 -0.2868
   57TMC2    C4  870   3.516   4.210  14.416  0.0650 -0.6875  0.3867
   57TMC2    C5  871   3.633   4.203  14.352 -0.1774  0.7832 -0.4546
   57TMC2    C6  872   3.739   4.145  14.418  0.4936 -0.2109  0.4413
   57TMC2     C  873   3.370   4.128  14.603 -0.1443  0.2096  0.2939
   57TMC2     O  874   3.357   4.107  14.725  0.7635 -0.3727 -0.2874
   57TMC2     H  875   3.595   4.069  14.715  3.6825 -1.2057  0.2521
   57TMC2    H1  876   3.435   4.270  14.376  0.5686 -0.0989  0.2484
   57TMC2    H2  877   3.833   4.153  14.366  0.7551 -1.6565  0.6824
   57TMC2    C7  878   3.623   4.218  14.206 -0.1943  0.4107 -0.1515
   57TMC2    C8  879   3.852   4.056  14.611 -0.2650  0.2501 -1.0694
   57TMC2    O1  880   3.545   4.304  14.171 -0.1196 -0.2858 -0.1573
   57TMC2    O2  881   3.857   4.056  14.732 -0.3560 -0.5623 -0.1813
   57TMC2    O5  882   3.922   3.974  14.528  0.4696 -0.3644 -0.4650
   57TMC2    H5  883   3.873   3.966  14.443  1.8843 -0.0455 -1.3146
   58MPD2     C  884   2.875   4.222  14.551  0.6325  0.9991  0.0941
   58MPD2    C1  885   2.954   4.248  14.661  0.1041 -0.1363  0.3138
   58MPD2    C2  886   3.083   4.203  14.651 -0.7951 -0.4108  0.2681
   58MPD2    C3  887   3.136   4.160  14.530  1.3994 -0.5804  0.1289
   58MPD2    C4  888   3.054   4.145  14.422 -0.6371 -0.3724  0.1052
   58MPD2    C5  889   2.929   4.187  14.430  0.1007  0.5169 -0.7731
   58MPD2     H  890   3.145   4.219  14.739 -0.5850 -1.1419  0.2483
   58MPD2    H1  891   3.088   4.100  14.330  1.4529  1.3232  0.0300
   58MPD2    H2  892   2.767   4.232  14.553  0.4574 -0.9012 -0.4111
   58MPD2    H3  893   2.863   4.166  14.346 -0.5206  0.8558 -0.3693
   58MPD2     N  894   3.268   4.126  14.510  0.3133 -0.2920  0.6704
   58MPD2    H5  895   3.290   4.098  14.415 -1.0116 -2.9821  1.1490
   58MPD2    N1  896   2.912   4.306  14.786  0.4210  0.4829  0.4310
   58MPD2    H7  897   2.971   4.314  14.868  0.2612  2.7109  0.3353
   59MPD2     C  898   1.037   4.192  13.167 -0.6917  0.8285  1.4072
   59MPD2    C1  899   1.158   4.166  13.102  0.1148 -0.5683  0.1654
   59MPD2    C2  900   1.281   4.204  13.162  0.8244  0.6960 -0.4278
   59MPD2    C3  901   1.282   4.244  13.296  0.2510 -0.2070  0.3200
   59MPD2    C4  902   1.157   4.260  13.362 -0.4776 -0.3324 -0.7075
   59MPD2    C5  903   1.041   4.224  13.300 -0.6547 -0.6969 -0.8203
   59MPD2     H  904   1.374   4.199  13.106  1.4483 -0.7297  0.7460
   59MPD2    H1  905   1.154   4.296  13.464 -1.2064  1.0305 -1.2143
   59MPD2    H2  906   0.941   4.163  13.127  0.1466  0.3378 -0.2680
   59MPD2    H3  907   0.938   4.225  13.333 -0.0905  0.4939  0.9439
   59MPD2     N  908   1.407   4.264  13.364 -0.0096  0.0660  0.5953
   59MPD2    H5  909   1.401   4.279  13.464  0.7174 -0.8710  0.7721
   59MPD2    N1  910   1.166   4.113  12.972 -0.0332 -0.0435  0.4975
   59MPD2    H7  911   1.257   4.098  12.931  0.1926 -2.8394  2.0097
   60TCq2    C1  912   1.062   4.060  12.899 -0.4903  0.1300  0.2371
   60TCq2    O2  913   0.947   4.030  12.930  0.0113  0.4667  0.3111
   60TCq2    C2  914   1.108   4.021  12.769 -0.8341 -0.5331  0.1116
   60TCq2    C3  915   1.078   3.890  12.735  0.7769  0.0064 -0.8379
   60TCq2    C4  916   1.168   3.809  12.673 -0.5794  0.3528  0.3463
   60TCq2    C5  917   1.286   3.866  12.633 -0.2706 -0.0095  1.0205
   60TCq2    C6  918   1.308   3.997  12.652  0.0191  0.6580 -0.0698
   60TCq2    C7  919   1.222   4.080  12.718  0.4441 -0.1402 -0.2468
   60TCq2    C8  920   1.398   4.052  12.551  0.4030  0.5736  0.7053
   60TCq2    O4  921   1.483   3.982  12.509  0.8329 -0.1496  0.0488
   60TCq2    C9  922   1.150   3.668  12.658 -0.0019 -0.8640 -0.2970
   60TCq2    O5  923   1.036   3.630  12.691 -0.2937  0.2155 -0.0541
   60TCq2    O6  924   1.244   3.596  12.612  0.6477  1.0550 -0.1828
   60TCq2    H2  925   0.985   3.843  12.767  1.3195  0.5606  1.5290
   60TCq2    H3  926   1.355   3.796  12.587 -1.2457  0.4562 -1.1808
   60TCq2    H4  927   1.248   4.184  12.728  0.7804 -0.4017  1.6028
   61MPD2     C  928   0.451   0.809  16.123  0.3950 -1.0173 -1.2028
   61MPD2    C1  929   0.407   0.912  16.045 -0.3443  0.1159 -0.1323
   61MPD2    C2  930   0.360   0.885  15.915 -0.3908  0.0343 -0.4012
   61MPD2    C3  931   0.382   0.765  15.855 -1.0368  0.4480  0.0192
   61MPD2    C4  932   0.442   0.666  15.931  0.0903  0.1889  0.3575
   61MPD2    C5  933   0.474   0.686  16.064 -0.2119  0.4881 -0.1604
   61MPD2     H  934   0.317   0.964  15.856 -1.2421 -0.8873 -1.0230
   61MPD2    H1  935   0.463   0.569  15.888 -0.3686  0.8660 -1.4155
   61MPD2    H2  936   0.473   0.817  16.228 -0.2648  1.3995 -1.2595
   61MPD2    H3  937   0.511   0.606  16.128 -1.1067 -0.4374 -0.8163
   61MPD2     N  938   0.357   0.743  15.717  0.0856 -0.1181  0.2536
   61MPD2    H5  939   0.384   0.655  15.676  2.3699  0.7843 -0.2071
   61MPD2    N1  940   0.379   1.038  16.101 -0.0484  0.5619 -0.6041
   61MPD2    H7  941   0.322   1.099  16.042  0.6539  0.4782 -1.3680
   62TCq2    C1  942   0.430   1.087  16.220  0.7430 -0.1687  0.5792
   62TCq2    O2  943   0.513   1.029  16.285  0.3309  0.2225 -0.6752
   62TCq2    C2  944   0.388   1.220  16.267 -0.5797 -0.4992 -0.4501
   62TCq2    C3  945   0.450   1.285  16.368 -0.3111  0.2678  0.4096
   62TCq2    C4  946   0.396   1.405  16.409  0.2668  0.0935  0.1172
   62TCq2    C5  947   0.297   1.471  16.336  0.4387 -0.3893 -0.3724
   62TCq2    C6  948   0.235   1.403  16.235  0.3660  0.1317  0.5191
   62TCq2    C7  949   0.277   1.270  16.208  0.3081 -0.4976 -0.5155
   62TCq2    C8  950   0.173   1.478  16.124 -0.1263  0.0478 -0.5438
   62TCq2    O4  951   0.154   1.415  16.022  0.5746  0.0785  0.4376
   62TCq2    C9  952   0.469   1.484  16.512 -0.2111 -0.1800  0.2940
   62TCq2    O5  953   0.415   1.595  16.539  0.2819  0.4348 -0.2536
   62TCq2    O6  954   0.568   1.435  16.570 -0.4693 -0.0666 -0.1848
   62TCq2    H2  955   0.539   1.254  16.420  0.8104 -0.1302 -1.7468
   62TCq2    H3  956   0.278   1.572  16.371 -0.9549 -0.5515 -0.6507
   62TCq2    H4  957   0.221   1.220  16.129  2.6470 -0.3769 -2.2825
   63TMC2    C1  958   0.334   0.704  11.242  0.2782 -0.2310  0.7100
   63TMC2    C2  959   0.380   0.779  11.349 -0.1962  0.6967 -0.0674
   63TMC2    C3  960   0.423   0.910  11.318  0.0795  0.2665 -0.1650
   63TMC2    C4  961   0.331   0.756  11.115 -0.3876 -0.1269 -0.1484
   63TMC2    C5  962   0.382   0.883  11.091 -0.2724  0.2341 -0.5137
   63TMC2    C6  963   0.423   0.966  11.191  0.0365  0.7700  0.0744
   63TMC2     C  964   0.299   0.567  11.271 -0.4299  0.2023 -0.6475
   63TMC2     O  965   0.277   0.543  11.391  0.0679  0.2826 -0.1894
   63TMC2     H  966   0.397   0.737  11.447  0.6879 -0.5635 -0.7743
   63TMC2    H1  967   0.303   0.692  11.032 -1.7986 -0.5705  0.6651
   63TMC2    H2  968   0.442   1.071  11.171  0.4840  0.2273 -2.4463
   63TMC2    C7  969   0.430   0.904  10.952  0.6282 -0.1389  0.1213
   63TMC2    C8  970   0.462   0.990  11.432  0.3056 -0.8835  0.1382
   63TMC2    O1  971   0.387   0.825  10.867  0.1882  0.3566 -0.3344
   63TMC2    O2  972   0.439   0.962  11.550  0.4728  0.5433  0.4017
   63TMC2    O5  973   0.575   1.045  11.391 -0.1410 -0.0969 -0.3806
   63TMC2    H5  974   0.602   1.021  11.300 -0.3101 -1.9183  0.0655
   64MPD2     C  975   0.228   0.073  11.142  0.0301  0.5258  0.5653
   64MPD2    C1  976   0.287   0.137  11.037 -0.8392 -0.3595  0.2408
   64MPD2    C2  977   0.311   0.271  11.052 -0.2695  0.3569 -0.2858
   64MPD2    C3  978   0.284   0.339  11.171  0.1218 -0.0492  0.5157
   64MPD2    C4  979   0.228   0.271  11.276  0.1771 -0.6404  0.1546
   64MPD2    C5  980   0.199   0.141  11.261  0.5660  0.0204  0.2576
   64MPD2     H  981   0.348   0.330  10.968  1.5865 -0.7067 -0.2118
   64MPD2    H1  982   0.203   0.320  11.370  1.1520  0.2577 -0.0580
   64MPD2    H2  983   0.210   4.691  11.146  1.5640  0.1290 -2.5048
   64MPD2    H3  984   0.159   0.092  11.349  1.6500  1.3952  1.5175
   64MPD2     N  985   0.303   0.481  11.169  0.7566 -0.4833 -0.4558
   64MPD2    H5  986   0.337   0.514  11.079  1.9363  2.9490  1.2394
   64MPD2    N1  987   0.335   0.073  10.915  0.3621 -0.4330 -0.2911
   64MPD2    H7  988   0.354   0.139  10.840 -1.5136  0.1681 -0.2341
   65MPD2     C  989   0.781   0.385  16.370  1.0241  0.1233 -0.3697
   65MPD2    C1  990   0.788   0.357  16.235 -0.1803 -0.6279  0.5671
   65MPD2    C2  991   0.779   0.223  16.193 -0.1765  0.0583  0.5396
   65MPD2    C3  992   0.763   0.121  16.283  0.7380 -0.5154 -0.4053
   65MPD2    C4  993   0.757   0.146  16.415 -0.1873  0.2182 -0.2549
   65MPD2    C5  994   0.764   0.277  16.460 -0.0571  0.1441 -0.1659
   65MPD2     H  995   0.782   0.208  16.086 -1.7201 -0.6012  0.5974
   65MPD2    H1  996   0.752   0.061  16.483 -1.7543  1.3666  1.0876
   65MPD2    H2  997   0.762   0.487  16.399 -0.4674 -0.3622  0.3513
   65MPD2    H3  998   0.735   0.303  16.561  2.1328  0.0807  0.4868
   65MPD2     N  999   0.755   4.712  16.252 -0.2558  0.2890 -0.1431
   65MPD2    H5 1000   0.755   4.651  16.334 -0.5032 -1.9081 -1.7660
   65MPD2    N1 1001   0.795   0.454  16.133 -0.4585  0.4352 -0.4033
   65MPD2    H7 1002   0.784   0.424  16.036  2.9166 -0.3279 -0.5376
   66TCq2    C1 1003   0.821   0.592  16.148  0.7188  0.0705  0.5235
   66TCq2    O2 1004   0.826   0.650  16.253 -0.8951 -0.5514  0.8788
   66TCq2    C2 1005   0.823   0.661  16.017 -0.1415  0.1758 -0.2257
   66TCq2    C3 1006   0.856   0.593  15.905 -0.6564  0.4928 -0.3364
   66TCq2    C4 1007   0.831   0.653  15.784  0.3939 -0.0604 -0.7649
   66TCq2    C5 1008   0.785   0.781  15.774  0.4972 -0.4054  0.1962
   66TCq2    C6 1009   0.747   0.842  15.886  0.2585  0.9906 -0.0424
   66TCq2    C7 1010   0.762   0.783  16.003 -0.1882 -0.3011  0.0791
   66TCq2    C8 1011   0.692   0.977  15.881  0.2265  0.8067  0.5894
   66TCq2    O4 1012   0.663   1.023  15.772  0.5598  0.5515 -0.3010
   66TCq2    C9 1013   0.859   0.568  15.671 -0.2972  0.3614 -0.3982
   66TCq2    O5 1014   0.903   0.627  15.571  0.5073 -0.0789 -0.2265
   66TCq2    O6 1015   0.850   0.439  15.683 -0.2351 -0.1415  0.2340
   66TCq2    H2 1016   0.905   0.497  15.918  0.7247  1.1510 -0.6615
   66TCq2    H3 1017   0.753   0.823  15.680 -1.1431  0.4633  1.1353
   66TCq2    H4 1018   0.720   0.829  16.092  1.6941  0.8519  0.3651
   67MPD2     C 1019   1.243   4.112  14.337  0.4949  0.5457  0.1088
   67MPD2    C1 1020   1.177   4.217  14.399 -0.2211  0.0144 -0.8433
   67MPD2    C2 1021   1.057   4.266  14.350  0.1584  0.2696 -0.4738
   67MPD2    C3 1022   1.001   4.213  14.237 -0.4203 -0.1331  0.0227
   67MPD2    C4 1023   1.068   4.108  14.182  0.2032 -0.4342  0.4573
   67MPD2    C5 1024   1.190   4.062  14.223 -0.2186  0.3343 -0.1357
   67MPD2     H 1025   1.008   4.344  14.407  1.2444  0.5983  0.0154
   67MPD2    H1 1026   1.019   4.062  14.097 -2.8372  2.9458  0.3747
   67MPD2    H2 1027   1.335   4.074  14.380  0.1156 -0.7577 -0.2406
   67MPD2    H3 1028   1.243   3.988  14.164 -0.1186  1.2132 -1.1585
   67MPD2     N 1029   0.878   4.245  14.192  0.4439  0.6654  0.4110
   67MPD2    H5 1030   0.837   4.175  14.131 -0.5885  0.8241  0.9246
   67MPD2    N1 1031   1.223   4.267  14.525 -0.0368 -0.6588  0.4219
   67MPD2    H7 1032   1.180   4.354  14.556 -1.2489 -1.5064  1.1294
   68TCq2    C1 1033   1.307   4.208  14.612  0.4750  0.0304  0.2608
   68TCq2    O2 1034   1.363   4.099  14.615 -0.3012 -0.0490  0.3413
   68TCq2    C2 1035   1.314   4.280  14.736  0.4339 -0.4518 -0.2389
   68TCq2    C3 1036   1.229   4.377  14.776  0.2280  0.4576  0.4752
   68TCq2    C4 1037   1.233   4.406  14.911 -0.0022  0.2171 -1.0727
   68TCq2    C5 1038   1.326   4.349  14.995  0.1319 -0.4124 -0.2330
   68TCq2    C6 1039   1.421   4.265  14.942 -0.6539 -1.0070 -0.1043
   68TCq2    C7 1040   1.416   4.223  14.814  0.4050 -0.1040  0.4508
   68TCq2    C8 1041   1.549   4.250  15.008  0.0280  0.2152  0.2793
   68TCq2    O4 1042   1.635   4.184  14.957  0.4544 -0.3044  0.4408
   68TCq2    C9 1043   1.148   4.511  14.961  0.0228  0.2990 -0.1842
   68TCq2    O5 1044   1.115   4.598  14.874 -0.1918  0.5679 -0.7989
   68TCq2    O6 1045   1.126   4.520  15.089  0.1776 -0.0546  0.1121
   68TCq2    H2 1046   1.150   4.431  14.723 -0.6440 -0.7639  0.5369
   68TCq2    H3 1047   1.321   4.373  15.100 -0.0090 -1.3696 -0.0153
   68TCq2    H4 1048   1.497   4.165  14.771 -0.3252 -0.9016  0.1498
   69TMC2    C1 1049   3.767   1.375  12.879 -0.0401 -0.1274 -0.1301
   69TMC2    C2 1050   3.646   1.437  12.868  0.0122 -0.0041  0.3362
   69TMC2    C3 1051   3.654   1.560  12.815  0.1966 -0.4927  0.3514
   69TMC2    C4 1052   3.894   1.427  12.858  0.2741  0.0031 -0.5575
   69TMC2    C5 1053   3.892   1.556  12.810 -0.2074  0.0009 -0.2705
   69TMC2    C6 1054   3.776   1.620  12.788 -0.2680 -0.6194 -0.6427
   69TMC2     C 1055   3.773   1.242  12.942  0.7334 -0.3898  0.0155
   69TMC2     O 1056   3.882   1.188  12.967  0.0248  0.4811 -0.4658
   69TMC2     H 1057   3.549   1.387  12.865 -1.1672  2.3258 -0.8423
   69TMC2    H1 1058   3.985   1.376  12.886 -0.2294  0.7408  2.4121
   69TMC2    H2 1059   3.786   1.720  12.748  2.2495 -0.8855 -0.6868
   69TMC2    C7 1060   3.999   1.571  12.720  0.4785 -0.0150  0.1967
   69TMC2    C8 1061   3.533   1.611  12.757  0.1582 -0.4939 -0.0023
   69TMC2    O1 1062   4.106   1.511  12.746 -0.5459  0.7018 -0.3617
   69TMC2    O2 1063   3.466   1.536  12.692 -0.4114 -0.1271  1.1371
   69TMC2    O5 1064   3.546   1.745  12.743 -0.5910  0.0105  0.4878
   69TMC2    H5 1065   3.609   1.785  12.807  1.9104 -1.8213 -0.8177
   70MPD2     C 1066   3.467   1.065  13.050  0.8920 -0.1277 -0.1903
   70MPD2    C1 1067   3.598   1.080  13.032 -0.4262 -0.3993 -0.1873
   70MPD2    C2 1068   3.684   0.979  13.077 -0.7243 -0.9954 -0.6459
   70MPD2    C3 1069   3.627   0.867  13.135 -0.2811 -0.0295  0.1486
   70MPD2    C4 1070   3.491   0.858  13.151  0.0889 -0.3118  0.0744
   70MPD2    C5 1071   3.411   0.963  13.120  0.3764  0.2012 -0.2650
   70MPD2     H 1072   3.788   0.984  13.049 -0.0284  1.7226  2.3421
   70MPD2    H1 1073   3.444   0.766  13.182 -1.8935  0.7172  0.1000
   70MPD2    H2 1074   3.393   1.137  13.015  1.1569 -0.0929 -0.6878
   70MPD2    H3 1075   3.302   0.959  13.123  0.3494 -0.2996 -1.8326
   70MPD2     N 1076   3.710   0.763  13.178 -0.5376 -0.2733 -0.4805
   70MPD2    H5 1077   3.666   0.679  13.213  0.8235 -0.6550  0.3362
   70MPD2    N1 1078   3.644   1.200  12.968  0.2379  0.0242 -0.2908
   70MPD2    H7 1079   3.575   1.274  12.961  0.2082  0.1214  0.9485
   71TMC2    C1 1080   1.456   1.848   1.843 -0.2733 -0.0568 -0.3426
   71TMC2    C2 1081   1.584   1.828   1.882 -0.2874 -0.4297  0.2101
   71TMC2    C3 1082   1.604   1.818   2.016 -0.3236 -0.1255  0.7313
   71TMC2    C4 1083   1.360   1.872   1.938  0.1306  0.7281  0.7887
   71TMC2    C5 1084   1.394   1.873   2.073  0.4680 -0.4610  0.5674
   71TMC2    C6 1085   1.516   1.841   2.119 -0.1254 -0.5337 -0.7118
   71TMC2     C 1086   1.395   1.795   1.720 -0.6125  0.4082  0.9207
   71TMC2     O 1087   1.290   1.845   1.681  0.2568  0.2400  0.1462
   71TMC2     H 1088   1.659   1.805   1.807 -1.9239 -0.3586 -1.4433
   71TMC2    H1 1089   1.263   1.908   1.905  0.9189  2.4567  0.3429
   71TMC2    H2 1090   1.541   1.840   2.225  1.1273  0.2188 -0.9895
   71TMC2    C7 1091   1.287   1.910   2.171 -0.7553  0.5264 -0.3699
   71TMC2    C8 1092   1.741   1.811   2.069  0.2551  0.2989 -0.1957
   71TMC2    O1 1093   1.331   1.917   2.284  0.1055 -0.4171  0.0878
   71TMC2    O2 1094   1.777   1.850   2.179  0.0292 -0.4382  0.4291
   71TMC2    O5 1095   1.811   1.753   1.974  0.5417 -0.2088 -0.2642
   71TMC2    H5 1096   1.760   1.733   1.893 -1.3810  1.7043  0.4723
   72MPD2     C 1097   1.483   1.552   1.281 -0.0529  0.2925  0.1691
   72MPD2    C1 1098   1.392   1.651   1.307 -0.3824  0.7114 -0.4023
   72MPD2    C2 1099   1.390   1.704   1.432  0.2654 -0.2309  0.1818
   72MPD2    C3 1100   1.480   1.658   1.529 -0.5717 -0.1947  0.0129
   72MPD2    C4 1101   1.572   1.560   1.498 -0.1051  0.3756 -0.0267
   72MPD2    C5 1102   1.574   1.509   1.372 -0.1158  0.1131  0.1284
   72MPD2     H 1103   1.334   1.792   1.462 -0.4666 -0.0463 -1.7447
   72MPD2    H1 1104   1.647   1.521   1.566  1.4321 -1.8285 -2.9953
   72MPD2    H2 1105   1.489   1.508   1.182 -2.9919 -1.3081  0.7047
   72MPD2    H3 1106   1.655   1.445   1.339  0.5914  2.3213 -2.3401
   72MPD2     N 1107   1.480   1.706   1.661  0.5113  0.4119 -0.4403
   72MPD2    H5 1108   1.566   1.688   1.713  0.1904 -0.4713 -0.2088
   72MPD2    N1 1109   1.299   1.705   1.211  0.2397 -0.3065 -0.4147
   72MPD2    H7 1110   1.234   1.774   1.248  1.6074  0.4522  0.5890
   73TMC2    C1 1111   0.746   2.828  13.394 -0.0148  0.7320  0.0397
   73TMC2    C2 1112   0.613   2.824  13.384 -0.6363 -0.0544  0.7895
   73TMC2    C3 1113   0.541   2.936  13.350 -0.3283 -0.1173 -0.2124
   73TMC2    C4 1114   0.807   2.946  13.369  1.0098 -0.0430  0.1934
   73TMC2    C5 1115   0.735   3.046  13.307 -0.7249  0.1140  0.3075
   73TMC2    C6 1116   0.597   3.049  13.314  0.2969 -0.3703  0.6817
   73TMC2     C 1117   0.812   2.723  13.324  0.4693  0.2524 -0.9940
   73TMC2     O 1118   0.903   2.762  13.256  0.0681  0.6947 -0.2211
   73TMC2     H 1119   0.560   2.730  13.397 -0.8850 -0.1475 -0.9318
   73TMC2    H1 1120   0.914   2.955  13.384  1.0239 -0.4115  0.3241
   73TMC2    H2 1121   0.534   3.119  13.260  0.8969 -1.9620 -2.0951
   73TMC2    C7 1122   0.804   3.112  13.198  0.0091 -0.4161  0.2735
   73TMC2    C8 1123   0.395   2.933  13.348 -0.3326 -0.2319 -0.3459
   73TMC2    O1 1124   0.763   3.226  13.160 -0.0831  0.0119  0.0502
   73TMC2    O2 1125   0.327   2.924  13.249 -0.5984 -0.5153 -0.1491
   73TMC2    O5 1126   0.363   2.887  13.467 -0.4284 -0.5781 -0.0427
   73TMC2    H5 1127   0.415   2.933  13.537 -1.1979  0.8931 -0.4341
   74MPD2     C 1128   0.979   2.258  13.208  0.4597  0.2805  0.5807
   74MPD2    C1 1129   0.978   2.370  13.133  0.5928  0.5251 -0.4507
   74MPD2    C2 1130   0.912   2.488  13.183  0.0060  0.6249  0.7936
   74MPD2    C3 1131   0.850   2.486  13.305 -0.0510 -0.3587 -0.0803
   74MPD2    C4 1132   0.843   2.366  13.371 -0.4333  0.3175  0.1415
   74MPD2    C5 1133   0.910   2.257  13.324  0.5040  0.2109  0.1513
   74MPD2     H 1134   0.908   2.579  13.124  1.5080  0.4398  0.3971
   74MPD2    H1 1135   0.807   2.368  13.473  0.5266 -1.8095  0.5275
   74MPD2    H2 1136   1.035   2.168  13.187 -0.1315  0.1414 -0.3514
   74MPD2    H3 1137   0.920   2.174  13.393  0.5411 -0.2864 -0.4621
   74MPD2     N 1138   0.789   2.597  13.363 -0.2332 -0.0725 -0.1668
   74MPD2    H5 1139   0.720   2.585  13.437  2.0518  2.9294  2.4789
   74MPD2    N1 1140   1.049   2.369  13.014 -0.1445 -0.4541 -0.2415
   74MPD2    H7 1141   1.085   2.277  12.989  0.2810  1.2114 -5.6226
   75TCq2    C1 1142   0.803   4.352  14.241  0.7730 -0.0226  0.4057
   75TCq2    O2 1143   0.837   4.447  14.307 -0.2814  0.3474 -0.5159
   75TCq2    C2 1144   0.677   4.382  14.168 -0.2916 -0.3921 -0.4141
   75TCq2    C3 1145   0.571   4.441  14.231  0.4794  0.2490 -0.2474
   75TCq2    C4 1146   0.452   4.467  14.177  0.7096  0.3048 -0.8907
   75TCq2    C5 1147   0.430   4.425  14.053 -0.3131  0.9400 -0.8429
   75TCq2    C6 1148   0.529   4.351  13.993 -0.2696  0.3059  0.4730
   75TCq2    C7 1149   0.658   4.335  14.043  0.1429  0.7242 -0.4516
   75TCq2    C8 1150   0.497   4.291  13.867  0.1506 -0.2931 -0.5219
   75TCq2    O4 1151   0.408   4.340  13.801 -0.3113  0.5630 -0.0708
   75TCq2    C9 1152   0.353   4.534  14.253 -0.4902 -0.6396 -0.3475
   75TCq2    O5 1153   0.242   4.528  14.198  0.3623 -0.1714  0.3719
   75TCq2    O6 1154   0.364   4.544  14.377  0.4910 -0.2005 -1.0424
   75TCq2    H2 1155   0.585   4.480  14.331  0.1263 -3.9083  1.4050
   75TCq2    H3 1156   0.335   4.445  14.005 -1.3488 -1.2070  0.3279
   75TCq2    H4 1157   0.738   4.294  13.983 -0.7441 -3.1706  1.0682
   76MPD2     C 1158   0.186   0.865  12.542  0.7899 -0.0095 -0.1434
   76MPD2    C1 1159   0.126   0.852  12.421 -0.1410 -0.6201 -0.2439
   76MPD2    C2 1160   0.140   0.735  12.355 -0.0715 -0.6123 -0.3554
   76MPD2    C3 1161   0.224   0.643  12.409 -0.3318 -0.2267 -1.0908
   76MPD2    C4 1162   0.294   0.663  12.523 -0.1550 -0.0707 -0.4109
   76MPD2    C5 1163   0.270   0.778  12.592  0.0500 -0.1722  0.0653
   76MPD2     H 1164   0.086   0.723  12.262 -1.3525  1.4651  0.1171
   76MPD2    H1 1165   0.363   0.591  12.565  0.4290 -0.3867 -1.8973
   76MPD2    H2 1166   0.175   0.952  12.605  0.8987 -0.0068 -0.1296
   76MPD2    H3 1167   0.326   0.793  12.684 -0.4610  0.9939  0.1787
   76MPD2     N 1168   0.245   0.517  12.350  0.2155  0.4329  0.3295
   76MPD2    H5 1169   0.329   0.466  12.375 -0.8079 -0.9951  0.9041
   76MPD2    N1 1170   0.032   0.946  12.378  0.6730 -1.1999  0.1638
   76MPD2    H7 1171   4.710   0.916  12.292  0.2361  0.9655 -0.3546
   77TCq2    C1 1172   0.159   0.452  12.263 -0.1960 -0.3334 -0.3755
   77TCq2    O2 1173   0.054   0.494  12.216  0.1115  0.3083 -0.1495
   77TCq2    C2 1174   0.204   0.331  12.199  0.3718  0.7942  0.0612
   77TCq2    C3 1175   0.109   0.286  12.105 -0.2647  0.3625 -0.5876
   77TCq2    C4 1176   0.151   0.195  12.013  1.1289 -0.2953 -0.0728
   77TCq2    C5 1177   0.283   0.168  12.002 -0.0511  0.1034 -0.4551
   77TCq2    C6 1178   0.378   0.224  12.077 -0.6613 -0.3718 -0.1835
   77TCq2    C7 1179   0.338   0.301  12.181 -0.2412 -0.8471  0.2899
   77TCq2    C8 1180   0.515   0.184  12.066 -0.0224  0.4698 -0.1764
   77TCq2    O4 1181   0.561   0.154  11.954  0.7406 -0.2617 -0.4234
   77TCq2    C9 1182   0.056   0.134  11.924 -0.0326  0.4699 -0.1134
   77TCq2    O5 1183   4.655   0.152  11.939  0.7994  0.6150 -0.2670
   77TCq2    O6 1184   0.103   0.064  11.830  0.1316  1.2487  0.2290
   77TCq2    H2 1185   0.003   0.295  12.126  0.3348  2.5514  1.5010
   77TCq2    H3 1186   0.320   0.107  11.920  1.1826  0.7474 -0.3816
   77TCq2    H4 1187   0.415   0.356  12.234 -1.1941  0.9631 -0.1744
   78MPD1     C 1188   2.873   4.366   1.822  0.1034  0.7378 -0.8108
   78MPD1    C1 1189   2.897   4.482   1.901 -0.0081 -0.2130  0.3268
   78MPD1    C2 1190   3.030   4.530   1.906 -0.4985  0.2989  0.5447
   78MPD1    C3 1191   3.141   4.466   1.863 -0.3434  0.5350  0.8448
   78MPD1    C4 1192   3.120   4.344   1.805 -0.5474 -0.7690  0.2690
   78MPD1    C5 1193   2.988   4.304   1.773 -0.9494 -0.2367  0.5128
   78MPD1     H 1194   3.037   4.625   1.959 -0.1881 -1.2479  3.3088
   78MPD1    H1 1195   3.195   4.270   1.777 -0.7862 -0.6855 -0.5912
   78MPD1    H2 1196   2.774   4.326   1.802  0.5807 -2.0736  2.4772
   78MPD1    H3 1197   2.970   4.208   1.726 -1.0920  0.3702 -0.6775
   78MPD1     N 1198   3.277   4.503   1.890  0.4427  0.5501  0.1873
   78MPD1    H5 1199   3.345   4.434   1.860 -0.3698  0.5279 -1.5892
   78MPD1    N1 1200   2.789   4.559   1.936 -0.3712 -0.0565  0.0852
   78MPD1    H6 1201   2.698   4.515   1.949 -0.0409 -0.9768 -0.7144
   78MPD1    H7 1202   2.820   4.636   1.995 -0.7617  0.8355 -0.8857
   79TCq2    C1 1203   3.319   4.620   1.950  0.1803 -0.7403  0.1733
   79TCq2    O2 1204   3.254   4.709   2.006  0.5919  0.1851 -0.2386
   79TCq2    C2 1205   3.462   4.637   1.959 -0.3957 -0.1925  0.0570
   79TCq2    C3 1206   3.541   4.523   1.946 -0.4997  0.1162 -0.5329
   79TCq2    C4 1207   3.676   4.547   1.933  0.3971 -0.1764 -0.6576
   79TCq2    C5 1208   3.733   4.671   1.929 -0.3150 -0.4821 -0.5536
   79TCq2    C6 1209   3.652   0.056   1.933  0.3628 -0.0089 -0.3468
   79TCq2    C7 1210   3.518   0.039   1.950 -0.2582  0.4575  0.0024
   79TCq2    C8 1211   3.689   0.193   1.939  0.2184 -0.6520  0.6174
   79TCq2    O4 1212   3.602   0.283   1.938  0.4048 -0.1535 -0.2646
   79TCq2    C9 1213   3.769   4.437   1.960 -0.3216  0.5847  0.3890
   79TCq2    O5 1214   3.712   4.332   1.994  0.0418 -0.0603  0.3295
   79TCq2    O6 1215   3.896   4.461   1.956 -0.1500 -0.4631  0.0276
   79TCq2    H2 1216   3.497   4.425   1.964  2.3075 -1.0225  0.0505
   79TCq2    H3 1217   3.840   4.670   1.910 -0.0695  1.1027  0.7936
   79TCq2    H4 1218   3.445   0.119   1.958  1.0573  1.7015 -0.5379
   80MPD2     C 1219   3.870   0.288  11.416  0.4113 -0.0665 -0.0559
   80MPD2    C1 1220   3.775   0.183  11.427  0.6871  0.3913  0.0884
   80MPD2    C2 1221   3.646   0.221  11.472 -0.1638 -0.0938 -0.6770
   80MPD2    C3 1222   3.606   0.348  11.495  0.2236 -0.5952 -0.6341
   80MPD2    C4 1223   3.705   0.447  11.477 -0.0534 -0.5734  0.4318
   80MPD2    C5 1224   3.838   0.416  11.442  0.0426  0.4688 -0.0053
   80MPD2     H 1225   3.571   0.143  11.465 -0.3573  0.1090 -0.8110
   80MPD2    H1 1226   3.680   0.553  11.474 -1.7497 -0.9741  0.4495
   80MPD2    H2 1227   3.971   0.271  11.381  0.1984  0.1147 -0.7627
   80MPD2    H3 1228   3.906   0.497  11.414  0.3288  0.4937  0.7758
   80MPD2     N 1229   3.476   0.390  11.528  0.5527  0.3203 -0.0584
   80MPD2    H5 1230   3.456   0.490  11.525 -2.6888 -0.3355 -0.9990
   80MPD2    N1 1231   3.802   0.049  11.398 -0.1955  0.0969  0.5079
   80MPD2    H7 1232   3.720   4.713  11.393  0.2017 -0.6859  3.3295
   81TCq2    C1 1233   3.926   4.716  11.359 -0.3822 -0.8274 -0.3133
   81TCq2    O2 1234   4.033   0.044  11.332 -0.1940 -0.0732  0.0371
   81TCq2    C2 1235   3.920   4.572  11.333 -0.0632 -0.1725  0.5098
   81TCq2    C3 1236   3.970   4.532  11.214 -0.7058 -0.2318 -0.6675
   81TCq2    C4 1237   3.925   4.418  11.162  0.1023  0.0818  0.1128
   81TCq2    C5 1238   3.833   4.342  11.225 -0.4331  0.2415 -0.0876
   81TCq2    C6 1239   3.778   4.382  11.343  0.4494 -0.9417  0.1928
   81TCq2    C7 1240   3.826   4.498  11.401  0.5026  0.3185  0.7371
   81TCq2    C8 1241   3.702   4.285  11.414 -0.1814  0.0174  0.1043
   81TCq2    O4 1242   3.673   4.180  11.355 -0.1453  0.7155 -0.6178
   81TCq2    C9 1243   3.978   4.374  11.029  0.3069  0.5469  0.0782
   81TCq2    O5 1244   4.080   4.435  10.982  0.1958 -0.5537  0.1774
   81TCq2    O6 1245   3.912   4.283  10.968  0.1047  0.4510 -0.4082
   81TCq2    H2 1246   4.040   4.595  11.161 -1.5161 -0.1717 -1.6771
   81TCq2    H3 1247   3.795   4.253  11.178 -1.4365  1.5048 -1.6660
   81TCq2    H4 1248   3.790   4.527  11.500  0.6066 -1.0353  1.1794
   82MPD2     C 1249   2.278   0.194  10.479  0.1288  0.3790 -0.0217
   82MPD2    C1 1250   2.163   0.154  10.544  0.5667  0.6459  0.1918
   82MPD2    C2 1251   2.168   0.045  10.623  0.1850  0.1457  0.3385
   82MPD2    C3 1252   2.287   4.705  10.657 -0.5714 -1.1413 -0.5547
   82MPD2    C4 1253   2.399   0.031  10.603 -0.4547  0.1940  0.2209
   82MPD2    C5 1254   2.393   0.132  10.511 -0.3518  0.2208 -0.2059
   82MPD2     H 1255   2.080   0.005  10.673 -1.4989  1.6022 -1.4507
   82MPD2    H1 1256   2.494   4.705  10.613  0.6228  1.8780 -1.5317
   82MPD2    H2 1257   2.280   0.279  10.413  0.8736  1.4420  1.3694
   82MPD2    H3 1258   2.482   0.152  10.453 -0.0666 -0.9505 -0.1704
   82MPD2     N 1259   2.291   4.594  10.744 -0.1812  0.1605 -0.5248
   82MPD2    H5 1260   2.386   4.566  10.767 -0.0417 -1.4418 -2.9842
   82MPD2    N1 1261   2.042   0.228  10.527  0.0257  0.4563 -0.2927
   82MPD2    H7 1262   2.028   0.290  10.448 -0.2584  0.8656  0.0774
   83TCq2    C1 1263   2.187   4.507  10.783  0.1907  0.5823 -0.4667
   83TCq2    O2 1264   2.076   4.490  10.729 -0.1326  0.5268 -0.5204
   83TCq2    C2 1265   2.224   4.430  10.900  0.1291 -0.1210 -0.4688
   83TCq2    C3 1266   2.330   4.475  10.986 -0.0264  0.6728 -0.7562
   83TCq2    C4 1267   2.374   4.382  11.074 -0.6070 -0.7824 -0.1018
   83TCq2    C5 1268   2.298   4.274  11.103 -0.0899 -1.0847  0.7560
   83TCq2    C6 1269   2.194   4.236  11.024  0.6529 -0.2009  0.0890
   83TCq2    C7 1270   2.151   4.315  10.917  0.0438 -0.6614  0.2238
   83TCq2    C8 1271   2.107   4.123  11.070  0.5172  0.3500 -0.4458
   83TCq2    O4 1272   2.110   4.089  11.185  0.1543 -0.0598  0.4788
   83TCq2    C9 1273   2.500   4.406  11.142 -0.3029 -0.6541 -1.1012
   83TCq2    O5 1274   2.530   4.322  11.231 -0.0644 -0.0168 -0.1239
   83TCq2    O6 1275   2.575   4.495  11.099 -0.5103  0.2139  0.7221
   83TCq2    H2 1276   2.380   4.572  10.979 -0.0941  0.7633  0.0970
   83TCq2    H3 1277   2.331   4.194  11.168 -0.9585 -0.3815  2.0686
   83TCq2    H4 1278   2.080   4.282  10.842 -0.3317 -0.1498  0.3491
   84TCq2    C1 1279   2.970   3.196  10.468  0.2963  0.3140 -0.1522
   84TCq2    O2 1280   2.922   3.148  10.362 -0.7812 -0.0552 -0.7630
   84TCq2    C2 1281   3.004   3.094  10.574 -0.2058  1.0098  0.2502
   84TCq2    C3 1282   3.018   2.964  10.534  0.5630 -0.0232  0.3900
   84TCq2    C4 1283   3.016   2.873  10.638  0.0899  0.2467 -0.4514
   84TCq2    C5 1284   3.018   2.900  10.775 -0.4033  0.2222  0.4997
   84TCq2    C6 1285   3.013   3.034  10.806 -0.0266  0.4077  0.7122
   84TCq2    C7 1286   2.999   3.129  10.711  0.9468 -0.3077  0.5105
   84TCq2    C8 1287   3.008   3.077  10.942  0.4157  0.5574  0.1830
   84TCq2    O4 1288   2.987   3.196  10.961  0.6890  0.4533 -0.2975
   84TCq2    C9 1289   3.016   2.730  10.595  0.3497  0.5619  0.0964
   84TCq2    O5 1290   2.984   2.648  10.682  0.2075 -0.1186 -0.8061
   84TCq2    O6 1291   3.011   2.705  10.473  0.4301 -0.7017  0.2618
   84TCq2    H2 1292   3.019   2.932  10.431  1.7239  0.9852  0.0927
   84TCq2    H3 1293   3.014   2.814  10.841  0.3500  0.6507  1.1017
   84TCq2    H4 1294   2.983   3.233  10.737  3.2731  0.3428 -0.6205
   85MPD2     C 1295   3.518   1.592  16.422 -0.1682  0.3770  0.7168
   85MPD2    C1 1296   3.490   1.539  16.301 -0.4589 -0.2903 -0.2395
   85MPD2    C2 1297   3.529   1.599  16.194  0.2898 -0.8773  0.0743
   85MPD2    C3 1298   3.585   1.731  16.197  0.6929  0.5069 -1.2374
   85MPD2    C4 1299   3.614   1.783  16.319 -0.0465  0.2786  0.4922
   85MPD2    C5 1300   3.571   1.715  16.432  0.0432  0.1372  0.4139
   85MPD2     H 1301   3.514   1.549  16.099 -3.6792  1.6796 -0.6304
   85MPD2    H1 1302   3.677   1.871  16.316  0.0340  0.2533  1.5151
   85MPD2    H2 1303   3.506   1.541  16.517  1.8828  0.5463  1.0822
   85MPD2    H3 1304   3.605   1.749  16.530  1.6025 -0.2764  0.0203
   85MPD2     N 1305   3.632   1.789  16.079 -0.1201  0.0028 -0.1803
   85MPD2    H5 1306   3.622   1.733  15.995 -1.6963  0.7110 -0.4718
   85MPD2    N1 1307   3.429   1.405  16.292  0.4620  0.1052 -0.5941
   85MPD2    H7 1308   3.410   1.375  16.197 -0.0610  0.2547 -0.5347
   86TCq2    C1 1309   3.670   1.920  16.056  0.4679 -0.0089  0.3964
   86TCq2    O2 1310   3.658   2.018  16.128 -0.5852  0.2199 -0.5329
   86TCq2    C2 1311   3.714   1.938  15.923  0.5421 -0.2238 -0.6387
   86TCq2    C3 1312   3.708   2.065  15.869 -0.1356 -0.0056  0.2749
   86TCq2    C4 1313   3.750   2.084  15.743  0.1941 -0.4172  0.0996
   86TCq2    C5 1314   3.801   1.980  15.669  0.7683  1.0290 -0.0750
   86TCq2    C6 1315   3.814   1.860  15.725  0.3910 -0.2429  0.1251
   86TCq2    C7 1316   3.773   1.835  15.850  0.5134  0.1882 -0.3979
   86TCq2    C8 1317   3.882   1.754  15.652 -0.2001 -0.0741 -0.1711
   86TCq2    O4 1318   3.853   1.641  15.692 -0.0137  0.1766 -0.3312
   86TCq2    C9 1319   3.751   2.215  15.695 -0.0752 -0.2581 -0.6920
   86TCq2    O5 1320   3.775   2.311  15.778  0.4473 -0.1400  0.5207
   86TCq2    O6 1321   3.765   2.228  15.570 -0.1238 -0.0207  0.1184
   86TCq2    H2 1322   3.647   2.137  15.921 -0.6230 -0.5084  0.3992
   86TCq2    H3 1323   3.833   2.008  15.570  0.3937  1.0152 -0.1994
   86TCq2    H4 1324   3.772   1.737  15.897  0.0407 -1.1094 -3.0825
   87MPD2     C 1325   1.101   0.308   1.287 -0.6509  0.0304 -0.1933
   87MPD2    C1 1326   1.156   0.413   1.367  0.4208  0.0567  0.2026
   87MPD2    C2 1327   1.065   0.491   1.445  0.6652  0.3048 -0.0504
   87MPD2    C3 1328   0.927   0.467   1.433  0.2699 -0.7680  0.4415
   87MPD2    C4 1329   0.880   0.360   1.360 -0.5106  0.0445  0.0342
   87MPD2    C5 1330   0.969   0.284   1.294  1.2591  0.2265  0.3391
   87MPD2     H 1331   1.100   0.567   1.515  0.7686 -1.6908  2.0675
   87MPD2    H1 1332   0.776   0.334   1.345  0.2438 -1.4680 -2.6806
   87MPD2    H2 1333   1.155   0.248   1.215 -0.9008  0.9381 -1.1420
   87MPD2    H3 1334   0.930   0.214   1.221  2.2933 -0.0595  0.0569
   87MPD2     N 1335   0.833   0.557   1.501  0.0754 -0.2094  0.2252
   87MPD2    H5 1336   0.737   0.562   1.471  0.1959  1.3701  0.1229
   87MPD2    N1 1337   1.296   0.426   1.373 -0.9921  0.2323 -0.2411
   87MPD2    H7 1338   1.349   0.360   1.317  0.1420 -0.9054  2.1590
   88TCq2    C1 1339   1.366   0.523   1.443 -0.0173  0.1808 -0.1689
   88TCq2    O2 1340   1.324   0.602   1.523 -0.3175 -0.0696 -0.4688
   88TCq2    C2 1341   1.510   0.524   1.432 -0.6222 -0.1301 -0.2943
   88TCq2    C3 1342   1.579   0.596   1.522  0.1450  0.0730 -0.1277
   88TCq2    C4 1343   1.710   0.630   1.491 -0.1926  0.2143 -0.7224
   88TCq2    C5 1344   1.758   0.597   1.365  0.6151  0.4054  0.3917
   88TCq2    C6 1345   1.677   0.533   1.279  0.1349  0.2671  0.6395
   88TCq2    C7 1346   1.554   0.494   1.309  0.2184  0.5896  0.1368
   88TCq2    C8 1347   1.718   0.540   1.136  0.4887  0.5688  0.0013
   88TCq2    O4 1348   1.787   0.635   1.099 -0.0484 -0.7130 -0.3626
   88TCq2    C9 1349   1.801   0.679   1.597  0.1901 -0.4245  0.5990
   88TCq2    O5 1350   1.742   0.713   1.703  0.6677 -0.3606  0.6712
   88TCq2    O6 1351   1.914   0.721   1.557 -0.0454 -0.0190  1.0149
   88TCq2    H2 1352   1.543   0.605   1.623 -0.1381 -0.3814 -0.1862
   88TCq2    H3 1353   1.858   0.619   1.332  0.7103 -0.6510 -0.0221
   88TCq2    H4 1354   1.491   0.482   1.222  1.1663 -1.4176 -0.2847
   89MPD2     C 1355   2.531   1.935   1.667  0.5004 -1.2179 -0.0499
   89MPD2    C1 1356   2.434   2.024   1.623  0.3669  0.3239  0.5605
   89MPD2    C2 1357   2.447   2.076   1.492  0.0274  0.1155 -0.2270
   89MPD2    C3 1358   2.558   2.060   1.422  0.7382 -0.0916 -0.0965
   89MPD2    C4 1359   2.657   1.980   1.474 -0.5905  0.2100 -0.4562
   89MPD2    C5 1360   2.644   1.921   1.592  0.0569 -0.0865  0.7948
   89MPD2     H 1361   2.366   2.134   1.450  0.8445  0.0563 -1.9095
   89MPD2    H1 1362   2.745   1.951   1.417 -0.2254  0.6807 -0.1338
   89MPD2    H2 1363   2.526   1.872   1.755 -1.2814 -0.4291  0.4351
   89MPD2    H3 1364   2.722   1.852   1.622  0.2384 -1.5109 -2.9062
   89MPD2     N 1365   2.570   2.121   1.293 -0.4690  0.3466  0.2154
   89MPD2    H5 1366   2.494   2.181   1.261 -0.6208 -0.3018 -0.6484
   89MPD2    N1 1367   2.325   2.050   1.708  0.2137  0.3533  0.2305
   89MPD2    H7 1368   2.247   2.095   1.662  0.0601 -0.2016 -0.0524
   90TCq2    C1 1369   2.684   2.125   1.216 -0.3314  0.4476  0.7943
   90TCq2    O2 1370   2.800   2.084   1.225  0.7527  0.5891  0.6985
   90TCq2    C2 1371   2.658   2.212   1.095 -0.0280 -0.5681 -0.3444
   90TCq2    C3 1372   2.759   2.243   1.006  0.5103 -0.2080  0.0491
   90TCq2    C4 1373   2.738   2.338   0.910  0.8222 -0.0763  0.9006
   90TCq2    C5 1374   2.615   2.401   0.890  0.0772 -0.6365 -0.6149
   90TCq2    C6 1375   2.520   2.369   0.987 -0.4873 -0.1644  0.1729
   90TCq2    C7 1376   2.535   2.274   1.086 -0.1855 -0.4738 -0.4966
   90TCq2    C8 1377   2.390   2.426   0.963 -0.3192 -0.5391 -0.2567
   90TCq2    O4 1378   2.293   2.375   1.018  0.3397 -0.0974  1.2075
   90TCq2    C9 1379   2.840   2.361   0.808 -0.1029  0.6893 -0.3671
   90TCq2    O5 1380   2.940   2.282   0.812  0.8858 -0.4205  0.7568
   90TCq2    O6 1381   2.812   2.451   0.725 -0.0504  0.3272 -0.2186
   90TCq2    H2 1382   2.850   2.185   1.016  1.2439  1.1701  1.3428
   90TCq2    H3 1383   2.608   2.478   0.814 -0.3145  0.4044  0.4650
   90TCq2    H4 1384   2.440   2.226   1.110 -1.6504  1.2003 -2.8549
   91TMC2    C1 1385   4.047   2.720  16.974 -0.1154  0.1438 -0.3282
   91TMC2    C2 1386   4.101   2.679  17.095  0.1095 -0.1764 -0.0218
   91TMC2    C3 1387   4.018   2.679  17.202 -0.4552 -0.2298 -0.4464
   91TMC2    C4 1388   3.920   2.772  16.967 -0.1999  0.1033 -0.5035
   91TMC2    C5 1389   3.843   2.760  17.074  0.7674  0.3910  0.4581
   91TMC2    C6 1390   3.891   2.719  17.194 -0.1869 -1.0701  0.0442
   91TMC2     C 1391   4.124   2.732  16.848  0.1642 -0.4225  0.3339
   91TMC2     O 1392   4.082   2.800  16.756  0.9089 -0.1138 -0.0374
   91TMC2     H 1393   4.204   2.657  17.119 -0.9122 -2.6433  2.1835
   91TMC2    H1 1394   3.896   2.831  16.879 -2.7553 -1.4788 -0.8851
   91TMC2    H2 1395   3.824   2.726  17.280 -1.6349 -0.0239 -1.1732
   91TMC2    C7 1396   3.705   2.811  17.070  0.2990 -0.2857 -0.1487
   91TMC2    C8 1397   4.063   2.614  17.325 -0.3321 -0.4979  0.5389
   91TMC2    O1 1398   3.658   2.834  17.184 -0.3199 -0.4667  0.1507
   91TMC2    O2 1399   4.126   2.511  17.326  0.6395 -0.0558  0.3986
   91TMC2    O5 1400   4.100   2.732  17.392  0.0833  0.0415  0.8946
   91TMC2    H5 1401   4.043   2.810  17.377 -2.2425 -1.3017  2.8235
   92MPD2     C 1402   4.409   2.518  16.765 -0.4361  0.1943 -0.0266
   92MPD2    C1 1403   4.334   2.634  16.753 -0.1880  0.3542 -0.8723
   92MPD2    C2 1404   4.359   2.721  16.645 -0.2481  0.1162 -0.0110
   92MPD2    C3 1405   4.453   2.683  16.544 -0.5923 -0.2720 -0.1383
   92MPD2    C4 1406   4.522   2.563  16.554 -0.0164  0.4523 -0.2704
   92MPD2    C5 1407   4.497   2.484  16.665 -0.8955 -0.1813 -0.2435
   92MPD2     H 1408   4.295   2.807  16.627  0.1006  0.3564 -0.0938
   92MPD2    H1 1409   4.591   2.524  16.480 -0.3344 -1.2188  0.3251
   92MPD2    H2 1410   4.403   2.447  16.847 -2.8225 -0.4653 -0.7800
   92MPD2    H3 1411   4.549   2.390  16.677 -1.7236 -0.7543 -1.1824
   92MPD2     N 1412   4.473   2.776  16.440  0.0047  0.9077  0.1045
   92MPD2    H5 1413   4.429   2.866  16.454 -4.2874 -1.5478  2.2301
   92MPD2    N1 1414   4.234   2.651  16.849 -1.0026 -0.1105  0.4081
   92MPD2    H7 1415   4.243   2.594  16.932  0.0218 -0.9840 -0.3143
   93MPD2     C 1416   0.173   2.434  13.962 -0.5342 -0.6484 -0.3022
   93MPD2    C1 1417   0.167   2.569  13.972 -0.3621 -0.0518  0.7334
   93MPD2    C2 1418   0.038   2.627  13.973  0.0274 -1.1950  0.0846
   93MPD2    C3 1419   4.649   2.546  13.972  0.2524  0.4433  0.1653
   93MPD2    C4 1420   4.664   2.408  13.959  0.0702 -0.6334 -0.2845
   93MPD2    C5 1421   0.061   2.355  13.965 -0.1426 -0.5939  0.2423
   93MPD2     H 1422   0.029   2.735  13.979  1.2354 -1.2103  2.6741
   93MPD2    H1 1423   4.584   2.335  13.960 -0.3860 -0.1535 -2.6788
   93MPD2    H2 1424   0.270   2.385  13.967  0.0071  0.3893 -0.6659
   93MPD2    H3 1425   0.062   2.247  13.975  2.1919 -0.5355  0.7470
   93MPD2     N 1426   4.526   2.615  13.981 -0.4218  0.9648  0.2165
   93MPD2    H5 1427   4.535   2.714  13.960 -2.3408  1.2253  0.6139
   93MPD2    N1 1428   0.277   2.659  13.975  0.2811  0.0531  0.0617
   93MPD2    H7 1429   0.248   2.756  13.972 -2.3278 -0.7914 -2.8621
   94TCq2    C1 1430   0.403   2.622  14.002 -0.5617 -0.4062  0.1568
   94TCq2    O2 1431   0.456   2.515  13.998  0.5391  0.7622  0.2252
   94TCq2    C2 1432   0.497   2.726  13.979  0.2000  0.4246  0.9957
   94TCq2    C3 1433   0.472   2.833  13.890 -0.9179 -0.0748  0.2694
   94TCq2    C4 1434   0.577   2.914  13.855  0.9454  0.2469 -0.5849
   94TCq2    C5 1435   0.696   2.909  13.921  0.0035 -0.2188 -0.0112
   94TCq2    C6 1436   0.714   2.808  14.011  0.0020  0.4521 -0.0380
   94TCq2    C7 1437   0.622   2.709  14.044 -0.5570  0.2715 -0.2419
   94TCq2    C8 1438   0.825   2.808  14.105  0.2235 -1.3835 -0.5240
   94TCq2    O4 1439   0.895   2.713  14.128  0.3380  0.0359 -0.4225
   94TCq2    C9 1440   0.561   3.005  13.741 -0.4255 -0.8932  0.1054
   94TCq2    O5 1441   0.460   2.998  13.661  0.5595 -0.7010 -0.3002
   94TCq2    O6 1442   0.663   3.080  13.729 -0.7689 -0.3083  0.1130
   94TCq2    H2 1443   0.383   2.848  13.830  0.4536 -0.8011 -1.9481
   94TCq2    H3 1444   0.780   2.975  13.900 -1.4133  1.2238 -1.1978
   94TCq2    H4 1445   0.638   2.624  14.110  0.4374 -1.0054 -2.1261
   95TMC2    C1 1446   0.510   4.104  17.042 -0.5381  0.0524  0.1273
   95TMC2    C2 1447   0.510   3.985  17.110  0.4842 -0.2226  0.2457
   95TMC2    C3 1448   0.544   3.989  17.238 -0.0208 -1.0797  0.8610
   95TMC2    C4 1449   0.541   4.221  17.102  0.3931  0.1127 -1.1402
   95TMC2    C5 1450   0.575   4.219  17.235 -0.5332 -0.3995 -0.7642
   95TMC2    C6 1451   0.581   4.100  17.302  0.1410  0.3130 -0.3221
   95TMC2     C 1452   0.557   4.097  16.902  0.8072 -0.0823 -0.8117
   95TMC2     O 1453   0.615   4.200  16.865  0.5659 -0.3678 -0.0151
   95TMC2     H 1454   0.499   3.889  17.062 -0.2646  0.3522 -0.7268
   95TMC2    H1 1455   0.519   4.316  17.055 -0.1850  0.9014  0.7036
   95TMC2    H2 1456   0.606   4.093  17.407 -0.6476 -1.4007 -0.2334
   95TMC2    C7 1457   0.615   4.341  17.305 -0.6786 -0.7117 -0.4995
   95TMC2    C8 1458   0.531   3.868  17.315 -0.3922 -0.2337  0.7480
   95TMC2    O1 1459   0.636   4.331  17.423 -0.4551  0.5086  0.8574
   95TMC2    O2 1460   0.496   3.854  17.428 -0.0382  0.3655  0.0899
   95TMC2    O5 1461   0.590   3.769  17.243  0.3370 -0.2867  0.3311
   95TMC2    H5 1462   0.650   3.798  17.172  0.6300 -0.9352  0.3169
   96MPD2     C 1463   0.570   3.901  16.427 -0.9933  0.0870  0.0750
   96MPD2    C1 1464   0.598   4.029  16.469  0.1997  0.3107  0.3467
   96MPD2    C2 1465   0.583   4.062  16.602 -0.3502  0.4618 -0.2125
   96MPD2    C3 1466   0.524   3.969  16.687  0.7641  0.0023  0.6974
   96MPD2    C4 1467   0.489   3.843  16.644  0.3348  0.3590 -0.2340
   96MPD2    C5 1468   0.517   3.808  16.517 -1.0023  0.5803  0.1894
   96MPD2     H 1469   0.610   4.160  16.641  2.5062 -0.0258 -1.0052
   96MPD2    H1 1470   0.440   3.774  16.711 -2.4548  1.1850 -1.4425
   96MPD2    H2 1471   0.583   3.878  16.322 -0.9845  0.3521  0.0178
   96MPD2    H3 1472   0.491   3.707  16.486  0.7280  0.3301 -0.4336
   96MPD2     N 1473   0.516   3.989  16.830 -0.4344  0.2976 -0.5867
   96MPD2    H5 1474   0.464   3.921  16.885 -0.0053 -1.3439 -2.2103
   96MPD2    N1 1475   0.653   4.125  16.377  0.0440 -0.0612  0.0193
   96MPD2    H7 1476   0.639   4.098  16.280 -0.7604  1.0623 -0.1774
   97MPD2     C 1477   3.190   1.532   0.556 -0.1705  0.6696  0.2280
   97MPD2    C1 1478   3.095   1.620   0.602  0.1604 -0.2839  0.7319
   97MPD2    C2 1479   3.017   1.678   0.506 -0.3836  0.0995 -0.0403
   97MPD2    C3 1480   3.040   1.657   0.366  0.0789  0.2052 -0.0220
   97MPD2    C4 1481   3.127   1.558   0.327 -0.2209 -0.4369 -0.0176
   97MPD2    C5 1482   3.205   1.495   0.424 -0.3657 -0.3254 -0.6120
   97MPD2     H 1483   2.956   1.759   0.542  1.9423  1.8353 -0.0026
   97MPD2    H1 1484   3.131   1.529   0.223 -2.2762  2.5463 -0.9118
   97MPD2    H2 1485   3.250   1.493   0.637  1.2011  0.6829 -0.7751
   97MPD2    H3 1486   3.278   1.422   0.392 -1.8264 -2.4356  0.9294
   97MPD2     N 1487   2.971   1.723   0.260 -0.5094  0.8630  0.4659
   97MPD2    H5 1488   2.973   1.681   0.167 -2.9451  2.1805 -0.1690
   97MPD2    N1 1489   3.090   1.654   0.738 -0.4525  0.2505 -0.6627
   97MPD2    H7 1490   3.172   1.641   0.797  1.6194  1.9033 -3.1547
   98TCq2    C1 1491   2.913   1.848   0.268  0.2795 -0.2149 -0.0541
   98TCq2    O2 1492   2.886   1.915   0.369  0.4556  0.1228 -0.0182
   98TCq2    C2 1493   2.855   1.897   0.137  0.1416 -0.0086  0.7109
   98TCq2    C3 1494   2.819   1.810   0.037 -0.8782  0.0898  0.9222
   98TCq2    C4 1495   2.765   1.869  17.620  0.1554  0.4557 -0.6012
   98TCq2    C5 1496   2.747   2.005  17.613  0.3952 -0.0444 -0.1392
   98TCq2    C6 1497   2.785   2.084   0.020  0.6274  0.1007  1.3280
   98TCq2    C7 1498   2.829   2.030   0.138 -0.7935  0.2959  0.6763
   98TCq2    C8 1499   2.769   2.233   0.002 -0.0689 -0.0479  0.1640
   98TCq2    O4 1500   2.702   2.269  17.602  0.3638  0.2737 -0.5087
   98TCq2    C9 1501   2.748   1.786  17.504  0.4396  0.5025  0.8335
   98TCq2    O5 1502   2.720   1.667  17.528  0.6780  0.6719 -0.0123
   98TCq2    O6 1503   2.731   1.850  17.397 -0.2244  0.2038  0.0233
   98TCq2    H2 1504   2.832   1.702   0.040 -0.2726  0.1804  1.7136
   98TCq2    H3 1505   2.712   2.058  17.525 -0.1079  1.3479  0.9014
   98TCq2    H4 1506   2.862   2.099   0.215  0.5395  0.9021 -0.4300
   99MPD2     C 1507   2.515   3.909   1.345 -0.1964 -0.2056 -0.4108
   99MPD2    C1 1508   2.385   3.970   1.362 -0.8935  0.0129 -0.4647
   99MPD2    C2 1509   2.278   3.919   1.294  0.1781 -0.1309 -0.0561
   99MPD2    C3 1510   2.282   3.788   1.234  0.0584 -0.4178 -0.1356
   99MPD2    C4 1511   2.408   3.725   1.228  0.0355  0.6773 -0.8601
   99MPD2    C5 1512   2.521   3.786   1.276 -0.3025  0.0882 -0.5309
   99MPD2     H 1513   2.186   3.976   1.295 -2.3411 -4.2003 -0.0021
   99MPD2    H1 1514   2.412   3.631   1.175  0.8551  0.8559 -1.1189
   99MPD2    H2 1515   2.601   3.951   1.395 -0.8466 -0.1168  0.6465
   99MPD2    H3 1516   2.623   3.753   1.255 -0.6616 -0.8300 -0.8527
   99MPD2     N 1517   2.165   3.740   1.177  0.3907 -0.3770  0.5974
   99MPD2    H5 1518   2.083   3.797   1.198  1.2332  0.2927  2.0912
   99MPD2    N1 1519   2.366   4.091   1.434 -0.3263  0.0029 -0.4507
   99MPD2    H7 1520   2.278   4.136   1.411 -0.0939  0.2000 -0.9544
  100TCq2    C1 1521   2.447   4.146   1.529 -0.1430 -0.4100  0.6161
  100TCq2    O2 1522   2.551   4.097   1.574 -0.3660  0.4223  0.6363
  100TCq2    C2 1523   2.396   4.270   1.586  0.5797  0.0310  0.6182
  100TCq2    C3 1524   2.453   4.316   1.699 -0.2933 -0.2616 -0.1855
  100TCq2    C4 1525   2.405   4.425   1.757  0.2736  0.2697 -0.4093
  100TCq2    C5 1526   2.292   4.495   1.709  1.0517  0.1944 -0.0783
  100TCq2    C6 1527   2.230   4.445   1.596 -0.9973  1.0408  0.0174
  100TCq2    C7 1528   2.280   4.331   1.534 -0.6380 -0.4886  0.2059
  100TCq2    C8 1529   2.097   4.494   1.559 -0.5495  0.2871  0.7162
  100TCq2    O4 1530   2.075   4.605   1.598  0.6854  0.5096 -0.0802
  100TCq2    C9 1531   2.450   4.467   1.882  0.8192 -0.0413  0.7891
  100TCq2    O5 1532   2.528   4.389   1.940 -0.0495  0.0354 -0.5657
  100TCq2    O6 1533   2.387   4.562   1.936  0.2503 -0.2603 -0.2219
  100TCq2    H2 1534   2.546   4.271   1.733 -0.9844 -1.1908  0.5016
  100TCq2    H3 1535   2.254   4.582   1.761 -0.0538 -0.4613  0.1978
  100TCq2    H4 1536   2.233   4.293   1.445  1.2261  2.0711 -1.8658
  101MPD2     C 1537   2.201   0.169  13.124  0.7712  0.2397  0.5008
  101MPD2    C1 1538   2.109   0.214  13.208  0.1652 -0.3745 -0.6481
  101MPD2    C2 1539   2.029   0.121  13.279 -0.1171  0.3595  0.4778
  101MPD2    C3 1540   2.046   4.709  13.259 -0.0070  0.8694  0.4755
  101MPD2    C4 1541   2.137   4.669  13.162 -0.2100  0.0153 -0.0512
  101MPD2    C5 1542   2.216   0.040  13.100  0.4757  0.0077 -0.4036
  101MPD2     H 1543   1.946   0.152  13.341 -2.2094 -0.2554 -2.0247
  101MPD2    H1 1544   2.159   4.568  13.130  1.0062 -0.0567  0.9948
  101MPD2    H2 1545   2.273   0.233  13.075  0.2423 -0.7722 -1.6026
  101MPD2    H3 1546   2.291   0.017  13.026 -1.1499 -0.3235 -1.9432
  101MPD2     N 1547   1.966   4.629  13.344  0.1190  0.5450 -0.4302
  101MPD2    H5 1548   1.894   4.673  13.399  1.2262  0.2542  1.2431
  101MPD2    N1 1549   2.106   0.361  13.214 -0.0373  0.3062  0.3297
  101MPD2    H7 1550   2.168   0.421  13.160  1.3457 -1.1697  0.2817
  102TCq2    C1 1551   2.246   0.792  13.092  0.0982 -0.1690  0.0431
  102TCq2    O2 1552   2.242   0.870  12.998 -0.0612  0.1904 -0.5574
  102TCq2    C2 1553   2.124   0.729  13.140  0.6904  1.0659 -0.9615
  102TCq2    C3 1554   2.013   0.754  13.062  0.1088  0.5046  0.3203
  102TCq2    C4 1555   1.894   0.699  13.097  0.4746  0.2146 -0.0672
  102TCq2    C5 1556   1.891   0.602  13.194  0.8005 -0.0378 -0.2103
  102TCq2    C6 1557   2.007   0.565  13.252  0.3173 -0.0017 -0.2537
  102TCq2    C7 1558   2.128   0.622  13.227  0.7253 -0.2139  0.6068
  102TCq2    C8 1559   2.013   0.428  13.287 -0.2152  0.0613 -0.4656
  102TCq2    O4 1560   1.930   0.390  13.369 -0.3267  0.5292 -0.7379
  102TCq2    C9 1561   1.782   0.722  13.002 -0.1660  0.5719  0.0401
  102TCq2    O5 1562   1.688   0.640  13.000 -0.2262  0.5089 -0.5045
  102TCq2    O6 1563   1.785   0.829  12.933  0.3878 -0.9549  0.2162
  102TCq2    H2 1564   2.021   0.828  12.984 -1.7103  1.0666  0.6765
  102TCq2    H3 1565   1.799   0.554  13.227 -0.3150  1.0454 -1.7424
  102TCq2    H4 1566   2.222   0.585  13.266  0.7885 -3.0158 -2.1391
  103TMC2    C1 1567   0.914   0.018  12.727 -1.1274  0.5569  0.2939
  103TMC2    C2 1568   1.051   0.027  12.720  0.6957  0.1270  0.0619
  103TMC2    C3 1569   1.116   0.095  12.821 -0.4809 -0.7057  0.1608
  103TMC2    C4 1570   0.845   0.094  12.822 -0.3519  0.6721  0.5041
  103TMC2    C5 1571   0.922   0.159  12.918 -0.5321  0.2906  0.0506
  103TMC2    C6 1572   1.064   0.156  12.928 -0.2448  0.3576  0.2388
  103TMC2     C 1573   0.838   4.713  12.609  0.1499  0.3235  0.1026
  103TMC2     O 1574   0.719   0.000  12.623 -0.2131  0.7134  0.1105
  103TMC2     H 1575   1.103   4.703  12.639  0.3483  0.5471 -0.4105
  103TMC2    H1 1576   0.738   0.108  12.821 -0.3949  0.3679  2.2578
  103TMC2    H2 1577   1.123   0.209  13.002  0.5684  0.5995 -0.5837
  103TMC2    C7 1578   0.848   0.246  13.004 -0.2997  0.7469 -0.1098
  103TMC2    C8 1579   1.264   0.097  12.803 -0.1500 -0.1090 -0.0027
  103TMC2    O1 1580   0.730   0.213  13.031  0.3314 -0.2664 -0.2074
  103TMC2    O2 1581   1.326   0.015  12.738  0.0286 -0.0288 -0.0860
  103TMC2    O5 1582   1.327   0.208  12.843 -0.3049  0.5672  0.0915
  103TMC2    H5 1583   1.273   0.270  12.897  0.0778  1.4054 -0.4850
  104MPD2     C 1584   0.944   4.703  12.267  0.4044 -0.5234 -0.2384
  104MPD2    C1 1585   0.861   0.016  12.369 -0.7845  0.5088  0.1909
  104MPD2    C2 1586   0.743   0.081  12.352 -0.0198  0.2149 -0.0946
  104MPD2    C3 1587   0.705   0.111  12.221 -0.1760 -0.0779  0.5518
  104MPD2    C4 1588   0.796   0.089  12.117 -0.0950  0.5671  0.1142
  104MPD2    C5 1589   0.908   0.016  12.142 -0.0222  0.1189  0.1291
  104MPD2     H 1590   0.680   0.107  12.436  0.5578  0.0354  0.3996
  104MPD2    H1 1591   0.767   0.107  12.014  2.1574 -2.9331 -1.1195
  104MPD2    H2 1592   1.045   4.663  12.275  0.0854 -1.1903  0.5194
  104MPD2    H3 1593   0.972   4.717  12.058 -0.5790  0.5796 -0.4226
  104MPD2     N 1594   0.567   0.154  12.193 -0.2070 -0.1214 -0.2134
  104MPD2    H5 1595   0.508   0.155  12.276 -0.5351  1.2817 -0.4695
  104MPD2    N1 1596   0.915   4.701  12.496 -0.0185 -0.7588  0.0540
  104MPD2    H7 1597   1.010   4.665  12.500  0.4948  0.7029  0.6708
  105MPD2     C 1598   1.561   4.128   0.030 -0.4216 -0.0903  0.5614
  105MPD2    C1 1599   1.652   4.227   0.013 -0.0740 -0.5819  0.3725
  105MPD2    C2 1600   1.713   4.281   0.123 -0.4039 -0.0376 -0.7365
  105MPD2    C3 1601   1.691   4.230   0.251  0.1011 -0.1270 -0.0365
  105MPD2    C4 1602   1.592   4.131   0.267  0.6281  0.0150  0.1505
  105MPD2    C5 1603   1.537   4.077   0.156  0.5339  0.7449 -1.0018
  105MPD2     H 1604   1.797   4.348   0.107  0.0886 -0.8121 -1.3779
  105MPD2    H1 1605   1.560   4.083   0.358 -1.7334 -0.2833 -0.8470
  105MPD2    H2 1606   1.490   4.086  17.657 -0.1698  1.1672 -0.4249
  105MPD2    H3 1607   1.456   4.007   0.167 -0.4439  1.8930 -0.8810
  105MPD2     N 1608   1.758   4.287   0.362  0.0272 -0.6903  0.2634
  105MPD2    H5 1609   1.839   4.345   0.338  0.0394 -0.2558  1.3661
  105MPD2    N1 1610   1.684   4.274  17.580  0.0561 -0.0734 -0.0573
  105MPD2    H7 1611   1.752   4.347  17.567  0.5068 -0.4738  0.0653
  106TCq2    C1 1612   1.733   4.259   0.497  0.0197 -0.2280  0.4824
  106TCq2    O2 1613   1.662   4.168   0.542 -0.2995 -0.0182  0.4776
  106TCq2    C2 1614   1.812   4.336   0.584 -0.1382 -0.1345  0.0312
  106TCq2    C3 1615   1.817   4.289   0.710 -0.7076  0.2877  0.0752
  106TCq2    C4 1616   1.837   4.366   0.813  0.7319  0.3436 -0.3036
  106TCq2    C5 1617   1.826   4.506   0.807 -0.2316  0.0719  0.1769
  106TCq2    C6 1618   1.816   4.549   0.680 -0.0555 -0.9887  0.4317
  106TCq2    C7 1619   1.813   4.470   0.567 -0.0084 -0.0574 -0.2110
  106TCq2    C8 1620   1.814   4.692   0.659 -0.3010 -0.5591 -0.1515
  106TCq2    O4 1621   1.831   0.009   0.547  0.0391 -0.0580  0.2192
  106TCq2    C9 1622   1.845   4.298   0.945  0.0645 -0.1577  0.8543
  106TCq2    O5 1623   1.900   4.363   1.037  0.1676 -0.7594  0.3749
  106TCq2    O6 1624   1.814   4.174   0.944  0.3479  0.7418 -0.0007
  106TCq2    H2 1625   1.831   4.183   0.724 -2.2619  0.2556  1.3937
  106TCq2    H3 1626   1.832   4.565   0.898 -0.5526  0.6728 -0.1941
  106TCq2    H4 1627   1.773   4.510   0.474  2.5244  0.6300 -0.9937
  107TMC2    C1 1628   2.693   3.591  11.678  0.0604  0.0707  1.0728
  107TMC2    C2 1629   2.597   3.627  11.586 -0.5173 -0.4566  0.8780
  107TMC2    C3 1630   2.618   3.572  11.464 -0.2425  0.1951 -0.5286
  107TMC2    C4 1631   2.798   3.504  11.654  0.3178  0.3465  0.4340
  107TMC2    C5 1632   2.802   3.438  11.539 -0.1261  0.8717 -0.0185
  107TMC2    C6 1633   2.717   3.484  11.440 -0.5128  0.3830 -0.0875
  107TMC2     C 1634   2.660   3.613  11.818 -0.3938 -0.4274 -0.8157
  107TMC2     O 1635   2.552   3.657  11.847 -0.3032 -0.1111  0.1891
  107TMC2     H 1636   2.515   3.697  11.599 -0.9086 -0.9828  1.2419
  107TMC2    H1 1637   2.867   3.468  11.731  2.1462  2.1091 -0.3955
  107TMC2    H2 1638   2.715   3.434  11.344  0.8026  0.3135 -0.0765
  107TMC2    C7 1639   2.890   3.327  11.530  0.4692  0.7947 -0.3199
  107TMC2    C8 1640   2.538   3.623  11.352  0.5823 -0.1958  0.8284
  107TMC2    O1 1641   2.962   3.295  11.628 -0.1146  0.5512  0.3181
  107TMC2    O2 1642   2.433   3.677  11.373 -0.5243  0.4515  0.4714
  107TMC2    O5 1643   2.618   3.657  11.254  0.2629  0.1483  0.1306
  107TMC2    H5 1644   2.701   3.605  11.246  1.0961  1.1943  1.8802
  108MPD2     C 1645   2.908   3.690  12.090  0.3549 -0.5091 -0.0263
  108MPD2    C1 1646   2.783   3.653  12.032  0.7093  0.4412  0.6638
  108MPD2    C2 1647   2.673   3.635  12.113  0.3276 -0.0580  0.0348
  108MPD2    C3 1648   2.684   3.631  12.249  0.3745 -0.2509  0.3663
  108MPD2    C4 1649   2.810   3.677  12.300 -1.0256 -0.4420 -0.0702
  108MPD2    C5 1650   2.915   3.724  12.220 -0.6050  0.4990  0.1825
  108MPD2     H 1651   2.580   3.606  12.067  0.2657  0.4806 -0.1822
  108MPD2    H1 1652   2.819   3.685  12.407  1.5756 -1.1448 -0.2309
  108MPD2    H2 1653   2.996   3.703  12.027 -1.1289 -1.7161 -2.3700
  108MPD2    H3 1654   3.004   3.764  12.267  1.3766 -1.5241 -1.8378
  108MPD2     N 1655   2.582   3.606  12.345  0.9392  0.8339  0.2280
  108MPD2    H5 1656   2.600   3.638  12.440  1.4083 -0.9299  0.7339
  108MPD2    N1 1657   2.776   3.627  11.892 -0.2887 -0.7656 -0.2766
  108MPD2    H7 1658   2.858   3.625  11.834 -1.3493  1.0117 -1.8457
  109MPD2     C 1659   4.180   1.110   1.773 -0.1515 -0.1019 -0.2131
  109MPD2    C1 1660   4.069   1.179   1.817 -0.1712  1.0727  0.0653
  109MPD2    C2 1661   4.034   1.303   1.750  0.1267 -0.2905  0.1070
  109MPD2    C3 1662   4.122   1.356   1.662  0.3007 -0.0387 -0.2278
  109MPD2    C4 1663   4.232   1.282   1.623  0.2711  0.1060 -0.1115
  109MPD2    C5 1664   4.260   1.163   1.679 -0.6644 -0.0515 -0.0051
  109MPD2     H 1665   3.952   1.362   1.789 -0.0280 -0.3894 -0.0695
  109MPD2    H1 1666   4.298   1.304   1.540 -1.6351 -0.4714 -1.7849
  109MPD2    H2 1667   4.200   1.009   1.808 -0.2758  0.4263  1.3853
  109MPD2    H3 1668   4.349   1.104   1.657 -2.4048 -2.7590  0.2476
  109MPD2     N 1669   4.087   1.481   1.611 -0.1570 -0.1563 -0.0209
  109MPD2    H5 1670   4.004   1.516   1.658  0.3256 -2.6319  2.7010
  109MPD2    N1 1671   3.987   1.124   1.913 -0.1610 -1.0291  0.2961
  109MPD2    H7 1672   4.026   1.040   1.954 -1.9639 -1.3027  1.4614
  110TCq2    C1 1673   4.157   1.557   1.529  0.2884  0.4828  0.0728
  110TCq2    O2 1674   4.269   1.544   1.487  0.7096  0.0357 -0.4422
  110TCq2    C2 1675   4.082   1.666   1.463  0.1987 -0.2715  0.2655
  110TCq2    C3 1676   4.150   1.774   1.411  0.1149  0.2159 -0.5911
  110TCq2    C4 1677   4.081   1.871   1.346  0.9056 -0.0065 -0.0736
  110TCq2    C5 1678   3.945   1.874   1.346 -0.5022 -0.2531  0.0800
  110TCq2    C6 1679   3.885   1.769   1.415  0.2064  0.7926 -0.1329
  110TCq2    C7 1680   3.948   1.663   1.463 -0.1881 -0.2353  0.0913
  110TCq2    C8 1681   3.743   1.768   1.409  0.4118 -0.4367 -0.5313
  110TCq2    O4 1682   3.687   1.846   1.332  0.6386  0.0006  0.0362
  110TCq2    C9 1683   4.142   1.956   1.243 -0.0802 -0.2793  0.0282
  110TCq2    O5 1684   4.268   1.962   1.230 -0.0949 -0.5178 -0.0538
  110TCq2    O6 1685   4.065   2.029   1.180  0.0394 -0.1774 -0.6459
  110TCq2    H2 1686   4.259   1.775   1.405  0.0972 -1.5564 -1.1301
  110TCq2    H3 1687   3.887   1.959   1.312  0.6699  0.3537 -0.3872
  110TCq2    H4 1688   3.889   1.580   1.499  2.5321 -1.4817  1.6275
  111TMC2    C1 1689   2.032   1.381  11.912 -1.0273  0.1184  0.1242
  111TMC2    C2 1690   1.934   1.414  12.008  0.1083 -0.0572  0.1274
  111TMC2    C3 1691   1.925   1.346  12.125 -0.5822  1.1756  0.0893
  111TMC2    C4 1692   2.109   1.273  11.923  0.3647 -0.1881  0.2180
  111TMC2    C5 1693   2.106   1.214  12.051  0.4314  1.1224  0.5201
  111TMC2    C6 1694   2.015   1.253  12.152 -0.5413 -0.0960  0.3067
  111TMC2     C 1695   2.052   1.469  11.795 -0.3103  0.2481  0.2127
  111TMC2     O 1696   2.101   1.418  11.694  0.0081  0.3061  0.2095
  111TMC2     H 1697   1.864   1.497  11.998  0.8242  0.7365  1.6281
  111TMC2    H1 1698   2.191   1.254  11.854  0.0847  0.2479 -0.2341
  111TMC2    H2 1699   2.017   1.206  12.249 -2.5610 -0.1452  0.3321
  111TMC2    C7 1700   2.224   1.143  12.091  0.3854 -1.0767 -0.1080
  111TMC2    C8 1701   1.843   1.399  12.227  0.1451  0.5789  0.6997
  111TMC2    O1 1702   2.232   1.133  12.215 -0.0236  1.0255  0.1806
  111TMC2    O2 1703   1.827   1.519  12.235 -0.0075 -0.3898  0.0097
  111TMC2    O5 1704   1.837   1.316  12.339  0.4769 -0.5732 -0.1648
  111TMC2    H5 1705   1.851   1.220  12.321  0.9282 -1.2390  3.8476
  112MPD2     C 1706   2.087   1.955  11.607 -0.4667  0.4735 -0.4863
  112MPD2    C1 1707   2.140   1.837  11.557  0.0040  0.0801 -0.4818
  112MPD2    C2 1708   2.120   1.716  11.630  0.4602 -0.1552  0.2963
  112MPD2    C3 1709   2.040   1.711  11.743 -0.6823 -0.0810  0.2208
  112MPD2    C4 1710   1.984   1.830  11.783  0.2123  0.1236  0.3962
  112MPD2    C5 1711   2.010   1.947  11.714  0.5860  0.3668 -0.4351
  112MPD2     H 1712   2.164   1.620  11.606 -3.1359 -1.4384 -1.2245
  112MPD2    H1 1713   1.931   1.828  11.878 -2.1632 -0.0937 -0.9205
  112MPD2    H2 1714   2.101   2.052  11.559 -3.2043  1.0558 -0.1015
  112MPD2    H3 1715   1.959   2.040  11.737  0.1571 -0.6890  3.0097
  112MPD2     N 1716   2.018   1.601  11.821  0.1815  0.0419  0.4039
  112MPD2    H5 1717   1.968   1.614  11.908 -0.9990 -0.3248 -0.2150
  112MPD2    N1 1718   2.213   1.823  11.436  0.6092 -0.3102  0.8818
  112MPD2    H7 1719   2.238   1.729  11.406  0.3227  0.1993 -0.9983
  113MPD2     C 1720   1.228   4.343   1.186  0.4799 -0.3659 -0.0692
  113MPD2    C1 1721   1.112   4.399   1.234  0.1122 -0.3297 -1.1173
  113MPD2    C2 1722   0.987   4.340   1.198  0.2382 -0.3445  0.2321
  113MPD2    C3 1723   0.974   4.242   1.110 -0.6467  0.9207  0.8097
  113MPD2    C4 1724   1.091   4.182   1.069 -0.5276  0.3631 -0.0760
  113MPD2    C5 1725   1.214   4.229   1.105  0.1353 -0.0853  0.2881
  113MPD2     H 1726   0.895   4.388   1.230  1.3946  0.2860  2.6064
  113MPD2    H1 1727   1.082   4.092   1.009  0.1504  0.3430 -0.1424
  113MPD2    H2 1728   1.328   4.377   1.210  0.9222 -0.5068 -1.6683
  113MPD2    H3 1729   1.304   4.178   1.073 -1.3265 -2.4970  0.0143
  113MPD2     N 1730   0.849   4.191   1.074  0.2519  0.3404  0.0096
  113MPD2    H5 1731   0.849   4.101   1.026 -0.4209  0.4120 -0.1173
  113MPD2    N1 1732   1.106   4.508   1.322 -0.3207 -0.6052  0.2380
  113MPD2    H7 1733   1.012   4.532   1.353 -0.2642  1.1399 -0.9513
  114TCq2    C1 1734   0.725   4.242   1.105 -0.2050  0.2333  0.1593
  114TCq2    O2 1735   0.688   4.353   1.154 -0.1964 -0.1503  0.7209
  114TCq2    C2 1736   0.617   4.140   1.086 -0.2558  0.0724  0.2858
  114TCq2    C3 1737   0.494   4.199   1.088 -0.3699 -0.0595  0.1925
  114TCq2    C4 1738   0.388   4.130   1.125  0.0476  0.2426 -0.0697
  114TCq2    C5 1739   0.398   3.999   1.155 -0.1539 -0.0171 -0.0803
  114TCq2    C6 1740   0.522   3.938   1.157  0.2978 -0.2832  0.2915
  114TCq2    C7 1741   0.635   4.006   1.113  0.1898  0.3709 -0.2962
  114TCq2    C8 1742   0.528   3.797   1.150  0.2416  0.7096 -0.3963
  114TCq2    O4 1743   0.632   3.758   1.204  0.1888 -0.2934 -0.2762
  114TCq2    C9 1744   0.254   4.177   1.105  0.3409  0.0526  0.1141
  114TCq2    O5 1745   0.230   4.304   1.118 -0.5073  0.4678  0.3355
  114TCq2    O6 1746   0.162   4.093   1.083  0.5383 -0.1572  0.2151
  114TCq2    H2 1747   0.479   4.304   1.066 -2.5894 -0.5818 -0.8025
  114TCq2    H3 1748   0.308   3.957   1.197 -0.4962  0.4997 -0.2898
  114TCq2    H4 1749   0.736   3.967   1.121  0.7253  1.8064  0.0878
  115TMC2    C1 1750   1.385   1.716   0.264  0.3135  0.0331 -0.4095
  115TMC2    C2 1751   1.523   1.720   0.293 -0.0414 -0.3173  0.3088
  115TMC2    C3 1752   1.577   1.838   0.270 -0.0905 -0.3482 -0.0047
  115TMC2    C4 1753   1.318   1.816   0.196 -0.5280  0.3395 -0.1199
  115TMC2    C5 1754   1.386   1.931   0.174 -0.7747 -0.0402 -0.2889
  115TMC2    C6 1755   1.512   1.946   0.225  0.0715 -0.4057 -0.4754
  115TMC2     C 1756   1.314   1.589   0.282 -0.4268 -0.0639  0.1645
  115TMC2     O 1757   1.219   1.574   0.207 -0.5305  0.1680 -0.2658
  115TMC2     H 1758   1.580   1.628   0.301  0.2174 -0.3827 -2.5437
  115TMC2    H1 1759   1.219   1.796   0.159 -0.7124 -0.5478  0.8537
  115TMC2    H2 1760   1.575   2.033   0.206 -0.1610 -0.1693 -0.1772
  115TMC2    C7 1761   1.328   2.032   0.092  0.2222 -0.1400  0.9172
  115TMC2    C8 1762   1.717   1.861   0.298 -0.2003 -0.4026  0.4747
  115TMC2    O1 1763   1.208   2.054   0.098  0.0504  0.4347  0.4080
  115TMC2    O2 1764   1.789   1.953   0.263 -0.3139 -0.0180  0.4311
  115TMC2    O5 1765   1.754   1.770   0.390 -0.0329 -0.0681 -0.2415
  115TMC2    H5 1766   1.686   1.728   0.447 -0.1931 -0.2590 -0.5775
  116MPD2     C 1767   1.336   1.089   0.431  0.5595 -0.2306 -0.4239
  116MPD2    C1 1768   1.250   1.153   0.342  0.7984 -0.0845  0.3097
  116MPD2    C2 1769   1.258   1.292   0.329  0.6539  0.6477 -0.2127
  116MPD2    C3 1770   1.353   1.362   0.395  0.0714 -0.5870  0.0218
  116MPD2    C4 1771   1.428   1.304   0.491  0.2837  0.0757  0.1530
  116MPD2    C5 1772   1.422   1.172   0.509  0.9620  0.1199  0.1192
  116MPD2     H 1773   1.202   1.347   0.254  0.5381 -0.4389 -0.9288
  116MPD2    H1 1774   1.498   1.365   0.548  0.8706  0.2939 -0.7923
  116MPD2    H2 1775   1.341   0.984   0.455 -2.5034 -0.3496 -0.3381
  116MPD2    H3 1776   1.477   1.123   0.588 -1.2064 -0.7752  1.0886
  116MPD2     N 1777   1.380   1.501   0.371 -0.2296  0.4708  0.0747
  116MPD2    H5 1778   1.462   1.534   0.420  0.4607 -0.1593 -0.6643
  116MPD2    N1 1779   1.162   1.069   0.271  0.5039  0.2098 -0.5211
  116MPD2    H7 1780   1.186   0.971   0.270  2.4500  0.6605  1.3056
  117TMC2    C1 1781   4.521   2.904  14.295 -0.5251  1.1773 -0.6040
  117TMC2    C2 1782   4.565   2.920  14.417  0.6994  0.0479 -0.0358
  117TMC2    C3 1783   4.678   3.007  14.438 -0.1104 -0.3945  0.2462
  117TMC2    C4 1784   4.564   2.987  14.189 -0.3978  0.0950 -0.1650
  117TMC2    C5 1785   4.658   3.080  14.220  0.1851  0.2126 -0.8128
  117TMC2    C6 1786   4.721   3.096  14.343 -0.1299 -0.1986 -0.2667
  117TMC2     C 1787   4.377   2.863  14.293 -0.3644 -1.0523 -0.2558
  117TMC2     O 1788   4.332   2.764  14.349 -0.4067 -0.2619 -0.2673
  117TMC2     H 1789   4.521   2.865  14.499  0.4949  0.8648  0.4126
  117TMC2    H1 1790   4.523   2.981  14.089  1.2496  1.9133 -0.9363
  117TMC2    H2 1791   0.084   3.159  14.353 -0.5387  0.5285 -1.2418
  117TMC2    C7 1792   4.699   3.175  14.125 -0.4465  0.6271 -1.1922
  117TMC2    C8 1793   4.693   3.041  14.583 -0.4243 -1.0204  0.0903
  117TMC2    O1 1794   0.036   3.268  14.172  0.2917  0.9879  0.2685
  117TMC2    O2 1795   4.612   3.005  14.668  0.0679 -0.1088  0.3516
  117TMC2    O5 1796   0.090   3.111  14.602 -0.5966  0.0478  0.3283
  117TMC2    H5 1797   0.167   3.083  14.548  0.0599  2.4854 -0.0002
  118MPD2     C 1798   4.669   3.171  13.758 -0.3303  0.2219  0.1466
  118MPD2    C1 1799   4.713   3.212  13.881 -0.0431 -0.7467 -0.4116
  118MPD2    C2 1800   0.055   3.338  13.880  0.3686 -0.0727  0.1376
  118MPD2    C3 1801   0.083   3.417  13.768 -0.0502 -0.3250 -0.3370
  118MPD2    C4 1802   0.041   3.366  13.645 -0.1400 -0.1897 -0.1229
  118MPD2    C5 1803   4.695   3.248  13.648  0.1223 -0.1853 -0.3607
  118MPD2     H 1804   0.085   3.377  13.976  2.4362 -0.8179 -0.1999
  118MPD2    H1 1805   0.062   3.426  13.558 -0.5537  1.5479  0.9829
  118MPD2    H2 1806   4.614   3.078  13.745  0.3759 -0.1071 -0.5052
  118MPD2    H3 1807   4.662   3.203  13.555 -0.8430 -0.9492  0.3620
  118MPD2     N 1808   0.136   3.544  13.767  0.4452  0.1383  0.5324
  118MPD2    H5 1809   0.161   3.577  13.675  1.6187 -1.7294  0.1662
  118MPD2    N1 1810   4.677   3.136  13.995 -0.0405  0.1756 -0.4311
  118MPD2    H7 1811   4.632   3.048  13.975 -0.3058 -0.1282  1.5711
  119MPD2     C 1812   3.196   4.542  14.291  0.4246 -0.8273  0.4057
  119MPD2    C1 1813   3.061   4.515  14.291 -0.3802 -0.1363  0.1478
  119MPD2    C2 1814   3.019   4.410  14.211  1.0884  0.5124 -0.1709
  119MPD2    C3 1815   3.101   4.334  14.134 -0.5433 -0.0812 -0.3621
  119MPD2    C4 1816   3.231   4.374  14.123 -0.1711 -0.4616 -0.2211
  119MPD2    C5 1817   3.279   4.472  14.208  0.2248 -0.2318 -0.1816
  119MPD2     H 1818   2.916   4.377  14.222  1.1842  0.6743  1.2139
  119MPD2    H1 1819   3.308   4.327  14.063  0.8669 -1.7566  2.1125
  119MPD2    H2 1820   3.236   4.619  14.356 -1.1717  0.1050  0.2614
  119MPD2    H3 1821   3.381   4.508  14.197  0.1085  0.8476  2.2742
  119MPD2     N 1822   3.068   4.208  14.074 -0.1493  0.2684 -0.4086
  119MPD2    H5 1823   3.144   4.155  14.033  0.8975  0.1188  1.7265
  119MPD2    N1 1824   2.979   4.579  14.391 -0.3616  0.0634 -0.7570
  119MPD2    H7 1825   3.028   4.625  14.468  0.6599 -1.3310 -0.5662
  120TCq2    C1 1826   2.949   4.147  14.065  0.1082 -0.4297  0.0469
  120TCq2    O2 1827   2.840   4.186  14.100  0.1516  0.2830  0.5762
  120TCq2    C2 1828   2.963   4.000  14.041  0.2674 -0.3012 -0.0538
  120TCq2    C3 1829   3.061   3.962  13.953 -0.5600 -0.3380 -0.2144
  120TCq2    C4 1830   3.039   3.843  13.883 -0.4586  0.2620 -1.1158
  120TCq2    C5 1831   2.934   3.757  13.907  0.3692  0.3939  0.3044
  120TCq2    C6 1832   2.849   3.800  14.001 -0.1539  0.6593  0.1275
  120TCq2    C7 1833   2.856   3.919  14.070  0.4046 -0.1472  1.1668
  120TCq2    C8 1834   2.718   3.737  13.980  0.8220  0.1159 -0.3153
  120TCq2    O4 1835   2.704   3.680  13.876 -0.3278  0.5416 -0.3900
  120TCq2    C9 1836   3.142   3.800  13.797 -0.0926  0.2463  0.4434
  120TCq2    O5 1837   3.121   3.709  13.709  0.4980  0.5785 -0.3383
  120TCq2    O6 1838   3.247   3.866  13.797  0.3807  0.4057  0.3570
  120TCq2    H2 1839   3.144   4.028  13.929 -0.9955  0.8827  1.6579
  120TCq2    H3 1840   2.924   3.669  13.845 -2.3135  1.0114 -0.1120
  120TCq2    H4 1841   2.789   3.963  14.142  0.1223 -0.3691  1.0369
  121TMC2    C1 1842   4.403   1.743  14.451 -0.3062  1.2255 -0.0484
  121TMC2    C2 1843   4.325   1.776  14.565 -0.0401 -0.4944 -0.0743
  121TMC2    C3 1844   4.198   1.719  14.583 -0.4059 -0.2469 -0.3294
  121TMC2    C4 1845   4.353   1.651  14.364 -0.9777  0.0580 -0.1796
  121TMC2    C5 1846   4.235   1.597  14.392  0.1325 -0.3430  0.3415
  121TMC2    C6 1847   4.165   1.618  14.499  0.3264 -0.2270  0.2373
  121TMC2     C 1848   4.525   1.811  14.430 -0.5711  0.3466 -0.6680
  121TMC2     O 1849   4.562   1.880  14.525  0.8295  0.3648  0.3205
  121TMC2     H 1850   4.357   1.850  14.638  0.1252 -0.1915 -0.4583
  121TMC2    H1 1851   4.410   1.614  14.279 -0.9595 -0.4393  0.0553
  121TMC2    H2 1852   4.081   1.553  14.522 -0.4043 -0.0509 -1.9320
  121TMC2    C7 1853   4.190   1.485  14.314  0.1907  0.5764 -0.2896
  121TMC2    C8 1854   4.167   1.712  14.721 -0.4993  0.6944  0.0195
  121TMC2    O1 1855   4.277   1.411  14.279 -0.1169  0.1826  0.0988
  121TMC2    O2 1856   4.109   1.812  14.762  0.4894 -0.1721 -0.0715
  121TMC2    O5 1857   4.266   1.638  14.780  0.5152  0.4702 -0.1171
  121TMC2    H5 1858   4.266   1.546  14.747  0.2462  0.0188  1.1209
  122MPD2     C 1859   0.044   1.942  14.320  0.1063  0.2060 -0.0941
  122MPD2    C1 1860   4.684   1.871  14.243 -0.5669  0.0005  0.3369
  122MPD2    C2 1861   4.705   1.857  14.106  0.0990 -0.5047 -0.6437
  122MPD2    C3 1862   0.081   1.927  14.041 -0.0384 -0.1875  1.1133
  122MPD2    C4 1863   0.160   2.015  14.115 -0.1025 -0.3665 -0.0021
  122MPD2    C5 1864   0.150   2.003  14.251 -0.7132 -0.1466  0.8273
  122MPD2     H 1865   4.642   1.789  14.051 -0.9609 -0.6420  0.7468
  122MPD2    H1 1866   0.245   2.061  14.066 -1.6190  1.7580 -0.6608
  122MPD2    H2 1867   0.027   1.964  14.425 -0.3531  0.5941 -0.2499
  122MPD2    H3 1868   0.226   2.054  14.309 -0.9846 -1.4368  2.2978
  122MPD2     N 1869   0.100   1.921  13.906 -0.0417 -0.1782  0.1175
  122MPD2    H5 1870   0.171   1.980  13.864  0.4910  0.1411  1.4901
  122MPD2    N1 1871   4.573   1.802  14.302 -0.0025 -0.3786  0.1838
  122MPD2    H7 1872   4.509   1.758  14.235 -1.2198 -1.5664  2.1218
  123MPD2     C 1873   2.588   4.653   9.193 -0.1245  0.1183 -0.7835
  123MPD2    C1 1874   2.599   4.602   9.319  0.4289  0.5780 -0.5349
  123MPD2    C2 1875   2.711   4.633   9.391 -0.2921 -0.6183 -0.4896
  123MPD2    C3 1876   2.822   4.690   9.337  0.3257  0.4655 -0.6194
  123MPD2    C4 1877   2.815   4.724   9.201 -0.7754  0.5138 -0.1898
  123MPD2    C5 1878   2.699   4.701   9.134  0.1883  0.5812 -0.2666
  123MPD2     H 1879   2.734   4.597   9.491  2.9218 -1.2426 -1.4575
  123MPD2    H1 1880   2.904   0.026   9.144 -0.7587 -1.1534 -0.9484
  123MPD2    H2 1881   2.496   4.636   9.139 -1.3065  0.6952  1.0493
  123MPD2    H3 1882   2.696   0.005   9.029 -0.2862 -1.1293 -0.7053
  123MPD2     N 1883   2.949   4.695   9.407  0.4262  0.5079  0.3599
  123MPD2    H5 1884   2.957   4.645   9.495 -1.3276 -1.2362 -0.4511
  123MPD2    N1 1885   2.488   4.535   9.379  0.4096 -0.0894 -0.8571
  123MPD2    H7 1886   2.410   4.512   9.319 -0.5567 -2.5739  1.3431
  124TCq2    C1 1887   3.059   0.036   9.360  0.2737  0.6079  0.0919
  124TCq2    O2 1888   3.058   0.123   9.272 -0.0140 -0.0477 -0.0833
  124TCq2    C2 1889   3.179   0.008   9.440  1.0667 -0.3956 -0.2980
  124TCq2    C3 1890   3.276   0.104   9.421 -0.6797 -0.2767 -0.3438
  124TCq2    C4 1891   3.383   0.087   9.501 -0.1026 -0.1784 -0.6606
  124TCq2    C5 1892   3.397   4.701   9.589 -0.4232  0.4629  0.1525
  124TCq2    C6 1893   3.305   4.604   9.594 -0.1657 -0.4258  0.3534
  124TCq2    C7 1894   3.192   4.619   9.519  0.0199 -0.5264  0.1643
  124TCq2    C8 1895   3.314   4.510   9.707  0.1096 -0.0606 -0.4184
  124TCq2    O4 1896   3.408   4.521   9.782  0.6189  0.0590  0.2207
  124TCq2    C9 1897   3.479   0.201   9.525 -0.0274  0.3434  0.6380
  124TCq2    O5 1898   3.561   0.199   9.620  0.2296 -0.6385  0.4549
  124TCq2    O6 1899   3.502   0.280   9.426  0.0655  0.0401  0.0349
  124TCq2    H2 1900   3.251   0.189   9.359 -0.3980  0.4440  0.5352
  124TCq2    H3 1901   3.486   4.694   9.650 -0.6366 -3.5350 -0.0232
  124TCq2    H4 1902   3.104   4.566   9.553  0.2755 -0.7654  0.4555
  125TMC2    C1 1903   3.968   1.570  10.632  0.1134 -0.0656 -0.0552
  125TMC2    C2 1904   3.878   1.642  10.562  0.4263  0.3647  0.1434
  125TMC2    C3 1905   3.888   1.625  10.425  0.0848 -0.9498 -0.5410
  125TMC2    C4 1906   4.050   1.478  10.573  0.2621  0.5977  0.1209
  125TMC2    C5 1907   4.044   1.458  10.443 -0.2782  0.5389 -0.4088
  125TMC2    C6 1908   3.962   1.526  10.362 -0.1237  0.1960  0.0137
  125TMC2     C 1909   3.931   1.547  10.773  0.2877  0.2024 -0.0905
  125TMC2     O 1910   3.975   1.445  10.828  0.1865 -0.2320  0.3597
  125TMC2     H 1911   3.815   1.722  10.601 -1.1891 -0.1881 -1.3182
  125TMC2    H1 1912   4.113   1.412  10.632 -1.4837 -0.8409  0.3726
  125TMC2    H2 1913   3.946   1.511  10.255  1.7119 -0.8201 -0.1193
  125TMC2    C7 1914   4.108   1.335  10.398 -0.0181 -0.3842  0.1335
  125TMC2    C8 1915   3.823   1.722  10.340 -0.0536  0.5671 -0.2392
  125TMC2    O1 1916   4.150   1.253  10.482  0.3912 -0.3256  0.5408
  125TMC2    O2 1917   3.735   1.793  10.387 -0.0913  0.0548  0.3334
  125TMC2    O5 1918   3.904   1.759  10.240 -0.4939  0.4142 -0.6691
  125TMC2    H5 1919   3.987   1.707  10.231 -1.9321 -2.0288  0.0461
  126MPD1     C 1920   3.768   1.710  11.221  0.5483 -0.4487  0.2040
  126MPD1    C1 1921   3.782   1.818  11.137 -0.5079  0.1757  0.2868
  126MPD1    C2 1922   3.802   1.800  11.002  0.4182  0.3654  0.0809
  126MPD1    C3 1923   3.826   1.671  10.959  0.2791  0.8759 -0.1461
  126MPD1    C4 1924   3.825   1.565  11.046  0.4124 -0.1147  0.4160
  126MPD1    C5 1925   3.786   1.586  11.171 -0.3797  0.1001 -0.3051
  126MPD1     H 1926   3.808   1.885  10.935 -1.0028 -1.1274 -1.9540
  126MPD1    H1 1927   3.836   1.460  11.023  1.5861 -0.5991  3.2207
  126MPD1    H2 1928   3.746   1.723  11.326 -1.5438  3.0692 -0.6607
  126MPD1    H3 1929   3.790   1.492  11.225  1.4754 -0.6437 -1.7284
  126MPD1     N 1930   3.868   1.659  10.827 -0.3977 -0.4626  0.5207
  126MPD1    H5 1931   3.876   1.747  10.778  2.5789  0.0116  1.8532
  126MPD1    N1 1932   3.768   1.947  11.188 -0.0952  0.2049  0.6473
  126MPD1    H6 1933   3.784   1.940  11.288 -0.6945 -0.5750  0.6893
  126MPD1    H7 1934   3.842   2.006  11.150  3.1886 -1.9884  3.6371
  127MPD2     C 1935   4.433   0.029   8.958  0.1414  0.0121 -0.1530
  127MPD2    C1 1936   4.524   4.723   9.050 -1.2897  0.9954  0.7178
  127MPD2    C2 1937   4.632   0.089   9.066  0.2576  0.8706 -0.1961
  127MPD2    C3 1938   4.655   0.192   8.982  0.7934 -0.6335  0.0053
  127MPD2    C4 1939   4.561   0.226   8.887 -0.2538  0.2586  0.2971
  127MPD2    C5 1940   4.455   0.136   8.873  0.0691  0.1556 -0.4770
  127MPD2     H 1941   4.714   0.071   9.135  1.2188 -2.6008 -2.2483
  127MPD2    H1 1942   4.569   0.311   8.820  0.6832 -1.0726 -1.2825
  127MPD2    H2 1943   4.340   4.698   8.949  1.0597 -1.7343  1.0039
  127MPD2    H3 1944   4.382   0.150   8.794  0.9905 -0.8045 -1.5012
  127MPD2     N 1945   0.048   0.269   9.002 -0.0484 -0.5967  0.0862
  127MPD2    H5 1946   0.114   0.241   9.074  1.5504 -2.2674 -2.0105
  127MPD2    N1 1947   4.505   4.610   9.130 -0.0131  0.1816  0.0585
  127MPD2    H7 1948   4.422   4.555   9.109  0.3090 -0.9981  1.8164
  128TCq2    C1 1949   4.567   4.589   9.250 -0.3019  0.8725 -0.2384
  128TCq2    O2 1950   4.664   4.650   9.300  0.6247  0.8653  0.5755
  128TCq2    C2 1951   4.531   4.458   9.302 -0.0311 -0.0080  0.5356
  128TCq2    C3 1952   4.627   4.383   9.366  0.6736  0.0046  0.2859
  128TCq2    C4 1953   4.588   4.266   9.426  0.5459 -0.3443  0.3170
  128TCq2    C5 1954   4.458   4.231   9.429 -0.4537  0.0071  0.1729
  128TCq2    C6 1955   4.363   4.303   9.368  0.0931  0.2774  0.5140
  128TCq2    C7 1956   4.401   4.423   9.305  0.8683 -0.1542 -0.6581
  128TCq2    C8 1957   4.233   4.256   9.323 -0.6668  0.0044  0.0467
  128TCq2    O4 1958   4.189   4.310   9.224  0.0510  0.1384  0.1143
  128TCq2    C9 1959   4.686   4.186   9.485 -0.3957 -0.2124  0.2095
  128TCq2    O5 1960   4.639   4.086   9.552 -0.2763 -0.1294  0.2180
  128TCq2    O6 1961   0.083   4.205   9.467 -0.1730 -0.2772  0.5199
  128TCq2    H2 1962   0.007   4.412   9.371  0.8551 -0.6961  0.4938
  128TCq2    H3 1963   4.433   4.133   9.467  0.5560  0.0653  0.9791
  128TCq2    H4 1964   4.326   4.495   9.273 -2.6409 -2.0577  3.3157
  129MPD2     C 1965   3.635   1.168   1.555 -0.2319  0.8237 -0.6672
  129MPD2    C1 1966   3.757   1.103   1.541 -1.1130  0.3382  0.0543
  129MPD2    C2 1967   3.848   1.166   1.461  0.3614 -0.4582  0.2957
  129MPD2    C3 1968   3.818   1.287   1.395 -0.7923 -0.1601 -0.2816
  129MPD2    C4 1969   3.705   1.358   1.424 -0.0316  0.1789  0.0333
  129MPD2    C5 1970   3.612   1.293   1.500  0.6280 -0.2743 -0.3035
  129MPD2     H 1971   3.943   1.114   1.458 -0.4328 -1.8692 -0.3575
  129MPD2    H1 1972   3.674   1.451   1.377  0.4748 -0.2889 -1.2228
  129MPD2    H2 1973   3.551   1.128   1.609  0.4007  1.1578  0.5630
  129MPD2    H3 1974   3.518   1.344   1.521  2.0135  2.2842 -0.2797
  129MPD2     N 1975   3.920   1.340   1.307 -0.6224  0.1173  0.4022
  129MPD2    H5 1976   4.004   1.285   1.297 -2.3071 -1.8823 -2.5373
  129MPD2    N1 1977   3.796   0.973   1.589  0.0350 -0.0925  0.5326
  129MPD2    H7 1978   3.884   0.932   1.560 -0.2212  0.1546 -0.6007
  130TCq2    C1 1979   3.718   0.895   1.670  0.6494 -0.4175 -0.0103
  130TCq2    O2 1980   3.602   0.913   1.704  0.6726  0.5077 -0.1504
  130TCq2    C2 1981   3.773   0.761   1.692 -0.1113  0.1882 -0.3475
  130TCq2    C3 1982   3.904   0.751   1.712  0.2973 -0.1012  0.3613
  130TCq2    C4 1983   3.961   0.624   1.710 -0.1727  0.2441  0.2542
  130TCq2    C5 1984   3.887   0.517   1.675  0.5164 -0.5490  0.0368
  130TCq2    C6 1985   3.751   0.533   1.652 -0.8839  0.3691  0.7230
  130TCq2    C7 1986   3.697   0.660   1.659 -0.1323  0.4963 -0.3176
  130TCq2    C8 1987   3.669   0.418   1.611  0.3365  0.3063  0.0111
  130TCq2    O4 1988   3.548   0.424   1.610 -0.0428  0.3797 -0.3589
  130TCq2    C9 1989   4.102   0.602   1.732  0.3563  0.6464 -0.7801
  130TCq2    O5 1990   4.149   0.494   1.687 -0.0841 -0.1372 -0.3206
  130TCq2    O6 1991   4.167   0.693   1.788 -1.1083  0.1253  0.2841
  130TCq2    H2 1992   3.972   0.831   1.738  0.9495  0.0279 -1.7355
  130TCq2    H3 1993   3.929   0.417   1.681 -0.9605 -1.0517  1.8016
  130TCq2    H4 1994   3.589   0.664   1.648 -0.6031 -1.4918  3.8267
  131MPD2     C 1995   2.853   4.356  10.085 -0.0370  0.8506  0.9586
  131MPD2    C1 1996   2.860   4.421   9.963 -0.0372  0.0659 -0.4031
  131MPD2    C2 1997   2.758   4.400   9.874  0.4062  0.1436  0.5747
  131MPD2    C3 1998   2.648   4.334   9.924 -0.3041 -0.0042  0.1360
  131MPD2    C4 1999   2.648   4.268  10.046 -0.1554  0.4312 -0.6987
  131MPD2    C5 2000   2.753   4.274  10.121  0.7425 -0.8649 -0.4852
  131MPD2     H 2001   2.759   4.444   9.775  0.1626 -2.3338 -0.5268
  131MPD2    H1 2002   2.576   4.192  10.074  0.3142 -0.3283 -1.5366
  131MPD2    H2 2003   2.934   4.377  10.154 -1.4435 -0.5608  3.0257
  131MPD2    H3 2004   2.762   4.227  10.219 -0.4639  0.0447  0.0577
  131MPD2     N 2005   2.543   4.333   9.830  0.6846  0.3112  0.0796
  131MPD2    H5 2006   2.558   4.379   9.740  0.7758  1.8387  0.8806
  131MPD2    N1 2007   2.960   4.521   9.950 -0.8213 -0.0302  0.3081
  131MPD2    H7 2008   3.009   4.548  10.035 -0.9587  0.3273  0.2752
  132TCq2    C1 2009   3.113   0.294   9.650 -0.5552  0.0057  0.2762
  132TCq2    O2 2010   3.005   0.275   9.591  0.0423 -0.1840  0.2277
  132TCq2    C2 2011   3.144   0.182   9.749 -0.3528 -0.3693 -0.6082
  132TCq2    C3 2012   3.259   0.186   9.824 -0.1810  0.7314  0.7748
  132TCq2    C4 2013   3.281   0.088   9.922  0.7181 -0.4536 -0.1493
  132TCq2    C5 2014   3.184   4.713   9.943 -0.2260  0.0620 -0.5390
  132TCq2    C6 2015   3.072   4.715   9.862  0.1699 -0.8878 -0.0524
  132TCq2    C7 2016   3.042   0.093   9.778 -0.3055 -0.8933  0.7523
  132TCq2    C8 2017   2.999   4.591   9.834 -0.3906  0.6104  0.1125
  132TCq2    O4 2018   2.945   4.576   9.727 -0.5455 -0.1740 -0.2429
  132TCq2    C9 2019   3.398   0.094  10.004  0.6752 -0.1924  0.2118
  132TCq2    O5 2020   3.486   0.181   9.969 -0.6806 -0.0722 -0.5535
  132TCq2    O6 2021   3.402   0.020  10.104  0.3804 -0.4517  0.1935
  132TCq2    H2 2022   3.340   0.257   9.814 -1.6384  1.9929 -2.3502
  132TCq2    H3 2023   3.195   4.638  10.020  1.9550  1.7765  0.8116
  132TCq2    H4 2024   2.955   0.087   9.713 -1.2024  0.3041  1.8480
  133MPD2     C 2025   2.860   1.051   9.612 -0.3859 -0.3670  0.1166
  133MPD2    C1 2026   2.734   1.070   9.559 -0.2441  0.3600 -0.3710
  133MPD2    C2 2027   2.655   0.962   9.548  0.3823  0.4453 -0.3145
  133MPD2    C3 2028   2.700   0.831   9.567 -0.3036  0.7540  0.7880
  133MPD2    C4 2029   2.824   0.818   9.618 -0.4826 -0.4525 -0.3011
  133MPD2    C5 2030   2.902   0.924   9.640  0.3258  0.2033  0.3007
  133MPD2     H 2031   2.552   0.982   9.520  0.2340 -0.9106 -0.7537
  133MPD2    H1 2032   2.863   0.720   9.643  1.6386  0.8110  1.2412
  133MPD2    H2 2033   2.924   1.138   9.617 -0.8839  0.0407 -0.6827
  133MPD2    H3 2034   3.001   0.913   9.683  0.1336 -1.9622  0.1524
  133MPD2     N 2035   2.630   0.711   9.553  0.0888 -0.1374  0.1244
  133MPD2    H5 2036   2.678   0.625   9.582  3.2539  1.4900 -0.3005
  133MPD2    N1 2037   2.695   1.202   9.525 -0.1317 -0.4376 -0.0924
  133MPD2    H7 2038   2.758   1.279   9.544 -0.1344 -1.2991  3.4151
  134TCq2    C1 2039   2.588   1.240   9.443  0.1313  1.0962  0.3793
  134TCq2    O2 2040   2.513   1.164   9.383  0.4604  0.0663  0.6134
  134TCq2    C2 2041   2.573   1.380   9.428 -0.0305 -0.2000 -0.7743
  134TCq2    C3 2042   2.468   1.429   9.356 -0.5562 -0.3679  0.4267
  134TCq2    C4 2043   2.448   1.562   9.350  0.4918  0.2694 -0.0468
  134TCq2    C5 2044   2.520   1.644   9.428  0.6872  0.3278  0.1205
  134TCq2    C6 2045   2.625   1.591   9.504  0.3499  0.0294 -0.2000
  134TCq2    C7 2046   2.654   1.461   9.501  0.6104  0.4822 -0.3465
  134TCq2    C8 2047   2.729   1.689   9.534 -0.0101 -0.5688  0.4458
  134TCq2    O4 2048   2.698   1.800   9.573  0.1533  0.2223  0.3723
  134TCq2    C9 2049   2.345   1.608   9.266 -0.1316 -0.4782 -0.5729
  134TCq2    O5 2050   2.278   1.521   9.208  0.3303 -0.0049 -0.1121
  134TCq2    O6 2051   2.341   1.729   9.254  0.2366  0.0158 -0.4761
  134TCq2    H2 2052   2.419   1.356   9.292  0.4695 -0.3822 -0.3368
  134TCq2    H3 2053   2.503   1.751   9.420  0.1036 -0.0647 -3.8340
  134TCq2    H4 2054   2.743   1.428   9.552 -0.8339  0.2429  2.0449
  135MPD2     C 2055   4.693   1.705   9.475  0.4697 -0.3687  0.2975
  135MPD2    C1 2056   0.020   1.634   9.573 -0.3115  0.3952  0.0669
  135MPD2    C2 2057   0.125   1.546   9.552 -0.8606 -0.5591  0.1786
  135MPD2    C3 2058   0.173   1.520   9.429  0.0415 -0.8304 -0.2444
  135MPD2    C4 2059   0.107   1.581   9.324 -0.2359  0.1178 -0.0943
  135MPD2    C5 2060   0.006   1.669   9.353 -0.4556 -1.1037  0.8215
  135MPD2     H 2061   0.173   1.498   9.637  1.4547  0.6040 -0.4782
  135MPD2    H1 2062   0.129   1.555   9.221 -0.3695 -2.7616  0.6160
  135MPD2    H2 2063   4.604   1.766   9.484  0.8508  0.3070 -0.5156
  135MPD2    H3 2064   4.676   1.725   9.276 -1.0002 -0.3658  1.7414
  135MPD2     N 2065   0.271   1.415   9.414 -0.1527 -0.3004 -0.3362
  135MPD2    H5 2066   0.322   1.380   9.495  0.5330 -0.1743 -0.7104
  135MPD2    N1 2067   4.689   1.639   9.704  0.0067 -0.8666  0.2936
  135MPD2    H7 2068   4.721   1.574   9.774 -2.1751 -3.5436 -1.1931
  136TCq2    C1 2069   4.578   1.709   9.754 -0.3715  0.7042 -0.3342
  136TCq2    O2 2070   4.504   1.789   9.697 -0.3775  0.1488  0.6790
  136TCq2    C2 2071   4.526   1.671   9.885 -1.0002  0.2968  0.1513
  136TCq2    C3 2072   4.388   1.693   9.912  0.5709 -0.0013 -0.0153
  136TCq2    C4 2073   4.336   1.651  10.026  0.6866  1.1318 -0.1267
  136TCq2    C5 2074   4.410   1.584  10.121 -0.1609  0.3163 -0.3404
  136TCq2    C6 2075   4.539   1.554  10.089  0.4397 -0.5540 -0.1630
  136TCq2    C7 2076   4.598   1.605   9.975  0.1424 -0.1802  0.4196
  136TCq2    C8 2077   4.601   1.441  10.155  0.6685  0.2887 -0.2100
  136TCq2    O4 2078   4.715   1.418  10.110  0.2167  0.2216 -0.0982
  136TCq2    C9 2079   4.189   1.673  10.054  0.3265 -0.0071  0.1420
  136TCq2    O5 2080   4.148   1.638  10.170 -0.2094  0.0477  0.4977
  136TCq2    O6 2081   4.116   1.729   9.968  0.2016 -0.1122 -0.4349
  136TCq2    H2 2082   4.320   1.725   9.834  3.4860  0.5056 -2.3561
  136TCq2    H3 2083   4.370   1.553  10.217 -0.8037  0.5617 -0.5297
  136TCq2    H4 2084   4.706   1.599   9.970  0.3104  1.1053  2.3410
  137MPD2     C 2085   4.077   4.601   9.380  1.1686 -0.6353  0.3309
  137MPD2    C1 2086   4.165   4.706   9.376  0.3126  0.1992 -1.1920
  137MPD2    C2 2087   4.236   0.007   9.498  0.5410  0.0426  0.0729
  137MPD2    C3 2088   4.251   4.638   9.594  0.1006  0.5349 -0.3312
  137MPD2    C4 2089   4.163   4.530   9.587 -0.2360 -0.1935  0.5265
  137MPD2    C5 2090   4.076   4.515   9.488 -0.4443  0.1660  0.4224
  137MPD2     H 2091   4.296   0.096   9.508  0.2638  0.1321  0.9436
  137MPD2    H1 2092   4.163   4.447   9.656  1.6322 -1.3146 -0.8153
  137MPD2    H2 2093   4.006   4.578   9.302  3.6998 -1.5164 -1.7128
  137MPD2    H3 2094   4.012   4.427   9.486  0.5151 -0.5123 -0.4878
  137MPD2     N 2095   4.346   4.651   9.700 -0.4127  0.4175 -0.0132
  137MPD2    H5 2096   4.398   0.013   9.700  1.0811 -0.5035  1.4195
  137MPD2    N1 2097   4.169   0.064   9.262  0.2535 -0.1868  0.0544
  137MPD2    H7 2098   4.101   0.053   9.187 -1.4039 -1.6184  1.7471
  138TCq2    C1 2099   4.242   0.186   9.246 -0.3583 -0.1872  0.2169
  138TCq2    O2 2100   4.320   0.233   9.324  0.3443 -0.2049 -0.1566
  138TCq2    C2 2101   4.182   0.272   9.134 -0.3071  0.9039  0.0267
  138TCq2    C3 2102   4.122   0.215   9.018 -0.3991 -0.4666  0.4238
  138TCq2    C4 2103   4.106   0.297   8.906 -0.0218  0.5600  0.2862
  138TCq2    C5 2104   4.140   0.433   8.903  0.2593 -0.4169 -0.0616
  138TCq2    C6 2105   4.172   0.483   9.030 -0.0671  0.2822  0.9081
  138TCq2    C7 2106   4.196   0.410   9.143  0.2700 -0.2848  0.1355
  138TCq2    C8 2107   4.182   0.633   9.036 -0.0927  0.1125  0.3622
  138TCq2    O4 2108   4.216   0.693   8.935 -0.6889 -0.2653 -0.1330
  138TCq2    C9 2109   4.069   0.248   8.777  0.2823  0.1451  0.7657
  138TCq2    O5 2110   4.035   0.328   8.685  0.6968 -0.4638  0.6904
  138TCq2    O6 2111   4.080   0.124   8.759  0.1361  0.2255 -0.1950
  138TCq2    H2 2112   4.112   0.108   9.004 -1.8607 -0.2681 -0.0751
  138TCq2    H3 2113   4.139   0.491   8.812 -3.2806 -0.6246 -0.1383
  138TCq2    H4 2114   4.217   0.455   9.239 -0.4416  0.8756 -0.2585
  139TMC2    C1 2115   3.884   4.363  13.533  0.2070  0.3075  0.4782
  139TMC2    C2 2116   3.784   4.319  13.449 -0.0828  0.4687  0.3944
  139TMC2    C3 2117   3.668   4.388  13.448  0.2696 -0.4093 -0.8951
  139TMC2    C4 2118   3.873   4.469  13.616  0.3997 -0.4359 -0.4212
  139TMC2    C5 2119   3.750   4.530  13.605  1.2395 -0.1781 -0.5568
  139TMC2    C6 2120   3.649   4.497  13.522  0.3944 -0.1098  1.5331
  139TMC2     C 2121   3.997   4.280  13.540 -0.1693 -0.1198  0.1886
  139TMC2     O 2122   4.017   4.199  13.450  0.2557 -0.7421  0.3139
  139TMC2     H 2123   3.784   4.221  13.404 -0.8552  1.5925 -2.0440
  139TMC2    H1 2124   3.946   4.503  13.689 -1.1077  2.7015 -0.3769
  139TMC2    H2 2125   3.552   4.544  13.527  0.9719  1.3466 -1.2810
  139TMC2    C7 2126   3.726   4.626  13.712  0.3182 -0.3896  0.2556
  139TMC2    C8 2127   3.559   4.336  13.362  0.6221 -0.0109 -0.3069
  139TMC2    O1 2128   3.815   4.688  13.764 -0.7317 -0.4085  0.1218
  139TMC2    O2 2129   3.441   4.315  13.390 -0.3554  0.1715  0.5145
  139TMC2    O5 2130   3.613   4.310  13.244  0.2031 -0.3145  0.1572
  139TMC2    H5 2131   3.702   4.349  13.227  0.7717 -1.0637  1.4000
  140MPD2     C 2132   4.175   4.172  13.842 -0.1955 -0.1617 -0.1012
  140MPD2    C1 2133   4.163   4.188  13.703 -0.5535  0.0952 -0.0250
  140MPD2    C2 2134   4.247   4.122  13.614 -0.2412 -0.4905 -0.1460
  140MPD2    C3 2135   4.335   4.025  13.663 -0.5325  0.2113  0.0932
  140MPD2    C4 2136   4.346   4.008  13.804 -0.4760 -0.1736  0.5778
  140MPD2    C5 2137   4.271   4.090  13.886 -0.5822 -0.1813 -0.6444
  140MPD2     H 2138   4.245   4.143  13.508  0.1315  0.9339  0.1268
  140MPD2    H1 2139   4.412   3.936  13.851  0.0044 -0.1388 -0.0319
  140MPD2    H2 2140   4.109   4.214  13.916  1.1186  1.7840 -0.0394
  140MPD2    H3 2141   4.274   4.070  13.993 -1.5290  0.8481 -0.4338
  140MPD2     N 2142   4.410   3.949  13.570 -0.0772 -0.0007 -0.0463
  140MPD2    H5 2143   4.400   3.969  13.471 -2.4659  0.8598  0.3630
  140MPD2    N1 2144   4.066   4.287  13.662  0.0379 -0.7596  0.5354
  140MPD2    H7 2145   4.021   4.340  13.736  2.2284  0.7495  0.8103
  141TCq2    C1 2146   0.063   0.250  14.186 -0.0431  0.1888 -0.1896
  141TCq2    O2 2147   0.024   0.360  14.146  0.0054  0.1023  0.2943
  141TCq2    C2 2148   0.035   0.225  14.327  0.2600  0.8150 -0.9164
  141TCq2    C3 2149   0.086   0.118  14.394  0.3350 -0.2445 -1.0342
  141TCq2    C4 2150   0.081   0.120  14.529 -0.2594  0.5844 -0.2493
  141TCq2    C5 2151   0.021   0.218  14.600  0.0293  0.6037  0.2551
  141TCq2    C6 2152   4.688   0.324  14.529  0.1028  0.2727  0.2618
  141TCq2    C7 2153   4.704   0.332  14.395 -0.0979 -0.3554 -0.7907
  141TCq2    C8 2154   4.624   0.431  14.597 -0.5479 -0.1052  0.2879
  141TCq2    O4 2155   4.542   0.493  14.530  0.8622  0.0103  0.5177
  141TCq2    C9 2156   0.149   0.018  14.609 -0.5058 -0.3250 -0.0458
  141TCq2    O5 2157   0.164   4.624  14.559 -0.1902 -0.1572  0.2932
  141TCq2    O6 2158   0.173   0.054  14.724 -0.9424  0.6659  0.3707
  141TCq2    H2 2159   0.141   0.039  14.344  0.9062  0.2528 -1.1902
  141TCq2    H3 2160   0.026   0.210  14.708 -5.0841 -1.5551  0.3584
  141TCq2    H4 2161   4.665   0.419  14.343  2.2228  0.2614 -1.5214
  142MPD2     C 2162   2.865   3.905  11.003  0.8890  0.0727  0.7826
  142MPD2    C1 2163   2.817   3.919  10.875 -0.4370  0.0349 -0.0413
  142MPD2    C2 2164   2.864   4.016  10.792 -0.3464  0.3689  0.2522
  142MPD2    C3 2165   2.955   4.100  10.832  0.5108 -0.1044 -0.2686
  142MPD2    C4 2166   3.009   4.097  10.965  0.0787 -0.4455  0.5291
  142MPD2    C5 2167   2.959   3.996  11.044  1.0059 -0.3939 -0.4325
  142MPD2     H 2168   2.838   4.016  10.686 -1.4022 -1.1348  0.5014
  142MPD2    H1 2169   3.080   4.164  11.012 -1.3663  1.3650  0.0819
  142MPD2    H2 2170   2.833   3.830  11.073  1.1828 -2.3241 -1.6431
  142MPD2    H3 2171   2.982   4.003  11.150 -0.0904 -0.7896 -0.1651
  142MPD2     N 2172   3.014   4.208  10.754  0.2618 -0.8410 -0.0467
  142MPD2    H5 2173   3.077   4.270  10.804  0.0498 -1.3785  0.8954
  142MPD2    N1 2174   2.732   3.811  10.829 -0.6324  0.1196  0.2251
  142MPD2    H7 2175   2.716   3.736  10.896 -0.2303 -0.0209  0.1641
  143TCq2    C1 2176   3.025   4.201  10.622  0.6216 -0.3299 -0.6414
  143TCq2    O2 2177   2.958   4.132  10.545 -0.0371 -0.0930 -0.2698
  143TCq2    C2 2178   3.133   4.273  10.565  0.1386  0.4503 -0.0531
  143TCq2    C3 2179   3.213   4.354  10.640  0.2794  0.5416  0.6002
  143TCq2    C4 2180   3.307   4.428  10.586  0.0282  0.3655 -0.2977
  143TCq2    C5 2181   3.313   4.441  10.444 -0.1374  0.5799  0.3952
  143TCq2    C6 2182   3.228   4.361  10.369  0.4500  0.6262  0.5296
  143TCq2    C7 2183   3.137   4.277  10.425  0.1439  0.6105 -0.5732
  143TCq2    C8 2184   3.236   4.368  10.230  0.2056  0.1693  0.5345
  143TCq2    O4 2185   3.308   4.460  10.184 -0.0384  0.0739 -0.1994
  143TCq2    C9 2186   3.385   4.510  10.672 -0.8700  0.0564  0.2107
  143TCq2    O5 2187   3.359   4.515  10.793  0.5375 -0.3871  0.3391
  143TCq2    O6 2188   3.456   4.591  10.611  0.0080  0.3780 -0.0108
  143TCq2    H2 2189   3.195   4.353  10.747 -2.5326  0.2318  0.1294
  143TCq2    H3 2190   3.393   4.494  10.394 -0.5670  0.4510 -0.4220
  143TCq2    H4 2191   3.056   4.235  10.366  0.4581 -1.3379  0.3877
  144MPD2     C 2192   0.643   3.189   1.137 -0.0885 -0.6224  0.2851
  144MPD2    C1 2193   0.666   3.063   1.091  0.1261  0.1483  0.5173
  144MPD2    C2 2194   0.798   3.015   1.082 -0.0261 -0.4255  0.2490
  144MPD2    C3 2195   0.908   3.095   1.102 -0.0553 -0.4936 -0.1366
  144MPD2    C4 2196   0.880   3.224   1.147  0.6948 -0.6194 -0.4875
  144MPD2    C5 2197   0.752   3.264   1.173 -0.4046  0.0119 -0.2323
  144MPD2     H 2198   0.814   2.913   1.048  0.1175 -0.6438  0.9712
  144MPD2    H1 2199   0.956   3.294   1.179  0.0550 -0.5811  0.9157
  144MPD2    H2 2200   0.545   3.234   1.146 -0.8701 -2.0883 -1.0011
  144MPD2    H3 2201   0.735   3.364   1.210 -1.3874 -0.9851  2.0143
  144MPD2     N 2202   1.039   3.055   1.095 -0.5060  0.1998  0.2712
  144MPD2    H5 2203   1.112   3.126   1.100 -1.3887  0.9619  2.3941
  144MPD2    N1 2204   0.560   2.984   1.039 -0.1350  0.2430 -0.2025
  144MPD2    H7 2205   0.588   2.898   0.993  1.0220  0.3257  0.3210
  145TCq2    C1 2206   1.080   2.927   1.072 -0.7014  0.0682 -0.3132
  145TCq2    O2 2207   1.020   2.823   1.050  0.5399 -0.2281  0.5608
  145TCq2    C2 2208   1.221   2.899   1.071  0.3718 -0.1461 -0.5486
  145TCq2    C3 2209   1.259   2.793   0.996  0.3666 -0.3632  0.9338
  145TCq2    C4 2210   1.393   2.754   1.002 -0.2961  0.2243 -0.0644
  145TCq2    C5 2211   1.474   2.826   1.090 -0.4880 -0.0018 -0.4637
  145TCq2    C6 2212   1.428   2.934   1.165  0.1245 -0.2919 -0.0589
  145TCq2    C7 2213   1.296   2.979   1.161 -0.3960 -0.4493  0.3140
  145TCq2    C8 2214   1.526   3.027   1.214 -0.6343  0.2284 -0.0928
  145TCq2    O4 2215   1.631   2.968   1.247 -0.7564  0.1412  0.0175
  145TCq2    C9 2216   1.437   2.633   0.940 -0.2981 -0.2744  0.1895
  145TCq2    O5 2217   1.557   2.609   0.966  0.1951  0.1840  0.2635
  145TCq2    O6 2218   1.351   2.565   0.878  0.5981 -0.6427 -0.4801
  145TCq2    H2 2219   1.187   2.727   0.947  2.1788 -0.7558 -1.1851
  145TCq2    H3 2220   1.582   2.813   1.087 -0.5692 -1.5188  3.0393
  145TCq2    H4 2221   1.255   3.065   1.212  0.0763  0.5734 -1.0212
  146TMC2    C1 2222   2.425   1.422  11.995  0.5973 -0.2116  0.1580
  146TMC2    C2 2223   2.394   1.482  11.877 -0.1665  0.1782 -0.0729
  146TMC2    C3 2224   2.465   1.429  11.769 -0.8130  0.0460 -0.4846
  146TMC2    C4 2225   2.531   1.335  12.016  0.5689  0.4248  0.2215
  146TMC2    C5 2226   2.589   1.286  11.903  0.1072 -0.0614 -0.4096
  146TMC2    C6 2227   2.559   1.330  11.778 -0.3792 -0.2700 -0.0084
  146TMC2     C 2228   2.344   1.464  12.111  0.0931 -0.2286  0.2071
  146TMC2     O 2229   2.239   1.519  12.075 -0.4514  0.6942 -0.4644
  146TMC2     H 2230   2.311   1.552  11.876  0.9274  1.4379 -1.9586
  146TMC2    H1 2231   2.540   1.290  12.114  2.5488 -1.3234 -0.7599
  146TMC2    H2 2232   2.615   1.307  11.688  2.8799 -0.6426  2.1115
  146TMC2    C7 2233   2.684   1.183  11.915 -0.1406  0.2042  0.3661
  146TMC2    C8 2234   2.486   1.521  11.648  0.4956  0.1821 -0.4427
  146TMC2    O1 2235   2.732   1.139  11.812 -0.2395 -0.2043 -0.2429
  146TMC2    O2 2236   2.533   1.477  11.541  0.0406 -0.5637  0.5330
  146TMC2    O5 2237   2.408   1.630  11.655 -0.1488  0.0568 -0.2134
  146TMC2    H5 2238   2.394   1.667  11.744 -1.2549  0.0387 -0.3755
  147MPD2     C 2239   3.117   0.982  12.107 -0.4063  0.9173 -0.6154
  147MPD2    C1 2240   3.051   1.057  12.208  0.2136 -0.1660  0.2175
  147MPD2    C2 2241   2.923   1.105  12.185 -0.4943 -1.1534  0.1079
  147MPD2    C3 2242   2.866   1.096  12.058  0.2757  0.6100  0.7561
  147MPD2    C4 2243   2.928   1.018  11.964 -0.5227  0.1089  0.1422
  147MPD2    C5 2244   3.046   0.962  11.993 -0.5397  0.7033  0.4080
  147MPD2     H 2245   2.879   1.164  12.265  1.9034 -0.5903  1.0364
  147MPD2    H1 2246   2.881   0.987  11.871  0.7762 -1.4749  0.0172
  147MPD2    H2 2247   3.215   0.941  12.125  0.0629  1.8032 -1.1682
  147MPD2    H3 2248   3.103   0.898  11.926 -0.9067 -1.8218  2.5174
  147MPD2     N 2249   2.742   1.168  12.039  0.3305 -0.4739 -0.3441
  147MPD2    H5 2250   2.698   1.203  12.124  0.6205 -0.5143 -0.1773
  147MPD2    N1 2251   3.114   1.063  12.333 -0.0724 -0.2919  0.4134
  147MPD2    H7 2252   3.208   1.024  12.336 -0.3618 -0.8921  1.5357
  148MPD2     C 2253   2.191   0.789  10.077 -0.4031  0.3580 -0.5333
  148MPD2    C1 2254   2.236   0.686  10.157  0.0532  0.4480  0.3314
  148MPD2    C2 2255   2.154   0.573  10.168 -0.1624  0.1310  0.5347
  148MPD2    C3 2256   2.045   0.556  10.086 -0.0797 -0.0275 -0.1688
  148MPD2    C4 2257   2.004   0.663  10.018  0.1776 -0.1426 -0.3576
  148MPD2    C5 2258   2.076   0.783  10.005 -0.4394 -0.0869 -0.5058
  148MPD2     H 2259   2.180   0.483  10.222  0.1306 -1.1679 -1.7559
  148MPD2    H1 2260   1.912   0.659   9.959 -0.0902 -3.9049  0.3307
  148MPD2    H2 2261   2.252   0.874  10.049  0.7909 -0.4606 -0.4383
  148MPD2    H3 2262   2.044   0.854   9.930 -0.9281  1.9791  1.6782
  148MPD2     N 2263   1.972   0.437  10.077  0.2308  0.2107  0.3304
  148MPD2    H5 2264   1.896   0.451  10.011 -0.6766  0.3123  1.3981
  148MPD2    N1 2265   2.363   0.682  10.226 -0.2830  0.1523 -0.0458
  148MPD2    H7 2266   2.384   0.605  10.290 -2.1519  1.1395  1.7629
  149TCq2    C1 2267   2.470   0.770  10.201 -0.2218 -1.0177  0.4757
  149TCq2    O2 2268   2.474   0.859  10.124  0.4243  0.1413  0.1782
  149TCq2    C2 2269   2.581   0.752  10.292  0.0931 -0.7026 -0.3630
  149TCq2    C3 2270   2.683   0.842  10.274 -0.4101 -0.5620 -0.0985
  149TCq2    C4 2271   2.803   0.805  10.319  0.0404 -0.0458 -0.0308
  149TCq2    C5 2272   2.825   0.693  10.392  0.4281  0.7512 -0.2805
  149TCq2    C6 2273   2.722   0.610  10.403 -0.2609 -0.3320  0.0657
  149TCq2    C7 2274   2.602   0.629  10.351  0.4256 -0.1024 -0.4636
  149TCq2    C8 2275   2.745   0.470  10.442 -0.1655  0.1598  0.2260
  149TCq2    O4 2276   2.652   0.391  10.426  0.7506  0.6256  0.3092
  149TCq2    C9 2277   2.900   0.914  10.332  0.7484 -0.3159  0.3816
  149TCq2    O5 2278   2.886   1.013  10.256  0.5305 -0.3946  0.5577
  149TCq2    O6 2279   2.975   0.905  10.430 -0.0530 -0.3004 -0.1094
  149TCq2    H2 2280   2.678   0.946  10.244 -0.2210 -1.0985 -2.0097
  149TCq2    H3 2281   2.924   0.669  10.429  0.3416  0.7227 -0.0649
  149TCq2    H4 2282   2.530   0.548  10.350  0.6889 -0.3293 -0.9841
  150MPD2     C 2283   4.097   4.138  11.218  0.4361  0.3252  0.2300
  150MPD2    C1 2284   4.054   4.069  11.329  0.3823  0.3260  0.4304
  150MPD2    C2 2285   4.132   4.067  11.449 -0.2086 -0.3235  0.3111
  150MPD2    C3 2286   4.256   4.135  11.456  0.6265  0.9742 -0.2333
  150MPD2    C4 2287   4.300   4.184  11.333  0.1104  0.2214 -0.0334
  150MPD2    C5 2288   4.219   4.197  11.223 -0.3194 -0.1807 -0.0667
  150MPD2     H 2289   4.103   4.024  11.544 -0.9240  0.1419  0.3016
  150MPD2    H1 2290   4.383   4.254  11.324  1.8938 -1.8690  0.3593
  150MPD2    H2 2291   4.041   4.156  11.126  0.9185  0.9930  0.0721
  150MPD2    H3 2292   4.254   4.262  11.143  1.3638 -0.4290  0.4752
  150MPD2     N 2293   4.334   4.130  11.574 -0.4254  0.3201  0.2208
  150MPD2    H5 2294   4.296   4.090  11.659 -0.8349  0.1344 -0.0503
  150MPD2    N1 2295   3.934   3.992  11.312  0.6993  0.4411 -0.5148
  150MPD2    H7 2296   3.884   3.996  11.224  0.6748  2.9288 -0.3996
  151TCq2    C1 2297   4.447   4.204  11.598 -0.3023 -0.1156  0.0171
  151TCq2    O2 2298   4.519   4.267  11.525 -1.0349 -0.3731  0.0230
  151TCq2    C2 2299   4.487   4.191  11.743 -0.1801 -0.1308 -0.0275
  151TCq2    C3 2300   4.480   4.068  11.808  0.1092  0.5529  0.6541
  151TCq2    C4 2301   4.549   4.054  11.925  0.8353  0.2539 -0.4129
  151TCq2    C5 2302   4.613   4.159  11.983 -0.2678  0.0908 -0.2942
  151TCq2    C6 2303   4.633   4.279  11.906  0.3286  0.3010 -0.6371
  151TCq2    C7 2304   4.568   4.294  11.793  0.3407 -0.5037 -0.5795
  151TCq2    C8 2305   0.004   4.384  11.940 -0.2131 -0.1693 -0.0430
  151TCq2    O4 2306   4.708   4.496  11.909 -0.4664  0.5654  0.1179
  151TCq2    C9 2307   4.547   3.927  12.000  0.1401  0.1008 -0.5459
  151TCq2    O5 2308   4.558   3.930  12.128  0.2691 -0.0870 -0.1508
  151TCq2    O6 2309   4.523   3.819  11.937  0.4829  0.4747  0.1574
  151TCq2    H2 2310   4.432   3.982  11.763 -1.0022  0.7831  1.4025
  151TCq2    H3 2311   4.662   4.141  12.078  1.7970  3.1085 -0.7955
  151TCq2    H4 2312   4.583   4.376  11.724  0.8274  0.6680  0.9283
  152MPD2     C 2313   3.833   4.147  12.893 -0.1991 -0.0725  0.3295
  152MPD2    C1 2314   3.875   4.123  12.766 -0.2224 -0.0636  0.0039
  152MPD2    C2 2315   3.785   4.154  12.666 -0.2832  0.9841 -0.2905
  152MPD2    C3 2316   3.659   4.208  12.684 -0.0021 -0.5494 -0.1789
  152MPD2    C4 2317   3.613   4.229  12.810 -0.1785  0.9370  0.4427
  152MPD2    C5 2318   3.701   4.194  12.911  0.6671 -0.7663 -0.3818
  152MPD2     H 2319   3.814   4.152  12.562 -0.1709  2.8971 -0.3045
  152MPD2    H1 2320   3.519   4.277  12.837  0.2958  0.8077  2.3000
  152MPD2    H2 2321   3.893   4.133  12.982  0.7084 -0.2661 -0.3104
  152MPD2    H3 2322   3.664   4.210  13.011  0.8950 -0.3018 -0.3701
  152MPD2     N 2323   3.579   4.238  12.573  0.4286 -0.1890  0.3367
  152MPD2    H5 2324   3.620   4.226  12.481 -2.5965  1.3980 -1.2169
  152MPD2    N1 2325   4.003   4.071  12.742 -0.0949 -0.2108 -0.1513
  152MPD2    H7 2326   4.062   4.036  12.816 -1.5225 -4.0982 -0.8334
  153TCq2    C1 2327   4.047   4.030  12.617 -0.7746 -0.6507  0.3849
  153TCq2    O2 2328   3.980   4.017  12.516 -0.0203  0.0517 -0.0473
  153TCq2    C2 2329   4.192   3.992  12.613  0.4736  0.2863  0.4587
  153TCq2    C3 2330   4.232   3.899  12.527 -0.0176 -0.0900 -0.4197
  153TCq2    C4 2331   4.371   3.877  12.513 -0.0379  0.1472  0.3226
  153TCq2    C5 2332   4.458   3.945  12.592 -0.3036 -0.6368 -0.0121
  153TCq2    C6 2333   4.407   4.034  12.690 -0.5681  0.0544  0.4352
  153TCq2    C7 2334   4.275   4.062  12.695 -0.6797  0.4747 -0.5229
  153TCq2    C8 2335   4.505   4.093  12.779  0.0660 -0.0308  0.1102
  153TCq2    O4 2336   4.620   4.101  12.742  0.1984  0.0471  0.3408
  153TCq2    C9 2337   4.419   3.787  12.410  0.1246 -0.2974  0.7320
  153TCq2    O5 2338   4.542   3.759  12.415  0.0992  0.3986 -0.1445
  153TCq2    O6 2339   4.342   3.768  12.318  0.4034  0.1841  0.1021
  153TCq2    H2 2340   4.155   3.841  12.477  0.0726 -1.7019  1.3094
  153TCq2    H3 2341   4.564   3.926  12.584 -0.3856 -0.3329 -1.7151
  153TCq2    H4 2342   4.244   4.151  12.749  1.5727 -0.3330  2.0927
  154MPD2     C 2343   0.408   4.443   0.558 -0.5655  0.3136 -0.2291
  154MPD2    C1 2344   0.495   4.441   0.668  0.0571 -0.7841  0.4457
  154MPD2    C2 2345   0.462   4.512   0.781 -0.2978 -0.3777  0.0185
  154MPD2    C3 2346   0.334   4.569   0.800 -0.6266  0.2595  0.7589
  154MPD2    C4 2347   0.253   4.568   0.687 -0.0391  0.0188 -0.0708
  154MPD2    C5 2348   0.289   4.499   0.571  0.6078  0.4050 -0.2988
  154MPD2     H 2349   0.539   4.505   0.856 -0.5489  3.2556  0.6293
  154MPD2    H1 2350   0.153   4.611   0.698  0.1891  0.5485 -0.0717
  154MPD2    H2 2351   0.434   4.395   0.464 -4.3343 -1.9054 -0.1635
  154MPD2    H3 2352   0.224   4.502   0.485  0.3558 -1.1898 -0.1573
  154MPD2     N 2353   0.302   4.621   0.928 -0.3260 -0.4124  0.3644
  154MPD2    H5 2354   0.374   4.611   0.998  0.2732  0.8178 -0.0921
  154MPD2    N1 2355   0.623   4.383   0.648  0.7661  0.3356 -0.5119
  154MPD2    H7 2356   0.641   4.348   0.555 -2.6114 -1.8825 -0.3369
  155TCq2    C1 2357   0.735   4.384   0.732  0.0781 -0.0108 -0.4144
  155TCq2    O2 2358   0.742   4.438   0.839 -0.3072 -0.4695  0.0688
  155TCq2    C2 2359   0.850   4.304   0.680 -0.5649  0.1753  0.5378
  155TCq2    C3 2360   0.971   4.341   0.733 -0.7722  0.3472  0.2623
  155TCq2    C4 2361   1.079   4.257   0.716 -0.2628 -0.0068 -0.7198
  155TCq2    C5 2362   1.069   4.135   0.658  0.1514 -0.3560  0.7406
  155TCq2    C6 2363   0.948   4.113   0.591  0.6536 -0.2541 -0.2510
  155TCq2    C7 2364   0.835   4.194   0.604  0.0782  0.4271 -0.3076
  155TCq2    C8 2365   0.928   3.976   0.551 -0.7888 -0.3642  0.1412
  155TCq2    O4 2366   0.985   3.888   0.612 -0.1653  1.1054 -0.3940
  155TCq2    C9 2367   1.215   4.295   0.759 -0.0292  0.1475 -0.5853
  155TCq2    O5 2368   1.306   4.224   0.712  0.3958 -0.2918  0.4963
  155TCq2    O6 2369   1.232   4.419   0.793  0.1383 -0.5826 -0.4923
  155TCq2    H2 2370   0.986   4.437   0.781  0.9392 -0.1108  0.6443
  155TCq2    H3 2371   1.153   4.067   0.643 -1.2271 -1.7039 -0.8426
  155TCq2    H4 2372   0.738   4.169   0.561 -0.2442  3.4246 -1.3132
  156MPD2     C 2373   0.278   1.841  12.425  0.8444 -0.2519 -0.0558
  156MPD2    C1 2374   0.185   1.886  12.332 -0.8565 -0.3288  0.0362
  156MPD2    C2 2375   0.101   1.995  12.368  0.4734 -0.8145  0.0762
  156MPD2    C3 2376   0.123   2.068  12.489 -0.0830 -0.1493 -0.5016
  156MPD2    C4 2377   0.223   2.024  12.573  0.2170  0.6874 -0.0147
  156MPD2    C5 2378   0.293   1.911  12.543 -0.0452 -0.5685  0.5080
  156MPD2     H 2379   0.025   2.035  12.302  0.2548 -0.8819  0.2871
  156MPD2    H1 2380   0.239   2.064  12.673 -0.3969  0.8419  0.0182
  156MPD2    H2 2381   0.355   1.768  12.402 -1.1835 -1.3796 -3.1584
  156MPD2    H3 2382   0.368   1.882  12.616  2.3620 -0.6071 -1.9798
  156MPD2     N 2383   0.046   2.182  12.510  0.3293  0.6073 -0.2648
  156MPD2    H5 2384   4.689   2.196  12.451  0.6247  1.5590 -0.4540
  156MPD2    N1 2385   0.186   1.826  12.204 -0.5894 -0.6492 -0.1723
  156MPD2    H7 2386   0.230   1.735  12.196 -0.3113 -0.5077 -0.2743
  157TCq2    C1 2387   0.135   1.886  12.089  0.3101  0.2747 -0.1448
  157TCq2    O2 2388   0.090   2.002  12.074  0.9465  0.0187  0.7872
  157TCq2    C2 2389   0.121   1.803  11.966 -0.4917  0.5811 -0.3477
  157TCq2    C3 2390   0.155   1.670  11.959  0.3396 -0.1962  0.0080
  157TCq2    C4 2391   0.100   1.588  11.864  0.4576  0.1835  0.3693
  157TCq2    C5 2392   0.034   1.644  11.755  0.2268 -0.2345 -0.3828
  157TCq2    C6 2393   0.010   1.780  11.746  0.3251 -0.0994  0.5035
  157TCq2    C7 2394   0.043   1.856  11.858 -0.4273 -0.8292 -0.5841
  157TCq2    C8 2395   4.667   1.853  11.639  0.3481  0.8795  0.5194
  157TCq2    O4 2396   4.652   1.978  11.650 -0.3001 -0.2949  0.1797
  157TCq2    C9 2397   0.129   1.447  11.855 -0.1145  0.5117  0.0457
  157TCq2    O5 2398   0.059   1.382  11.770  0.3541  0.1438  0.1322
  157TCq2    O6 2399   0.225   1.392  11.926 -0.3279  0.1610 -0.2293
  157TCq2    H2 2400   0.215   1.622  12.035  0.3715 -0.9205 -0.4727
  157TCq2    H3 2401   0.015   1.581  11.669  1.1558  1.4435 -1.8143
  157TCq2    H4 2402   0.026   1.963  11.859  1.2773 -0.5630 -0.2197
  158TMC2    C1 2403   4.557   0.468  13.308 -0.0190 -0.7198 -0.3232
  158TMC2    C2 2404   4.595   0.456  13.173 -0.2418 -0.3905  0.3277
  158TMC2    C3 2405   4.532   0.537  13.087 -0.7126  0.3552  0.8540
  158TMC2    C4 2406   4.474   0.567  13.357 -0.7314 -0.1219  0.6107
  158TMC2    C5 2407   4.437   0.657  13.262  0.1449  0.7136  0.0450
  158TMC2    C6 2408   4.455   0.637  13.130  0.0626  0.3722  0.6365
  158TMC2     C 2409   4.623   0.376  13.402 -0.1951 -0.5752 -0.3105
  158TMC2     O 2410   4.719   0.315  13.354  0.3630  0.3092 -0.0447
  158TMC2     H 2411   4.646   0.364  13.148  0.5844  0.6198 -1.7075
  158TMC2    H1 2412   4.449   0.584  13.461 -0.7711 -2.9226  1.0747
  158TMC2    H2 2413   4.415   0.701  13.052  0.9536  1.2396  0.8858
  158TMC2    C7 2414   4.322   0.744  13.292  0.0452  0.7676 -0.8247
  158TMC2    C8 2415   4.545   0.509  12.948 -0.0167 -0.2077 -0.1499
  158TMC2    O1 2416   4.299   0.825  13.204  0.4246 -0.1483 -0.0725
  158TMC2    O2 2417   4.473   0.567  12.870 -0.3160 -0.2348  0.5603
  158TMC2    O5 2418   4.657   0.435  12.916 -0.2947 -0.1797 -0.3611
  158TMC2    H5 2419   4.717   0.437  12.995 -0.4953 -3.6465 -0.1018
  159MPD2     C 2420   4.604   0.049  13.799 -0.3369  0.0236  0.1450
  159MPD2    C1 2421   4.553   0.174  13.839 -0.0802  0.5462 -0.1105
  159MPD2    C2 2422   4.546   0.277  13.742  0.2242 -0.5396  0.2806
  159MPD2    C3 2423   4.589   0.265  13.618 -0.2042 -0.3819  0.6834
  159MPD2    C4 2424   4.641   0.143  13.577  0.2153 -0.0033  0.0777
  159MPD2    C5 2425   4.652   0.038  13.669  0.9375 -0.1395 -0.2522
  159MPD2     H 2426   4.497   0.370  13.771  1.4556 -0.0533  0.8312
  159MPD2    H1 2427   4.685   0.123  13.480  0.8025  1.4327  0.0463
  159MPD2    H2 2428   4.626   4.692  13.868 -0.8200  0.8972  1.3285
  159MPD2    H3 2429   4.695   4.665  13.647  3.6975  1.3987 -1.6138
  159MPD2     N 2430   4.575   0.377  13.530 -0.0360 -0.1146 -0.5703
  159MPD2    H5 2431   4.531   0.458  13.573  1.2862  2.2364 -3.6546
  159MPD2    N1 2432   4.503   0.184  13.972 -0.3801  0.5263  0.5003
  159MPD2    H7 2433   4.498   0.096  14.022 -1.6879 -0.1026 -0.7467
  160TMC2    C1 2434   4.049   3.367   1.704  1.4904  0.1776 -0.3138
  160TMC2    C2 2435   4.016   3.473   1.782  0.3539 -0.1556  0.8519
  160TMC2    C3 2436   4.122   3.555   1.820  0.3895  0.2656  0.5136
  160TMC2    C4 2437   4.177   3.338   1.672  0.3076  0.3369 -0.4473
  160TMC2    C5 2438   4.275   3.415   1.723 -0.8173  0.0767  1.6074
  160TMC2    C6 2439   4.254   3.524   1.806  0.1878  0.2342 -0.4699
  160TMC2     C 2440   3.940   3.300   1.631 -0.0703  0.6680  0.4200
  160TMC2     O 2441   3.966   3.190   1.581  0.1359 -0.0252  0.6053
  160TMC2     H 2442   3.914   3.474   1.819 -0.1861 -0.5668 -0.6099
  160TMC2    H1 2443   4.198   3.246   1.619 -1.0802  0.6191 -1.5037
  160TMC2    H2 2444   4.330   3.585   1.853 -1.1296  0.9944  0.6705
  160TMC2    C7 2445   4.413   3.385   1.676  0.1915 -0.3084 -0.2251
  160TMC2    C8 2446   4.098   3.673   1.903 -0.5482 -0.5161 -0.0152
  160TMC2    O1 2447   4.445   3.275   1.648  0.3145  0.3958 -0.2539
  160TMC2    O2 2448   4.181   3.693   1.992  0.3457 -0.2242  0.4024
  160TMC2    O5 2449   3.965   3.670   1.925  0.2122 -0.1646 -0.2164
  160TMC2    H5 2450   3.916   3.657   1.842  1.0315  0.2067 -0.7568
  161MPD2     C 2451   3.680   3.230   1.508  0.8256 -0.0538  0.0813
  161MPD2    C1 2452   3.720   3.358   1.532  0.0568 -0.9751  0.0780
  161MPD2    C2 2453   3.651   3.464   1.483  0.1841 -0.5887 -0.1798
  161MPD2    C3 2454   3.541   3.439   1.400 -0.5672 -0.2766 -0.4180
  161MPD2    C4 2455   3.491   3.313   1.384 -0.2124  0.5258  0.4618
  161MPD2    C5 2456   3.563   3.212   1.439 -0.1401 -0.5466 -0.0545
  161MPD2     H 2457   3.690   3.564   1.498 -0.7636 -0.3567  0.7445
  161MPD2    H1 2458   3.408   3.293   1.317  0.7561  1.2836 -0.9710
  161MPD2    H2 2459   3.743   3.147   1.536 -0.2359 -0.9744 -0.2439
  161MPD2    H3 2460   3.534   3.109   1.420  0.0054 -0.5428 -0.2989
  161MPD2     N 2461   3.458   3.540   1.345 -0.0641 -0.1871  0.1274
  161MPD2    H5 2462   3.384   3.514   1.281 -1.5336 -0.4546  1.9458
  161MPD2    N1 2463   3.834   3.392   1.605 -0.0548  0.0510  0.0256
  161MPD2    H7 2464   3.828   3.491   1.629  1.7673  0.7721 -2.5040
  162TMC2    C1 2465   2.811   0.945   1.555  0.7175 -0.6761 -0.1544
  162TMC2    C2 2466   2.852   1.052   1.636 -0.5385  0.8968  0.3495
  162TMC2    C3 2467   2.852   1.020   1.769  0.6159 -0.3794 -0.4093
  162TMC2    C4 2468   2.778   0.818   1.597 -0.4926  0.5050 -0.3792
  162TMC2    C5 2469   2.776   0.795   1.735  0.1495 -0.4640 -0.3639
  162TMC2    C6 2470   2.809   0.898   1.815  0.4253  0.6724 -0.5121
  162TMC2     C 2471   2.790   0.968   1.417  0.6735 -0.2528  0.2647
  162TMC2     O 2472   2.785   0.867   1.340  0.6461 -0.3040  0.1828
  162TMC2     H 2473   2.896   1.142   1.595 -2.1103  1.7301  0.5072
  162TMC2    H1 2474   2.757   0.739   1.525  1.6544  0.2001 -0.6549
  162TMC2    H2 2475   2.797   0.874   1.920  0.2858  1.3888 -0.3653
  162TMC2    C7 2476   2.724   0.677   1.809 -0.7148 -0.6538 -0.6195
  162TMC2    C8 2477   2.882   1.131   1.860 -0.3677  0.1103  0.9104
  162TMC2    O1 2478   2.652   0.696   1.906  0.0246  0.8757  0.4187
  162TMC2    O2 2479   2.843   1.242   1.835 -0.3408  0.1389  0.0876
  162TMC2    O5 2480   2.940   1.094   1.975  0.1551  0.3988 -0.1601
  162TMC2    H5 2481   2.968   1.000   1.968  1.8341  0.9674 -1.2858
  163MPD2     C 2482   2.605   1.282   1.056  0.5745 -0.4904 -0.5181
  163MPD2    C1 2483   2.662   1.161   1.043  0.3304 -0.3347  0.6498
  163MPD2    C2 2484   2.725   1.098   1.151  0.5637  0.6248  0.6881
  163MPD2    C3 2485   2.722   1.162   1.276 -0.5370  0.3249 -0.0813
  163MPD2    C4 2486   2.673   1.287   1.278  0.1261  0.4539  0.6998
  163MPD2    C5 2487   2.611   1.348   1.177  0.0606  0.3079 -0.1326
  163MPD2     H 2488   2.777   1.003   1.144  1.7588  1.3164  0.2477
  163MPD2    H1 2489   2.685   1.339   1.372  0.9163  1.3681  0.0942
  163MPD2    H2 2490   2.546   1.323   0.975 -2.2288  0.6785  2.1131
  163MPD2    H3 2491   2.574   1.448   1.189 -0.9793  0.0570 -1.2187
  163MPD2     N 2492   2.758   1.102   1.399 -0.5192 -0.8309  0.0448
  163MPD2    H5 2493   2.759   1.161   1.482 -1.8756  1.1882 -1.3459
  163MPD2    N1 2494   2.648   1.097   0.915 -0.0272 -0.9961  0.1462
  163MPD2    H7 2495   2.617   1.155   0.837  1.4029 -1.3274 -0.6500
  164TCq2    C1 2496   3.398   0.556  10.788 -0.3997  0.7233  0.0238
  164TCq2    O2 2497   3.437   0.666  10.823  0.1422  0.2538  0.1152
  164TCq2    C2 2498   3.311   0.480  10.882  0.0855 -0.0013 -0.0923
  164TCq2    C3 2499   3.318   0.344  10.889 -0.1280  0.2291  0.0958
  164TCq2    C4 2500   3.211   0.273  10.932 -0.2969 -0.0276  0.8547
  164TCq2    C5 2501   3.100   0.343  10.970  0.6787  0.3641  0.2335
  164TCq2    C6 2502   3.092   0.481  10.968 -0.1788  0.3242  0.3654
  164TCq2    C7 2503   3.196   0.551  10.923 -0.7813  0.1201  0.0183
  164TCq2    C8 2504   2.979   0.551  11.026  0.6856  0.5632  0.1490
  164TCq2    O4 2505   2.959   0.667  10.990 -0.2271 -0.2021  0.3100
  164TCq2    C9 2506   3.205   0.130  10.954 -0.1985  0.6298 -0.4283
  164TCq2    O5 2507   3.290   0.053  10.897 -0.4403  0.4623  0.1318
  164TCq2    O6 2508   3.114   0.084  11.032  1.2106  0.0337 -0.4141
  164TCq2    H2 2509   3.403   0.282  10.861 -0.7489 -1.1917  1.4241
  164TCq2    H3 2510   3.018   0.280  11.002  1.2492  0.0306  1.0344
  164TCq2    H4 2511   3.188   0.658  10.914  0.8262  0.0047 -3.1245
  165MPD2     C 2512   0.475   1.650   2.266  0.1216 -0.5505 -0.3980
  165MPD2    C1 2513   0.348   1.672   2.224 -0.4815  0.1563 -1.1242
  165MPD2    C2 2514   0.287   1.791   2.247 -0.5863  0.2975 -0.2101
  165MPD2    C3 2515   0.357   1.896   2.300 -0.0232  0.3359  0.4464
  165MPD2    C4 2516   0.484   1.879   2.342 -0.0970 -0.2539 -0.5225
  165MPD2    C5 2517   0.538   1.757   2.316 -0.2387  0.2835 -0.5436
  165MPD2     H 2518   0.187   1.811   2.211 -0.0138  1.3980 -1.1820
  165MPD2    H1 2519   0.537   1.949   2.407  2.2473 -0.9262 -1.7060
  165MPD2    H2 2520   0.532   1.559   2.251  0.1443 -0.9263  2.0677
  165MPD2    H3 2521   0.637   1.725   2.346 -0.4024 -0.1336 -0.4565
  165MPD2     N 2522   0.291   2.020   2.307 -0.5063 -0.3762  0.0891
  165MPD2    H5 2523   0.192   2.027   2.284 -0.4446  1.1022  0.2345
  165MPD2    N1 2524   0.291   1.570   2.147  0.4737 -0.3489  0.9068
  165MPD2    H7 2525   0.351   1.489   2.141  2.3404  1.2289 -1.8746
  166TCq2    C1 2526   0.359   2.140   2.313 -0.0180 -0.2470 -0.7830
  166TCq2    O2 2527   0.480   2.153   2.292  1.1103 -1.0060  0.0629
  166TCq2    C2 2528   0.266   2.253   2.318  0.1362  0.2444  0.5170
  166TCq2    C3 2529   0.139   2.233   2.367 -0.9005  0.0861 -0.5757
  166TCq2    C4 2530   0.053   2.334   2.354 -0.5906  0.1391 -0.4234
  166TCq2    C5 2531   0.091   2.455   2.310 -1.0713 -0.2350 -0.5147
  166TCq2    C6 2532   0.216   2.476   2.261  0.9759 -0.4454 -1.2013
  166TCq2    C7 2533   0.305   2.372   2.259  0.2533 -0.4484  0.4362
  166TCq2    C8 2534   0.247   2.591   2.194 -0.0048 -1.3587 -0.7773
  166TCq2    O4 2535   0.346   2.583   2.121  0.5236 -0.3490 -0.0647
  166TCq2    C9 2536   4.641   2.311   2.410 -0.3645 -0.0754 -0.0321
  166TCq2    O5 2537   4.609   2.196   2.451  0.5067 -0.0342  0.6756
  166TCq2    O6 2538   4.572   2.417   2.421  0.0118 -0.1479 -0.8132
  166TCq2    H2 2539   0.109   2.136   2.405 -1.3942 -0.4025 -2.2102
  166TCq2    H3 2540   0.019   2.535   2.322 -1.1665 -0.5703  1.0303
  166TCq2    H4 2541   0.401   2.373   2.208  0.9795  0.5555  1.8466
  167TMC2    C1 2542   2.109   0.762  12.129  0.3057  0.1130 -0.0798
  167TMC2    C2 2543   2.016   0.855  12.172 -0.3363 -0.3635 -0.7134
  167TMC2    C3 2544   2.018   0.888  12.303  1.1291  0.2828  0.0586
  167TMC2    C4 2545   2.212   0.717  12.207  0.4922 -0.2577  0.9981
  167TMC2    C5 2546   2.211   0.759  12.335 -0.1349  0.9086 -0.0365
  167TMC2    C6 2547   2.124   0.847  12.382  0.5149  0.2118  0.1200
  167TMC2     C 2548   2.085   0.688  12.007  0.3591  0.1195 -0.5292
  167TMC2     O 2549   2.023   0.736  11.915 -0.2956 -0.0089  0.0930
  167TMC2     H 2550   1.937   0.883  12.104 -0.6757 -0.5401 -0.3925
  167TMC2    H1 2551   2.296   0.664  12.164  0.7220 -0.6073  1.8640
  167TMC2    H2 2552   2.128   0.893  12.480  0.9371  1.9441 -0.7114
  167TMC2    C7 2553   2.301   0.701  12.433  0.5192  0.2875 -0.0066
  167TMC2    C8 2554   1.897   0.946  12.364  0.3600 -0.5215 -0.2149
  167TMC2    O1 2555   2.326   0.758  12.535 -0.2534 -0.6188  0.3512
  167TMC2    O2 2556   1.855   1.054  12.326 -0.1671 -0.1908  0.4016
  167TMC2    O5 2557   1.867   0.886  12.484  0.5831  0.4410  0.5042
  167TMC2    H5 2558   1.887   0.790  12.486  1.0665  0.5252 -0.2907
  168MPD2     C 2559   2.048   0.461  11.822  0.1190  0.0256 -0.1612
  168MPD2    C1 2560   2.119   0.454  11.931  0.5008  0.2149 -0.1020
  168MPD2    C2 2561   2.171   0.322  11.970  0.1788  0.5573 -0.7948
  168MPD2    C3 2562   2.153   0.208  11.890 -0.0578  0.2493  0.4987
  168MPD2    C4 2563   2.087   0.220  11.775  0.3297 -0.1924 -0.0046
  168MPD2    C5 2564   2.040   0.346  11.742 -0.5575 -0.5074 -0.4679
  168MPD2     H 2565   2.226   0.316  12.063  1.8570  0.3432 -1.7957
  168MPD2    H1 2566   2.082   0.135  11.709  1.2459  0.0265 -0.3528
  168MPD2    H2 2567   2.000   0.549  11.781  0.4877 -1.4540 -3.7825
  168MPD2    H3 2568   1.993   0.358  11.646 -1.2766  0.8496  0.0498
  168MPD2     N 2569   2.208   0.076  11.927  0.1237 -0.5901 -0.1218
  168MPD2    H5 2570   2.190   0.003  11.858  1.0914  0.3011 -1.3244
  168MPD2    N1 2571   2.136   0.562  12.017 -0.5262 -0.5619  0.0703
  168MPD2    H7 2572   2.173   0.525  12.104  0.6442  1.1879  0.3247
  169MPD1     C 2573   0.948   4.280   9.449  0.6160  0.0545  0.3340
  169MPD1    C1 2574   0.873   4.374   9.526  0.7699 -0.4060 -0.5383
  169MPD1    C2 2575   0.764   4.429   9.465  0.3762 -0.8571  0.6460
  169MPD1    C3 2576   0.714   4.387   9.343  1.0053  0.2723  0.6851
  169MPD1    C4 2577   0.786   4.287   9.273  0.4218  0.4460  0.0992
  169MPD1    C5 2578   0.900   4.239   9.326 -0.0889 -1.0241  0.3028
  169MPD1     H 2579   0.708   4.514   9.505  0.1101 -1.0521  0.6853
  169MPD1    H1 2580   0.755   4.244   9.178  0.1053 -1.6243  1.1280
  169MPD1    H2 2581   1.042   4.238   9.481  0.6364 -0.3975 -0.3117
  169MPD1    H3 2582   0.959   4.172   9.264 -0.0112 -1.3240  0.6995
  169MPD1     N 2583   0.591   4.438   9.305 -0.1021 -0.3117  0.4407
  169MPD1    H5 2584   0.543   4.499   9.369 -0.4434 -0.0390 -0.0732
  169MPD1    N1 2585   0.941   4.437   9.637 -0.8988 -1.4635  0.1269
  169MPD1    H6 2586   1.004   4.374   9.684  0.1954 -1.0208 -0.7385
  169MPD1    H7 2587   0.879   4.479   9.706 -0.1935 -0.1527 -0.0400
  170MPD1     C 2588   2.716   2.371  12.957  0.4496 -0.1075 -0.6073
  170MPD1    C1 2589   2.675   2.501  12.949 -0.0417  0.0176  0.0694
  170MPD1    C2 2590   2.676   2.577  13.066 -0.2154  0.2827  0.2793
  170MPD1    C3 2591   2.713   2.529  13.188 -1.2329  0.1698  0.1703
  170MPD1    C4 2592   2.758   2.405  13.194  0.6386  0.2496 -0.5567
  170MPD1    C5 2593   2.757   2.324  13.080  0.1192  0.4798 -1.3546
  170MPD1     H 2594   2.654   2.682  13.047 -0.4359 -0.1406 -1.7910
  170MPD1    H1 2595   2.809   2.364  13.280 -1.1290  1.9182  1.2996
  170MPD1    H2 2596   2.726   2.302  12.874  2.3582  1.6468 -1.8385
  170MPD1    H3 2597   2.793   2.222  13.081  2.5650  1.4163  2.7109
  170MPD1     N 2598   2.711   2.615  13.298 -0.2783  0.1147 -0.1200
  170MPD1    H5 2599   2.686   2.711  13.276  0.8682  0.3956 -0.1861
  170MPD1    N1 2600   2.674   2.568  12.822  0.2527  0.8794 -0.4289
  170MPD1    H6 2601   2.662   2.505  12.743  0.9188  2.9633 -2.1843
  170MPD1    H7 2602   2.612   2.649  12.825 -2.2007 -0.9273 -1.9017
  171MPD1     C 2603   1.344   3.733  15.529 -0.0295  0.0540 -0.1320
  171MPD1    C1 2604   1.308   3.627  15.449 -0.2174 -0.2227 -0.7039
  171MPD1    C2 2605   1.372   3.501  15.464  0.8940 -0.2109 -0.7373
  171MPD1    C3 2606   1.480   3.489  15.558  0.4153 -0.1967  0.1316
  171MPD1    C4 2607   1.507   3.601  15.636 -0.0702 -0.0216  0.0725
  171MPD1    C5 2608   1.444   3.720  15.621  0.3655  0.2757  0.1983
  171MPD1     H 2609   1.338   3.421  15.399 -1.7270 -0.3741  0.8568
  171MPD1    H1 2610   1.584   3.593  15.713  1.0184 -2.0421 -1.2437
  171MPD1    H2 2611   1.285   3.823  15.541 -0.0856 -0.1025  0.7515
  171MPD1    H3 2612   1.482   3.800  15.684 -0.9146  0.2255  1.0288
  171MPD1     N 2613   1.558   3.369  15.591 -0.7711  0.0612 -0.0668
  171MPD1    H5 2614   1.629   3.377  15.663  0.0726 -2.2906 -0.6301
  171MPD1    N1 2615   1.192   3.629  15.376 -0.2876  0.4444 -0.4611
  171MPD1    H6 2616   1.203   3.565  15.298  0.3732  1.3931 -1.1353
  171MPD1    H7 2617   1.154   3.719  15.348  1.0812  0.7252 -1.3944
  172MPD1     C 2618   0.412   2.373   0.716 -0.2809  0.0486  0.3035
  172MPD1    C1 2619   0.414   2.485   0.803 -0.1339  0.3090 -0.6782
  172MPD1    C2 2620   0.503   2.585   0.776 -0.0391 -0.2545 -0.0225
  172MPD1    C3 2621   0.607   2.577   0.687  0.2136 -0.0185  0.3730
  172MPD1    C4 2622   0.619   2.460   0.620  0.3472 -0.5352  0.3609
  172MPD1    C5 2623   0.515   2.362   0.627  0.1335 -0.4673  0.3693
  172MPD1     H 2624   0.487   2.662   0.849 -0.7904  0.0856 -0.5420
  172MPD1    H1 2625   0.709   2.433   0.565 -1.4368 -0.6863 -2.4890
  172MPD1    H2 2626   0.332   2.300   0.708 -0.8518  0.6650  0.4188
  172MPD1    H3 2627   0.513   2.272   0.567 -2.6379 -0.0728 -0.1270
  172MPD1     N 2628   0.708   2.668   0.679 -0.4251  0.1145  0.2721
  172MPD1    H5 2629   0.767   2.658   0.596 -1.0530 -2.0005  0.0961
  172MPD1    N1 2630   0.311   2.504   0.890  1.4445 -0.2914 -0.2576
  172MPD1    H6 2631   0.331   2.539   0.984 -2.0136 -0.7456  0.6633
  172MPD1    H7 2632   0.258   2.420   0.912 -0.4140  1.2597  1.2941
  173MPD1     C 2633   2.063   2.709  14.453 -0.0417 -0.7968 -0.1953
  173MPD1    C1 2634   2.154   2.607  14.456 -0.1312 -0.1975  0.1440
  173MPD1    C2 2635   2.107   2.491  14.516 -0.4642  0.4394 -0.3727
  173MPD1    C3 2636   1.989   2.485  14.584 -0.0784 -0.0802 -0.2705
  173MPD1    C4 2637   1.909   2.595  14.598 -0.0061  0.3486  0.3904
  173MPD1    C5 2638   1.942   2.709  14.528  0.1590 -0.6829  0.2210
  173MPD1     H 2639   2.166   2.402  14.498  0.3326  0.7545  0.6584
  173MPD1    H1 2640   1.819   2.597  14.658 -1.2013 -2.1262 -1.3123
  173MPD1    H2 2641   2.079   2.793  14.386 -0.3728 -1.3399 -0.9635
  173MPD1    H3 2642   1.872   2.789  14.506  0.1543  0.0074  2.7089
  173MPD1     N 2643   1.939   2.359  14.636  0.0955  0.2831  0.2002
  173MPD1    H5 2644   1.963   2.272  14.591 -2.8925 -0.1273 -0.5994
  173MPD1    N1 2645   2.264   2.608  14.369 -0.0216  0.3692 -0.4327
  173MPD1    H6 2646   2.311   2.696  14.347  2.6449 -0.0776  3.4751
  173MPD1    H7 2647   2.337   2.553  14.415 -1.2878  0.2297  1.3714
  174MPD1     C 2648   1.840   1.699  14.125 -0.3341  0.2549  0.5006
  174MPD1    C1 2649   1.790   1.636  14.233  0.4060  0.0995 -0.4620
  174MPD1    C2 2650   1.793   1.709  14.351 -0.5546  0.3103 -0.4444
  174MPD1    C3 2651   1.835   1.844  14.355  0.2399 -0.3850  0.4032
  174MPD1    C4 2652   1.899   1.896  14.249 -0.5135 -0.3596  0.0927
  174MPD1    C5 2653   1.899   1.827  14.133 -0.1252 -0.5972 -0.1691
  174MPD1     H 2654   1.747   1.660  14.436 -0.9340 -0.8625 -1.3182
  174MPD1    H1 2655   1.949   1.992  14.260 -2.1568  0.3655  1.2867
  174MPD1    H2 2656   1.830   1.657  14.025 -1.5623  1.7691 -0.0041
  174MPD1    H3 2657   1.948   1.861  14.043 -0.9529  1.5644  0.1936
  174MPD1     N 2658   1.820   1.921  14.473  0.3410  0.3958  0.0577
  174MPD1    H5 2659   1.859   2.015  14.470  1.3100  0.0538  1.9936
  174MPD1    N1 2660   1.715   1.515  14.229 -0.0770 -0.5615 -0.2145
  174MPD1    H6 2661   1.721   1.453  14.310  0.6015  0.6083  0.6385
  174MPD1    H7 2662   1.741   1.468  14.143 -2.2539 -1.2805 -0.4795
  175MPD1     C 2663   0.392   4.055  15.534  0.2390 -0.3269 -0.1666
  175MPD1    C1 2664   0.302   4.119  15.621  1.3098  0.5188  0.5902
  175MPD1    C2 2665   0.288   4.070  15.749 -0.3303  0.3078  0.2035
  175MPD1    C3 2666   0.350   3.957  15.793 -0.1215  0.1347  0.0193
  175MPD1    C4 2667   0.434   3.888  15.706 -0.4988  0.2610  0.1585
  175MPD1    C5 2668   0.458   3.942  15.580 -0.3534  0.8534  0.7287
  175MPD1     H 2669   0.233   4.125  15.824 -0.9629 -0.9804  0.6783
  175MPD1    H1 2670   0.488   3.797  15.728 -3.7532 -1.3500  1.3897
  175MPD1    H2 2671   0.426   4.092  15.437  1.4558 -0.0661  0.3600
  175MPD1    H3 2672   0.525   3.882  15.520 -0.3445  0.2862  1.3082
  175MPD1     N 2673   0.336   3.898  15.924 -0.0024  0.7070 -0.8398
  175MPD1    H5 2674   0.403   3.829  15.955  0.8700  2.2115  0.5998
  175MPD1    N1 2675   0.244   4.245  15.594  0.5196 -0.2822 -0.5170
  175MPD1    H6 2676   0.165   4.270  15.653  2.0776  1.5509  0.8067
  175MPD1    H7 2677   0.225   4.262  15.496  0.8548  1.1322 -0.3389
  176MPD1     C 2678   2.375   0.484   0.005 -0.3022 -0.5308  0.4313
  176MPD1    C1 2679   2.373   0.580  17.596  0.4391 -0.0087  0.2295
  176MPD1    C2 2680   2.367   0.715  17.640  0.7636  0.1521 -0.4542
  176MPD1    C3 2681   2.318   0.755   0.065 -0.2966 -0.1127  0.3848
  176MPD1    C4 2682   2.294   0.653   0.158 -0.7295 -0.2177  0.5056
  176MPD1    C5 2683   2.328   0.523   0.128 -0.4994  0.2671 -0.2465
  176MPD1     H 2684   2.390   0.786  17.561  0.6321  0.6329 -0.0591
  176MPD1    H1 2685   2.267   0.670   0.261  1.1256 -2.8775  1.4156
  176MPD1    H2 2686   2.400   0.380  17.690  2.3645  0.1946 -0.1550
  176MPD1    H3 2687   2.321   0.452   0.210  3.6920 -1.5629 -1.5112
  176MPD1     N 2688   2.301   0.894   0.084  0.1551 -0.5208  0.5041
  176MPD1    H5 2689   2.337   0.954   0.010 -0.6923 -5.2019 -3.7337
  176MPD1    N1 2690   2.429   0.548  17.473  0.4197 -0.0523  0.4485
  176MPD1    H6 2691   2.402   0.623  17.410  0.9190 -1.2140 -1.1529
  176MPD1    H7 2692   2.389   0.459  17.445 -0.1286 -0.0637  1.2763
  177MPD1     C 2693   0.836   4.721   9.368 -0.4484  0.6020  0.3495
  177MPD1    C1 2694   0.777   0.098   9.433  0.2629 -0.3802 -0.1093
  177MPD1    C2 2695   0.707   0.187   9.357  0.0206  0.1684  0.6375
  177MPD1    C3 2696   0.669   0.178   9.225  0.1700  0.1307  0.1249
  177MPD1    C4 2697   0.715   0.062   9.164 -0.5497 -0.8558 -0.4596
  177MPD1    C5 2698   0.803   4.707   9.231 -1.2756 -0.0465  0.2357
  177MPD1     H 2699   0.666   0.280   9.396  1.3803  0.7290  0.7096
  177MPD1    H1 2700   0.690   0.052   9.059  1.8683  1.2814 -1.2458
  177MPD1    H2 2701   0.912   4.654   9.407 -1.5458 -0.6037  0.3831
  177MPD1    H3 2702   0.840   4.626   9.169 -1.0336  0.7708 -0.6849
  177MPD1     N 2703   0.581   0.273   9.159  0.2990  0.0533  0.2314
  177MPD1    H5 2704   0.544   0.342   9.224 -0.0117 -0.6739  0.8256
  177MPD1    N1 2705   0.812   0.122   9.567  0.1171 -0.1403  0.1161
  177MPD1    H6 2706   0.850   0.039   9.612  0.3432  0.9899  2.0080
  177MPD1    H7 2707   0.736   0.157   9.624  2.5915  1.7630  2.2164
  178MPD1     C 2708   3.381   2.004   0.398  0.1552 -0.0987 -0.5330
  178MPD1    C1 2709   3.321   1.904   0.327  0.4663 -0.8223 -0.4387
  178MPD1    C2 2710   3.265   1.936   0.201  0.2475 -0.6720 -0.1358
  178MPD1    C3 2711   3.253   2.069   0.155 -0.2204  0.8345  0.3531
  178MPD1    C4 2712   3.300   2.170   0.240  0.1905  0.1783  0.4766
  178MPD1    C5 2713   3.374   2.136   0.348 -0.9782  0.0352 -0.1853
  178MPD1     H 2714   3.224   1.858   0.138  1.8840 -0.5323 -1.3571
  178MPD1    H1 2715   3.284   2.273   0.209 -0.8301 -0.5566 -1.4898
  178MPD1    H2 2716   3.439   1.998   0.489 -0.7425  1.2549  0.1322
  178MPD1    H3 2717   3.412   2.215   0.411 -0.5116 -1.9326  2.0092
  178MPD1     N 2718   3.191   2.110   0.031 -0.5334 -0.0773  0.4536
  178MPD1    H5 2719   3.197   2.211   0.023  1.4725 -0.2335  0.0914
  178MPD1    N1 2720   3.355   1.778   0.368  0.4080 -1.2831 -0.4680
  178MPD1    H6 2721   3.286   1.710   0.336 -0.3505 -0.5482 -0.3980
  178MPD1    H7 2722   3.352   1.774   0.470 -0.9077  0.6882 -0.4208
  179MPD1     C 2723   2.740   4.723  16.558 -0.1401  0.4353 -0.2899
  179MPD1    C1 2724   2.826   4.613  16.552 -0.2111 -0.0712 -0.4111
  179MPD1    C2 2725   2.820   4.526  16.446 -0.0173  0.0875  0.4021
  179MPD1    C3 2726   2.729   4.552  16.346  0.8776  0.3135 -0.0575
  179MPD1    C4 2727   2.652   4.664  16.337  0.5299 -0.2707  0.3646
  179MPD1    C5 2728   2.660   0.018  16.448 -0.5045 -0.2033 -0.5744
  179MPD1     H 2729   2.885   4.440  16.446 -0.7993 -0.5077 -0.8392
  179MPD1    H1 2730   2.585   4.695  16.258  3.4128  2.3897 -1.0206
  179MPD1    H2 2731   2.749   0.076  16.634 -2.4772  1.5995 -1.1770
  179MPD1    H3 2732   2.595   0.105  16.445  0.5545  0.7007  2.1427
  179MPD1     N 2733   2.703   4.467  16.230  0.3143 -0.1738  0.2546
  179MPD1    H5 2734   2.645   4.507  16.158  1.7822  0.6600 -0.4743
  179MPD1    N1 2735   2.917   4.590  16.655  0.3350  0.0182 -0.4493
  179MPD1    H6 2736   2.915   4.679  16.706  1.4370  0.2401 -0.8042
  179MPD1    H7 2737   3.005   4.574  16.607  0.9050 -1.4211  1.0726
  180MPD1     C 2738   1.499   1.010  14.860 -0.0777  0.4957  0.3161
  180MPD1    C1 2739   1.609   1.093  14.846  0.1556  0.4808 -0.0182
  180MPD1    C2 2740   1.711   1.042  14.763  0.1349 -0.3470  0.2060
  180MPD1    C3 2741   1.692   0.921  14.694 -0.2730 -0.4154 -0.2725
  180MPD1    C4 2742   1.589   0.833  14.728 -0.1533 -0.7383 -0.4610
  180MPD1    C5 2743   1.490   0.885  14.807 -0.2123  0.2113  0.8674
  180MPD1     H 2744   1.807   1.092  14.754 -1.0088  1.9919  0.9693
  180MPD1    H1 2745   1.585   0.730  14.695 -0.7648 -1.4364  1.8040
  180MPD1    H2 2746   1.424   1.036  14.935  0.8127  1.2072  0.9554
  180MPD1    H3 2747   1.404   0.829  14.842 -1.4520  0.9717 -0.9666
  180MPD1     N 2748   1.788   0.889  14.596  0.5553 -0.4557 -0.1999
  180MPD1    H5 2749   1.872   0.947  14.592 -2.0322  3.3390  0.6212
  180MPD1    N1 2750   1.636   1.199  14.936  0.3034 -0.5595 -0.1695
  180MPD1    H6 2751   1.557   1.245  14.981  0.4815  0.7021 -1.1740
  180MPD1    H7 2752   1.694   1.276  14.904 -1.1654  0.2247 -0.9126
  181MPD1     C 2753   4.482   2.818   8.715 -0.2040  0.4951  0.6224
  181MPD1    C1 2754   4.482   2.946   8.771 -0.5254 -0.0351  0.3279
  181MPD1    C2 2755   4.502   2.954   8.906 -0.1070 -0.1993  0.2745
  181MPD1    C3 2756   4.523   2.843   8.984 -0.2707  0.3145 -0.4215
  181MPD1    C4 2757   4.534   2.719   8.922  0.7198 -0.0674 -0.1323
  181MPD1    C5 2758   4.508   2.711   8.789 -0.5725 -0.0228  0.2425
  181MPD1     H 2759   4.505   3.055   8.945  0.2379  0.4144 -1.3383
  181MPD1    H1 2760   4.556   2.627   8.976 -2.1933 -0.9598 -0.4674
  181MPD1    H2 2761   4.457   2.806   8.610 -2.2923  0.5898  1.1060
  181MPD1    H3 2762   4.530   2.617   8.740 -0.0870 -0.4184  1.2127
  181MPD1     N 2763   4.535   2.850   9.126 -0.1284 -0.0480  0.6248
  181MPD1    H5 2764   4.552   2.767   9.182  2.3682 -1.1190 -1.7166
  181MPD1    N1 2765   4.430   3.057   8.702  0.9313  0.6024 -0.3193
  181MPD1    H6 2766   4.480   3.139   8.735  1.0118  0.9238 -1.2617
  181MPD1    H7 2767   4.445   3.045   8.602 -0.3487 -1.8983 -0.2228
  182MPD1     C 2768   0.982   2.089   1.811  0.2742 -0.8148  0.0334
  182MPD1    C1 2769   0.924   1.988   1.738  0.3882 -0.1449 -0.1938
  182MPD1    C2 2770   0.787   1.994   1.709 -0.0842  0.2088 -0.5750
  182MPD1    C3 2771   0.713   2.110   1.729 -0.0439 -0.9512 -0.1954
  182MPD1    C4 2772   0.773   2.210   1.804  0.4481 -0.6875  0.2696
  182MPD1    C5 2773   0.905   2.194   1.852  0.1784 -0.1170  0.2927
  182MPD1     H 2774   0.744   1.903   1.668 -1.6324 -0.0847  1.7138
  182MPD1    H1 2775   0.724   2.298   1.843  1.3297 -0.5352  1.0527
  182MPD1    H2 2776   1.084   2.076   1.847  0.0175  1.0306  1.4538
  182MPD1    H3 2777   0.952   2.270   1.913  0.3312 -1.0962  1.4003
  182MPD1     N 2778   0.593   2.142   1.658  0.5400 -0.7375  0.2760
  182MPD1    H5 2779   0.560   2.237   1.667  0.6213 -0.7263  0.4491
  182MPD1    N1 2780   0.996   1.874   1.702 -0.7984  0.3323  0.4543
  182MPD1    H6 2781   0.966   1.827   1.617 -1.2477  0.6355  0.4422
  182MPD1    H7 2782   1.092   1.906   1.690 -0.2658 -0.7228  1.9819
  183MPD1     C 2783   0.322   1.980   8.910  0.0839  0.4375  0.2205
  183MPD1    C1 2784   0.431   2.014   8.985  0.3869  0.0828 -0.0959
  183MPD1    C2 2785   0.435   2.131   9.060  0.1290 -0.2348 -0.0905
  183MPD1    C3 2786   0.330   2.218   9.055 -0.5939 -1.2499 -0.8707
  183MPD1    C4 2787   0.219   2.177   8.991 -0.0241 -0.7887  0.3257
  183MPD1    C5 2788   0.209   2.055   8.923  0.0879 -0.6145  0.1143
  183MPD1     H 2789   0.515   2.153   9.131  0.1559  0.0001 -0.1955
  183MPD1    H1 2790   0.131   2.240   8.991 -0.0849 -0.8770 -2.0471
  183MPD1    H2 2791   0.325   1.898   8.839  0.2703  1.4139 -0.8923
  183MPD1    H3 2792   0.124   2.020   8.865  0.1535  0.1178 -0.4274
  183MPD1     N 2793   0.358   2.336   9.123 -0.0330  0.4892 -0.3936
  183MPD1    H5 2794   0.442   2.341   9.180 -0.0434  0.3344 -0.3659
  183MPD1    N1 2795   0.545   1.934   8.987 -0.6346  0.1415  0.0484
  183MPD1    H6 2796   0.518   1.836   8.986 -1.7201  0.4753 -3.3249
  183MPD1    H7 2797   0.602   1.942   9.071 -1.8558  0.8417  0.8111
  184MPD1     C 2798   0.111   4.518   9.731 -0.1501 -0.0756 -0.4548
  184MPD1    C1 2799   0.168   4.584   9.837  0.1517  0.0468 -0.3833
  184MPD1    C2 2800   0.167   0.001   9.848  0.2508  0.8761 -0.2143
  184MPD1    C3 2801   0.133   0.070   9.734 -0.5168  0.1752 -0.0094
  184MPD1    C4 2802   0.094   4.721   9.622 -0.5851  0.5751  0.9695
  184MPD1    C5 2803   0.077   4.590   9.625  0.0336  0.5246 -0.7628
  184MPD1     H 2804   0.213   0.048   9.934  0.6240  1.2616 -0.6244
  184MPD1    H1 2805   0.050   0.044   9.535 -2.6832 -0.5685  1.4269
  184MPD1    H2 2806   0.099   4.411   9.728  0.1346 -0.0884 -1.0435
  184MPD1    H3 2807   0.026   4.545   9.540  2.1419  3.0044 -3.3722
  184MPD1     N 2808   0.140   0.212   9.720 -0.4228 -0.2614 -0.2875
  184MPD1    H5 2809   0.115   0.260   9.634 -1.5772  0.3815  0.4022
  184MPD1    N1 2810   0.192   4.507   9.956  0.1544  0.7310 -0.0808
  184MPD1    H6 2811   0.224   4.412   9.934 -0.5461  0.1804  1.2724
  184MPD1    H7 2812   0.258   4.559  10.014  0.0596 -0.3813  1.0447
  185MPD1     C 2813   4.530   0.644   9.102 -0.3358  0.3061  0.2508
  185MPD1    C1 2814   4.543   0.753   9.184 -0.3026  1.2954  0.2664
  185MPD1    C2 2815   4.593   0.734   9.309  0.9922 -0.1029  0.6150
  185MPD1    C3 2816   4.612   0.604   9.361 -0.3092 -0.0576  0.4627
  185MPD1    C4 2817   4.584   0.498   9.282  0.0582  0.4716  0.1612
  185MPD1    C5 2818   4.547   0.519   9.153  0.4221  0.9143 -1.2069
  185MPD1     H 2819   4.609   0.820   9.374  1.0379  0.4072 -0.0650
  185MPD1    H1 2820   4.580   0.400   9.330 -1.0153 -0.0012 -0.8762
  185MPD1    H2 2821   4.508   0.649   8.996 -0.4212 -3.2057  0.0758
  185MPD1    H3 2822   4.506   0.439   9.092  0.7219  2.0612 -2.9208
  185MPD1     N 2823   4.677   0.572   9.480 -0.2337  0.1443  0.4569
  185MPD1    H5 2824   4.710   0.477   9.487 -0.8372 -0.1517 -0.6152
  185MPD1    N1 2825   4.536   0.881   9.122 -0.2529 -1.2258 -0.5747
  185MPD1    H6 2826   4.444   0.868   9.082 -0.5426  0.2915 -0.3846
  185MPD1    H7 2827   4.526   0.956   9.190  1.2151 -0.9471 -0.6656
  186MPD1     C 2828   3.162   4.476  16.064 -0.1628  0.0527  0.0674
  186MPD1    C1 2829   3.171   4.440  16.196  0.1928 -0.2919 -0.7398
  186MPD1    C2 2830   3.184   4.541  16.289 -0.1746 -0.3244  0.1456
  186MPD1    C3 2831   3.143   4.668  16.256 -0.5759  0.5485  0.2659
  186MPD1    C4 2832   3.122   4.702  16.122  0.7327  0.7678  0.0289
  186MPD1    C5 2833   3.132   4.603  16.027  0.3077  0.9895  0.4907
  186MPD1     H 2834   3.199   4.506  16.390 -0.3332  2.3509  1.0853
  186MPD1    H1 2835   3.089   0.070  16.076 -1.4354  0.2270  0.4765
  186MPD1    H2 2836   3.178   4.401  15.987 -0.0543  0.6396 -0.4781
  186MPD1    H3 2837   3.131   4.627  15.922  3.5716 -1.9032 -0.1850
  186MPD1     N 2838   3.138   0.053  16.337  0.0985  0.0603  0.2348
  186MPD1    H5 2839   3.115   0.144  16.299  1.2101  1.6864  3.3958
  186MPD1    N1 2840   3.215   4.312  16.230  0.1204  0.4385  0.7080
  186MPD1    H6 2841   3.169   4.236  16.181 -2.4573  3.6672 -1.9517
  186MPD1    H7 2842   3.200   4.282  16.326 -2.2779  0.1066  0.2375
  187MPD1     C 2843   2.639   2.200   0.471  0.0518 -0.0126  0.8308
  187MPD1    C1 2844   2.608   2.081   0.431 -0.7894 -0.4543  0.5809
  187MPD1    C2 2845   2.529   2.072   0.311  0.1960 -0.3507  0.7407
  187MPD1    C3 2846   2.493   2.179   0.238  0.0942 -1.0158 -0.4914
  187MPD1    C4 2847   2.527   2.304   0.290 -0.3288  0.0846  0.7635
  187MPD1    C5 2848   2.600   2.307   0.401  0.1524 -0.2307 -0.1814
  187MPD1     H 2849   2.522   1.969   0.276  1.5803 -0.4827  0.8591
  187MPD1    H1 2850   2.496   2.397   0.243  1.5643 -0.9454 -2.4929
  187MPD1    H2 2851   2.701   2.217   0.559 -0.4493 -1.5030  1.4619
  187MPD1    H3 2852   2.627   2.408   0.427  3.2533 -1.9054  2.9936
  187MPD1     N 2853   2.419   2.173   0.113  0.1748  0.4076  0.1998
  187MPD1    H5 2854   2.406   2.258   0.059 -4.3841  0.3053  1.1288
  187MPD1    N1 2855   2.652   1.968   0.505 -0.3820  0.2865  0.1353
  187MPD1    H6 2856   2.664   2.008   0.598  0.0407  0.5547 -0.0358
  187MPD1    H7 2857   2.746   1.939   0.477  0.3782  0.9729  1.9597
  188MPD1     C 2858   3.075   2.202  10.000  1.0581 -0.4850 -0.3614
  188MPD1    C1 2859   3.185   2.122   9.955 -0.4498 -0.8938 -0.4710
  188MPD1    C2 2860   3.178   1.981   9.954  0.4358 -0.9593  0.7313
  188MPD1    C3 2861   3.055   1.921   9.992  0.6633 -0.5141  0.7670
  188MPD1    C4 2862   2.946   2.006  10.025 -0.4060 -0.1338 -0.3304
  188MPD1    C5 2863   2.953   2.141  10.029  0.0237 -0.2559  0.5660
  188MPD1     H 2864   3.250   1.916   9.906  0.4014  0.4045 -1.1972
  188MPD1    H1 2865   2.854   1.958  10.055 -0.3374  0.8350  1.4524
  188MPD1    H2 2866   3.078   2.310  10.006 -0.4465 -0.4657 -0.0593
  188MPD1    H3 2867   2.866   2.197  10.062  0.6362 -0.9644  3.3650
  188MPD1     N 2868   3.024   1.783   9.991 -0.4486  0.1372 -0.4909
  188MPD1    H5 2869   2.927   1.771  10.019 -0.2332  0.6709  0.4861
  188MPD1    N1 2870   3.305   2.178   9.927  0.1754  0.2649 -0.1540
  188MPD1    H6 2871   3.289   2.268   9.883  1.5589  0.7148  0.2627
  188MPD1    H7 2872   3.347   2.119   9.856 -2.4770  1.3844 -2.6705
  189MPD1     C 2873   3.933   2.329   0.706 -0.0598  0.1875 -0.9168
  189MPD1    C1 2874   3.800   2.301   0.704  0.6425 -0.1371  0.8220
  189MPD1    C2 2875   3.707   2.375   0.634  0.1323 -0.0249  0.5874
  189MPD1    C3 2876   3.747   2.495   0.587 -0.8487  0.4723 -0.2140
  189MPD1    C4 2877   3.881   2.527   0.595  0.1915 -0.2018 -0.0739
  189MPD1    C5 2878   3.973   2.450   0.663 -0.1154 -0.1701 -0.0128
  189MPD1     H 2879   3.608   2.337   0.610 -1.1663  2.9656  1.2375
  189MPD1    H1 2880   3.911   2.620   0.547 -1.2897  0.6401  0.6370
  189MPD1    H2 2881   3.995   2.264   0.766 -1.3479 -0.3932 -0.2233
  189MPD1    H3 2882   4.076   2.486   0.664 -0.6477  1.3449  0.4914
  189MPD1     N 2883   3.653   2.572   0.517  0.4237 -0.1221  1.2223
  189MPD1    H5 2884   3.563   2.529   0.496  1.4196 -0.9382 -1.3068
  189MPD1    N1 2885   3.761   2.171   0.745 -0.0982 -1.0886  0.2581
  189MPD1    H6 2886   3.663   2.182   0.771  0.6881 -2.7233  3.9819
  189MPD1    H7 2887   3.811   2.140   0.827 -0.3907 -4.1828 -0.7341
  190MPD1     C 2888   2.352   1.255  15.442 -0.2434  0.9491  0.3750
  190MPD1    C1 2889   2.468   1.275  15.364  0.5787  0.0673 -0.7330
  190MPD1    C2 2890   2.592   1.264  15.427  0.1485  0.9732 -0.0560
  190MPD1    C3 2891   2.602   1.252  15.563 -0.0565 -0.4007 -0.0619
  190MPD1    C4 2892   2.489   1.248  15.638  0.7031  0.2394  0.2484
  190MPD1    C5 2893   2.366   1.252  15.576  0.2770 -0.2523  0.0138
  190MPD1     H 2894   2.688   1.266  15.378 -0.8568 -1.7391 -2.0909
  190MPD1    H1 2895   2.487   1.233  15.745  0.8270 -0.2808  0.1783
  190MPD1    H2 2896   2.252   1.246  15.403  0.0126  2.8230 -0.7006
  190MPD1    H3 2897   2.273   1.255  15.632  0.6921  3.4260  0.4651
  190MPD1     N 2898   2.732   1.251  15.620 -0.4482 -0.6208 -0.0413
  190MPD1    H5 2899   2.807   1.257  15.553 -1.1901 -2.2186 -1.0088
  190MPD1    N1 2900   2.469   1.265  15.220 -0.1213 -0.0665 -0.5086
  190MPD1    H6 2901   2.552   1.309  15.180  2.1615  0.2280  4.5044
  190MPD1    H7 2902   2.391   1.314  15.178  0.4184  3.5069  2.5629
  191MPD1     C 2903   2.102   3.326  12.689  0.2170  0.3729 -0.3371
  191MPD1    C1 2904   2.210   3.249  12.653  0.0373 -0.1739 -0.2567
  191MPD1    C2 2905   2.243   3.240  12.519 -0.4915 -0.0721 -1.1698
  191MPD1    C3 2906   2.169   3.311  12.425 -0.1882 -0.0346  0.0134
  191MPD1    C4 2907   2.055   3.386  12.466 -0.3786  0.3673 -0.5805
  191MPD1    C5 2908   2.025   3.390  12.600  0.0347 -0.2404  0.6457
  191MPD1     H 2909   2.330   3.179  12.496 -0.2410 -1.7535  4.3797
  191MPD1    H1 2910   1.994   3.453  12.407  1.1902  0.1986 -2.4053
  191MPD1    H2 2911   2.073   3.326  12.793 -0.2832 -0.0611 -0.4776
  191MPD1    H3 2912   1.939   3.453  12.620 -1.3752 -1.8114 -0.4706
  191MPD1     N 2913   2.200   3.299  12.287  0.3574  0.1669 -0.1210
  191MPD1    H5 2914   2.278   3.237  12.266  1.3787  1.0344  1.0852
  191MPD1    N1 2915   2.263   3.154  12.741  0.3599 -0.0591 -0.6240
  191MPD1    H6 2916   2.265   3.195  12.834 -0.8499  0.9442 -1.0323
  191MPD1    H7 2917   2.350   3.110  12.715  0.3968 -0.3596  0.0153
  192MPD1     C 2918   2.248   4.027  11.578 -0.0651 -0.0834 -0.1483
  192MPD1    C1 2919   2.167   3.926  11.529  0.0072 -0.2457  0.2267
  192MPD1    C2 2920   2.170   3.803  11.592  0.0160 -0.1249 -0.0718
  192MPD1    C3 2921   2.267   3.776  11.686  0.1353  0.2324 -0.7885
  192MPD1    C4 2922   2.362   3.873  11.709  0.4865 -0.0579 -0.8980
  192MPD1    C5 2923   2.354   3.997  11.651 -0.3046 -0.0386  0.3406
  192MPD1     H 2924   2.108   3.718  11.569  0.3604 -0.7106  1.1521
  192MPD1    H1 2925   2.443   3.853  11.778  0.9191 -1.1821 -1.7306
  192MPD1    H2 2926   2.234   4.131  11.551 -2.9114 -0.3497  0.2843
  192MPD1    H3 2927   2.427   4.075  11.669 -1.0199  0.5669  0.6262
  192MPD1     N 2928   2.275   3.655  11.755 -0.5154 -0.3136  0.1249
  192MPD1    H5 2929   2.355   3.641  11.816 -0.6477 -1.1356  0.1134
  192MPD1    N1 2930   2.069   3.963  11.435  0.2884  0.4464 -0.0285
  192MPD1    H6 2931   2.092   4.043  11.376  0.0575  2.8617  3.1205
  192MPD1    H7 2932   2.034   3.890  11.374 -1.0718  0.6279  0.5486
  193MPD1     C 2933   2.116   2.852  17.581 -0.3565  0.0729 -0.0138
  193MPD1    C1 2934   2.061   2.973  17.614 -0.1508  0.0948  0.1526
  193MPD1    C2 2935   2.024   3.062  17.510 -0.0185  0.7988  0.0046
  193MPD1    C3 2936   2.065   3.041  17.378 -0.8022  0.0877 -0.6216
  193MPD1    C4 2937   2.126   2.921  17.350  0.7418  0.6167 -0.0379
  193MPD1    C5 2938   2.154   2.832  17.451  0.0781 -0.0329 -0.3816
  193MPD1     H 2939   1.959   3.144  17.537  0.4414  0.1714  2.9875
  193MPD1    H1 2940   2.151   2.896  17.247  1.4677 -2.2968  0.8541
  193MPD1    H2 2941   2.139   2.765  17.642 -0.4690 -0.2192 -0.3861
  193MPD1    H3 2942   2.201   2.737  17.427 -1.8482 -0.7287 -1.3468
  193MPD1     N 2943   2.028   3.126  17.272  0.4929  0.1431  0.4474
  193MPD1    H5 2944   2.054   3.102  17.176  0.7977 -1.3346  0.9023
  193MPD1    N1 2945   2.001   2.992   0.040  0.5611 -0.0059  0.2366
  193MPD1    H6 2946   1.991   3.091   0.064 -0.4642  0.2721 -1.3492
  193MPD1    H7 2947   2.074   2.958   0.102 -1.2161 -2.9690  0.7199
  194MPD1     C 2948   4.234   0.949  17.025 -0.0874 -0.2950 -0.6306
  194MPD1    C1 2949   4.170   0.849  16.953  0.6153  0.6486 -0.2736
  194MPD1    C2 2950   4.161   0.721  17.006 -0.0301  0.3309  0.5633
  194MPD1    C3 2951   4.206   0.705  17.138 -0.0059  0.4235 -0.2896
  194MPD1    C4 2952   4.278   0.802  17.202  0.0142  0.1018  0.2764
  194MPD1    C5 2953   4.292   0.926  17.144  0.1266 -0.7538  0.1366
  194MPD1     H 2954   4.103   0.647  16.951 -2.2835  1.3809  1.5452
  194MPD1    H1 2955   4.334   0.785  17.293  0.3467  2.3564  0.5085
  194MPD1    H2 2956   4.238   1.050  16.985  1.2751 -0.2677 -0.4421
  194MPD1    H3 2957   4.338   1.009  17.196  1.3967 -1.4838  0.1984
  194MPD1     N 2958   4.197   0.581  17.209 -0.1739  0.0852 -0.4734
  194MPD1    H5 2959   4.220   0.581  17.308  0.1930 -0.5611 -0.5569
  194MPD1    N1 2960   4.096   0.883  16.842 -0.1085  0.0290 -0.1940
  194MPD1    H6 2961   4.090   0.810  16.771  1.5461 -1.0572  0.7784
  194MPD1    H7 2962   4.126   0.973  16.804 -0.6143 -1.0175 -3.0862
  195MPD1     C 2963   1.988   2.468   0.017 -0.7120 -0.1042 -0.2126
  195MPD1    C1 2964   1.907   2.530   0.109  0.0660 -0.0302 -0.8385
  195MPD1    C2 2965   1.838   2.450   0.195 -0.0457 -0.2500  0.5396
  195MPD1    C3 2966   1.864   2.315   0.205  0.7310  0.1059  0.8828
  195MPD1    C4 2967   1.959   2.254   0.117  0.1421 -0.0131  0.3134
  195MPD1    C5 2968   2.014   2.334   0.021 -0.1103 -0.1645 -0.0981
  195MPD1     H 2969   1.756   2.502   0.244  1.0059  1.6265  0.3220
  195MPD1    H1 2970   1.970   2.148   0.097 -0.0845  0.2250 -1.0955
  195MPD1    H2 2971   2.035   2.526  17.635  0.7787 -1.0111  0.0017
  195MPD1    H3 2972   2.078   2.286  17.645 -0.3515  1.0217 -1.0805
  195MPD1     N 2973   1.804   2.234   0.306  0.7133  0.0128 -0.3997
  195MPD1    H5 2974   1.853   2.145   0.317 -0.4293 -0.3719  1.6188
  195MPD1    N1 2975   1.873   2.667   0.094  0.2323  1.2994  0.1281
  195MPD1    H6 2976   1.820   2.714   0.167 -0.0491  0.8651  0.2023
  195MPD1    H7 2977   1.951   2.730   0.077  0.7379  1.3284  2.5718
  196MPD1     C 2978   0.550   1.287   0.719 -0.5606 -0.2721  0.1356
  196MPD1    C1 2979   0.586   1.392   0.636 -0.5397  0.2815 -0.1905
  196MPD1    C2 2980   0.675   1.489   0.688 -0.5275  0.1201 -0.4042
  196MPD1    C3 2981   0.728   1.479   0.818  0.2659  0.0221 -0.0708
  196MPD1    C4 2982   0.686   1.374   0.894  0.1788 -0.4215 -0.1902
  196MPD1    C5 2983   0.605   1.277   0.846 -0.5655 -0.2086  0.6385
  196MPD1     H 2984   0.721   1.557   0.618 -1.6627  0.3987 -0.8893
  196MPD1    H1 2985   0.728   1.362   0.993  0.6237  0.1179 -0.3131
  196MPD1    H2 2986   0.507   1.192   0.689 -2.1577  0.7595 -0.8282
  196MPD1    H3 2987   0.598   1.180   0.893 -1.2714 -1.4817 -2.0666
  196MPD1     N 2988   0.826   1.571   0.866 -0.5527 -0.0011 -0.1274
  196MPD1    H5 2989   0.857   1.559   0.962 -0.0899  0.1615 -0.2574
  196MPD1    N1 2990   0.551   1.396   0.500 -0.2311  0.0375 -1.0305
  196MPD1    H6 2991   0.460   1.351   0.487 -0.2381 -0.4545  0.7154
  196MPD1    H7 2992   0.540   1.491   0.463 -2.4116 -0.0454 -0.6332
  197MPD1     C 2993   0.403   3.069   0.221 -0.4492 -0.2175  0.7619
  197MPD1    C1 2994   0.347   3.081   0.091  0.0906 -0.7609 -0.2076
  197MPD1    C2 2995   0.401   3.171   0.007 -0.7754 -0.5480 -0.1528
  197MPD1    C3 2996   0.514   3.240   0.032 -0.2049 -0.7566 -0.5572
  197MPD1    C4 2997   0.572   3.219   0.157  0.0122  0.3511 -0.6130
  197MPD1    C5 2998   0.517   3.127   0.249  0.2317  0.4827  0.6606
  197MPD1     H 2999   0.358   3.183  17.606 -3.0184  0.9105  0.9835
  197MPD1    H1 3000   0.664   3.272   0.182  0.3414 -0.2562 -0.5383
  197MPD1    H2 3001   0.370   3.010   0.306 -0.0477 -0.1384  0.9687
  197MPD1    H3 3002   0.551   3.111   0.351  1.3270 -1.3498  0.0122
  197MPD1     N 3003   0.582   3.323  17.635  0.0129 -0.5258 -0.3824
  197MPD1    H5 3004   0.681   3.342  17.647  0.2011 -2.3055  0.9470
  197MPD1    N1 3005   0.223   3.029   0.066  0.0911  0.2798  0.9329
  197MPD1    H6 3006   0.195   2.950   0.125  1.3319 -1.3680 -0.7019
  197MPD1    H7 3007   0.188   3.010  17.670 -1.3427 -0.8022  1.6761
  198MPD1     C 3008   2.663   2.098  16.203  0.2508  0.5847  1.0580
  198MPD1    C1 3009   2.726   2.170  16.104  0.2594  0.5031 -0.2475
  198MPD1    C2 3010   2.818   2.259  16.148 -0.6263 -1.1037 -0.1503
  198MPD1    C3 3011   2.852   2.286  16.280 -0.4114  0.5350  0.6772
  198MPD1    C4 3012   2.784   2.215  16.375 -0.0471  0.3406  0.4048
  198MPD1    C5 3013   2.692   2.119  16.334 -0.0748 -0.5573  0.4066
  198MPD1     H 3014   2.873   2.322  16.080  1.0385 -1.8682  0.4937
  198MPD1    H1 3015   2.798   2.227  16.482 -2.0537  0.4035  0.6694
  198MPD1    H2 3016   2.586   2.023  16.188  1.3112 -0.4814  0.9707
  198MPD1    H3 3017   2.646   2.061  16.413  0.6621 -0.9203  0.5697
  198MPD1     N 3018   2.942   2.387  16.313 -0.4783  0.2267 -0.6636
  198MPD1    H5 3019   2.986   2.430  16.232  0.6848  0.9895  0.3832
  198MPD1    N1 3020   2.693   2.162  15.964 -0.3753  0.6519  0.3430
  198MPD1    H6 3021   2.641   2.079  15.937 -0.7034  0.6741  0.9001
  198MPD1    H7 3022   2.774   2.177  15.904 -1.2789  0.2421 -0.9681
  199MPD1     C 3023   0.127   3.715   9.910  0.0260 -0.7395  0.2730
  199MPD1    C1 3024   0.046   3.617   9.862 -0.7209 -0.0010  0.3836
  199MPD1    C2 3025   4.684   3.640   9.751 -0.2007 -0.1990 -0.7566
  199MPD1    C3 3026   4.683   3.771   9.701 -0.2238 -0.1452 -0.1854
  199MPD1    C4 3027   0.045   3.864   9.743  1.0371  0.0172  0.3875
  199MPD1    C5 3028   0.125   3.837   9.855  0.5010 -0.2296  0.0251
  199MPD1     H 3029   4.626   3.569   9.692  3.2441 -3.8660  0.3105
  199MPD1    H1 3030   0.056   3.962   9.697 -0.0173  0.9928  2.2070
  199MPD1    H2 3031   0.192   3.699   9.996 -0.8932  3.5703  1.7979
  199MPD1    H3 3032   0.187   3.917   9.893  1.6735 -1.0256 -0.2120
  199MPD1     N 3033   4.607   3.812   9.587 -0.6965 -0.0904  0.3506
  199MPD1    H5 3034   4.624   3.910   9.567 -0.7488 -0.0579  0.4685
  199MPD1    N1 3035   0.065   3.487   9.901 -0.3938 -0.4390  0.3553
  199MPD1    H6 3036   0.087   3.490  10.000  1.0683  0.0103  0.0219
  199MPD1    H7 3037   4.698   3.443   9.889 -0.5986  0.2523 -0.6380
  200MPD1     C 3038   4.422   3.142  15.096 -0.8719  0.0020 -0.6289
  200MPD1    C1 3039   4.421   3.235  14.996 -0.0414  0.0033  0.4014
  200MPD1    C2 3040   4.327   3.337  14.998 -0.7607 -0.6099  0.1230
  200MPD1    C3 3041   4.221   3.338  15.089 -0.6183  0.6518 -0.0591
  200MPD1    C4 3042   4.221   3.239  15.187  0.7633 -0.4834 -0.2604
  200MPD1    C5 3043   4.320   3.144  15.191 -0.2519  0.6805  0.1839
  200MPD1     H 3044   4.328   3.412  14.919 -0.9398 -0.4807  0.2427
  200MPD1    H1 3045   4.135   3.229  15.252  0.0883 -0.1128 -1.0988
  200MPD1    H2 3046   4.496   3.065  15.111 -0.2231  0.9852  1.3202
  200MPD1    H3 3047   4.319   3.068  15.269 -1.8706  0.5561  0.0447
  200MPD1     N 3048   4.117   3.427  15.068  0.7267 -0.7800  0.1310
  200MPD1    H5 3049   4.144   3.506  15.011 -0.8565  0.2077  0.7745
  200MPD1    N1 3050   4.525   3.238  14.906 -0.1873  0.1577 -0.1717
  200MPD1    H6 3051   4.553   3.142  14.886 -2.0256  0.1207 -2.5575
  200MPD1    H7 3052   4.502   3.274  14.813  0.1271  0.0469 -0.2955
  201MPD1     C 3053   2.397   2.608  13.305  0.1228 -0.0351  0.1076
  201MPD1    C1 3054   2.339   2.585  13.425  0.0047  0.5965 -0.6932
  201MPD1    C2 3055   2.259   2.473  13.437  0.2135  1.0435 -0.0650
  201MPD1    C3 3056   2.228   2.393  13.330 -0.2128 -0.4994  0.0706
  201MPD1    C4 3057   2.283   2.425  13.208 -0.2108 -0.3398  0.6918
  201MPD1    C5 3058   2.358   2.536  13.192  0.6061 -0.0274  1.0365
  201MPD1     H 3059   2.230   2.440  13.536  3.2148 -2.0126 -0.2098
  201MPD1    H1 3060   2.252   2.378  13.115  1.4661  2.1072 -1.1237
  201MPD1    H2 3061   2.460   2.692  13.280 -1.2079  0.7689 -0.5583
  201MPD1    H3 3062   2.392   2.560  13.092 -3.9224  0.5967 -0.3403
  201MPD1     N 3063   2.143   2.270  13.342 -0.1301  0.1290 -0.5885
  201MPD1    H5 3064   2.100   2.256  13.433  0.9364 -3.0579 -0.5727
  201MPD1    N1 3065   2.380   2.662  13.542  0.3194  0.0818 -0.6819
  201MPD1    H6 3066   2.396   2.758  13.512  0.8922 -0.2904 -1.5928
  201MPD1    H7 3067   2.304   2.672  13.608  1.1813 -1.3942  0.5217
  202MPD1     C 3068   1.021   1.492   9.008  0.0325  0.5929  0.7052
  202MPD1    C1 3069   0.907   1.555   9.057 -0.4085 -0.4410  0.1728
  202MPD1    C2 3070   0.931   1.611   9.186  0.4241 -0.1755  0.3722
  202MPD1    C3 3071   1.043   1.587   9.269 -0.4606 -0.8399 -0.0347
  202MPD1    C4 3072   1.141   1.504   9.216 -0.3289  0.7326  0.3046
  202MPD1    C5 3073   1.131   1.467   9.090  0.8561  0.6656 -0.2378
  202MPD1     H 3074   0.851   1.663   9.237  0.9396 -0.1013  1.1070
  202MPD1    H1 3075   1.233   1.487   9.270 -1.4296 -1.6068  1.4242
  202MPD1    H2 3076   1.031   1.461   8.905 -0.7809 -1.7621  1.3341
  202MPD1    H3 3077   1.214   1.429   9.032  1.5243 -0.6576  1.5945
  202MPD1     N 3078   1.077   1.649   9.392 -0.3139  0.5384 -0.0227
  202MPD1    H5 3079   1.173   1.651   9.425 -0.5825 -0.3821  0.8138
  202MPD1    N1 3080   0.811   1.614   8.970  0.3793  0.1241  0.7248
  202MPD1    H6 3081   0.720   1.621   9.014  0.4093  2.2650  0.4325
  202MPD1    H7 3082   0.812   1.570   8.878 -1.7619  0.9712  0.3220
  203MPD1     C 3083   0.266   3.448  13.091  0.5273 -0.9041 -0.0175
  203MPD1    C1 3084   0.249   3.358  13.190 -0.9012  0.4251 -0.4025
  203MPD1    C2 3085   0.254   3.220  13.154 -0.6487 -0.3799 -0.2640
  203MPD1    C3 3086   0.284   3.171  13.022 -0.0272  0.2585 -0.8168
  203MPD1    C4 3087   0.322   3.265  12.930 -0.3336 -0.5283  0.3494
  203MPD1    C5 3088   0.310   3.401  12.963 -0.1427  0.1326 -0.4336
  203MPD1     H 3089   0.239   3.148  13.233 -1.6010 -1.5084 -1.4728
  203MPD1    H1 3090   0.360   3.242  12.831  1.8994  1.8040  0.6507
  203MPD1    H2 3091   0.269   3.555  13.106  0.7971 -1.0278  0.7838
  203MPD1    H3 3092   0.332   3.479  12.890 -0.3772  1.8435  1.3252
  203MPD1     N 3093   0.280   3.033  12.992  0.2864  0.1317  0.3483
  203MPD1    H5 3094   0.254   2.978  13.074  0.9570 -1.1658 -0.3082
  203MPD1    N1 3095   0.206   3.408  13.321  0.0901 -0.1766  1.1031
  203MPD1    H6 3096   0.224   3.506  13.342  0.6081  0.3681 -1.7911
  203MPD1    H7 3097   0.209   3.338  13.394 -1.5754 -0.0019  1.3317
  204MPD1     C 3098   3.674   3.848   0.474 -0.3173 -0.2505  0.2031
  204MPD1    C1 3099   3.734   3.868   0.353 -0.5262  0.6907  0.1044
  204MPD1    C2 3100   3.833   3.783   0.308 -0.3107  0.6923  0.0247
  204MPD1    C3 3101   3.885   3.686   0.391 -0.2054 -0.1981 -0.2547
  204MPD1    C4 3102   3.819   3.650   0.507  0.6087  0.1373  0.4460
  204MPD1    C5 3103   3.718   3.739   0.547 -0.4134  0.2662 -0.4152
  204MPD1     H 3104   3.888   3.816   0.221  0.5310 -1.2786 -0.1936
  204MPD1    H1 3105   3.838   3.564   0.571  0.4269 -0.3012 -0.0836
  204MPD1    H2 3106   3.599   3.914   0.515  0.0934 -0.5539  1.4222
  204MPD1    H3 3107   3.673   3.722   0.644  0.9570 -1.1007 -0.0227
  204MPD1     N 3108   4.002   3.623   0.345  0.1660  0.1608 -0.0923
  204MPD1    H5 3109   4.028   3.652   0.251 -1.2302  0.8594 -0.2571
  204MPD1    N1 3110   3.697   3.988   0.288  0.6284  0.1321 -0.4978
  204MPD1    H6 3111   3.723   3.993   0.190  0.9878  1.9187 -0.3278
  204MPD1    H7 3112   3.597   4.007   0.294  0.4562 -0.7609 -0.6987
  205MPD1     C 3113   4.554   2.977  16.950 -0.2228 -0.8264 -0.2268
  205MPD1    C1 3114   4.580   2.841  16.941 -0.0356  0.3385  0.4125
  205MPD1    C2 3115   4.536   2.745  17.033  0.7059  0.6251  0.3227
  205MPD1    C3 3116   4.469   2.784  17.142 -0.0105 -0.0646  0.2546
  205MPD1    C4 3117   4.434   2.919  17.145 -0.2845 -0.3603 -0.2968
  205MPD1    C5 3118   4.475   3.013  17.056  0.4413  0.7025 -0.5728
  205MPD1     H 3119   4.569   2.642  17.026 -0.9904 -0.1910  4.5689
  205MPD1    H1 3120   4.377   2.964  17.225  1.3729  0.7215  0.2805
  205MPD1    H2 3121   4.604   3.054  16.893  0.6260  0.7646  2.6440
  205MPD1    H3 3122   4.440   3.113  17.081 -0.8928  0.2893 -0.8125
  205MPD1     N 3123   4.429   2.705  17.249 -0.5021 -0.6715  0.2630
  205MPD1    H5 3124   4.367   2.750  17.315 -1.4323 -0.9342 -0.4250
  205MPD1    N1 3125   4.668   2.797  16.844  0.2311  0.0998 -0.5990
  205MPD1    H6 3126   4.654   2.702  16.811  0.3410 -0.2857  0.4674
  205MPD1    H7 3127   4.664   2.852  16.759 -1.0032 -0.4929 -0.9252
  206MPD1     C 3128   4.421   0.738  15.947  0.3699 -0.4368  0.4919
  206MPD1    C1 3129   4.347   0.797  15.847 -0.0766  0.3857  0.1304
  206MPD1    C2 3130   4.320   0.712  15.745 -0.7660 -0.2840 -0.5261
  206MPD1    C3 3131   4.322   0.576  15.760 -0.4963  0.2418 -0.3167
  206MPD1    C4 3132   4.387   0.522  15.869 -0.5126 -0.1068 -0.0008
  206MPD1    C5 3133   4.444   0.607  15.957 -0.9211 -0.1372 -0.5323
  206MPD1     H 3134   4.288   0.756  15.652 -0.4048 -0.5475 -0.7768
  206MPD1    H1 3135   4.390   0.413  15.876  1.1990 -0.0320  0.4469
  206MPD1    H2 3136   4.470   0.797  16.023  0.1577 -0.3774  0.5827
  206MPD1    H3 3137   4.506   0.570  16.038 -1.2776 -1.3246 -0.7991
  206MPD1     N 3138   4.283   0.485  15.662 -0.2065 -0.3972 -0.3222
  206MPD1    H5 3139   4.311   0.387  15.658 -1.2857 -0.7616  0.9118
  206MPD1    N1 3140   4.342   0.939  15.834  0.5357  0.2718  0.5379
  206MPD1    H6 3141   4.270   0.973  15.771 -1.4595 -1.8250  1.6899
  206MPD1    H7 3142   4.338   0.986  15.924 -3.6335  0.9291 -0.0294
  207MPD1     C 3143   2.281   3.475   9.905 -0.0991  0.1278 -0.3342
  207MPD1    C1 3144   2.296   3.603   9.955 -0.6812  0.3735 -0.3815
  207MPD1    C2 3145   2.332   3.617  10.085 -0.5311 -0.8476 -0.1339
  207MPD1    C3 3146   2.381   3.509  10.160 -0.5683 -0.2368 -0.2963
  207MPD1    C4 3147   2.384   3.380  10.099 -0.0092 -0.1874  0.0475
  207MPD1    C5 3148   2.330   3.359   9.976  0.3706 -0.1562 -0.0885
  207MPD1     H 3149   2.334   3.718  10.126 -0.3764 -0.9701  0.1599
  207MPD1    H1 3150   2.424   3.295  10.152  0.0727  1.0488  1.9852
  207MPD1    H2 3151   2.252   3.462   9.802  2.3994 -0.3867 -0.9754
  207MPD1    H3 3152   2.328   3.257   9.938 -0.7586  0.7718 -2.5577
  207MPD1     N 3153   2.431   3.501  10.291 -0.3527  0.0276  0.6500
  207MPD1    H5 3154   2.478   3.418  10.326  2.2105  1.3407  0.3232
  207MPD1    N1 3155   2.246   3.711   9.889 -0.3836  0.3242  0.3834
  207MPD1    H6 3156   2.294   3.795   9.921 -0.3022 -0.1292  1.4611
  207MPD1    H7 3157   2.244   3.704   9.787  1.7861  1.4203  0.2704
  208MPD1     C 3158   4.044   1.061   0.866  0.1348 -0.0419  0.5346
  208MPD1    C1 3159   4.179   1.051   0.903 -0.7033 -0.1018 -0.7235
  208MPD1    C2 3160   4.264   1.161   0.873 -0.2868  0.5496 -0.0305
  208MPD1    C3 3161   4.223   1.260   0.788  0.0911 -0.4452  0.5349
  208MPD1    C4 3162   4.096   1.260   0.734 -0.0752  0.5922 -0.2740
  208MPD1    C5 3163   4.017   1.152   0.770 -0.1852 -0.4681  0.1660
  208MPD1     H 3164   4.354   1.169   0.932  0.6910  2.2085 -1.7582
  208MPD1    H1 3165   4.057   1.341   0.674 -2.5410 -0.7454 -0.4793
  208MPD1    H2 3166   3.973   0.988   0.904  0.9453 -1.1900 -0.1444
  208MPD1    H3 3167   3.921   1.147   0.719 -0.6172  0.7399  0.8492
  208MPD1     N 3168   4.322   1.353   0.749  0.5443  0.6750 -0.6408
  208MPD1    H5 3169   4.411   1.344   0.798 -0.3414 -4.3789  0.0150
  208MPD1    N1 3170   4.210   0.965   1.012  0.2895 -0.3209 -0.1106
  208MPD1    H6 3171   4.164   0.877   0.989 -0.4747  0.2516 -0.7554
  208MPD1    H7 3172   4.311   0.951   1.012  0.1693 -1.2485  1.0597
  209MPD1     C 3173   2.683   2.020  10.917 -0.1372  0.3353 -0.1880
  209MPD1    C1 3174   2.748   2.126  10.861 -0.5889  0.1725 -0.6270
  209MPD1    C2 3175   2.741   2.248  10.930  0.3163  0.0311  0.1528
  209MPD1    C3 3176   2.679   2.275  11.047  1.1497  0.0365  0.0783
  209MPD1    C4 3177   2.607   2.164  11.105 -0.2703 -0.3073  0.4646
  209MPD1    C5 3178   2.619   2.040  11.039  0.0290  0.4081 -0.6589
  209MPD1     H 3179   2.793   2.333  10.887 -0.1056  0.6104  0.7870
  209MPD1    H1 3180   2.557   2.167  11.201 -0.0822  0.9120  0.5302
  209MPD1    H2 3181   2.677   1.919  10.879  0.6917 -0.1175  0.8943
  209MPD1    H3 3182   2.560   1.960  11.082  1.0844 -0.2327 -0.3860
  209MPD1     N 3183   2.689   2.401  11.109  0.3958 -0.4719  0.1502
  209MPD1    H5 3184   2.746   2.464  11.054 -1.1259  0.0846 -0.7930
  209MPD1    N1 3185   2.792   2.124  10.731 -0.2247  0.5067 -0.2412
  209MPD1    H6 3186   2.813   2.031  10.696 -2.5503 -0.5283  1.0908
  209MPD1    H7 3187   2.867   2.191  10.717  0.7737 -0.6566 -0.4600
  210MPD1     C 3188   2.456   2.763  12.022 -0.3158  0.4391  0.3236
  210MPD1    C1 3189   2.521   2.872  11.970  0.4960 -0.6846  0.1827
  210MPD1    C2 3190   2.564   2.866  11.839 -0.4261  0.0366  0.1559
  210MPD1    C3 3191   2.552   2.751  11.765 -0.4063  0.5060  0.1226
  210MPD1    C4 3192   2.487   2.646  11.820 -0.5652  0.3993  0.1885
  210MPD1    C5 3193   2.438   2.653  11.949 -0.3035  0.1695  0.0686
  210MPD1     H 3194   2.606   2.957  11.798 -0.0858 -0.9114 -1.5982
  210MPD1    H1 3195   2.455   2.558  11.766 -0.8810 -0.0515  1.1209
  210MPD1    H2 3196   2.417   2.770  12.122 -0.7552 -0.2002  0.1968
  210MPD1    H3 3197   2.393   2.565  11.993  0.9221 -0.3527  0.2833
  210MPD1     N 3198   2.601   2.730  11.628 -0.2311 -0.7944 -0.1421
  210MPD1    H5 3199   2.591   2.639  11.587  0.6025 -1.0476  0.1994
  210MPD1    N1 3200   2.520   2.993  12.046 -0.0260 -0.4910 -0.5739
  210MPD1    H6 3201   2.508   2.969  12.144 -1.1273 -0.5973 -0.7451
  210MPD1    H7 3202   2.598   3.057  12.029 -0.4948  0.6938  1.7684
  211MPD1     C 3203   0.449   2.810  15.695  0.5288 -0.4434 -0.3797
  211MPD1    C1 3204   0.436   2.741  15.819  0.1319 -0.0231  0.6048
  211MPD1    C2 3205   0.343   2.784  15.908  0.4694 -0.0055 -0.4413
  211MPD1    C3 3206   0.253   2.885  15.878 -0.0429 -0.0351  0.2818
  211MPD1    C4 3207   0.247   2.936  15.748 -0.3769 -0.4318 -0.1421
  211MPD1    C5 3208   0.344   2.895  15.660  0.1079 -0.3695 -0.2028
  211MPD1     H 3209   0.357   2.753  16.011  2.2045  1.0365 -0.3714
  211MPD1    H1 3210   0.171   3.003  15.709 -1.0609 -0.3467  1.3185
  211MPD1    H2 3211   0.536   2.794  15.632  0.8886  0.3589 -0.0836
  211MPD1    H3 3212   0.347   2.944  15.564  0.0722  0.5824  0.2770
  211MPD1     N 3213   0.155   2.913  15.974  0.0521  0.4331  0.1963
  211MPD1    H5 3214   0.159   2.868  16.066 -2.7246 -2.7643 -1.2454
  211MPD1    N1 3215   0.546   2.652  15.855  0.5529  0.4128  0.9570
  211MPD1    H6 3216   0.603   2.610  15.781  0.2889  0.9541  0.4542
  211MPD1    H7 3217   0.507   2.574  15.908  0.9007 -0.3086  0.1705
  212MPD1     C 3218   3.899   1.158  16.401  0.0736 -0.0769 -0.1255
  212MPD1    C1 3219   3.804   1.216  16.476  0.4441 -0.5919  0.4352
  212MPD1    C2 3220   3.775   1.158  16.597  0.3394 -0.6335 -0.5950
  212MPD1    C3 3221   3.827   1.039  16.635  0.7016 -0.3714  0.4287
  212MPD1    C4 3222   3.934   0.985  16.564 -0.1277  0.0773  0.0356
  212MPD1    C5 3223   3.967   1.057  16.453  0.5105  0.1042 -0.0981
  212MPD1     H 3224   3.698   1.202  16.659  3.1470  1.2200  1.5786
  212MPD1    H1 3225   3.998   0.901  16.589 -2.5043 -2.4239 -2.2278
  212MPD1    H2 3226   3.930   1.204  16.308 -1.9707  0.2660 -0.6510
  212MPD1    H3 3227   4.048   1.017  16.393  0.9093 -1.4337  1.4806
  212MPD1     N 3228   3.798   0.971  16.761  0.8570 -0.4455 -0.5692
  212MPD1    H5 3229   3.856   0.896  16.797  0.3180 -0.4041  0.4063
  212MPD1    N1 3230   3.750   1.346  16.450 -0.1619 -0.7432 -0.1232
  212MPD1    H6 3231   3.749   1.376  16.353  2.7924  1.6937  0.5764
  212MPD1    H7 3232   3.656   1.345  16.490 -0.1487  1.7728  0.0201
  213MPD1     C 3233   1.775   1.612  16.069  0.3767  0.1376  0.4100
  213MPD1    C1 3234   1.655   1.570  16.017 -0.1555 -0.6028 -0.2784
  213MPD1    C2 3235   1.652   1.552  15.879  0.3633  0.5845 -0.3737
  213MPD1    C3 3236   1.739   1.605  15.784  0.4580  0.6001 -0.5123
  213MPD1    C4 3237   1.853   1.654  15.843  0.4979  0.9692 -0.4686
  213MPD1    C5 3238   1.871   1.647  15.980  0.0074  0.2487 -0.5882
  213MPD1     H 3239   1.565   1.499  15.842  1.0550 -3.8820  4.4468
  213MPD1    H1 3240   1.931   1.691  15.777  0.3413  1.2211 -0.5092
  213MPD1    H2 3241   1.801   1.592  16.172  1.0086  1.8291  0.5838
  213MPD1    H3 3242   1.967   1.679  16.020 -2.0575  0.6891  4.0291
  213MPD1     N 3243   1.723   1.586  15.644 -0.7294 -1.0871 -0.4799
  213MPD1    H5 3244   1.644   1.525  15.626 -0.7141 -0.5329 -2.3353
  213MPD1    N1 3245   1.576   1.477  16.099 -0.6581  0.3907 -0.1660
  213MPD1    H6 3246   1.481   1.466  16.066 -0.3341  1.3219 -1.4187
  213MPD1    H7 3247   1.563   1.510  16.194 -2.8313 -0.0977 -0.2964
  214MPD1     C 3248   1.162   1.032  15.324 -0.1180 -0.0146  0.6472
  214MPD1    C1 3249   1.262   1.034  15.231 -0.5803  0.6089 -0.2398
  214MPD1    C2 3250   1.357   1.137  15.230 -0.4032  0.0042  0.3864
  214MPD1    C3 3251   1.354   1.229  15.327 -0.6129  0.7079 -0.4078
  214MPD1    C4 3252   1.261   1.220  15.426 -0.2992 -0.0469  0.2792
  214MPD1    C5 3253   1.160   1.135  15.416 -0.7114  0.2035  0.4358
  214MPD1     H 3254   1.432   1.140  15.152 -0.6307  0.5746  0.1911
  214MPD1    H1 3255   1.263   1.284  15.513  3.5055  2.8065 -1.8948
  214MPD1    H2 3256   1.081   0.961  15.333  0.6014 -0.9969 -0.7392
  214MPD1    H3 3257   1.085   1.135  15.494  0.5365 -4.8296  1.5912
  214MPD1     N 3258   1.451   1.332  15.343  0.0091  0.2924 -0.7147
  214MPD1    H5 3259   1.460   1.386  15.428 -0.2489  1.8918 -1.7107
  214MPD1    N1 3260   1.274   0.930  15.134  0.3235 -0.0645  0.4691
  214MPD1    H6 3261   1.310   0.964  15.045  1.5547  2.2048  1.8453
  214MPD1    H7 3262   1.179   0.893  15.121 -0.3349  2.1489 -0.9727
  215MPD1     C 3263   2.660   2.177  10.219  0.1653  0.7015 -0.7157
  215MPD1    C1 3264   2.570   2.271  10.179 -0.5050 -0.1486  0.0827
  215MPD1    C2 3265   2.525   2.368  10.268  0.2655  0.2540  0.0485
  215MPD1    C3 3266   2.586   2.380  10.392  0.4468  0.0268  0.0193
  215MPD1    C4 3267   2.688   2.290  10.428  0.8445  0.3037 -0.3945
  215MPD1    C5 3268   2.725   2.188  10.342 -0.9284  0.1937  0.3743
  215MPD1     H 3269   2.454   2.444  10.237 -0.7515 -0.3806  0.8256
  215MPD1    H1 3270   2.743   2.291  10.522  1.3475 -0.2124 -0.6903
  215MPD1    H2 3271   2.689   2.099  10.149  0.5579  0.9644 -0.8518
  215MPD1    H3 3272   2.805   2.126  10.381  1.1864  3.0252  0.5851
  215MPD1     N 3273   2.529   2.478  10.469 -0.0206  0.2415  0.3932
  215MPD1    H5 3274   2.443   2.519  10.433 -0.2724 -0.9105 -0.3259
  215MPD1    N1 3275   2.506   2.253  10.061 -0.9890  0.4277 -0.0866
  215MPD1    H6 3276   2.565   2.220   9.985 -1.2492  0.3362 -0.2486
  215MPD1    H7 3277   2.460   2.336  10.024  0.5174  0.2558 -2.3961
  216MPD1     C 3278   3.833   0.179  17.372  0.1374  0.2835 -0.3117
  216MPD1    C1 3279   3.893   0.159  17.492  0.3900  0.3595  0.3801
  216MPD1    C2 3280   3.936   0.028  17.514 -0.0434  0.2584  0.8872
  216MPD1    C3 3281   3.931   4.650  17.422  0.2462 -0.3857 -0.0756
  216MPD1    C4 3282   3.859   4.671  17.302  0.3256  0.1950  0.3293
  216MPD1    C5 3283   3.817   0.076  17.284  0.9050 -0.1491 -0.3532
  216MPD1     H 3284   3.987   0.019  17.609 -0.1348  2.3377  1.1310
  216MPD1    H1 3285   3.850   4.600  17.220  2.4667 -1.0197  1.1304
  216MPD1    H2 3286   3.783   0.274  17.353  0.9514  1.0391  1.3284
  216MPD1    H3 3287   3.761   0.103  17.195 -0.1205 -3.2868 -0.6714
  216MPD1     N 3288   4.001   4.524  17.450  0.0398 -0.1776 -0.6013
  216MPD1    H5 3289   4.065   4.523  17.529 -1.8872 -1.7756  0.9313
  216MPD1    N1 3290   3.890   0.256  17.591  0.5838 -0.2846  0.0419
  216MPD1    H6 3291   3.969   0.246  17.655  1.7782 -0.8916 -1.5417
  216MPD1    H7 3292   3.894   0.345  17.543 -0.8229 -0.9976 -1.4119
  217MPD1     C 3293   0.403   0.656   8.731 -0.0593  0.2724 -0.2117
  217MPD1    C1 3294   0.509   0.657   8.813  0.2255 -0.0894 -0.2172
  217MPD1    C2 3295   0.521   0.754   8.901 -0.4645  0.7851  0.1837
  217MPD1    C3 3296   0.433   0.860   8.919 -0.1429 -0.0766 -0.7948
  217MPD1    C4 3297   0.318   0.853   8.843 -0.0325 -0.2090  0.7535
  217MPD1    C5 3298   0.301   0.751   8.749 -0.0170  0.2502 -0.4248
  217MPD1     H 3299   0.604   0.751   8.970 -0.2885  0.1239 -0.0593
  217MPD1    H1 3300   0.246   0.934   8.843 -0.1924 -0.3481 -2.2005
  217MPD1    H2 3301   0.390   0.579   8.656  2.7367  2.2047 -2.6726
  217MPD1    H3 3302   0.212   0.756   8.687 -0.0309 -1.7394 -0.5594
  217MPD1     N 3303   0.437   0.966   9.007  0.1574  0.0749  0.5231
  217MPD1    H5 3304   0.360   1.033   9.006  1.2934  1.3418 -1.9902
  217MPD1    N1 3305   0.619   0.572   8.779  0.7553 -0.2859 -0.3290
  217MPD1    H6 3306   0.597   0.479   8.745  0.3681 -0.7540  1.1696
  217MPD1    H7 3307   0.696   0.577   8.845  1.4517 -1.0829 -1.0896
  218MPD1     C 3308   1.642   3.154  12.908 -0.4510  0.2932  0.9944
  218MPD1    C1 3309   1.769   3.177  12.857 -1.1014 -0.3720  0.4655
  218MPD1    C2 3310   1.826   3.089  12.764  0.0057 -0.0971  0.2977
  218MPD1    C3 3311   1.760   2.970  12.736 -0.1247 -0.7918  0.0652
  218MPD1    C4 3312   1.640   2.950  12.799  0.7510 -0.6270 -0.0468
  218MPD1    C5 3313   1.580   3.040  12.878 -0.4689 -0.6557 -0.1783
  218MPD1     H 3314   1.920   3.113  12.716 -0.4045 -0.2534 -0.5710
  218MPD1    H1 3315   1.584   2.859  12.784 -1.6485  0.8224  0.0624
  218MPD1    H2 3316   1.588   3.225  12.970 -0.8088 -0.9013  2.0597
  218MPD1    H3 3317   1.481   3.030  12.921 -0.8529  0.6656 -0.7667
  218MPD1     N 3318   1.831   2.877  12.657  0.1971 -0.8709  0.2935
  218MPD1    H5 3319   1.928   2.894  12.636 -0.3302  0.5570 -0.9622
  218MPD1    N1 3320   1.826   3.301  12.889 -0.0741 -0.0964 -0.1915
  218MPD1    H6 3321   1.774   3.334  12.970 -3.3997 -3.0524 -1.1255
  218MPD1    H7 3322   1.926   3.296  12.906 -0.5305 -0.3731  2.3680
  219MPD1     C 3323   1.636   2.779  11.787  0.0660 -0.1350  0.4587
  219MPD1    C1 3324   1.744   2.856  11.821  0.3929 -0.9315  0.7271
  219MPD1    C2 3325   1.817   2.836  11.932 -1.0292  0.3107  0.1306
  219MPD1    C3 3326   1.791   2.728  12.010  0.2337  0.2845  0.3641
  219MPD1    C4 3327   1.677   2.649  11.977 -0.3576 -0.4301 -0.4085
  219MPD1    C5 3328   1.602   2.674  11.868 -0.0891 -0.2529 -0.7234
  219MPD1     H 3329   1.903   2.900  11.949 -2.0260  1.7344 -0.2077
  219MPD1    H1 3330   1.647   2.562  12.035 -1.4336 -1.3608 -2.3794
  219MPD1    H2 3331   1.571   2.806  11.704 -0.8636 -0.7378  0.9857
  219MPD1    H3 3332   1.517   2.609  11.851 -0.0772 -0.5575  0.4000
  219MPD1     N 3333   1.864   2.695  12.130  0.5213 -0.2241  0.5134
  219MPD1    H5 3334   1.843   2.605  12.172 -1.1371  1.1039  2.4951
  219MPD1    N1 3335   1.776   2.963  11.741 -0.8901 -0.0455  0.4519
  219MPD1    H6 3336   1.738   2.952  11.647 -0.3471 -1.3054  0.3804
  219MPD1    H7 3337   1.878   2.965  11.731 -0.6693  0.3378  2.9512
  220MPD1     C 3338   1.662   3.767   9.446 -0.1856 -0.7701  0.8109
  220MPD1    C1 3339   1.634   3.636   9.435  1.0452  0.3924  0.3844
  220MPD1    C2 3340   1.677   3.549   9.533 -0.3900 -0.5627  0.1317
  220MPD1    C3 3341   1.723   3.600   9.655  0.0003  0.2055 -0.5378
  220MPD1    C4 3342   1.716   3.742   9.670 -0.2745 -0.5192  0.1287
  220MPD1    C5 3343   1.703   3.822   9.563 -0.2323 -0.7331  0.3375
  220MPD1     H 3344   1.676   3.442   9.519 -0.5951 -0.7843  1.8131
  220MPD1    H1 3345   1.740   3.789   9.765 -0.0766 -4.3933  1.9692
  220MPD1    H2 3346   1.656   3.839   9.365  2.1154 -0.6792  0.7216
  220MPD1    H3 3347   1.723   3.928   9.580  0.2875 -1.4839  4.2798
  220MPD1     N 3348   1.762   3.509   9.759 -0.2981 -0.1069  0.3484
  220MPD1    H5 3349   1.759   3.409   9.742  2.3371 -0.3394  1.1456
  220MPD1    N1 3350   1.613   3.590   9.304  0.2983 -0.2356  0.0097
  220MPD1    H6 3351   1.571   3.498   9.291  1.1066 -0.5618 -0.2496
  220MPD1    H7 3352   1.550   3.651   9.251 -0.3816  0.1505  1.2584
  221MPD1     C 3353   4.528   1.935  17.273 -0.8701 -0.2611  0.2236
  221MPD1    C1 3354   4.534   1.795  17.245 -0.2790 -0.1816  0.2248
  221MPD1    C2 3355   4.490   1.748  17.122 -0.4187 -0.5066 -0.3090
  221MPD1    C3 3356   4.420   1.830  17.036  0.4414  0.1477 -0.1934
  221MPD1    C4 3357   4.399   1.967  17.074  0.6112  0.0466 -0.1627
  221MPD1    C5 3358   4.457   2.018  17.187 -0.0985  0.5688 -0.2839
  221MPD1     H 3359   4.507   1.644  17.099 -2.1046 -0.8171 -0.1124
  221MPD1    H1 3360   4.351   2.032  17.002 -0.6101 -1.4124 -0.6691
  221MPD1    H2 3361   4.568   1.972  17.367 -0.5771  1.4122 -0.5623
  221MPD1    H3 3362   4.450   2.124  17.208  0.5107  0.3243  1.2061
  221MPD1     N 3363   4.370   1.790  16.911  0.7504 -0.2559  0.6682
  221MPD1    H5 3364   4.306   1.853  16.864  0.6479  0.2699  1.5197
  221MPD1    N1 3365   4.614   1.715  17.326  0.5359 -0.1284  0.0166
  221MPD1    H6 3366   4.600   1.755  17.419 -1.5826 -0.4520 -0.1492
  221MPD1    H7 3367   4.584   1.618  17.319  2.5240 -0.6477 -1.2016
  222MPD1     C 3368   3.948   0.951  17.284 -0.2089 -0.0289 -0.5521
  222MPD1    C1 3369   3.909   1.083  17.274  0.0667  0.5074  0.6699
  222MPD1    C2 3370   3.794   1.121  17.334  0.3316  0.2971  0.1448
  222MPD1    C3 3371   3.720   1.030  17.406 -0.1882 -0.2181  0.7286
  222MPD1    C4 3372   3.771   0.904  17.432  0.4859 -0.2594 -0.1528
  222MPD1    C5 3373   3.883   0.867  17.366 -1.0086 -0.5561 -0.2600
  222MPD1     H 3374   3.770   1.226  17.329  0.6488  0.3672  0.0700
  222MPD1    H1 3375   3.716   0.838  17.497  0.6161  1.9202  2.1806
  222MPD1    H2 3376   4.042   0.913  17.245  0.9617  2.3026  0.0113
  222MPD1    H3 3377   3.922   0.767  17.379 -1.1624 -0.5173  0.5283
  222MPD1     N 3378   3.601   1.062  17.470 -0.5360 -0.5514  0.1135
  222MPD1    H5 3379   3.556   0.999  17.535 -0.1609  0.9441  1.8141
  222MPD1    N1 3380   3.988   1.174  17.203 -0.3850  0.2819  0.1668
  222MPD1    H6 3381   4.010   1.126  17.116 -0.0187 -0.8127  0.8602
  222MPD1    H7 3382   3.925   1.251  17.184 -1.4514 -0.0796  2.1943
  223MPD1     C 3383   3.232   0.670   0.399 -0.4828 -0.5996  0.2210
  223MPD1    C1 3384   3.275   0.644   0.274 -0.1588  0.3322 -0.6690
  223MPD1    C2 3385   3.311   0.752   0.196  1.1459 -0.5426  0.4279
  223MPD1    C3 3386   3.295   0.882   0.237 -0.1094  0.0765 -0.2515
  223MPD1    C4 3387   3.249   0.903   0.368 -0.4285 -0.2643  0.1090
  223MPD1    C5 3388   3.218   0.794   0.446  0.7423  0.4974 -0.2912
  223MPD1     H 3389   3.350   0.742   0.096 -2.6873 -0.7277 -1.0731
  223MPD1    H1 3390   3.236   1.006   0.398 -1.4286 -0.3185 -0.1250
  223MPD1    H2 3391   3.203   0.584   0.458  0.2904 -1.8782 -1.2566
  223MPD1    H3 3392   3.185   0.816   0.547 -0.9691 -0.9391 -0.5307
  223MPD1     N 3393   3.328   0.989   0.152  0.1340 -0.2542 -0.1487
  223MPD1    H5 3394   3.348   0.968   0.054  1.9691  0.2615  0.1062
  223MPD1    N1 3395   3.300   0.519   0.222  0.0886 -1.2227 -0.0183
  223MPD1    H6 3396   3.232   0.454   0.262 -2.3118  0.2369 -1.6742
  223MPD1    H7 3397   3.266   0.514   0.126  0.3199 -1.3813 -0.0907
  224MPD1     C 3398   0.373   1.518   8.939 -0.2893  0.4414 -0.0010
  224MPD1    C1 3399   0.290   1.630   8.959  0.2957 -0.6760  0.3511
  224MPD1    C2 3400   0.300   1.703   9.076  0.3358  0.1914 -0.0736
  224MPD1    C3 3401   0.405   1.674   9.162  0.1373  0.7307 -0.1894
  224MPD1    C4 3402   0.500   1.578   9.130  0.1022 -0.2902  0.4382
  224MPD1    C5 3403   0.484   1.497   9.019 -0.5730  0.5162 -0.0799
  224MPD1     H 3404   0.222   1.777   9.089 -1.8579 -1.9942 -0.7948
  224MPD1    H1 3405   0.586   1.563   9.194 -0.8049 -0.7873  1.5480
  224MPD1    H2 3406   0.368   1.450   8.855  0.0278 -3.0938  2.8255
  224MPD1    H3 3407   0.563   1.427   8.994  0.7882  1.7764  0.6969
  224MPD1     N 3408   0.424   1.752   9.282 -0.3037 -0.1453  0.1125
  224MPD1    H5 3409   0.508   1.738   9.337  1.3427  3.1871 -1.5762
  224MPD1    N1 3410   0.176   1.642   8.874 -0.5400 -0.1696  0.7939
  224MPD1    H6 3411   0.182   1.595   8.783 -1.6117  0.1758  0.5478
  224MPD1    H7 3412   0.141   1.736   8.860  1.3008  0.7482  2.3721
  225MPD1     C 3413   1.867   3.881  12.873 -0.3813 -0.1017  0.4593
  225MPD1    C1 3414   1.791   3.971  12.804  0.9177 -0.2065  0.0216
  225MPD1    C2 3415   1.724   3.917  12.693  0.6109 -0.1052  0.1264
  225MPD1    C3 3416   1.742   3.794  12.641 -0.3068  0.2800 -0.4167
  225MPD1    C4 3417   1.805   3.701  12.720  0.9458  0.5153  0.1545
  225MPD1    C5 3418   1.861   3.750  12.838  0.0570 -0.5675  0.4626
  225MPD1     H 3419   1.662   3.997  12.653  0.1568  1.2448  3.4901
  225MPD1    H1 3420   1.827   3.599  12.691 -0.3451  0.4652 -0.6541
  225MPD1    H2 3421   1.930   3.905  12.958  1.0293  2.3733 -1.2893
  225MPD1    H3 3422   1.913   3.675  12.896 -1.4126 -1.7892  0.2139
  225MPD1     N 3423   1.677   3.767  12.517  0.0842  0.3237  0.1760
  225MPD1    H5 3424   1.615   3.842  12.489 -0.2182 -0.0517 -0.1691
  225MPD1    N1 3425   1.769   4.104  12.853 -0.2688  0.2403  0.5688
  225MPD1    H6 3426   1.857   4.144  12.887 -0.6773  0.8510  0.9073
  225MPD1    H7 3427   1.745   4.171  12.781 -1.3451 -1.1676 -0.3859
  226MPD1     C 3428   4.262   3.987   8.478 -0.3864  0.0730 -0.0648
  226MPD1    C1 3429   4.253   3.859   8.436  0.2872 -1.0407  0.6543
  226MPD1    C2 3430   4.273   3.753   8.522  0.1548 -0.4799 -0.6574
  226MPD1    C3 3431   4.312   3.772   8.652  1.0887 -0.4147 -0.3217
  226MPD1    C4 3432   4.330   3.905   8.689  0.8397  0.5171 -0.0119
  226MPD1    C5 3433   4.311   4.008   8.605  0.3874 -0.3361 -0.5990
  226MPD1     H 3434   4.277   3.650   8.486 -0.9411 -0.8147  0.1945
  226MPD1    H1 3435   4.373   3.927   8.786  0.7800 -1.4930  0.4628
  226MPD1    H2 3436   4.256   4.076   8.416  1.0046  2.8448  3.7564
  226MPD1    H3 3437   4.313   4.109   8.646  2.1139 -0.3658 -0.6441
  226MPD1     N 3438   4.345   3.659   8.729 -0.6103 -0.2704  0.2736
  226MPD1    H5 3439   4.322   3.568   8.692  1.7730  0.4501 -2.9542
  226MPD1    N1 3440   4.224   3.824   8.302  0.3420  0.6257  0.6106
  226MPD1    H6 3441   4.154   3.876   8.251 -1.4420  0.0380  2.4526
  226MPD1    H7 3442   4.189   3.728   8.298  0.4795  0.5826  0.4695
  227MPD1     C 3443   3.918   2.843   9.071 -0.5872  0.4967  0.1897
  227MPD1    C1 3444   4.047   2.818   9.110 -0.3054  0.3417  0.4424
  227MPD1    C2 3445   4.139   2.919   9.097  0.5625  0.9810  0.1127
  227MPD1    C3 3446   4.111   3.050   9.052 -0.4306  0.1103 -0.1796
  227MPD1    C4 3447   3.979   3.075   9.023  0.8264 -0.0127  0.7598
  227MPD1    C5 3448   3.880   2.978   9.044  0.2639  0.1472  0.4011
  227MPD1     H 3449   4.238   2.887   9.129  0.5888 -0.4391 -1.3854
  227MPD1    H1 3450   3.939   3.174   9.002 -1.3597 -0.7984  1.1797
  227MPD1    H2 3451   3.838   2.770   9.079  0.0975 -0.3382 -0.5612
  227MPD1    H3 3452   3.774   2.989   9.021  0.7200  2.1144 -0.7492
  227MPD1     N 3453   4.215   3.146   9.043 -0.2118  0.4481  0.7606
  227MPD1    H5 3454   4.300   3.114   9.089  1.2163  1.8005 -0.9311
  227MPD1    N1 3455   4.087   2.691   9.155 -0.1568 -0.1624 -0.2188
  227MPD1    H6 3456   4.007   2.655   9.207  0.9317 -1.1318  0.7872
  227MPD1    H7 3457   4.171   2.692   9.212 -0.5841 -0.6211  0.4178
  228MPD1     C 3458   3.930   1.257  12.476 -0.0900  0.4028 -0.5822
  228MPD1    C1 3459   3.819   1.327  12.423 -0.0436 -0.3599 -0.0811
  228MPD1    C2 3460   3.690   1.292  12.468 -0.2281  0.0463 -0.0099
  228MPD1    C3 3461   3.674   1.194  12.559  0.4619  0.7280 -0.1727
  228MPD1    C4 3462   3.787   1.126  12.608 -0.0996 -0.4019 -0.2967
  228MPD1    C5 3463   3.915   1.158  12.567 -0.5828  0.2071 -0.1095
  228MPD1     H 3464   3.606   1.341  12.421  0.3307 -0.5428 -1.6279
  228MPD1    H1 3465   3.781   1.057  12.691 -1.6360  1.2525  0.9563
  228MPD1    H2 3466   4.027   1.287  12.439 -0.2702 -0.1853 -1.5321
  228MPD1    H3 3467   4.003   1.107  12.604 -1.8608  0.0468  2.7061
  228MPD1     N 3468   3.549   1.151  12.570  0.2688 -0.5077 -0.3479
  228MPD1    H5 3469   3.478   1.206  12.524 -1.1711 -0.5435  1.8184
  228MPD1    N1 3470   3.834   1.405  12.303  0.1920  0.0628 -0.4395
  228MPD1    H6 3471   3.923   1.452  12.314  0.0289 -0.3237  2.6399
  228MPD1    H7 3472   3.758   1.470  12.286 -1.1547 -1.2346  0.7104
  229MPD1     C 3473   2.487   0.138  14.799  0.6178  0.4355 -0.5203
  229MPD1    C1 3474   2.399   0.118  14.900 -0.2045  0.2101 -0.2325
  229MPD1    C2 3475   2.429   0.023  14.996  0.2247 -0.1394 -0.4180
  229MPD1    C3 3476   2.544   4.669  14.985  0.4029 -0.0491 -0.1589
  229MPD1    C4 3477   2.625   4.686  14.876 -1.0669 -0.1296  0.2134
  229MPD1    C5 3478   2.600   0.059  14.789  0.3177  0.2138  0.1098
  229MPD1     H 3479   2.354   4.724  15.070  0.4552  2.4307  0.6220
  229MPD1    H1 3480   2.723   4.640  14.864 -0.8100 -0.1491  2.3436
  229MPD1    H2 3481   2.476   0.218  14.726  0.6499  0.7060 -0.2271
  229MPD1    H3 3482   2.671   0.083  14.711  0.8346 -0.0918  0.4896
  229MPD1     N 3483   2.579   4.571  15.079  0.4830 -0.1806 -0.3767
  229MPD1    H5 3484   2.649   4.510  15.038  0.4288 -1.9923  2.2074
  229MPD1    N1 3485   2.273   0.174  14.879  0.1168 -0.6575  0.3031
  229MPD1    H6 3486   2.280   0.249  14.811 -0.7606  1.4877  2.5510
  229MPD1    H7 3487   2.241   0.200  14.973  1.3482  1.5084  0.1227
  230MPD1     C 3488   2.660   0.011  16.012  0.3023 -1.1195 -0.4927
  230MPD1    C1 3489   2.534   4.714  15.958  0.1366  0.8030  0.2009
  230MPD1    C2 3490   2.526   4.625  15.848 -0.2801 -0.0532 -0.5520
  230MPD1    C3 3491   2.637   4.556  15.796  0.0057 -0.0603  0.0648
  230MPD1    C4 3492   2.759   4.576  15.859 -0.6122 -0.0145 -1.0744
  230MPD1    C5 3493   2.762   4.663  15.971  0.1990  0.5699 -0.2857
  230MPD1     H 3494   2.438   4.596  15.792 -1.2380  1.6503  0.0727
  230MPD1    H1 3495   2.846   4.514  15.840 -0.7594 -0.0474 -1.6377
  230MPD1    H2 3496   2.677   0.085  16.089  0.3307 -0.9932 -0.6192
  230MPD1    H3 3497   2.856   4.682  16.021  0.5630  0.8952 -1.0974
  230MPD1     N 3498   2.614   4.472  15.689 -0.2913 -0.0113 -0.5702
  230MPD1    H5 3499   2.520   4.478  15.650 -1.5309 -0.4007  2.3929
  230MPD1    N1 3500   2.423   0.066  15.992 -0.1224 -0.3082 -0.1180
  230MPD1    H6 3501   2.408   0.060  16.093 -0.6921  1.5704 -0.0935
  230MPD1    H7 3502   2.337   0.025  15.958 -0.4289  0.0391  0.2427
  231MPD1     C 3503   0.548   1.801  15.856 -0.0009 -0.3956 -0.1879
  231MPD1    C1 3504   0.673   1.845  15.823 -0.1392 -0.2064 -0.6889
  231MPD1    C2 3505   0.750   1.766  15.742  0.5642  0.3054  0.5267
  231MPD1    C3 3506   0.698   1.658  15.676  0.3865  0.3913  0.5121
  231MPD1    C4 3507   0.570   1.620  15.700 -0.0297 -0.1433 -0.1150
  231MPD1    C5 3508   0.500   1.689  15.796 -0.2103 -0.3633  0.1198
  231MPD1     H 3509   0.854   1.789  15.724  0.4717 -0.1908 -0.6731
  231MPD1    H1 3510   0.525   1.533  15.654  0.4806 -2.0479  3.0228
  231MPD1    H2 3511   0.494   1.863  15.926  2.7287  0.5332  1.1093
  231MPD1    H3 3512   0.400   1.649  15.812  0.7638 -1.7615  2.6434
  231MPD1     N 3513   0.779   1.588  15.572  0.4595 -0.2372 -0.1636
  231MPD1    H5 3514   0.870   1.628  15.552  0.7982 -1.0178 -0.2044
  231MPD1    N1 3515   0.731   1.944  15.904 -0.2508  0.0934  0.6693
  231MPD1    H6 3516   0.800   2.002  15.858  0.6303  1.3059  3.5389
  231MPD1    H7 3517   0.672   2.004  15.961  0.3671  1.5529 -0.2365
  232MPD1     C 3518   2.828   3.362   0.355  1.0179 -0.3439  1.0002
  232MPD1    C1 3519   2.774   3.286   0.257  0.0729 -0.0527 -0.4323
  232MPD1    C2 3520   2.723   3.348   0.140  0.3021  0.3047  0.2136
  232MPD1    C3 3521   2.713   3.490   0.130 -0.2082  0.2387 -0.0455
  232MPD1    C4 3522   2.777   3.561   0.230  0.4962  0.1672  0.3520
  232MPD1    C5 3523   2.820   3.497   0.339  0.2549  0.6358  0.1447
  232MPD1     H 3524   2.675   3.295   0.059  1.2772 -0.1875 -0.0369
  232MPD1    H1 3525   2.766   3.668   0.230 -0.2412  0.0977  1.1164
  232MPD1    H2 3526   2.857   3.320   0.451 -0.8182  1.8374  2.4987
  232MPD1    H3 3527   2.866   3.554   0.419  0.7079 -0.6929  0.8277
  232MPD1     N 3528   2.630   3.551   0.029 -0.0654 -0.3584 -0.1572
  232MPD1    H5 3529   2.566   3.489  17.679  1.1925 -1.9647  0.2206
  232MPD1    N1 3530   2.746   3.151   0.284 -0.0494 -0.1677 -0.5202
  232MPD1    H6 3531   2.820   3.115   0.344 -1.0663 -0.9592  0.2508
  232MPD1    H7 3532   2.754   3.098   0.197 -2.3998  0.3165 -1.0238
  233MPD1     C 3533   4.714   3.681   1.970 -0.0994  0.1055  0.6261
  233MPD1    C1 3534   4.619   3.602   2.011 -0.3713  0.4517  0.1896
  233MPD1    C2 3535   4.618   3.470   1.981  0.1985  0.5186  0.2831
  233MPD1    C3 3536   4.720   3.408   1.908 -0.0366  0.5096 -0.7117
  233MPD1    C4 3537   0.093   3.490   1.861  0.1641 -0.4871  0.5499
  233MPD1    C5 3538   0.084   3.620   1.892  1.3313 -0.1181 -0.3375
  233MPD1     H 3539   4.536   3.410   2.020  0.4097  0.2402  0.3027
  233MPD1    H1 3540   0.174   3.453   1.798 -0.2628  0.2011 -0.3860
  233MPD1    H2 3541   4.718   3.788   1.985  0.1198  0.2630 -0.5279
  233MPD1    H3 3542   0.166   3.678   1.851  1.5920 -0.3036 -0.0771
  233MPD1     N 3543   0.002   3.270   1.874 -0.2014 -0.3044 -0.1466
  233MPD1    H5 3544   0.088   3.243   1.827 -1.7318 -1.6219 -2.1802
  233MPD1    N1 3545   4.509   3.656   2.083  0.9791 -0.3304 -0.1333
  233MPD1    H6 3546   4.540   3.718   2.158  0.2879  0.3609 -0.4309
  233MPD1    H7 3547   4.450   3.585   2.127  0.2744 -0.6145 -1.5616
  234MPD1     C 3548   1.894   1.575  10.380 -0.2945 -0.4357 -0.1260
  234MPD1    C1 3549   1.834   1.693  10.363  0.2348 -0.5861  0.4278
  234MPD1    C2 3550   1.727   1.708  10.277 -0.7506  0.1750 -0.4880
  234MPD1    C3 3551   1.693   1.600  10.205  0.3975 -0.2976  0.9166
  234MPD1    C4 3552   1.761   1.480  10.214 -0.3957 -0.2094 -0.4430
  234MPD1    C5 3553   1.861   1.466  10.305 -0.4473 -0.5259  0.4726
  234MPD1     H 3554   1.677   1.803  10.270 -0.4041  0.2439 -1.9075
  234MPD1    H1 3555   1.731   1.389  10.164  1.7085 -1.6958  1.0087
  234MPD1    H2 3556   1.963   1.548  10.460 -0.3034 -0.0599  0.0108
  234MPD1    H3 3557   1.909   1.369  10.315 -0.1610 -0.5130 -0.7336
  234MPD1     N 3558   1.573   1.613  10.141 -0.5384 -1.1859  0.3590
  234MPD1    H5 3559   1.537   1.707  10.131 -1.3600 -1.7424 -1.7857
  234MPD1    N1 3560   1.866   1.794  10.452  0.0505 -0.3496 -0.7382
  234MPD1    H6 3561   1.966   1.789  10.474  0.0230 -0.7189 -0.6986
  234MPD1    H7 3562   1.858   1.882  10.401  0.3001 -1.3789 -2.5297
  235MPD1     C 3563   1.583   4.575   9.916  0.1978  0.5741  0.4170
  235MPD1    C1 3564   1.620   4.445   9.910  0.2945 -0.4612 -0.1960
  235MPD1    C2 3565   1.743   4.414   9.861  0.3906  0.3254 -0.2837
  235MPD1    C3 3566   1.828   4.501   9.799 -0.0337 -0.3023 -0.0360
  235MPD1    C4 3567   1.792   4.636   9.801  0.1260  0.2078 -0.5877
  235MPD1    C5 3568   1.672   4.664   9.857 -0.2284  0.0920 -0.5384
  235MPD1     H 3569   1.765   4.308   9.866  3.3470  1.1128  3.2152
  235MPD1    H1 3570   1.866   4.707   9.767  0.6566 -0.7083 -1.3679
  235MPD1    H2 3571   1.485   4.597   9.958 -0.1619 -2.1205  0.9315
  235MPD1    H3 3572   1.650   0.045   9.874 -1.4353 -0.4299  1.1481
  235MPD1     N 3573   1.953   4.454   9.760  0.2417  0.5262  0.0080
  235MPD1    H5 3574   1.975   4.359   9.786 -3.4570  0.0829  1.6485
  235MPD1    N1 3575   1.549   4.351   9.986  0.0312  0.5038  0.2758
  235MPD1    H6 3576   1.565   4.253   9.961 -0.6183  0.1248  1.3444
  235MPD1    H7 3577   1.448   4.363   9.981 -0.0432 -0.6614 -1.1351
  236MPD1     C 3578   1.168   0.553   9.894  0.1869  0.0879 -0.6051
  236MPD1    C1 3579   1.148   0.460   9.990  0.2281  0.4318 -0.5821
  236MPD1    C2 3580   1.255   0.385  10.037  0.1522 -0.8719  0.2797
  236MPD1    C3 3581   1.378   0.393   9.971 -0.2617  0.2838  0.9874
  236MPD1    C4 3582   1.395   0.491   9.877  0.6335 -0.5400  0.2217
  236MPD1    C5 3583   1.292   0.573   9.834  0.2435  0.3387 -0.1028
  236MPD1     H 3584   1.242   0.321  10.123 -1.9497 -0.6635  0.1391
  236MPD1    H1 3585   1.495   0.505   9.837  0.0882 -0.1593 -1.0176
  236MPD1    H2 3586   1.078   0.610   9.872  0.1388  0.6621  1.1407
  236MPD1    H3 3587   1.304   0.662   9.774  0.5748  1.1355  1.1374
  236MPD1     N 3588   1.497   0.324  10.006 -0.0639  0.0593  0.0610
  236MPD1    H5 3589   1.574   0.337   9.941 -1.2331 -1.0434 -1.5358
  236MPD1    N1 3590   1.025   0.473  10.068 -0.3776 -0.3524 -0.0489
  236MPD1    H6 3591   0.941   0.490  10.014  0.1360 -0.0757 -0.7574
  236MPD1    H7 3592   1.010   0.392  10.128  0.8483  1.0336  2.1357
  237MPD1     C 3593   1.288   2.879  15.606 -0.2943  0.3884 -0.5092
  237MPD1    C1 3594   1.165   2.835  15.668 -0.5346 -0.2126 -1.0125
  237MPD1    C2 3595   1.050   2.813  15.589 -0.0025  0.9182  0.0944
  237MPD1    C3 3596   1.059   2.841  15.455  0.2226 -0.0453 -0.4216
  237MPD1    C4 3597   1.174   2.890  15.398 -0.1879 -0.2480 -0.1181
  237MPD1    C5 3598   1.285   2.901  15.471  0.7197  0.4228  0.1458
  237MPD1     H 3599   0.954   2.780  15.628 -1.1238 -0.2324 -3.6299
  237MPD1    H1 3600   1.171   2.913  15.292 -3.2494  1.1985  0.2823
  237MPD1    H2 3601   1.382   2.892  15.657 -0.1687 -1.0965 -0.3518
  237MPD1    H3 3602   1.375   2.927  15.415  1.6877  1.8089  2.3374
  237MPD1     N 3603   0.947   2.830  15.376 -0.4206 -0.0459  0.1241
  237MPD1    H5 3604   0.954   2.869  15.283 -0.3405  1.3980  0.7474
  237MPD1    N1 3605   1.151   2.808  15.809  0.2177 -0.2273  0.4781
  237MPD1    H6 3606   1.083   2.735  15.831 -2.1078  1.7412 -0.1555
  237MPD1    H7 3607   1.240   2.805  15.857  0.1433 -1.7247  0.5291
  238MPD1     C 3608   2.940   2.166  14.825  0.4336  0.1128  0.3392
  238MPD1    C1 3609   2.825   2.198  14.893 -0.2944  1.2058  0.2550
  238MPD1    C2 3610   2.715   2.112  14.892 -0.0584  0.1630 -0.5182
  238MPD1    C3 3611   2.730   1.990  14.823 -0.8143  0.7811 -0.2941
  238MPD1    C4 3612   2.852   1.961  14.760  0.0037 -0.1135 -0.3981
  238MPD1    C5 3613   2.955   2.043  14.763 -0.6279  0.4284 -0.2964
  238MPD1     H 3614   2.617   2.146  14.923  0.4257  1.9939 -1.0300
  238MPD1    H1 3615   2.860   1.864  14.712  1.1538  0.0656 -0.5657
  238MPD1    H2 3616   3.019   2.241  14.824 -0.0004  0.5818  1.3087
  238MPD1    H3 3617   3.039   2.012  14.703 -0.1862  1.0834 -0.0072
  238MPD1     N 3618   2.637   1.889  14.808  0.0793  0.2017 -0.0082
  238MPD1    H5 3619   2.663   1.812  14.747 -0.0071  0.2005 -0.0435
  238MPD1    N1 3620   2.817   2.328  14.954 -0.2030  0.1805  0.5432
  238MPD1    H6 3621   2.912   2.359  14.971  0.5852 -2.5364  1.2447
  238MPD1    H7 3622   2.775   2.319  15.047 -2.8752 -1.1241 -0.7864
  239MPD1     C 3623   3.408   2.719  15.033  0.1033  0.1997  0.2286
  239MPD1    C1 3624   3.472   2.672  14.917 -0.4937  0.3968  0.5812
  239MPD1    C2 3625   3.408   2.690  14.794  0.1366  0.8057  0.5605
  239MPD1    C3 3626   3.278   2.740  14.785  0.0768 -0.4767 -0.2704
  239MPD1    C4 3627   3.221   2.784  14.895  0.2477 -0.3430  0.8954
  239MPD1    C5 3628   3.285   2.770  15.018 -0.1840  0.3907 -0.2314
  239MPD1     H 3629   3.461   2.662  14.704  0.1932  0.7341  0.6155
  239MPD1    H1 3630   3.123   2.832  14.897  1.0979  1.4399 -0.3182
  239MPD1    H2 3631   3.450   2.709  15.132 -0.1724 -0.4046  0.2884
  239MPD1    H3 3632   3.238   2.800  15.111 -0.6263  0.5482 -0.5065
  239MPD1     N 3633   3.212   2.763  14.659 -0.8559  0.1240 -0.7468
  239MPD1    H5 3634   3.117   2.798  14.660 -0.8518  0.0785  2.2472
  239MPD1    N1 3635   3.603   2.626  14.922 -0.1333  0.3841  0.0091
  239MPD1    H6 3636   3.620   2.576  15.009 -1.2474  0.2075  0.1247
  239MPD1    H7 3637   3.637   2.571  14.844 -0.3586  0.1344  0.0870
  240MPD1     C 3638   2.364   1.953  13.494 -0.6576  0.2660  0.1472
  240MPD1    C1 3639   2.458   1.988  13.585  0.3558 -0.0968  0.4486
  240MPD1    C2 3640   2.447   1.938  13.717 -0.3024  0.0036  0.4017
  240MPD1    C3 3641   2.337   1.862  13.763 -0.6912  0.0011  0.2102
  240MPD1    C4 3642   2.231   1.844  13.674 -0.2555 -0.4734 -0.6261
  240MPD1    C5 3643   2.247   1.887  13.541 -0.3820  0.0883  0.4253
  240MPD1     H 3644   2.529   1.958  13.785 -0.3187  0.2063  0.3623
  240MPD1    H1 3645   2.144   1.787  13.704 -0.1054  0.1558  0.9807
  240MPD1    H2 3646   2.374   1.967  13.387  0.3186  2.2915  0.5068
  240MPD1    H3 3647   2.176   1.846  13.470  1.7911  0.1462 -1.7758
  240MPD1     N 3648   2.327   1.821  13.898  0.0740  0.6828 -0.4865
  240MPD1    H5 3649   2.405   1.861  13.949 -1.0028  0.8508  1.0250
  240MPD1    N1 3650   2.574   2.041  13.540  0.4315 -0.8182 -0.4391
  240MPD1    H6 3651   2.553   2.101  13.462 -0.4382 -0.8704 -0.2415
  240MPD1    H7 3652   2.614   2.098  13.615  0.9679  1.1169 -2.2155
  241MPD1     C 3653   2.723   2.232  14.516  0.1950  0.3000  0.4145
  241MPD1    C1 3654   2.604   2.208  14.576 -0.7229  0.3563 -0.2158
  241MPD1    C2 3655   2.520   2.109  14.532  0.3346 -0.0565  0.1388
  241MPD1    C3 3656   2.544   2.031  14.420  0.4508 -0.5254 -0.2701
  241MPD1    C4 3657   2.668   2.056  14.356  0.0794  0.4825  0.0702
  241MPD1    C5 3658   2.759   2.150  14.409 -0.1713 -0.6840 -0.7230
  241MPD1     H 3659   2.427   2.089  14.585 -0.6375 -0.3226 -1.6759
  241MPD1    H1 3660   2.698   1.998  14.269  0.8501 -0.0440  0.6852
  241MPD1    H2 3661   2.784   2.313  14.555 -0.0076  0.7653 -0.2433
  241MPD1    H3 3662   2.858   2.164  14.368  0.5914 -0.8298  1.1077
  241MPD1     N 3663   2.454   1.952  14.348 -0.2046 -0.0157  0.1943
  241MPD1    H5 3664   2.491   1.905  14.266  2.1899  0.8016  0.8171
  241MPD1    N1 3665   2.568   2.299  14.677  0.0241  0.4072 -0.0899
  241MPD1    H6 3666   2.492   2.256  14.730  0.5858 -2.6038 -1.6902
  241MPD1    H7 3667   2.642   2.327  14.741  0.1831 -2.3421  0.9620
  242MPD1     C 3668   1.915   0.991  15.746  1.1363  0.9354 -0.5813
  242MPD1    C1 3669   1.833   0.880  15.734 -0.3989 -0.0104  0.3019
  242MPD1    C2 3670   1.854   0.791  15.631  0.1905  1.1608  0.1656
  242MPD1    C3 3671   1.950   0.809  15.536 -0.4525 -0.3783 -0.2492
  242MPD1    C4 3672   2.037   0.914  15.551 -0.5078  0.2952  0.4187
  242MPD1    C5 3673   2.022   0.992  15.666  0.3400 -0.1765 -0.3299
  242MPD1     H 3674   1.791   0.703  15.628 -1.8620  2.6236  1.2019
  242MPD1    H1 3675   2.121   0.927  15.483  0.4466 -0.7277  1.3738
  242MPD1    H2 3676   1.909   1.064  15.826 -0.0866  0.5105 -0.2940
  242MPD1    H3 3677   2.099   1.066  15.686 -0.0048 -0.0267  0.4438
  242MPD1     N 3678   1.966   0.717  15.433  0.1175  0.0813 -0.0339
  242MPD1    H5 3679   2.041   0.722  15.364  0.6181  0.9011  0.5727
  242MPD1    N1 3680   1.753   0.841  15.839  0.4849  0.0235  0.0936
  242MPD1    H6 3681   1.672   0.792  15.801 -0.1359 -0.6067  2.2715
  242MPD1    H7 3682   1.720   0.916  15.899  3.8960  0.4143  1.4889
  243MPD1     C 3683   3.793   3.258   0.340 -0.1543 -1.0654  0.5103
  243MPD1    C1 3684   3.886   3.159   0.327  0.2988  0.3451  0.3413
  243MPD1    C2 3685   3.973   3.172   0.216 -0.3667 -0.2674 -0.4679
  243MPD1    C3 3686   3.968   3.278   0.129  0.2861  0.3695  0.2321
  243MPD1    C4 3687   3.877   3.375   0.151 -0.5086 -0.5870  0.1354
  243MPD1    C5 3688   3.797   3.375   0.260  0.0159 -0.2094 -0.5964
  243MPD1     H 3689   4.051   3.097   0.206 -0.3009 -0.1186 -1.1135
  243MPD1    H1 3690   3.867   3.466   0.092 -2.5125 -1.2824 -0.6129
  243MPD1    H2 3691   3.715   3.240   0.413  0.5047 -1.3346  1.1396
  243MPD1    H3 3692   3.723   3.448   0.289  1.3781  0.4282  1.2404
  243MPD1     N 3693   4.067   3.275   0.030  0.2024  0.4129  0.6894
  243MPD1    H5 3694   4.124   3.191   0.024  0.7246  0.8841 -1.0263
  243MPD1    N1 3695   3.906   3.058   0.421 -0.1236 -0.5176 -0.0150
  243MPD1    H6 3696   3.825   3.049   0.482  0.5132 -0.0061  0.8988
  243MPD1    H7 3697   3.939   2.969   0.384  1.3898 -0.2722  0.7213
  244MPD1     C 3698   0.015   2.751  17.689 -0.0289  0.8248  0.2850
  244MPD1    C1 3699   4.655   2.798   0.089 -0.4818 -0.3118  0.4811
  244MPD1    C2 3700   4.590   2.917   0.062  0.2739  0.5539  0.2584
  244MPD1    C3 3701   4.590   2.975  17.636  0.3947 -0.2050  0.1046
  244MPD1    C4 3702   4.672   2.918  17.542  0.7226 -0.1392 -0.6263
  244MPD1    C5 3703   0.018   2.802  17.560  0.0661  0.0516  0.2469
  244MPD1     H 3704   4.538   2.963   0.146 -3.1697 -3.0441  0.0759
  244MPD1    H1 3705   4.685   2.954  17.440 -1.4045 -0.6595 -1.0756
  244MPD1    H2 3706   0.074   2.665   0.019 -0.9717 -0.0548 -0.4782
  244MPD1    H3 3707   0.077   2.750  17.486  1.6429 -0.6198  1.9699
  244MPD1     N 3708   4.505   3.084  17.604 -0.5058 -0.2648 -0.2620
  244MPD1    H5 3709   4.430   3.091  17.672 -1.1207  0.8564 -1.0537
  244MPD1    N1 3710   4.662   2.740   0.216  0.0711  0.4787  0.0220
  244MPD1    H6 3711   4.574   2.742   0.268  0.3710  1.9132  0.4701
  244MPD1    H7 3712   4.678   2.640   0.203 -0.8137  0.4047 -0.4659
  245MPD1     C 3713   0.827   4.368  13.709 -0.0697  0.1099 -0.5007
  245MPD1    C1 3714   0.788   4.497  13.682 -0.8458  0.1550 -0.5346
  245MPD1    C2 3715   0.894   4.591  13.661 -0.0258 -0.4050 -0.0266
  245MPD1    C3 3716   1.025   4.549  13.652 -0.4929 -0.9585 -0.6794
  245MPD1    C4 3717   1.053   4.419  13.662 -0.4455 -0.0550 -0.3914
  245MPD1    C5 3718   0.956   4.329  13.685  0.1498 -0.0237 -0.5570
  245MPD1     H 3719   0.870   4.696  13.654  3.2423  0.2702 -0.9999
  245MPD1    H1 3720   1.158   4.390  13.663  0.4570  3.1447 -1.3623
  245MPD1    H2 3721   0.757   4.289  13.733  0.1075  0.4297  1.0606
  245MPD1    H3 3722   0.994   4.227  13.687 -1.3818 -0.5749  0.3626
  245MPD1     N 3723   1.124   4.650  13.622  0.6174  0.3950 -0.1987
  245MPD1    H5 3724   1.090   0.021  13.614 -2.2880 -0.7375 -1.3689
  245MPD1    N1 3725   0.660   4.535  13.705  0.3000  0.2949  0.0839
  245MPD1    H6 3726   0.591   4.462  13.688 -0.0131  0.8102 -0.8874
  245MPD1    H7 3727   0.631   4.613  13.647  0.4316  0.1644 -0.1622
  246MPD1     C 3728   3.229   1.824   9.555 -0.2357 -0.0357 -0.0885
  246MPD1    C1 3729   3.217   1.717   9.469  0.2178  1.1282 -0.0599
  246MPD1    C2 3730   3.094   1.650   9.470 -0.0741 -0.2283 -0.3869
  246MPD1    C3 3731   2.979   1.708   9.532  0.6158  1.0779  1.2008
  246MPD1    C4 3732   2.993   1.824   9.612 -0.5181 -0.4242  0.5762
  246MPD1    C5 3733   3.125   1.871   9.633  0.0565  0.5412 -0.1848
  246MPD1     H 3734   3.088   1.555   9.418  2.1738 -1.4208  1.5651
  246MPD1    H1 3735   2.910   1.884   9.648 -0.9446 -0.0285 -1.0830
  246MPD1    H2 3736   3.326   1.871   9.567 -0.5304 -0.2006  3.0286
  246MPD1    H3 3737   3.131   1.971   9.675 -1.9290  0.2220  0.8811
  246MPD1     N 3738   2.857   1.637   9.516  0.3693 -0.5853 -0.3857
  246MPD1    H5 3739   2.871   1.556   9.456 -1.7597 -1.9035  0.8854
  246MPD1    N1 3740   3.337   1.658   9.418 -0.0449 -0.1911 -0.2044
  246MPD1    H6 3741   3.403   1.732   9.396  1.9463 -1.6390  0.7776
  246MPD1    H7 3742   3.317   1.597   9.340 -0.1202  1.5017 -1.4886
  247MPD1     C 3743   0.715   0.109  17.343  0.2867  0.4660  0.4812
  247MPD1    C1 3744   0.626   0.033  17.416  0.2344 -0.4651  0.5441
  247MPD1    C2 3745   0.604   4.625  17.374 -0.5482  0.0806  0.2844
  247MPD1    C3 3746   0.652   4.580  17.257 -1.1556  0.1264 -0.1778
  247MPD1    C4 3747   0.719   4.666  17.176 -0.0054  0.7373 -0.0303
  247MPD1    C5 3748   0.748   0.067  17.215 -0.3370 -0.6816  0.5326
  247MPD1     H 3749   0.555   4.552  17.437 -0.4051 -0.7051 -0.5172
  247MPD1    H1 3750   0.768   4.650  17.080 -0.1795 -0.9967  0.1841
  247MPD1    H2 3751   0.754   0.208  17.365 -0.8040  1.0169 -0.0955
  247MPD1    H3 3752   0.820   0.127  17.161 -0.0147  0.1279  1.8807
  247MPD1     N 3753   0.651   4.444  17.219 -0.2612 -0.7282  0.0275
  247MPD1    H5 3754   0.684   4.433  17.124  0.7437  2.4008  0.0131
  247MPD1    N1 3755   0.586   0.068  17.547  0.4889 -0.2953 -0.2332
  247MPD1    H6 3756   0.499   0.027  17.581  0.6998 -0.6691 -0.1535
  247MPD1    H7 3757   0.572   0.169  17.548  0.1763 -0.3482  1.4201
  248MPD1     C 3758   0.579   3.674   0.325 -0.0233  0.1639  0.6011
  248MPD1    C1 3759   0.573   3.798   0.266  0.2895 -0.6570 -0.3216
  248MPD1    C2 3760   0.674   3.886   0.299 -0.8295 -0.3755 -0.4259
  248MPD1    C3 3761   0.774   3.861   0.395 -0.1142  0.1125 -0.1114
  248MPD1    C4 3762   0.772   3.733   0.450  1.0824 -0.2303 -0.4003
  248MPD1    C5 3763   0.675   3.637   0.419 -0.2470 -0.4764  0.4913
  248MPD1     H 3764   0.667   3.984   0.253 -0.9326  0.3475  1.1586
  248MPD1    H1 3765   0.854   3.705   0.516 -0.1763 -0.3458  1.1315
  248MPD1    H2 3766   0.503   3.599   0.301 -0.9428  0.1178  3.6709
  248MPD1    H3 3767   0.678   3.542   0.472 -0.4305 -0.4796  0.4935
  248MPD1     N 3768   0.842   3.973   0.447 -0.5501 -0.1491  0.2719
  248MPD1    H5 3769   0.829   4.057   0.391  1.1129  0.7202  1.1793
  248MPD1    N1 3770   0.481   3.827   0.162 -0.0108  0.8695 -0.0968
  248MPD1    H6 3771   0.391   3.780   0.171  0.2788  0.2884 -0.2885
  248MPD1    H7 3772   0.471   3.926   0.138  0.9992  0.9647 -0.1240
  249MPD1     C 3773   2.729   4.236   9.439 -0.3271  0.7503  0.7379
  249MPD1    C1 3774   2.795   4.216   9.553 -1.0674  0.0030  0.8262
  249MPD1    C2 3775   2.773   4.115   9.637 -0.1174 -0.6039  0.2958
  249MPD1    C3 3776   2.680   4.021   9.601  0.7423 -0.2837 -0.2104
  249MPD1    C4 3777   2.616   4.033   9.476 -0.3308  0.8383 -0.1560
  249MPD1    C5 3778   2.635   4.143   9.396 -0.6137 -0.7697 -0.4751
  249MPD1     H 3779   2.831   4.104   9.728  2.1647 -0.7985 -1.1917
  249MPD1    H1 3780   2.539   3.964   9.446  0.8226  0.3512 -1.9972
  249MPD1    H2 3781   2.752   4.314   9.368  0.8813 -0.2741  0.0102
  249MPD1    H3 3782   2.580   4.168   9.306  1.1555  1.0521 -1.0500
  249MPD1     N 3783   2.659   3.904   9.676  0.3045 -0.2668 -0.1660
  249MPD1    H5 3784   2.710   3.897   9.764 -1.0116  2.1499  0.8000
  249MPD1    N1 3785   2.886   4.315   9.587 -0.0001  0.0131 -0.2607
  249MPD1    H6 3786   2.846   4.409   9.587  0.9924  0.4329  2.0130
  249MPD1    H7 3787   2.919   4.297   9.682 -1.0431 -0.9384 -0.0837
  250MPD2     C 3788   3.854   3.165  13.780  0.2256  0.7814 -0.1780
  250MPD2    C1 3789   3.900   3.203  13.658  0.0380 -0.1681 -0.1237
  250MPD2    C2 3790   3.883   3.119  13.554  0.1801  0.3337  0.4334
  250MPD2    C3 3791   3.805   3.006  13.562 -0.5189 -0.2580 -0.1121
  250MPD2    C4 3792   3.759   2.973  13.688 -0.3052  0.4400  0.9236
  250MPD2    C5 3793   3.789   3.046  13.798  0.4400  0.1371  0.3085
  250MPD2     H 3794   3.927   3.147  13.459 -2.2069  0.9052 -0.4933
  250MPD2    H1 3795   3.697   2.887  13.709  0.7326 -0.8441 -1.3485
  250MPD2    H2 3796   3.874   3.216  13.874  0.7112  0.5105 -0.1334
  250MPD2    H3 3797   3.756   3.010  13.895  3.6052 -0.2495  1.2384
  250MPD2     N 3798   3.775   2.935  13.440 -0.0116 -0.5956 -0.4099
  250MPD2    H5 3799   3.838   2.960  13.365  0.4023  2.0580  0.8386
  250MPD2    N1 3800   3.962   3.331  13.649  0.3615  0.0165 -0.0413
  250MPD2    H7 3801   3.976   3.376  13.739  0.0225  1.3082 -0.6347
  251TMC3    C1 3802   4.011   3.541  13.553  0.0103  0.4128 -0.0451
  251TMC3    C2 3803   3.973   3.615  13.662 -0.2821  0.2908 -0.1498
  251TMC3    C3 3804   3.997   3.746  13.665 -0.0599 -0.1750 -0.3416
  251TMC3    C4 3805   4.063   3.600  13.443 -0.0442  0.0726 -0.5998
  251TMC3    C5 3806   4.077   3.734  13.444 -0.2358 -0.0099  0.2403
  251TMC3    C6 3807   4.047   3.804  13.555 -0.1888  0.7625  0.5714
  251TMC3     C 3808   3.979   3.407  13.535 -0.2783  0.0900  0.3534
  251TMC3     O 3809   3.961   3.369  13.419  0.0592  0.3055 -1.0611
  251TMC3     H 3810   3.923   3.569  13.747 -3.9839  0.6161 -2.1799
  251TMC3    H1 3811   4.098   3.539  13.361  1.3564  1.7639 -1.2806
  251TMC3    H2 3812   4.067   3.910  13.567 -0.1849  0.7195  0.9416
  251TMC3    C7 3813   4.148   3.808  13.337 -0.2798 -0.4924  0.2461
  251TMC3    C8 3814   3.938   3.826  13.770  0.0025  0.4295 -0.2558
  251TMC3    O1 3815   4.219   3.905  13.355 -0.4698 -0.0716  0.2337
  251TMC3    O2 3816   3.980   3.811  13.883 -0.1109 -0.1553  0.3286
  252TMC3    C1 3817   0.428   4.522   9.157  0.7384  0.4040  0.3105
  252TMC3    C2 3818   0.417   4.639   9.232 -0.4782 -0.5003  0.8943
  252TMC3    C3 3819   0.331   0.006   9.188 -0.1324  0.3039  0.4570
  252TMC3    C4 3820   0.357   4.499   9.042  0.7779 -0.0014  0.5858
  252TMC3    C5 3821   0.278   4.598   9.000  0.7029  0.1193 -0.0816
  252TMC3    C6 3822   0.265   4.715   9.068 -0.2459 -0.3217  0.8043
  252TMC3     C 3823   0.546   4.436   9.174  1.5876  0.5025 -0.5465
  252TMC3     O 3824   0.597   4.383   9.073 -0.0641  0.3430  0.4883
  252TMC3     H 3825   0.491   4.665   9.307  0.7010  1.4432 -0.9279
  252TMC3    H1 3826   0.360   4.407   8.985  0.5835 -0.6062  1.5517
  252TMC3    H2 3827   0.178   0.046   9.035 -0.0105 -0.6540 -0.3496
  252TMC3    C7 3828   0.160   4.565   8.925 -0.3560 -0.5951  0.1956
  252TMC3    C8 3829   0.298   0.122   9.268  0.1281  0.2954  0.1029
  252TMC3    O1 3830   0.115   4.634   8.833 -0.4909 -0.2618 -0.3964
  252TMC3    O2 3831   0.222   0.204   9.223  0.0585  0.2600 -0.2175
  253MPD2     C 3832   0.728   3.159  15.527  0.5016 -1.1342  0.1257
  253MPD2    C1 3833   0.596   3.192  15.555 -0.3965 -0.0120  0.4180
  253MPD2    C2 3834   0.538   3.178  15.678 -0.4148  0.3514  0.0132
  253MPD2    C3 3835   0.620   3.133  15.778 -1.1552 -0.6245  1.2229
  253MPD2    C4 3836   0.749   3.092  15.750 -0.6590 -0.9794  0.1995
  253MPD2    C5 3837   0.805   3.110  15.626  0.0818  0.4232 -0.4939
  253MPD2     H 3838   0.434   3.205  15.691 -0.4199 -0.0234  0.6947
  253MPD2    H1 3839   0.816   3.056  15.827  0.2114 -0.0301 -0.0981
  253MPD2    H2 3840   0.769   3.183  15.430 -0.0773  3.3488  1.0043
  253MPD2    H3 3841   0.912   3.102  15.614  0.0526 -1.8588  0.7412
  253MPD2     N 3842   0.574   3.131  15.917 -0.3971  0.2414  0.4251
  253MPD2    H5 3843   0.643   3.119  15.990  0.6958 -1.0423 -0.8218
  253MPD2    N1 3844   0.502   3.250  15.464 -0.1583  0.2992 -0.4492
  253MPD2    H7 3845   0.413   3.279  15.503  1.1125 -0.1339  2.7814
  254TMC3    C1 3846   0.422   3.139  16.097  0.1296  0.0668  0.7170
  254TMC3    C2 3847   0.299   3.175  16.136  0.0411  0.5175 -0.5413
  254TMC3    C3 3848   0.235   3.106  16.233 -0.1685  0.1765 -0.3721
  254TMC3    C4 3849   0.491   3.039  16.161 -0.3911  0.3754  0.2400
  254TMC3    C5 3850   0.422   2.978  16.266 -0.5114  0.7682  0.8542
  254TMC3    C6 3851   0.292   3.003  16.297  0.0254 -0.0961  0.8108
  254TMC3     C 3852   0.457   3.181  15.961 -0.6948 -0.8585  0.4423
  254TMC3     O 3853   0.370   3.243  15.899 -0.4181 -1.0198 -0.8292
  254TMC3     H 3854   0.252   3.261  16.089 -0.2816 -0.4380 -1.9878
  254TMC3    H1 3855   0.571   2.988  16.108 -1.4077  1.0660 -1.9832
  254TMC3    H2 3856   0.235   2.937  16.362 -0.2261  2.7472  3.4851
  254TMC3    C7 3857   0.509   2.922  16.371  0.1661  0.0117 -0.1996
  254TMC3    C8 3858   0.119   3.162  16.306 -0.3877 -0.1393  0.1345
  254TMC3    O1 3859   0.450   2.871  16.465 -0.3185 -0.4314 -0.5412
  254TMC3    O2 3860   0.075   3.096  16.395  0.0850 -0.5086 -0.4450
  255MPD2     C 3861   3.953   0.243  10.503  0.0684  0.8749 -0.0285
  255MPD2    C1 3862   4.064   0.323  10.486  0.0224 -0.3902  0.2184
  255MPD2    C2 3863   4.167   0.271  10.407  0.2696 -0.1907  0.1882
  255MPD2    C3 3864   4.168   0.141  10.369  0.5574  0.5221 -0.3934
  255MPD2    C4 3865   4.061   0.062  10.398 -0.4518  0.5639 -0.1448
  255MPD2    C5 3866   3.957   0.111  10.471  0.6893 -0.0164 -0.1213
  255MPD2     H 3867   4.257   0.328  10.386 -0.8481  0.4406 -2.7809
  255MPD2    H1 3868   4.066   4.682  10.369 -0.4074  0.9537 -1.5488
  255MPD2    H2 3869   3.861   0.282  10.544 -0.3965 -0.6174  0.3374
  255MPD2    H3 3870   3.877   0.040  10.484  2.2566 -1.1835  3.3589
  255MPD2     N 3871   4.273   0.104  10.287 -0.2832  0.2328  0.0176
  255MPD2    H5 3872   4.348   0.171  10.271 -0.3851  0.1257 -0.9618
  255MPD2    N1 3873   4.061   0.459  10.532  0.3150 -0.0110 -0.4445
  255MPD2    H7 3874   3.972   0.494  10.564  0.6502  0.4918 -0.0596
  256TMC3    C1 3875   4.131   0.664  10.590  1.2152 -0.4461 -0.1813
  256TMC3    C2 3876   4.229   0.741  10.641 -0.2084  0.6496 -0.8331
  256TMC3    C3 3877   4.218   0.879  10.635 -0.5805  0.3503  0.6611
  256TMC3    C4 3878   4.020   0.716  10.538  0.4491  0.2523  0.1424
  256TMC3    C5 3879   4.009   0.855  10.532 -0.5443  0.5630 -0.5551
  256TMC3    C6 3880   4.106   0.936  10.572  0.2758 -0.5287  0.2343
  256TMC3     C 3881   4.176   0.534  10.538 -0.7796 -0.0019  0.1998
  256TMC3     O 3882   4.294   0.504  10.553 -0.0889 -0.0280 -0.1559
  256TMC3     H 3883   4.324   0.697  10.667  0.4427  1.7567 -1.3330
  256TMC3    H1 3884   3.942   0.661  10.486  0.4690 -2.5364  3.0482
  256TMC3    H2 3885   4.094   1.043  10.581 -0.8533 -0.5111 -1.6901
  256TMC3    C7 3886   3.930   0.903  10.424 -0.2156  0.0291 -0.4714
  256TMC3    C8 3887   4.348   0.947  10.633  0.4141  0.5677  0.3209
  256TMC3    O1 3888   3.910   0.823  10.334 -0.0038 -0.3810 -0.0992
  256TMC3    O2 3889   4.448   0.893  10.679  0.6433  0.0214  0.1966
  257MPD2     C 3890   3.137   3.349  13.233 -0.1141 -0.6008 -0.2253
  257MPD2    C1 3891   3.049   3.283  13.154  0.4622  0.6432  0.1496
  257MPD2    C2 3892   2.972   3.177  13.201  0.2610  0.0941 -0.1764
  257MPD2    C3 3893   2.982   3.148  13.331  0.0303 -0.0383 -0.6419
  257MPD2    C4 3894   3.068   3.221  13.413 -0.5753 -0.1372  0.6628
  257MPD2    C5 3895   3.143   3.317  13.364  0.0002  0.4451  0.3060
  257MPD2     H 3896   2.889   3.129  13.150 -0.0958  0.0366  0.4546
  257MPD2    H1 3897   3.079   3.204  13.520 -0.1590  0.4798  0.7183
  257MPD2    H2 3898   3.207   3.425  13.200 -2.2970  1.3788 -0.3072
  257MPD2    H3 3899   3.210   3.362  13.437  2.2691  0.2903 -1.6935
  257MPD2     N 3900   2.892   3.053  13.388 -0.0431  0.4967 -0.2110
  257MPD2    H5 3901   2.857   2.982  13.324 -3.4585  1.9688  0.0629
  257MPD2    N1 3902   3.032   3.330  13.020  0.2038  0.7084 -0.4273
  257MPD2    H7 3903   3.091   3.412  13.008  0.2215  1.1590  2.6383
  258TMC3    C1 3904   2.771   2.927  13.539 -0.5451  0.3612  0.2756
  258TMC3    C2 3905   2.787   2.818  13.451 -0.0597  0.2017  0.2305
  258TMC3    C3 3906   2.751   2.698  13.511  0.2282  0.3043 -0.2474
  258TMC3    C4 3907   2.711   2.921  13.660 -0.2074 -0.4121  0.4974
  258TMC3    C5 3908   2.671   2.798  13.708 -0.7188 -0.1092  0.3970
  258TMC3    C6 3909   2.703   2.680  13.640  0.2559  0.0211 -0.0888
  258TMC3     C 3910   2.840   3.049  13.516  0.3519 -0.3416  0.1767
  258TMC3     O 3911   2.860   3.126  13.606 -0.0301 -0.1449  0.7128
  258TMC3     H 3912   2.860   2.818  13.371 -0.6723 -2.0903 -0.3373
  258TMC3    H1 3913   2.664   3.003  13.713  0.4802  0.9996 -1.0859
  258TMC3    H2 3914   2.679   2.579  13.673  1.5948 -0.5424 -0.8681
  258TMC3    C7 3915   2.668   2.795  13.852 -0.0909 -0.6594 -0.0023
  258TMC3    C8 3916   2.735   2.583  13.427  0.6348  0.4198 -0.3138
  258TMC3    O1 3917   2.627   2.895  13.911 -0.1484  0.1741 -0.0140
  258TMC3    O2 3918   2.742   2.479  13.488  0.1469 -0.1852 -0.5553
  259MPD2     C 3919   2.140   0.427   0.668 -0.6676 -1.3344 -0.0307
  259MPD2    C1 3920   2.154   0.293   0.704 -1.2771 -0.1780 -0.3361
  259MPD2    C2 3921   2.179   0.204   0.601  0.3851  0.0509 -0.1884
  259MPD2    C3 3922   2.167   0.247   0.468 -0.0554 -0.5783  0.4639
  259MPD2    C4 3923   2.161   0.383   0.442 -0.0259 -0.6715  0.1718
  259MPD2    C5 3924   2.146   0.473   0.538  0.2181  0.2715 -0.2173
  259MPD2     H 3925   2.205   0.100   0.623 -0.3879 -0.1256 -0.0809
  259MPD2    H1 3926   2.161   0.417   0.339 -1.6054  1.9230  1.0447
  259MPD2    H2 3927   2.103   0.495   0.743 -2.8819 -0.3962 -1.9795
  259MPD2    H3 3928   2.141   0.580   0.525 -0.9352  0.2014 -0.3010
  259MPD2     N 3929   2.170   0.151   0.372 -0.2559 -0.3473 -0.0523
  259MPD2    H5 3930   2.184   0.059   0.412  2.4193  0.6813  1.3540
  259MPD2    N1 3931   2.135   0.246   0.841 -0.1876  0.0489  0.0336
  259MPD2    H7 3932   2.114   0.316   0.912  0.2444  0.8861 -0.6630
  260TMC3    C1 3933   2.248   0.065   0.172  0.4997  0.3275 -0.0588
  260TMC3    C2 3934   2.299   0.092   0.052 -0.5118 -0.4885 -0.6559
  260TMC3    C3 3935   2.385   0.004  17.693 -0.0053  0.7375  0.4515
  260TMC3    C4 3936   2.303   4.679   0.242  0.4565 -0.6040 -0.5333
  260TMC3    C5 3937   2.402   4.599   0.175 -0.6754 -0.0988  0.2272
  260TMC3    C6 3938   2.443   4.626   0.054 -0.0274 -0.0402  0.0891
  260TMC3     C 3939   2.167   0.168   0.236  0.7138  0.2023  0.2345
  260TMC3     O 3940   2.139   0.268   0.174  0.0379  0.1859 -0.1021
  260TMC3     H 3941   2.256   0.178   0.002  0.6418  0.9057  0.7493
  260TMC3    H1 3942   2.262   4.652   0.339 -2.0172  1.3766 -1.0284
  260TMC3    H2 3943   2.528   4.570   0.017 -0.2030 -0.2460 -0.0061
  260TMC3    C7 3944   2.380   4.456   0.189  0.8557  0.5035 -0.1527
  260TMC3    C8 3945   2.332   4.686  17.557  0.1599  0.8855 -0.0414
  260TMC3    O1 3946   2.381   4.399   0.082  0.0231  0.0236  0.4397
  260TMC3    O2 3947   2.264   0.044  17.495 -0.1454  0.4584 -0.5736
  261MPD2     C 3948   3.337   2.762  12.716  0.3424  0.1196  0.0249
  261MPD2    C1 3949   3.473   2.793  12.724 -0.9945 -0.1461 -0.3969
  261MPD2    C2 3950   3.542   2.842  12.616  1.0187  0.1342 -0.5459
  261MPD2    C3 3951   3.475   2.869  12.495  0.4012  0.2403  0.4117
  261MPD2    C4 3952   3.337   2.841  12.488  0.2452  0.1373 -0.5021
  261MPD2    C5 3953   3.276   2.789  12.601  0.6048  0.0192 -0.1601
  261MPD2     H 3954   3.638   2.892  12.620  0.6950  0.9253 -2.7593
  261MPD2    H1 3955   3.282   2.853  12.396 -1.7725 -1.0267  0.5594
  261MPD2    H2 3956   3.278   2.723  12.798 -0.0640 -1.0581 -0.8270
  261MPD2    H3 3957   3.169   2.773  12.595  0.9041 -2.0403 -0.1576
  261MPD2     N 3958   3.548   2.938  12.392 -0.0847  0.3771 -0.8055
  261MPD2    H5 3959   3.643   2.968  12.409  0.1832 -2.4898  2.6472
  261MPD2    N1 3960   3.547   2.781  12.844 -0.1446  0.1957 -0.3051
  261MPD2    H7 3961   3.642   2.816  12.841  0.0207 -0.1043  1.6168
  262TMC3    C1 3962   3.583   3.092  12.215 -0.2651 -0.4620  0.9949
  262TMC3    C2 3963   3.533   3.197  12.143  0.1082 -0.3775 -1.0135
  262TMC3    C3 3964   3.620   3.270  12.062 -0.0179 -0.9638  0.2783
  262TMC3    C4 3965   3.716   3.064  12.221 -0.0081 -0.7414  0.7361
  262TMC3    C5 3966   3.806   3.137  12.144  0.6028 -0.0472 -0.2922
  262TMC3    C6 3967   3.756   3.234  12.066 -0.5675  0.0581 -0.9549
  262TMC3     C 3968   3.486   3.011  12.293  0.3263 -0.0769 -0.1240
  262TMC3     O 3969   3.373   3.013  12.252 -0.4866 -0.2987  0.1007
  262TMC3     H 3970   3.428   3.225  12.149  0.3383  0.3268 -0.1879
  262TMC3    H1 3971   3.750   2.974  12.271  2.6781 -1.5427 -2.5179
  262TMC3    H2 3972   3.812   3.295  11.996  2.3179 -1.1535  0.3120
  262TMC3    C7 3973   3.916   3.062  12.091  0.0000 -0.5353  0.6661
  262TMC3    C8 3974   3.574   3.310  11.935 -0.5106 -0.2640 -0.0639
  262TMC3    O1 3975   3.967   2.976  12.160 -0.7729  0.2633  0.4258
  262TMC3    O2 3976   3.648   3.295  11.841  0.2827  0.1299 -0.1538
  263MPD2     C 3977   4.690   2.199  11.357 -0.0583 -0.1955  0.2812
  263MPD2    C1 3978   4.714   2.301  11.444 -0.9972 -0.0368 -0.3953
  263MPD2    C2 3979   0.004   2.428  11.397  0.1944 -0.2203 -0.3850
  263MPD2    C3 3980   4.708   2.459  11.263  0.5789 -0.4775  0.6577
  263MPD2    C4 3981   4.687   2.357  11.175  0.8519  0.4739  0.3581
  263MPD2    C5 3982   4.680   2.229  11.223 -0.0188 -0.4560  0.4287
  263MPD2     H 3983   0.023   2.511  11.465 -0.4711  0.1590 -0.6589
  263MPD2    H1 3984   4.671   2.381  11.070 -3.8515  1.0571  1.2132
  263MPD2    H2 3985   4.685   2.094  11.386 -0.3357 -0.5562 -1.0367
  263MPD2    H3 3986   4.661   2.152  11.149  0.4143  1.2933 -1.5046
  263MPD2     N 3987   4.720   2.591  11.211 -0.3689 -0.2729 -0.5191
  263MPD2    H5 3988   0.026   2.654  11.285  0.2813 -0.0040 -1.0117
  263MPD2    N1 3989   0.023   2.252  11.572  0.3598  0.1141 -0.6238
  263MPD2    H7 3990   4.722   2.156  11.595  0.1947  0.1650 -0.5948
  264TMC3    C1 3991   0.073   2.756  11.060  0.7913 -0.1268 -0.4310
  264TMC3    C2 3992   0.030   2.859  11.148 -0.7680  0.1896 -0.0103
  264TMC3    C3 3993   0.086   2.978  11.126  0.4541 -0.2961 -0.0534
  264TMC3    C4 3994   0.155   2.779  10.950 -0.2595  0.4273 -0.3454
  264TMC3    C5 3995   0.209   2.908  10.930  0.1333 -0.1888 -0.0339
  264TMC3    C6 3996   0.167   3.009  11.019  0.3387 -1.1036 -0.5885
  264TMC3     C 3997   0.025   2.620  11.080  0.4457 -0.1690  0.1396
  264TMC3     O 3998   0.075   2.544  11.001  0.5567  0.2132 -0.0184
  264TMC3     H 3999   4.686   2.850  11.232 -1.0983  1.6414 -0.1201
  264TMC3    H1 4000   0.170   2.705  10.872  0.5359  0.6204 -0.3756
  264TMC3    H2 4001   0.196   3.113  11.011 -0.3022 -0.8911 -0.0887
  264TMC3    C7 4002   0.295   2.931  10.816  0.7727  0.5991 -0.7811
  264TMC3    C8 4003   0.068   3.077  11.234  0.6033  0.2294 -0.5253
  264TMC3    O1 4004   0.307   2.840  10.736 -0.2764  0.4735  0.2016
  264TMC3    O2 4005   4.694   3.061  11.303 -0.0369 -0.1235 -0.8729
  265MPD2     C 4006   1.667   2.563  15.405  0.1286 -0.8102  0.5746
  265MPD2    C1 4007   1.727   2.686  15.379  0.4345  0.0493  0.4459
  265MPD2    C2 4008   1.813   2.696  15.270  0.4941  0.3104 -0.0944
  265MPD2    C3 4009   1.824   2.591  15.181  0.2271  0.3266 -0.6257
  265MPD2    C4 4010   1.746   2.477  15.202  0.0475 -0.3187 -0.4402
  265MPD2    C5 4011   1.662   2.469  15.311 -0.2284  0.1540  0.1407
  265MPD2     H 4012   1.865   2.788  15.248  0.3195 -0.0274 -1.9263
  265MPD2    H1 4013   1.740   2.395  15.131 -0.5371  1.5743 -2.5418
  265MPD2    H2 4014   1.608   2.543  15.494  0.7209  1.6954  1.5086
  265MPD2    H3 4015   1.601   2.383  15.337  1.0115 -0.2644  1.6067
  265MPD2     N 4016   1.915   2.575  15.075 -0.1368 -0.1304  0.0755
  265MPD2    H5 4017   1.901   2.495  15.014  1.0226  1.0810 -1.7694
  265MPD2    N1 4018   1.723   2.787  15.476  0.1542 -0.2120  0.1043
  265MPD2    H7 4019   1.778   2.872  15.470  0.5770 -0.3482  1.8250
  266TMC3    C1 4020   1.644   2.914  15.639 -0.0219  0.9918  0.0681
  266TMC3    C2 4021   1.655   2.925  15.780  0.2000  0.5693  0.1905
  266TMC3    C3 4022   1.634   3.048  15.835 -0.4423 -0.0348  0.1216
  266TMC3    C4 4023   1.602   3.018  15.562 -0.1415  0.0589 -0.1401
  266TMC3    C5 4024   1.576   3.132  15.626 -0.2190 -0.1203  0.3003
  266TMC3    C6 4025   1.596   3.158  15.758  0.3284 -0.4236  0.0273
  266TMC3     C 4026   1.639   2.788  15.584 -0.0274  0.0835 -0.3589
  266TMC3     O 4027   1.576   2.702  15.647  0.4647 -0.5425 -0.5798
  266TMC3     H 4028   1.697   2.842  15.835 -0.1744 -0.8439 -1.6327
  266TMC3    H1 4029   1.582   2.999  15.457 -0.4139  0.2639 -0.1255
  266TMC3    H2 4030   1.579   3.255  15.802  0.0240 -0.5663  0.2274
  266TMC3    C7 4031   1.520   3.242  15.548 -0.5688  0.0762 -0.3595
  266TMC3    C8 4032   1.682   3.065  15.969  0.6361 -0.6770 -0.1614
  266TMC3    O1 4033   1.436   3.203  15.470  0.7074 -0.0524 -0.3991
  266TMC3    O2 4034   1.676   2.965  16.042 -0.7024  0.0574 -0.1547
  267MPD2     C 4035   0.045   4.498   0.070  0.1512 -0.9545 -0.1646
  267MPD2    C1 4036   4.679   4.457   0.163 -0.1710 -0.1039 -0.7130
  267MPD2    C2 4037   4.557   4.398   0.116 -0.3427  0.4279 -0.0990
  267MPD2    C3 4038   4.547   4.376  17.675  0.2054  0.1822  0.8968
  267MPD2    C4 4039   4.642   4.425  17.589 -0.4198 -0.3161  0.5155
  267MPD2    C5 4040   0.024   4.494  17.633 -0.1897  0.1463 -0.1850
  267MPD2     H 4041   4.488   4.352   0.186 -0.8449  0.5777 -0.4990
  267MPD2    H1 4042   4.618   4.407  17.485  2.6074 -2.5405  0.2155
  267MPD2    H2 4043   0.137   4.545   0.102 -1.0095  0.2561  1.4159
  267MPD2    H3 4044   0.105   4.529  17.571 -0.6412  1.3432 -0.0848
  267MPD2     N 4045   4.428   4.324  17.617  0.4703 -0.3728 -0.1591
  267MPD2    H5 4046   4.419   4.342  17.518 -3.9969  0.7921  0.4654
  267MPD2    N1 4047   4.709   4.495   0.291  0.1737  0.1514 -0.1844
  267MPD2    H7 4048   0.058   4.565   0.301  0.7508 -0.5778  0.6127
  268TMC3    C1 4049   4.656   4.537   0.510 -0.8086 -0.6586  0.3691
  268TMC3    C2 4050   4.651   4.669   0.480  0.7178  0.3496 -0.1817
  268TMC3    C3 4051   4.618   0.037   0.577  0.2071 -0.6439  0.9345
  268TMC3    C4 4052   4.608   4.494   0.630  0.2297 -0.0941 -0.6300
  268TMC3    C5 4053   4.585   4.580   0.732 -0.1410  0.1128 -0.1324
  268TMC3    C6 4054   4.583   4.716   0.705 -0.4131  0.5617 -0.0324
  268TMC3     C 4055   4.645   4.444   0.401 -0.8516  0.5850  0.3077
  268TMC3     O 4056   4.583   4.337   0.422  0.1983  0.8314 -0.9313
  268TMC3     H 4057   4.672   4.691   0.375  2.5543 -0.1323  0.0882
  268TMC3    H1 4058   4.587   4.393   0.664  0.4700  0.4124  1.0010
  268TMC3    H2 4059   4.570   0.063   0.786 -1.6802 -0.4787  0.6584
  268TMC3    C7 4060   4.610   4.531   0.863  0.1024  0.3760 -0.0035
  268TMC3    C8 4061   4.548   0.157   0.529  0.2563 -0.5932  0.4913
  268TMC3    O1 4062   4.666   4.425   0.877  0.6021 -0.0263  0.4845
  268TMC3    O2 4063   4.490   0.218   0.619  0.2265 -0.2811  0.4098
  269MPD2     C 4064   4.428   3.438  15.838  0.3880  0.0932 -0.1350
  269MPD2    C1 4065   4.300   3.486  15.862  0.3677 -0.4444 -0.4799
  269MPD2    C2 4066   4.267   3.614  15.829  0.5098  0.1931 -0.0868
  269MPD2    C3 4067   4.352   3.691  15.748  0.0696 -0.0344 -0.0142
  269MPD2    C4 4068   4.471   3.638  15.715 -0.2006 -0.3345 -0.8929
  269MPD2    C5 4069   4.512   3.512  15.761  0.4101  0.0994  1.1759
  269MPD2     H 4070   4.177   3.657  15.872  0.5964  0.5279 -0.2374
  269MPD2    H1 4071   4.544   3.697  15.660  0.0556 -0.2864 -0.5030
  269MPD2    H2 4072   4.456   3.337  15.868 -0.1469  0.6219  2.1273
  269MPD2    H3 4073   4.609   3.469  15.735  0.1201  0.3028 -0.2666
  269MPD2     N 4074   4.317   3.825  15.717 -0.2715  0.1749  0.0080
  269MPD2    H5 4075   4.234   3.864  15.762  0.8359  1.2307  1.1278
  269MPD2    N1 4076   4.214   3.401  15.940 -0.1628 -0.2193  0.3516
  269MPD2    H7 4077   4.247   3.311  15.975  0.1299 -1.6530 -3.6791
  270TMC3    C1 4078   4.008   3.328  16.044 -0.4032  0.1816  0.8498
  270TMC3    C2 4079   3.875   3.313  16.003  0.4563 -0.3322  0.7007
  270TMC3    C3 4080   3.808   3.198  16.043  0.0085  0.3685 -0.9160
  270TMC3    C4 4081   4.064   3.226  16.115 -0.6790 -0.2864  0.8475
  270TMC3    C5 4082   3.998   3.115  16.155 -0.6093  0.1571 -0.1449
  270TMC3    C6 4083   3.868   3.097  16.115  1.3425  0.0737  1.0855
  270TMC3     C 4084   4.080   3.424  15.973  0.3222 -0.3311 -0.1499
  270TMC3     O 4085   4.013   3.506  15.912 -0.2019 -0.0079 -0.5743
  270TMC3     H 4086   3.813   3.377  15.940  0.9026 -3.0670 -2.5476
  270TMC3    H1 4087   4.169   3.232  16.140 -0.4705 -0.1214 -0.0834
  270TMC3    H2 4088   3.823   2.999  16.098 -1.2133  1.2825  0.8850
  270TMC3    C7 4089   4.077   2.994  16.184  0.8735  0.2486 -0.9176
  270TMC3    C8 4090   3.720   3.151  15.941 -0.0190 -0.1631  0.5629
  270TMC3    O1 4091   4.190   2.990  16.134 -0.6405 -0.0186  0.3631
  270TMC3    O2 4092   3.597   3.176  15.945 -0.0637 -0.1897 -0.1409
  271MPD2     C 4093   3.437   2.938  14.120  0.1472  0.0671  0.0950
  271MPD2    C1 4094   3.412   3.006  14.239  0.7592  0.3868  0.0853
  271MPD2    C2 4095   3.321   3.108  14.238  0.6830 -0.2037 -0.0757
  271MPD2    C3 4096   3.242   3.133  14.128  0.2130 -0.7345  0.0694
  271MPD2    C4 4097   3.262   3.054  14.013 -0.0490 -0.2045 -0.3023
  271MPD2    C5 4098   3.351   2.957  14.020  0.3066  0.1855 -0.2480
  271MPD2     H 4099   3.305   3.149  14.337 -0.5633 -0.8302 -0.0172
  271MPD2    H1 4100   3.202   3.052  13.923 -0.6272  0.6154  0.0509
  271MPD2    H2 4101   3.500   2.849  14.121 -1.0318 -0.7603  0.6221
  271MPD2    H3 4102   3.360   2.893  13.933 -0.0111 -0.8325  0.4597
  271MPD2     N 4103   3.131   3.219  14.132  0.1019  0.0498 -0.0140
  271MPD2    H5 4104   3.090   3.239  14.041  0.0171  1.4538  0.3359
  271MPD2    N1 4105   3.483   2.988  14.359  1.2483 -0.0222  0.6140
  271MPD2    H7 4106   3.458   3.041  14.442 -0.4298 -0.2136  0.2335
  272TMC3    C1 4107   3.639   2.913  14.509 -0.2424 -0.2496  0.8509
  272TMC3    C2 4108   3.748   2.841  14.540 -0.7729  0.0782 -1.0747
  272TMC3    C3 4109   3.785   2.821  14.668 -0.0182 -0.0638  0.1278
  272TMC3    C4 4110   3.556   2.958  14.614  0.3281  0.3536  0.1499
  272TMC3    C5 4111   3.594   2.939  14.744  0.2744 -0.3332 -0.7222
  272TMC3    C6 4112   3.716   2.883  14.773 -0.1489 -0.5405 -0.5088
  272TMC3     C 4113   3.588   2.910  14.373  0.2013 -0.6253  0.7054
  272TMC3     O 4114   3.635   2.827  14.299  0.0367 -0.1610  0.1342
  272TMC3     H 4115   3.815   2.801  14.465  1.3685  1.3511  0.1745
  272TMC3    H1 4116   3.456   2.989  14.588  0.7887  1.0448 -0.7824
  272TMC3    H2 4117   3.747   2.874  14.876 -1.9800 -2.1320 -0.0935
  272TMC3    C7 4118   3.524   3.017  14.846 -0.1319 -0.5481  0.6614
  272TMC3    C8 4119   3.914   2.753  14.696 -0.5617 -0.5872 -0.3910
  272TMC3    O1 4120   3.409   3.047  14.820  0.0298  0.3450 -0.5276
  272TMC3    O2 4121   3.982   2.736  14.598  0.4413 -0.7632  0.5580
  273MPD2     C 4122   0.817   1.077  11.989 -0.2858 -0.2803 -0.1035
  273MPD2    C1 4123   0.880   1.194  11.947  0.2871 -0.1488  0.1200
  273MPD2    C2 4124   0.846   1.243  11.830  0.2469  0.6118 -0.2563
  273MPD2    C3 4125   0.761   1.181  11.737  0.7250  0.7936  0.2700
  273MPD2    C4 4126   0.697   1.068  11.776 -0.1107 -0.1441 -0.6548
  273MPD2    C5 4127   0.726   1.013  11.902 -0.2150 -0.0669  0.0989
  273MPD2     H 4128   0.874   1.343  11.799  0.4293  1.1017  1.4673
  273MPD2    H1 4129   0.621   1.027  11.711  0.5425  0.1953 -1.6391
  273MPD2    H2 4130   0.811   1.042  12.092  0.5856  0.2211  0.1276
  273MPD2    H3 4131   0.666   0.928  11.932 -1.5927 -0.5076 -3.9522
  273MPD2     N 4132   0.734   1.233  11.607 -0.6869  0.5580  0.7846
  273MPD2    H5 4133   0.650   1.203  11.558  0.1182  2.5484 -1.8442
  273MPD2    N1 4134   0.972   1.266  12.026 -0.1401 -0.2890  0.1125
  273MPD2    H7 4135   0.998   1.362  12.007 -0.8039 -0.1097  0.1234
  274TMC3    C1 4136   0.722   1.407  11.447 -0.2382  0.8723  0.2801
  274TMC3    C2 4137   0.592   1.376  11.421  0.1341 -0.0976 -0.2250
  274TMC3    C3 4138   0.536   1.447  11.323  0.1027 -0.5762 -0.2383
  274TMC3    C4 4139   0.771   1.525  11.413 -0.6983  0.5745 -0.1516
  274TMC3    C5 4140   0.692   1.611  11.347  0.7952  0.4283 -0.1331
  274TMC3    C6 4141   0.587   1.567  11.278 -0.5017  0.2585  0.2165
  274TMC3     C 4142   0.802   1.337  11.544  0.2355  0.3472  0.0047
  274TMC3     O 4143   0.921   1.367  11.567  0.2791 -0.2549 -0.1517
  274TMC3     H 4144   0.553   1.280  11.453 -0.0650  0.9307  2.6572
  274TMC3    H1 4145   0.864   1.557  11.457 -1.2792  3.1736 -0.8181
  274TMC3    H2 4146   0.515   1.633  11.230 -0.0543 -0.0585 -0.8868
  274TMC3    C7 4147   0.667   1.738  11.413  1.0669  0.4294 -0.2820
  274TMC3    C8 4148   0.463   1.376  11.234  0.0965  0.2399  0.1261
  274TMC3    O1 4149   0.556   1.783  11.394  0.4288 -0.1063  0.7243
  274TMC3    O2 4150   0.388   1.292  11.277 -0.7217  1.0129 -0.1458
  275MPD2     C 4151   0.461   3.828  14.960 -0.6994  0.0101  0.2520
  275MPD2    C1 4152   0.386   3.937  14.919 -0.6255  0.0110 -0.4418
  275MPD2    C2 4153   0.254   3.913  14.874 -0.3751  0.1111  1.0292
  275MPD2    C3 4154   0.194   3.782  14.872  0.0722  0.2299  0.1729
  275MPD2    C4 4155   0.270   3.673  14.905  0.3840 -0.2852 -0.5432
  275MPD2    C5 4156   0.406   3.700  14.939 -0.2264 -0.0023  0.5358
  275MPD2     H 4157   0.190   3.997  14.852  0.5438  0.3262 -0.8230
  275MPD2    H1 4158   0.239   3.569  14.906  0.8717 -0.4382 -1.4754
  275MPD2    H2 4159   0.565   3.838  14.989 -0.6904  3.0314 -0.8955
  275MPD2    H3 4160   0.467   3.617  14.971  0.5426  0.1799 -0.4823
  275MPD2     N 4161   0.057   3.779  14.835 -0.9393 -0.2319  0.2410
  275MPD2    H5 4162   0.008   3.866  14.816 -2.4562 -1.8105 -3.0811
  275MPD2    N1 4163   0.416   4.073  14.931 -0.3228  0.1622  0.8732
  275MPD2    H7 4164   0.360   4.136  14.875 -0.2618  0.6915  1.4060
  276TMC3    C1 4165   0.511   4.255  15.030 -0.5119 -0.0193 -0.1120
  276TMC3    C2 4166   0.384   4.300  15.059 -0.2474  0.3775 -0.0007
  276TMC3    C3 4167   0.355   4.370  15.172 -0.0181  0.3306 -0.6245
  276TMC3    C4 4168   0.620   4.284  15.113  0.6487  0.4116  0.3969
  276TMC3    C5 4169   0.586   4.356  15.224 -0.1732 -0.2505  0.0621
  276TMC3    C6 4170   0.460   4.394  15.256  0.4409  0.0017 -0.1757
  276TMC3     C 4171   0.522   4.115  14.999 -0.3485  0.2008 -0.0106
  276TMC3     O 4172   0.563   4.050  15.091 -0.1715 -0.1578  0.2598
  276TMC3     H 4173   0.297   4.265  15.004  1.0331 -0.2474 -1.6671
  276TMC3    H1 4174   0.718   4.242  15.097  0.4740  0.2984 -0.3608
  276TMC3    H2 4175   0.437   4.420  15.358 -0.5763  0.9932 -0.6538
  276TMC3    C7 4176   0.670   4.337  15.347 -1.0036 -0.2587 -0.0918
  276TMC3    C8 4177   0.255   4.310  15.249  0.3713  0.5117 -0.2780
  276TMC3    O1 4178   0.671   4.429  15.422 -0.1240  0.6104  0.1996
  276TMC3    O2 4179   0.208   4.375  15.338  0.1676  0.3503  0.1041
  277MPD2     C 4180   2.261   2.969  13.742 -0.9436  0.0443 -0.3518
  277MPD2    C1 4181   2.156   2.911  13.676  0.1556 -0.2852 -0.0646
  277MPD2    C2 4182   2.050   2.862  13.747  0.8432  0.2094  0.0729
  277MPD2    C3 4183   2.042   2.875  13.886 -0.7464 -0.0125 -0.5299
  277MPD2    C4 4184   2.152   2.920  13.945  0.3515  0.0187 -0.6339
  277MPD2    C5 4185   2.257   2.972  13.872 -0.5209 -0.4121 -0.4862
  277MPD2     H 4186   1.965   2.813  13.701  1.8803 -0.0865 -1.5366
  277MPD2    H1 4187   2.156   2.918  14.053  0.1315 -0.9286 -0.6416
  277MPD2    H2 4188   2.341   3.024  13.695 -2.5279  2.1405 -0.6044
  277MPD2    H3 4189   2.341   3.023  13.919  0.1620 -2.6387  0.6963
  277MPD2     N 4190   1.933   2.812  13.954 -0.2299 -0.1331 -0.2104
  277MPD2    H5 4191   1.854   2.777  13.901  0.4573 -1.7786 -0.1276
  277MPD2    N1 4192   2.160   2.923  13.540 -1.2337 -0.0835 -0.1521
  277MPD2    H7 4193   2.239   2.983  13.516  0.0870 -0.9984  1.9200
  278TMC3    C1 4194   1.790   2.772  14.129  0.1403 -0.6834 -0.9476
  278TMC3    C2 4195   1.747   2.658  14.069  0.1991 -0.0512 -0.1938
  278TMC3    C3 4196   1.617   2.618  14.075 -0.0192  0.4917  0.6408
  278TMC3    C4 4197   1.704   2.848  14.205 -0.1025 -0.4506  0.5035
  278TMC3    C5 4198   1.565   2.819  14.203 -0.1903 -0.4659 -0.0677
  278TMC3    C6 4199   1.522   2.706  14.131  0.3043  0.5441 -0.2621
  278TMC3     C 4200   1.914   2.830  14.090  0.5465 -0.6989 -0.4974
  278TMC3     O 4201   1.964   2.905  14.169 -0.0469  0.7061  1.0011
  278TMC3     H 4202   1.821   2.588  14.031 -0.5147 -0.7703 -0.2525
  278TMC3    H1 4203   1.740   2.944  14.241 -0.1613 -0.3056  0.1774
  278TMC3    H2 4204   1.417   2.686  14.112  0.1667  1.3585 -0.3354
  278TMC3    C7 4205   1.467   2.930  14.235 -0.1525 -0.1201 -0.6608
  278TMC3    C8 4206   1.588   2.475  14.063  0.0730 -0.2057 -0.0323
  278TMC3    O1 4207   1.513   3.040  14.259 -0.6360  0.4081  0.1907
  278TMC3    O2 4208   1.481   2.435  14.106 -0.3914 -0.0622 -0.0692
  279MPD2     C 4209   1.186   2.502   0.398  0.0225 -0.3438 -0.4081
  279MPD2    C1 4210   1.230   2.629   0.435  0.5434 -0.1179 -0.4646
  279MPD2    C2 4211   1.349   2.676   0.380 -1.1492  0.5776 -0.0255
  279MPD2    C3 4212   1.416   2.597   0.282  0.3119 -0.8857 -0.8417
  279MPD2    C4 4213   1.359   2.478   0.241 -0.1681  0.5577  0.5844
  279MPD2    C5 4214   1.245   2.430   0.297 -0.6468  0.1135 -0.5520
  279MPD2     H 4215   1.389   2.768   0.422  0.8908 -0.4337  0.2557
  279MPD2    H1 4216   1.406   2.423   0.160 -1.5055  0.3802 -0.0687
  279MPD2    H2 4217   1.096   2.457   0.436 -0.6746 -0.5699 -2.3175
  279MPD2    H3 4218   1.208   2.335   0.260  0.4970 -0.5903  0.1298
  279MPD2     N 4219   1.535   2.650   0.229 -0.0519 -0.2358 -0.3434
  279MPD2    H5 4220   1.601   2.587   0.184 -0.9596 -1.7676  0.4895
  279MPD2    N1 4221   1.159   2.697   0.538 -0.1503 -0.4255  0.7467
  279MPD2    H7 4222   1.077   2.651   0.577 -1.2384  0.7452 -0.1419
  280TMC3    C1 4223   1.080   2.870   0.669 -0.2022  0.3775  0.4733
  280TMC3    C2 4224   0.959   2.793   0.682 -0.0264  0.4321 -0.1493
  280TMC3    C3 4225   0.854   2.849   0.743  0.0744 -0.4816  0.0307
  280TMC3    C4 4226   1.083   3.001   0.692  0.3515 -0.6090  0.6581
  280TMC3    C5 4227   0.971   3.052   0.739  0.0697 -0.0238 -0.4240
  280TMC3    C6 4228   0.858   2.981   0.770  0.1718 -0.6513  0.4611
  280TMC3     C 4229   1.183   2.826   0.580  0.2421 -0.4150  0.2981
  280TMC3     O 4230   1.260   2.910   0.532  0.6152  1.0870  0.0168
  280TMC3     H 4231   0.962   2.685   0.680  2.3201  0.4712  0.1235
  280TMC3    H1 4232   1.172   3.059   0.671 -0.2418  0.0065 -0.1620
  280TMC3    H2 4233   0.766   3.028   0.803 -1.4788 -3.1706 -0.4608
  280TMC3    C7 4234   0.975   3.194   0.752  0.3508  0.1980 -0.6334
  280TMC3    C8 4235   0.742   2.763   0.773  0.5237  0.8127  0.3668
  280TMC3    O1 4236   1.086   3.245   0.745  0.3917  0.6357 -0.2501
  280TMC3    O2 4237   0.684   2.801   0.875 -0.7908 -0.0053  0.3958
  281TMC3    C1 4238   4.555   3.780  13.481  0.5435  1.2153  0.4156
  281TMC3    C2 4239   4.604   3.852  13.373 -0.0028  0.8062 -0.4866
  281TMC3    C3 4240   4.633   3.776  13.268  0.1874 -0.5411 -0.0189
  281TMC3    C4 4241   4.530   3.650  13.483  0.3373  0.0396  0.3432
  281TMC3    C5 4242   4.555   3.580  13.371  0.1600  0.0598  0.3774
  281TMC3    C6 4243   4.599   3.644  13.261  0.3404 -0.0098  0.1971
  281TMC3     C 4244   4.499   3.847  13.595  0.5163 -0.0448 -0.2427
  281TMC3     O 4245   4.511   3.782  13.694  0.8019 -0.0268  0.6412
  281TMC3     H 4246   4.624   3.958  13.375  2.1970  0.3867 -0.3798
  281TMC3    H1 4247   4.483   3.597  13.565  0.7989 -1.2540 -0.2283
  281TMC3    H2 4248   4.621   3.585  13.173 -2.3116  1.6955 -1.6185
  281TMC3    C7 4249   4.495   3.451  13.352  0.3039 -0.5516 -0.3702
  281TMC3    C8 4250   4.669   3.848  13.146  0.2839  0.9393 -0.6135
  281TMC3    O1 4251   4.501   3.400  13.238 -0.5569  0.1233 -0.8784
  281TMC3    O2 4252   0.055   3.902  13.147 -0.1009 -0.2498  0.2986
  282MPD2     C 4253   1.851   4.337  15.408  0.4035 -0.0616  0.1563
  282MPD2    C1 4254   1.743   4.423  15.418  0.2544  0.3673 -0.1815
  282MPD2    C2 4255   1.656   4.416  15.311  0.8003 -0.1402  0.6319
  282MPD2    C3 4256   1.669   4.329  15.209 -0.0128 -0.1200  0.1816
  282MPD2    C4 4257   1.780   4.247  15.198  0.4537 -0.1710 -0.5834
  282MPD2    C5 4258   1.864   4.247  15.304 -1.0278 -0.3713  0.5448
  282MPD2     H 4259   1.572   4.485  15.313  0.5210 -0.5475  2.6877
  282MPD2    H1 4260   1.794   4.172  15.121 -1.6081  0.3190 -1.4549
  282MPD2    H2 4261   1.922   4.328  15.489  0.4521  0.5328  0.1845
  282MPD2    H3 4262   1.942   4.172  15.304  1.2992  2.0475  1.6612
  282MPD2     N 4263   1.559   4.329  15.119 -0.0150 -0.2668  0.1496
  282MPD2    H5 4264   1.480   4.385  15.147  0.3970 -0.9902  2.7151
  282MPD2    N1 4265   1.738   4.508  15.528 -0.4553 -0.5265 -0.0522
  282MPD2    H7 4266   1.814   4.503  15.595  1.1268 -0.5066 -1.8391
  283TMC3    C1 4267   1.642   4.672  15.669  0.5376  0.1879 -0.2342
  283TMC3    C2 4268   1.594   0.073  15.666  0.7908 -0.3963 -0.2187
  283TMC3    C3 4269   1.522   0.106  15.778  0.3907  0.7320  0.5622
  283TMC3    C4 4270   1.633   4.582  15.767  0.0305 -0.1215 -1.0474
  283TMC3    C5 4271   1.553   4.612  15.869 -0.1337 -0.4060 -0.0398
  283TMC3    C6 4272   1.500   0.012  15.880  0.2164  0.0977  0.6866
  283TMC3     C 4273   1.647   4.610  15.540 -0.1524 -0.0201 -0.6516
  283TMC3     O 4274   1.561   4.643  15.456 -0.8461 -0.3540 -0.2648
  283TMC3     H 4275   1.598   0.132  15.576 -0.9659  2.7308  1.7556
  283TMC3    H1 4276   1.676   4.484  15.752  0.2197  0.0215 -1.4567
  283TMC3    H2 4277   1.446   0.035  15.971 -0.1566  0.7853  0.2988
  283TMC3    C7 4278   1.475   4.513  15.940  0.4122  0.3686 -0.0391
  283TMC3    C8 4279   1.472   0.237  15.813  0.2295 -0.3185 -0.5586
  283TMC3    O1 4280   1.414   4.549  16.037  0.3607 -0.3482  0.1075
  283TMC3    O2 4281   1.398   0.239  15.908  0.1392 -0.6285  0.4880
  284MPD2     C 4282   0.702   4.191  12.051  0.2571  0.3008  0.4353
  284MPD2    C1 4283   0.582   4.232  11.995 -0.5018  0.1979  0.0938
  284MPD2    C2 4284   0.469   4.151  12.014 -0.4212 -0.2166  0.3882
  284MPD2    C3 4285   0.470   4.032  12.086 -0.3179 -0.1273  0.0220
  284MPD2    C4 4286   0.589   3.989  12.138  0.2769 -0.4573  0.2921
  284MPD2    C5 4287   0.694   4.068  12.121  0.2798  0.2921 -0.0127
  284MPD2     H 4288   0.376   4.189  11.973 -0.7641  2.0258  3.2386
  284MPD2    H1 4289   0.621   3.898  12.188 -1.7840 -1.1796  0.2796
  284MPD2    H2 4290   0.795   4.245  12.039  0.5574 -0.4555 -0.5966
  284MPD2    H3 4291   0.795   4.043  12.154  0.6280  0.2685 -1.1167
  284MPD2     N 4292   0.362   3.941  12.091 -0.3967 -0.3528 -0.4504
  284MPD2    H5 4293   0.388   3.850  12.128 -1.5640 -1.3326 -2.0101
  284MPD2    N1 4294   0.572   4.350  11.916  0.3178  0.0556 -0.3831
  284MPD2    H7 4295   0.480   4.359  11.874 -0.1467 -0.9324  0.4139
  285TMC3    C1 4296   0.658   4.527  11.780  0.2387  0.2311  0.6652
  285TMC3    C2 4297   0.597   4.467  11.673 -0.5073  0.4403  0.9602
  285TMC3    C3 4298   0.625   4.520  11.545 -0.2870  0.0838  0.2625
  285TMC3    C4 4299   0.735   4.638  11.775 -1.5711  0.3918 -0.7653
  285TMC3    C5 4300   0.762   4.689  11.644  0.1390 -0.4115 -0.3375
  285TMC3    C6 4301   0.713   4.622  11.531  0.1887  0.5812  0.1018
  285TMC3     C 4302   0.670   4.443  11.896 -0.8669  0.2674  0.6635
  285TMC3     O 4303   0.781   4.457  11.948 -0.3121  0.0813 -0.0252
  285TMC3     H 4304   0.537   4.377  11.678 -0.8288  0.3444 -4.5701
  285TMC3    H1 4305   0.782   4.678  11.864  0.5253  0.8881 -2.0718
  285TMC3    H2 4306   0.746   4.642  11.430  1.5794 -1.1316  0.2151
  285TMC3    C7 4307   0.839   0.077  11.624  0.1804  0.0573  0.0387
  285TMC3    C8 4308   0.653   4.405  11.457 -0.1215  0.2674 -0.7243
  285TMC3    O1 4309   0.930   0.106  11.698 -0.1909 -0.3308 -0.8592
  285TMC3    O2 4310   0.565   4.321  11.430  0.3720 -0.0080  0.5971
  286MPD2     C 4311   1.076   2.991   1.869 -0.2250 -0.6456 -0.3910
  286MPD2    C1 4312   0.963   2.928   1.834 -0.4997  0.1426  0.6171
  286MPD2    C2 4313   0.972   2.795   1.809 -1.0068  0.3023  0.4255
  286MPD2    C3 4314   1.092   2.721   1.825 -0.5233  0.2595 -0.0470
  286MPD2    C4 4315   1.205   2.786   1.867 -0.2289 -0.8949 -0.0325
  286MPD2    C5 4316   1.202   2.925   1.880  0.3249  0.6328  0.5084
  286MPD2     H 4317   0.882   2.743   1.779  0.3531 -0.2315 -2.7869
  286MPD2    H1 4318   1.300   2.734   1.876  0.5834  0.5321 -0.3471
  286MPD2    H2 4319   1.078   3.097   1.887 -0.0677 -0.8010  0.4725
  286MPD2    H3 4320   1.294   2.976   1.905  0.8106  0.6115 -1.2083
  286MPD2     N 4321   1.112   2.591   1.775 -0.2513 -0.5527 -0.1401
  286MPD2    H5 4322   1.201   2.545   1.791  0.4559  0.3788 -1.3751
  286MPD2    N1 4323   0.838   3.000   1.802  0.2240  0.6536 -0.4872
  286MPD2    H7 4324   0.757   2.951   1.765 -1.2468  3.2572 -0.7455
  287TMC3    C1 4325   1.069   2.405   1.628  0.3708  0.2342  0.2288
  287TMC3    C2 4326   0.972   2.338   1.556 -0.7102  0.7252 -0.1739
  287TMC3    C3 4327   1.013   2.237   1.476 -0.6207 -0.4235  0.7798
  287TMC3    C4 4328   1.200   2.367   1.628 -0.2667 -0.0109  0.3363
  287TMC3    C5 4329   1.230   2.261   1.546 -0.0572  0.1556  0.6586
  287TMC3    C6 4330   1.139   2.188   1.478 -0.0947 -0.2326 -0.2613
  287TMC3     C 4331   1.021   2.520   1.705 -1.0184  0.6315  0.3509
  287TMC3     O 4332   0.901   2.541   1.696  0.0986  0.2254 -0.5616
  287TMC3     H 4333   0.866   2.356   1.571 -1.4039 -0.2769 -3.7876
  287TMC3    H1 4334   1.278   2.429   1.671  0.3011  0.1866 -0.9674
  287TMC3    H2 4335   1.162   2.103   1.414  0.5239 -0.9865  0.9778
  287TMC3    C7 4336   1.358   2.196   1.581 -0.2894 -0.1458  0.1539
  287TMC3    C8 4337   0.908   2.179   1.388 -0.3886 -0.6639  0.3228
  287TMC3    O1 4338   1.386   2.199   1.700  0.4334 -0.2420  0.0439
  287TMC3    O2 4339   0.929   2.059   1.353 -0.8003  0.2352  0.5384
  288TMC3    C1 4340   1.764   1.991  14.690 -0.0780  0.1913 -0.5037
  288TMC3    C2 4341   1.735   1.954  14.818 -0.3821  0.4359  0.1373
  288TMC3    C3 4342   1.748   2.042  14.916  0.5526  0.0434  0.0916
  288TMC3    C4 4343   1.796   2.126  14.662  0.0363 -0.0359  0.4150
  288TMC3    C5 4344   1.816   2.206  14.772  0.7430  0.0664  0.6795
  288TMC3    C6 4345   1.786   2.172  14.900 -0.0024 -0.4492  0.0520
  288TMC3     C 4346   1.760   1.885  14.590  0.4259 -0.2325  0.2017
  288TMC3     O 4347   1.730   1.772  14.623 -0.9748 -0.6852 -0.8467
  288TMC3     H 4348   1.706   1.850  14.832  0.4257 -0.2876 -3.6571
  288TMC3    H1 4349   1.826   2.146  14.560 -1.2163  1.6891  0.3750
  288TMC3    H2 4350   1.773   2.254  14.970  0.4906 -1.2101  1.0325
  288TMC3    C7 4351   1.868   2.346  14.746 -0.2918  0.1805  0.1121
  288TMC3    C8 4352   1.684   2.014  15.047 -0.1865 -0.7210 -0.4281
  288TMC3    O1 4353   1.846   2.424  14.837 -0.5571 -0.2280  0.4028
  288TMC3    O2 4354   1.700   2.100  15.127 -0.0274 -0.3461 -0.1661
  289MPD2     C 4355   2.049   1.168  14.218  0.7618 -0.0417 -0.2796
  289MPD2    C1 4356   2.034   1.281  14.293 -0.3409  0.1912 -0.6031
  289MPD2    C2 4357   1.920   1.293  14.372 -0.4463  0.7146 -0.0354
  289MPD2    C3 4358   1.825   1.188  14.371 -0.3200  0.3290  0.3330
  289MPD2    C4 4359   1.852   1.073  14.296  0.9122 -0.0126  0.0003
  289MPD2    C5 4360   1.965   1.060  14.228 -0.1155 -0.1414 -0.6367
  289MPD2     H 4361   1.895   1.391  14.410  0.6311  0.6996  0.7134
  289MPD2    H1 4362   1.784   0.991  14.279 -1.2117  1.9656 -1.0755
  289MPD2    H2 4363   2.131   1.151  14.150  0.9266 -3.4414  0.7406
  289MPD2    H3 4364   1.976   0.975  14.161  0.5763 -1.4411  1.1101
  289MPD2     N 4365   1.695   1.198  14.430  0.6479  0.0601  0.0059
  289MPD2    H5 4366   1.625   1.134  14.392  0.1907 -0.8213  2.3228
  289MPD2    N1 4367   2.125   1.385  14.269  0.2886  0.2164  0.0968
  289MPD2    H7 4368   2.197   1.364  14.201 -0.6663 -0.5481 -0.6909
  290TMC3    C1 4369   1.506   1.283  14.532  0.5409 -0.6479  0.1643
  290TMC3    C2 4370   1.449   1.404  14.537 -0.0389 -0.0781 -0.8294
  290TMC3    C3 4371   1.325   1.412  14.490 -0.0081  0.5644  0.2330
  290TMC3    C4 4372   1.433   1.170  14.521  0.2700 -0.5625 -0.2695
  290TMC3    C5 4373   1.307   1.180  14.486 -0.1133 -0.2884  0.6854
  290TMC3    C6 4374   1.255   1.302  14.452  0.0999 -0.3890 -0.3153
  290TMC3     C 4375   1.647   1.295  14.517  0.7905  0.1298 -0.2618
  290TMC3     O 4376   1.708   1.394  14.550 -0.8642 -0.3983 -0.3670
  290TMC3     H 4377   1.512   1.491  14.554  2.0653 -1.9765  1.2183
  290TMC3    H1 4378   1.484   1.075  14.515  0.9133 -0.2738  0.5123
  290TMC3    H2 4379   1.150   1.317  14.428 -0.4944 -0.4280  2.1927
  290TMC3    C7 4380   1.240   1.059  14.428  0.5732 -0.4645 -0.0239
  290TMC3    C8 4381   1.291   1.533  14.420 -0.3132 -0.1570 -0.1312
  290TMC3    O1 4382   1.153   1.070  14.339 -0.1914  0.0404  0.3218
  290TMC3    O2 4383   1.223   1.512  14.319  0.2657  0.6734 -0.6340
  291MPD2     C 4384   0.966   1.825   0.358  0.0517  0.1468 -0.3432
  291MPD2    C1 4385   1.031   1.769   0.462  0.0841  0.4876 -0.1409
  291MPD2    C2 4386   1.144   1.833   0.508  0.1733  0.6203 -0.5189
  291MPD2    C3 4387   1.179   1.959   0.479 -0.1288 -1.0009  0.4854
  291MPD2    C4 4388   1.099   2.018   0.381  0.6766  0.1441  0.0515
  291MPD2    C5 4389   0.995   1.954   0.323 -0.1635  0.2195 -0.5792
  291MPD2     H 4390   1.212   1.789   0.580  0.1628 -1.5550 -1.8313
  291MPD2    H1 4391   1.110   2.120   0.345 -1.2011  0.3254  0.0180
  291MPD2    H2 4392   0.889   1.768   0.306 -0.4563  0.2374  0.3146
  291MPD2    H3 4393   0.952   2.005   0.238  0.1747  0.4737 -0.5979
  291MPD2     N 4394   1.296   2.028   0.514 -0.5545  0.0689 -0.2303
  291MPD2    H5 4395   1.319   2.114   0.467 -0.8120  1.5931  2.3949
  291MPD2    N1 4396   1.012   1.633   0.495 -0.9831  0.1240  0.4881
  291MPD2    H7 4397   1.074   1.585   0.559  1.9171  0.0035 -2.3862
  292TMC3    C1 4398   0.952   1.408   0.507 -0.3341 -0.6261 -0.7769
  292TMC3    C2 4399   1.035   1.392   0.613 -0.1599 -0.1234  0.5961
  292TMC3    C3 4400   1.030   1.276   0.683 -0.0475  0.5696  0.1026
  292TMC3    C4 4401   0.874   1.299   0.467 -0.0685  0.2235  0.8439
  292TMC3    C5 4402   0.871   1.183   0.537 -0.5149  0.3169 -0.3117
  292TMC3    C6 4403   0.944   1.174   0.652 -0.2024  0.0566 -0.5980
  292TMC3     C 4404   0.926   1.543   0.445 -0.5739 -0.2256 -0.5691
  292TMC3     O 4405   0.830   1.567   0.371  0.0538 -0.1779 -0.3347
  292TMC3     H 4406   1.087   1.479   0.651  2.1367 -1.4053  0.3677
  292TMC3    H1 4407   0.806   1.317   0.384  0.9192  0.8481  0.1725
  292TMC3    H2 4408   0.939   1.080   0.706 -0.6813  0.9975  0.9769
  292TMC3    C7 4409   0.827   1.055   0.477  0.2866  0.2827 -0.2907
  292TMC3    C8 4410   1.085   1.288   0.816 -0.3142  0.2328  0.1778
  292TMC3    O1 4411   0.878   0.954   0.517 -0.2257 -0.7019 -0.1628
  292TMC3    O2 4412   1.177   1.371   0.830 -0.4294  0.2971  0.1396
  293MPD2     C 4413   3.239   3.186  12.518  0.1761 -0.4580  0.3919
  293MPD2    C1 4414   3.139   3.107  12.569  0.1095  0.5206  0.0465
  293MPD2    C2 4415   3.141   3.083  12.703  0.6381  0.0496 -0.5910
  293MPD2    C3 4416   3.245   3.127  12.789 -0.4420 -0.2385 -0.6490
  293MPD2    C4 4417   3.337   3.214  12.733  0.2407 -0.6276  0.2270
  293MPD2    C5 4418   3.332   3.237  12.599 -0.1407 -0.5574 -0.5848
  293MPD2     H 4419   3.061   3.022  12.744 -0.9806  1.6030 -1.4488
  293MPD2    H1 4420   3.425   3.240  12.790 -0.0113  1.3820 -0.3180
  293MPD2    H2 4421   3.251   3.193  12.410  0.0965  2.1431  0.5650
  293MPD2    H3 4422   3.413   3.290  12.550  2.5077 -1.2829  3.0551
  293MPD2     N 4423   3.253   3.087  12.923 -0.5152  0.4771 -0.1056
  293MPD2    H5 4424   3.187   3.013  12.941  0.6000 -0.5658 -0.3321
  293MPD2    N1 4425   3.046   3.057  12.478 -0.2121  0.0160 -0.0164
  293MPD2    H7 4426   3.059   3.076  12.379 -2.1271 -1.1516 -0.4912
  294TMC3    C1 4427   2.889   2.926  12.366 -0.1596  0.4340  0.1980
  294TMC3    C2 4428   2.797   2.830  12.365 -0.0085  0.0794  0.3160
  294TMC3    C3 4429   2.773   2.765  12.249  0.3249  0.4231 -0.0017
  294TMC3    C4 4430   2.965   2.956  12.245  0.2567  0.4724 -0.1490
  294TMC3    C5 4431   2.931   2.887  12.137  0.4061  0.0817  0.1237
  294TMC3    C6 4432   2.833   2.791  12.135  0.4948 -0.6487  0.4890
  294TMC3     C 4433   2.938   2.972  12.501 -0.3542 -0.2767 -0.2676
  294TMC3     O 4434   2.891   2.926  12.605  0.0745  0.5804  0.3565
  294TMC3     H 4435   2.742   2.805  12.455  1.7109 -1.3307  0.9777
  294TMC3    H1 4436   3.054   3.017  12.231  0.5027 -0.0929 -1.0528
  294TMC3    H2 4437   2.789   2.762  12.041  2.9981 -0.9619 -0.5847
  294TMC3    C7 4438   2.981   2.919  12.004  0.7335  0.4670 -0.5274
  294TMC3    C8 4439   2.677   2.654  12.252  0.1541 -0.5087  0.2427
  294TMC3    O1 4440   2.911   2.916  11.904  0.4126 -0.6155 -0.3116
  294TMC3    O2 4441   2.594   2.668  12.344 -0.5799  0.3408 -0.2602
  295MPD2     C 4442   4.215   2.080   0.573  0.1866  0.3563 -0.0567
  295MPD2    C1 4443   4.094   2.012   0.576 -0.5521  0.4845  0.2408
  295MPD2    C2 4444   4.084   1.896   0.654  0.0401  0.3706 -0.3211
  295MPD2    C3 4445   4.190   1.861   0.736  0.3391  0.8012 -0.3320
  295MPD2    C4 4446   4.308   1.929   0.734 -0.4167  0.6601 -0.0322
  295MPD2    C5 4447   4.317   2.035   0.648 -0.8096  0.1436 -0.5247
  295MPD2     H 4448   3.992   1.840   0.659 -1.0783  2.1929 -0.3251
  295MPD2    H1 4449   4.391   1.896   0.795  0.4486  1.0711 -0.9950
  295MPD2    H2 4450   4.223   2.167   0.509 -0.1204  1.3518  1.2665
  295MPD2    H3 4451   4.414   2.083   0.642 -1.3814  1.1952 -1.3981
  295MPD2     N 4452   4.186   1.753   0.825 -0.2289  0.5611  0.3416
  295MPD2    H5 4453   4.261   1.750   0.893 -0.4813  1.8946  0.6944
  295MPD2    N1 4454   3.979   2.045   0.490  0.3895  0.6499  0.5759
  295MPD2    H7 4455   3.902   1.980   0.501 -0.0728  0.9309 -0.9202
  296TMC3    C1 4456   4.111   1.583   0.960  0.0442 -0.1387 -0.0226
  296TMC3    C2 4457   4.235   1.543   0.992  0.4920 -0.2731  0.6730
  296TMC3    C3 4458   4.249   1.481   1.113 -0.1473  0.0969 -0.2960
  296TMC3    C4 4459   4.002   1.540   1.029 -0.0603  0.0824 -0.0893
  296TMC3    C5 4460   4.024   1.480   1.145 -0.2884  0.0189  0.6038
  296TMC3    C6 4461   4.150   1.451   1.196 -0.4891  0.4804 -0.0437
  296TMC3     C 4462   4.081   1.672   0.853 -0.8203  0.0478 -0.4437
  296TMC3     O 4463   3.973   1.659   0.800  0.1046  0.5180  0.2660
  296TMC3     H 4464   4.324   1.558   0.932  1.7380 -1.0670  2.3218
  296TMC3    H1 4465   3.904   1.566   0.990  0.2621 -0.8011 -1.5131
  296TMC3    H2 4466   4.155   1.388   1.284 -1.6317  1.0900  0.4471
  296TMC3    C7 4467   3.905   1.451   1.227  0.5046  0.6622  0.0475
  296TMC3    C8 4468   4.379   1.432   1.134 -0.0070 -0.3208 -0.1426
  296TMC3    O1 4469   3.806   1.519   1.206  0.1793  0.2366  0.1694
  296TMC3    O2 4470   4.437   1.399   1.033 -0.3186  0.0833 -0.3640
  297MPD2     C 4471   0.603   3.390  16.285 -0.0993  0.4137  0.0624
  297MPD2    C1 4472   0.607   3.529  16.273 -0.2113 -0.0965 -0.0319
  297MPD2    C2 4473   0.729   3.592  16.265  0.3941 -0.4655 -0.6746
  297MPD2    C3 4474   0.846   3.513  16.255 -0.1196  0.1619 -0.0364
  297MPD2    C4 4475   0.842   3.374  16.291  0.1845  0.2365 -0.2066
  297MPD2    C5 4476   0.718   3.318  16.312 -0.1406  0.4216  0.0457
  297MPD2     H 4477   0.737   3.699  16.247 -0.8603 -0.1366  0.7819
  297MPD2    H1 4478   0.926   3.309  16.314  0.8373  2.2136  2.9708
  297MPD2    H2 4479   0.504   3.345  16.283  0.3844 -0.5759 -1.8938
  297MPD2    H3 4480   0.728   3.215  16.344  2.2348  0.2693 -1.1566
  297MPD2     N 4481   0.969   3.580  16.239 -0.1158 -0.6975 -0.5705
  297MPD2    H5 4482   0.979   3.680  16.256 -1.2256 -0.5382 -0.8344
  297MPD2    N1 4483   0.488   3.601  16.254  0.0824 -0.4983 -0.9134
  297MPD2    H7 4484   0.495   3.696  16.218  3.9560 -0.4695 -0.0953
  298TMC3    C1 4485   0.271   3.666  16.262 -0.5288 -0.1729  0.0170
  298TMC3    C2 4486   0.293   3.743  16.149  0.1787  0.0649  0.4398
  298TMC3    C3 4487   0.248   3.871  16.142 -0.0808  0.3843  0.1187
  298TMC3    C4 4488   0.223   3.724  16.374  0.4999 -0.4669 -0.3294
  298TMC3    C5 4489   0.169   3.857  16.363 -0.3639  0.1771 -0.3069
  298TMC3    C6 4490   0.183   3.934  16.249 -0.2129  0.5075  0.3015
  298TMC3     C 4491   0.361   3.557  16.280 -0.4520  0.2075 -0.1013
  298TMC3     O 4492   0.327   3.460  16.353 -0.4117  0.9814 -0.6263
  298TMC3     H 4493   0.344   3.702  16.063  0.5787 -0.1788  0.7914
  298TMC3    H1 4494   0.225   3.668  16.467  0.8057  0.8250  0.4475
  298TMC3    H2 4495   0.146   4.035  16.239  2.4063  1.4670  0.1439
  298TMC3    C7 4496   0.134   3.923  16.485 -0.3105  0.4322  0.3281
  298TMC3    C8 4497   0.247   3.944  16.022 -0.0714  0.5489 -1.0902
  298TMC3    O1 4498   0.072   3.859  16.570  0.0554  0.8236  0.3577
  298TMC3    O2 4499   0.153   4.019  16.008  0.1095  0.1605  0.5340
  299MPD2     C 4500   1.763   3.742  10.279 -0.1266  0.0628 -0.5273
  299MPD2    C1 4501   1.748   3.643  10.369 -0.4628  0.0154 -0.0124
  299MPD2    C2 4502   1.635   3.562  10.360 -0.6415 -0.5702 -0.1014
  299MPD2    C3 4503   1.551   3.562  10.249  0.1552  0.0316  0.6048
  299MPD2    C4 4504   1.575   3.661  10.158 -0.1338  0.2639 -0.4110
  299MPD2    C5 4505   1.677   3.750  10.176 -0.1187 -0.6708 -0.0977
  299MPD2     H 4506   1.622   3.489  10.439 -1.3915  3.4377  3.4969
  299MPD2    H1 4507   1.521   3.664  10.064 -0.2570  1.4074 -0.3031
  299MPD2    H2 4508   1.848   3.810  10.283  0.4231 -0.6465 -0.0608
  299MPD2    H3 4509   1.694   3.816  10.091  0.6383  0.5384  1.0037
  299MPD2     N 4510   1.441   3.480  10.231 -0.3665  0.2743  0.4613
  299MPD2    H5 4511   1.379   3.496  10.153 -1.6236  2.1899  1.8462
  299MPD2    N1 4512   1.836   3.638  10.480  0.4139 -0.7971 -0.6559
  299MPD2    H7 4513   1.898   3.719  10.478 -1.0980  0.3713 -0.0530
  300TMC3    C1 4514   1.267   3.345  10.294 -0.7653  0.7220  0.2955
  300TMC3    C2 4515   1.186   3.449  10.258  0.7885 -0.1374  0.4517
  300TMC3    C3 4516   1.066   3.459  10.320  0.0164  0.3418  0.9451
  300TMC3    C4 4517   1.228   3.239  10.372  0.6188 -0.5271  0.5884
  300TMC3    C5 4518   1.105   3.256  10.433 -0.9579  0.0326  0.0234
  300TMC3    C6 4519   1.026   3.362  10.414  1.0357 -0.1377 -0.1243
  300TMC3     C 4520   1.412   3.369  10.300  0.2963 -0.0982  0.1027
  300TMC3     O 4521   1.468   3.319  10.396 -0.1394 -0.3954 -0.0060
  300TMC3     H 4522   1.215   3.533  10.195 -0.8601  0.0783 -0.0144
  300TMC3    H1 4523   1.291   3.154  10.393  0.3070 -0.8161  0.3449
  300TMC3    H2 4524   0.932   3.373  10.466  1.8087  0.5576  1.1328
  300TMC3    C7 4525   1.086   3.182  10.555 -0.2120 -0.1865 -0.3220
  300TMC3    C8 4526   1.025   3.593  10.343  0.5416 -0.3272 -0.6183
  300TMC3    O1 4527   1.137   3.071  10.551  0.0922 -0.5321  0.4835
  300TMC3    O2 4528   1.111   3.678  10.327 -0.4425  0.0162  0.1538
  301MPD2     C 4529   3.874   4.442   1.152  0.3746 -0.2157 -0.0944
  301MPD2    C1 4530   3.740   4.439   1.175 -0.4323 -0.2134  0.4877
  301MPD2    C2 4531   3.670   4.320   1.174  0.8246 -0.2019  0.6663
  301MPD2    C3 4532   3.734   4.207   1.136 -0.1793 -0.3775 -0.3397
  301MPD2    C4 4533   3.871   4.211   1.121 -0.2348 -0.6884 -0.0173
  301MPD2    C5 4534   3.942   4.329   1.134 -0.0554 -0.0774  0.5842
  301MPD2     H 4535   3.563   4.318   1.190  0.8396  0.4908  0.8634
  301MPD2    H1 4536   3.926   4.124   1.087  1.4115  0.2044  0.3758
  301MPD2    H2 4537   3.936   4.530   1.159 -1.9866  1.5991 -2.0342
  301MPD2    H3 4538   4.049   4.340   1.127 -0.0346 -1.8800 -1.7218
  301MPD2     N 4539   3.668   4.081   1.132  0.1975 -0.1775 -0.0520
  301MPD2    H5 4540   3.722   3.995   1.143  0.8705  0.4998  1.8264
  301MPD2    N1 4541   3.667   4.554   1.201 -0.8680  0.5641  0.8739
  301MPD2    H7 4542   3.577   4.538   1.245 -1.2455  3.3003  1.0848
  302TMC3    C1 4543   3.474   3.941   1.100 -0.0412 -0.0201  0.1462
  302TMC3    C2 4544   3.520   3.854   1.199  0.2740 -0.2818 -0.4023
  302TMC3    C3 4545   3.438   3.759   1.254  1.0941 -0.0087  0.0310
  302TMC3    C4 4546   3.347   3.935   1.054  0.3357 -0.1005  0.4195
  302TMC3    C5 4547   3.277   3.829   1.106  0.4585 -0.0000  0.4602
  302TMC3    C6 4548   3.310   3.753   1.211  0.1586  0.3246  0.0919
  302TMC3     C 4549   3.534   4.073   1.094  0.3738  0.2538 -0.4471
  302TMC3     O 4550   3.450   4.161   1.081 -0.2178  0.7348  0.4017
  302TMC3     H 4551   3.614   3.884   1.244  0.0867  0.3214 -0.4124
  302TMC3    H1 4552   3.319   4.000   0.972  2.3930 -1.2298 -1.1663
  302TMC3    H2 4553   3.242   3.675   1.243  1.2201 -0.5752  0.1508
  302TMC3    C7 4554   3.143   3.810   1.048  0.2476 -0.7746 -0.2567
  302TMC3    C8 4555   3.490   3.674   1.359  0.0415 -0.2334 -0.6697
  302TMC3    O1 4556   3.099   3.694   1.057 -1.1189  0.2406  0.0018
  302TMC3    O2 4557   3.575   3.735   1.426  0.3722  0.2303 -0.5461
  303MPD2     C 4558   4.206   3.229  10.152  0.2449 -0.1658  0.1793
  303MPD2    C1 4559   4.130   3.119  10.165 -0.3780 -0.1743 -0.2544
  303MPD2    C2 4560   4.051   3.070  10.062 -0.6417  0.2641 -0.3808
  303MPD2    C3 4561   4.051   3.142   9.940 -0.0132  0.0087 -0.4117
  303MPD2    C4 4562   4.112   3.266   9.930  0.1459  0.4452 -0.0271
  303MPD2    C5 4563   4.198   3.294  10.030  0.0478  0.7050  0.7289
  303MPD2     H 4564   3.986   2.985  10.074  1.2790 -0.9640  1.2543
  303MPD2    H1 4565   4.098   3.321   9.838 -1.5035 -1.1383 -0.7346
  303MPD2    H2 4566   4.270   3.270  10.229 -0.8377 -0.1192  1.0525
  303MPD2    H3 4567   4.254   3.387  10.032 -0.4128  0.9609  1.4141
  303MPD2     N 4568   3.992   3.100   9.820  0.1848 -0.4832  0.1008
  303MPD2    H5 4569   4.022   3.154   9.740  0.7631 -1.6929 -0.4904
  303MPD2    N1 4570   4.134   3.055  10.296  0.1471  0.0375 -0.5273
  303MPD2    H7 4571   4.177   3.110  10.369  0.0760 -0.3620 -0.1838
  304TMC3    C1 4572   4.128   2.865  10.436 -0.1349 -0.0099 -0.2752
  304TMC3    C2 4573   4.061   2.752  10.459 -0.2728  0.8024 -0.3020
  304TMC3    C3 4574   4.130   2.658  10.528 -0.2524  0.2112 -0.0119
  304TMC3    C4 4575   4.262   2.886  10.465  0.2465 -0.0168 -0.2212
  304TMC3    C5 4576   4.333   2.784  10.522 -0.1057 -0.7975  0.4222
  304TMC3    C6 4577   4.260   2.678  10.558 -0.3592 -0.1583  0.1669
  304TMC3     C 4578   4.071   2.942  10.328  0.4992 -0.3416 -0.1080
  304TMC3     O 4579   3.974   2.891  10.280  0.4360  0.0675 -0.0870
  304TMC3     H 4580   3.954   2.748  10.441 -0.0962 -1.0911 -0.9387
  304TMC3    H1 4581   4.318   2.970  10.427  0.9361 -0.1849  0.4274
  304TMC3    H2 4582   4.317   2.613  10.624  0.7186 -0.5348 -1.1472
  304TMC3    C7 4583   4.445   2.744  10.443  0.6413 -0.1443  0.4539
  304TMC3    C8 4584   4.104   2.518  10.492  0.2843  0.7374 -0.1080
  304TMC3    O1 4585   4.490   2.833  10.367 -0.1813  0.3911 -0.0506
  304TMC3    O2 4586   4.202   2.445  10.483 -0.3143 -0.1315 -0.3055
  305MPD2     C 4587   1.916   4.512  14.168 -0.9834  0.4404 -0.4682
  305MPD2    C1 4588   1.782   4.546  14.138  0.5418  0.7244 -0.1320
  305MPD2    C2 4589   1.745   4.541  14.007  0.2985 -0.2548  0.6015
  305MPD2    C3 4590   1.841   4.499  13.916  0.4642  0.3233  0.1412
  305MPD2    C4 4591   1.970   4.476  13.943  0.8901 -0.6789  0.0859
  305MPD2    C5 4592   2.006   4.487  14.076  0.2739 -0.2969  0.2266
  305MPD2     H 4593   1.645   4.572  13.978  0.2895  0.2664  1.1838
  305MPD2    H1 4594   2.038   4.441  13.866  0.6291 -0.6133 -0.1739
  305MPD2    H2 4595   1.953   4.509  14.270  0.9058  0.2875 -1.1709
  305MPD2    H3 4596   2.110   4.468  14.102  0.0401  0.6434  1.8935
  305MPD2     N 4597   1.813   4.484  13.780 -0.0766  0.4703 -0.6779
  305MPD2    H5 4598   1.897   4.462  13.728 -0.6374 -0.1742 -1.3081
  305MPD2    N1 4599   1.701   4.585  14.249  0.0083 -0.4322  0.3717
  305MPD2    H7 4600   1.752   4.576  14.336 -0.7372  0.8190  0.9417
  306TMC3    C1 4601   1.510   4.652  14.373 -0.1438  0.5254  0.3212
  306TMC3    C2 4602   1.533   4.562  14.473  0.4902  0.0338 -0.0121
  306TMC3    C3 4603   1.459   4.571  14.589  0.3830 -0.6777  0.5946
  306TMC3    C4 4604   1.426   0.032  14.385 -0.1355  0.3882 -0.0857
  306TMC3    C5 4605   1.354   0.048  14.504 -0.5633 -0.1979 -0.1223
  306TMC3    C6 4606   1.374   4.682  14.607 -0.0596 -0.3088 -0.6067
  306TMC3     C 4607   1.567   4.627  14.240 -0.5972 -0.1009  0.2709
  306TMC3     O 4608   1.492   4.645  14.146 -0.3144  0.1429 -0.5336
  306TMC3     H 4609   1.601   4.478  14.457 -0.0617 -0.2631 -0.7887
  306TMC3    H1 4610   1.412   0.109  14.309  1.1355 -0.9866 -1.7055
  306TMC3    H2 4611   1.311   4.702  14.693 -1.3384 -1.6038 -1.2313
  306TMC3    C7 4612   1.335   0.184  14.546  0.3323 -0.4507 -0.3780
  306TMC3    C8 4613   1.540   4.543  14.705  0.2802 -0.0163 -0.6361
  306TMC3    O1 4614   1.251   0.248  14.485 -0.3010  0.1029  0.0599
  306TMC3    O2 4615   1.642   4.474  14.688  0.1215 -0.5077  0.2620
  307MPD2     C 4616   4.605   2.895   0.511 -0.2691  0.0681  0.2318
  307MPD2    C1 4617   4.536   2.978   0.592  0.5596  0.5193  0.4532
  307MPD2    C2 4618   4.462   2.924   0.700  0.0246 -0.4312  0.0493
  307MPD2    C3 4619   4.469   2.794   0.729 -0.2163 -0.0032 -0.3148
  307MPD2    C4 4620   4.543   2.708   0.644  0.7448 -0.2295  0.4848
  307MPD2    C5 4621   4.607   2.759   0.539 -0.1911 -0.3572 -0.0118
  307MPD2     H 4622   4.424   2.985   0.781 -0.9468 -1.9796  0.7646
  307MPD2    H1 4623   4.556   2.602   0.663 -0.4181  0.0846  3.0479
  307MPD2    H2 4624   4.663   2.924   0.424 -1.3335  1.0975 -0.1410
  307MPD2    H3 4625   4.658   2.693   0.470 -0.3512 -0.6169  0.1148
  307MPD2     N 4626   4.405   2.750   0.851 -0.0286 -0.0209 -0.5536
  307MPD2    H5 4627   4.361   2.827   0.900  0.4813  0.5251 -0.9543
  307MPD2    N1 4628   4.528   3.112   0.563  0.7072 -0.0286  0.1150
  307MPD2    H7 4629   4.479   3.172   0.628  0.7583 -0.9867  1.0488
  308TMC3    C1 4630   4.099   2.616   1.077  0.2527  0.0374 -0.3888
  308TMC3    C2 4631   4.115   2.730   1.153  0.5705  0.3773  0.4693
  308TMC3    C3 4632   4.243   2.781   1.169 -0.7959 -0.4871 -0.8278
  308TMC3    C4 4633   4.206   2.552   1.017  0.6303 -0.5725  1.0093
  308TMC3    C5 4634   4.329   2.609   1.031 -0.4545  0.2770  0.4391
  308TMC3    C6 4635   4.353   2.725   1.109  0.3197 -0.7137 -0.3073
  308TMC3     C 4636   3.971   2.552   1.075  0.0608 -0.0567  0.2951
  308TMC3     O 4637   3.974   2.429   1.069  0.3705 -0.4912 -0.3249
  308TMC3     H 4638   4.034   2.752   1.222 -0.2747  0.3744 -0.5220
  308TMC3    H1 4639   4.187   2.467   0.952  2.0920 -0.0300 -0.1201
  308TMC3    H2 4640   4.451   2.770   1.121  0.4439 -0.6330 -1.5631
  308TMC3    C7 4641   4.393   2.617   0.900 -0.2733 -0.0553 -0.3528
  308TMC3    C8 4642   4.262   2.909   1.233  0.3407 -0.5577 -0.2513
  308TMC3    O1 4643   4.425   2.513   0.840  0.1566 -0.3609 -0.3945
  308TMC3    O2 4644   4.379   2.934   1.258 -0.0281 -0.2329  0.2803
  309MPD2     C 4645   3.697   3.421  17.384 -0.2119 -0.0485 -0.3259
  309MPD2    C1 4646   3.616   3.476  17.283 -0.2314  0.5490 -0.0291
  309MPD2    C2 4647   3.485   3.502  17.311 -0.5385 -0.2209 -0.0459
  309MPD2    C3 4648   3.435   3.482  17.441  0.0302 -0.9716 -0.8932
  309MPD2    C4 4649   3.517   3.436  17.540  0.5440 -0.4109  0.2208
  309MPD2    C5 4650   3.647   3.406  17.509 -0.4154  0.9246 -0.2880
  309MPD2     H 4651   3.427   3.544  17.229 -0.5933 -1.3765 -0.6028
  309MPD2    H1 4652   3.477   3.408  17.637  0.4831 -0.3811  0.2044
  309MPD2    H2 4653   3.800   3.392  17.367 -0.5192 -1.8345  0.7851
  309MPD2    H3 4654   3.701   3.363  17.592 -0.0569 -0.0462 -1.0277
  309MPD2     N 4655   3.295   3.487  17.468  0.0837  0.2899 -0.1502
  309MPD2    H5 4656   3.260   3.453  17.557 -2.0143 -0.0699 -1.1204
  309MPD2    N1 4657   3.662   3.491  17.152  0.3095 -0.1467 -1.1315
  309MPD2    H7 4658   3.608   3.552  17.092 -1.5202  0.4246  1.0814
  310TMC3    C1 4659   3.800   3.494  16.967 -0.3441 -0.0433 -0.1517
  310TMC3    C2 4660   3.714   3.575  16.900 -0.0141  0.3829 -0.1529
  310TMC3    C3 4661   3.730   3.595  16.769 -0.0957 -0.3018  0.3419
  310TMC3    C4 4662   3.899   3.434  16.901  0.3862  0.5456  0.5615
  310TMC3    C5 4663   3.927   3.466  16.775  0.2120 -0.5180 -0.5642
  310TMC3    C6 4664   3.843   3.546  16.700 -0.1135 -0.0670 -0.4556
  310TMC3     C 4665   3.782   3.446  17.106 -0.7635  0.8534 -0.3499
  310TMC3     O 4666   3.871   3.376  17.156  0.0108 -0.3692 -0.4428
  310TMC3     H 4667   3.623   3.615  16.942 -1.5080 -1.7845 -1.3282
  310TMC3    H1 4668   3.975   3.373  16.949 -0.8219 -2.8245 -1.8313
  310TMC3    H2 4669   3.845   3.559  16.593 -3.1926 -1.5234 -0.6796
  310TMC3    C7 4670   4.055   3.449  16.712 -0.4013  0.0900  0.1451
  310TMC3    C8 4671   3.618   3.648  16.690 -0.7743  0.4152  1.0050
  310TMC3    O1 4672   4.119   3.358  16.762  0.6420 -0.5216  0.0454
  310TMC3    O2 4673   3.512   3.644  16.747 -0.4857 -0.4070  0.2130
  311MPD2     C 4674   1.161   4.427  12.688 -0.1043 -0.4789  0.5710
  311MPD2    C1 4675   1.156   4.423  12.828  0.3481 -0.5918  0.0922
  311MPD2    C2 4676   1.034   4.404  12.886  0.3293  0.3560 -0.4195
  311MPD2    C3 4677   0.917   4.386  12.816 -0.0085 -0.3913 -0.6183
  311MPD2    C4 4678   0.919   4.391  12.677 -0.3379  0.0017 -0.4960
  311MPD2    C5 4679   1.044   4.407  12.619 -0.1860  0.0849  0.2390
  311MPD2     H 4680   1.031   4.395  12.994 -2.8015  0.0251 -0.5473
  311MPD2    H1 4681   0.826   4.395  12.623 -1.5371 -1.5816  1.4317
  311MPD2    H2 4682   1.245   4.471  12.634 -0.8840  0.2646 -0.0413
  311MPD2    H3 4683   1.045   4.435  12.514 -0.3693  0.0090  0.2160
  311MPD2     N 4684   0.800   4.357  12.895 -0.1812  0.3723 -0.1325
  311MPD2    H5 4685   0.808   4.368  12.995  0.6456 -0.1329 -0.1416
  311MPD2    N1 4686   1.278   4.425  12.912  0.6556  0.2969  0.0088
  311MPD2    H7 4687   1.269   4.437  13.012 -1.3149 -0.2578 -0.1101
  312TMC3    C1 4688   0.586   4.287  12.946 -0.2509  0.0385 -0.9604
  312TMC3    C2 4689   0.452   4.302  12.925  0.1995  1.1121  0.1732
  312TMC3    C3 4690   0.369   4.269  13.029 -0.0710  0.7411  0.6767
  312TMC3    C4 4691   0.642   4.230  13.058 -0.3620 -0.0104 -0.3433
  312TMC3    C5 4692   0.556   4.192  13.157 -0.5266 -0.9039 -0.2724
  312TMC3    C6 4693   0.420   4.217  13.145  0.6629 -0.2751 -0.4005
  312TMC3     C 4694   0.676   4.341  12.849 -0.5551 -0.4434  0.6445
  312TMC3     O 4695   0.617   4.373  12.746 -0.1979  0.4397 -0.4057
  312TMC3     H 4696   0.417   4.347  12.833  0.9226  1.7888  0.2269
  312TMC3    H1 4697   0.745   4.195  13.065 -0.1998  0.0870 -2.2858
  312TMC3    H2 4698   0.362   4.172  13.225  1.2630  1.8644  1.2427
  312TMC3    C7 4699   0.600   4.100  13.262  0.0108  0.1931  0.1104
  312TMC3    C8 4700   0.225   4.284  13.012  0.1902  0.2668  0.4923
  312TMC3    O1 4701   0.687   4.015  13.244  0.1096  0.0714  1.1075
  312TMC3    O2 4702   0.191   4.300  12.897  0.2484  0.5104 -0.1900
  313MPD2     C 4703   0.741   3.732  10.828  0.3947  0.1895 -0.1143
  313MPD2    C1 4704   0.614   3.762  10.877 -0.0188 -1.1930  0.0109
  313MPD2    C2 4705   0.509   3.691  10.819  0.2467 -0.0197 -0.6768
  313MPD2    C3 4706   0.529   3.600  10.717 -0.5303 -0.3833  0.1504
  313MPD2    C4 4707   0.658   3.580  10.666  0.0109  0.1393  0.2357
  313MPD2    C5 4708   0.760   3.634  10.730 -0.5471 -0.2154 -0.0448
  313MPD2     H 4709   0.412   3.716  10.860  0.8258  0.1805  0.5892
  313MPD2    H1 4710   0.681   3.510  10.587 -0.5387 -0.4698  0.6203
  313MPD2    H2 4711   0.829   3.786  10.860  0.7623  0.2932 -1.2691
  313MPD2    H3 4712   0.856   3.610  10.684  0.1239 -0.5201  1.5342
  313MPD2     N 4713   0.415   3.536  10.669 -0.3735  0.0649  0.1222
  313MPD2    H5 4714   0.332   3.531  10.727 -1.6132  0.0680 -1.6358
  313MPD2    N1 4715   0.586   3.860  10.967  0.0607 -0.7325 -0.2969
  313MPD2    H7 4716   0.488   3.876  10.990  0.2287  0.7244 -0.6148
  314TMC3    C1 4717   0.600   4.087  11.036 -0.7467 -0.0317 -0.1596
  314TMC3    C2 4718   0.700   4.177  11.055  1.0768 -0.6149  0.0474
  314TMC3    C3 4719   0.693   4.299  11.003  0.2475  0.2803  0.5096
  314TMC3    C4 4720   0.495   4.125  10.958  0.5860  0.5337 -0.1027
  314TMC3    C5 4721   0.490   4.245  10.901 -0.4283 -0.0041  0.1172
  314TMC3    C6 4722   0.590   4.336  10.919 -0.5156  0.2818 -0.1967
  314TMC3     C 4723   0.667   3.959  11.018 -0.0865 -0.4764  0.7307
  314TMC3     O 4724   0.790   3.960  11.027  0.2078 -0.0929  0.1889
  314TMC3     H 4725   0.779   4.154  11.126 -0.2398 -1.6775  1.1719
  314TMC3    H1 4726   0.411   4.056  10.960  0.6517  0.3912 -2.1952
  314TMC3    H2 4727   0.595   4.432  10.868  1.0468  0.3509  0.0856
  314TMC3    C7 4728   0.418   4.244  10.772 -0.1888  0.0869 -0.2407
  314TMC3    C8 4729   0.804   4.390  11.002  0.1272 -0.2176  0.7513
  314TMC3    O1 4730   0.333   4.154  10.753  0.2071  0.3180  0.5804
  314TMC3    O2 4731   0.784   4.498  10.950 -0.0324 -0.0434 -0.6507
  315MPD2     C 4732   4.651   3.337   0.893 -0.3914 -0.0496  0.7358
  315MPD2    C1 4733   0.032   3.289   0.820  0.1559 -0.4145  0.1661
  315MPD2    C2 4734   0.107   3.378   0.749 -0.0029  0.1739 -0.2117
  315MPD2    C3 4735   0.073   3.508   0.733 -0.1861  0.1860  0.1331
  315MPD2    C4 4736   4.684   3.553   0.800  0.5338  0.3067  0.2047
  315MPD2    C5 4737   4.618   3.463   0.877 -0.8223  0.5422 -0.7376
  315MPD2     H 4738   0.192   3.344   0.691 -0.1996 -0.8420  0.0816
  315MPD2    H1 4739   4.645   3.654   0.790  0.2003  0.2093  0.5275
  315MPD2    H2 4740   4.592   3.276   0.961 -0.7167 -0.1343  0.3779
  315MPD2    H3 4741   4.534   3.494   0.939 -1.5989 -3.7741  0.3663
  315MPD2     N 4742   0.165   3.577   0.650 -0.1424  0.4276  0.0999
  315MPD2    H5 4743   0.252   3.533   0.622 -1.8465 -2.7893 -0.1420
  315MPD2    N1 4744   0.078   3.156   0.819 -0.3547  0.7981 -0.5610
  315MPD2    H7 4745   0.142   3.143   0.741 -0.0183  0.3643 -0.2061
  316TMC3    C1 4746   0.269   3.781   0.596 -0.5353 -0.1371 -0.6534
  316TMC3    C2 4747   0.375   3.744   0.676 -0.1741  0.2762  0.0281
  316TMC3    C3 4748   0.469   3.842   0.692 -0.1498  0.0740 -0.3216
  316TMC3    C4 4749   0.259   3.899   0.538 -0.2603 -0.3140  0.2670
  316TMC3    C5 4750   0.353   3.991   0.551  0.1273  0.1933  0.5855
  316TMC3    C6 4751   0.460   3.962   0.630  0.4204  0.3082  0.7803
  316TMC3     C 4752   0.144   3.710   0.622 -0.8058 -0.1876 -0.7820
  316TMC3     O 4753   0.044   3.773   0.594 -0.4095 -0.0445 -0.5216
  316TMC3     H 4754   0.353   3.665   0.747  0.1902 -1.4556 -1.7707
  316TMC3    H1 4755   0.172   3.920   0.478  0.1331 -0.2865 -0.2955
  316TMC3    H2 4756   0.535   4.035   0.655  0.7512 -0.0265  0.7571
  316TMC3    C7 4757   0.386   4.079   0.442 -0.2407  0.0054  0.1160
  316TMC3    C8 4758   0.587   3.807   0.768  0.0846 -0.6522  0.1807
  316TMC3    O1 4759   0.491   4.145   0.454 -0.1927 -0.5845 -0.2218
  316TMC3    O2 4760   0.652   3.899   0.819 -0.6394 -0.3139 -0.1386
  317MPD2     C 4761   2.193   1.505  12.375  0.7911 -0.9432  0.4696
  317MPD2    C1 4762   2.318   1.444  12.363  0.0054 -0.1898  0.2871
  317MPD2    C2 4763   2.385   1.416  12.482  0.3229  0.4365 -0.3251
  317MPD2    C3 4764   2.318   1.420  12.607  0.1164 -0.9402  0.6451
  317MPD2    C4 4765   2.187   1.468  12.616 -0.4228 -0.6038  1.2563
  317MPD2    C5 4766   2.134   1.523  12.500 -0.7031  0.0020 -0.0199
  317MPD2     H 4767   2.487   1.379  12.482  0.2346  0.1972 -0.0845
  317MPD2    H1 4768   2.138   1.487  12.710 -0.4797  1.3244  0.8464
  317MPD2    H2 4769   2.140   1.534  12.285  0.4363 -0.5415  0.8035
  317MPD2    H3 4770   2.032   1.561  12.507  0.0884  1.7460  2.2784
  317MPD2     N 4771   2.388   1.391  12.727  0.4056 -0.0679 -0.2617
  317MPD2    H5 4772   2.483   1.357  12.713  0.4080 -0.0831 -0.2084
  317MPD2    N1 4773   2.379   1.420  12.235  0.5445  0.4691  0.3189
  317MPD2    H7 4774   2.463   1.364  12.234  0.6618  0.5980  2.6792
  318TMC3    C1 4775   2.446   1.352  12.947 -0.1671  0.0113  0.0025
  318TMC3    C2 4776   2.406   1.325  13.078 -0.5431  0.0657 -0.8874
  318TMC3    C3 4777   2.497   1.257  13.155  0.5009  0.2220  0.2771
  318TMC3    C4 4778   2.567   1.318  12.894 -0.1539 -0.0531 -0.7067
  318TMC3    C5 4779   2.651   1.247  12.982 -0.7283 -0.9666  0.7818
  318TMC3    C6 4780   2.622   1.225  13.114 -0.1785 -0.8270 -0.7469
  318TMC3     C 4781   2.350   1.401  12.858 -0.4004  0.3398  0.6702
  318TMC3     O 4782   2.242   1.438  12.901  0.1715  0.1285 -0.4634
  318TMC3     H 4783   2.309   1.360  13.111  0.3403 -0.9065  2.6779
  318TMC3    H1 4784   2.620   1.358  12.809  0.8766 -1.8696 -0.9320
  318TMC3    H2 4785   2.686   1.158  13.169  1.5835  1.8973  0.5011
  318TMC3    C7 4786   2.783   1.230  12.936 -0.1424 -0.0200 -0.4215
  318TMC3    C8 4787   2.447   1.166  13.258 -0.2095 -0.2608 -0.1400
  318TMC3    O1 4788   2.793   1.207  12.818  0.2088 -0.0077  0.0177
  318TMC3    O2 4789   2.534   1.125  13.333  0.1263  0.1504 -0.0844
  319MPD2     C 4790   2.782   2.745  16.265  0.1266 -0.2821  0.7276
  319MPD2    C1 4791   2.722   2.753  16.391  0.2528 -0.0285  0.4591
  319MPD2    C2 4792   2.632   2.662  16.440  0.1698 -0.0401  0.6638
  319MPD2    C3 4793   2.589   2.562  16.362  0.3031 -0.4928  0.6024
  319MPD2    C4 4794   2.647   2.551  16.235  0.3685 -0.0494 -0.1232
  319MPD2    C5 4795   2.743   2.642  16.192 -0.0078  0.9724 -0.8333
  319MPD2     H 4796   2.586   2.665  16.538 -1.5875  1.2292 -0.1968
  319MPD2    H1 4797   2.627   2.464  16.173 -3.7394  0.5708  0.3215
  319MPD2    H2 4798   2.856   2.815  16.227  0.9761  0.3524  3.6036
  319MPD2    H3 4799   2.790   2.633  16.095  0.6783  1.2745 -0.5253
  319MPD2     N 4800   2.492   2.469  16.389  0.7075  0.6077 -0.4399
  319MPD2    H5 4801   2.465   2.410  16.311 -0.4382 -2.0595  1.9812
  319MPD2    N1 4802   2.750   2.854  16.487 -0.7256 -0.2792 -0.7276
  319MPD2    H7 4803   2.735   2.828  16.584 -0.5674  1.6224 -0.1941
  320TMC3    C1 4804   2.287   2.387  16.462  0.1286 -0.5916 -0.0167
  320TMC3    C2 4805   2.181   2.444  16.402 -0.1849  0.4691  0.4648
  320TMC3    C3 4806   2.117   2.381  16.296  0.7643 -0.0784  0.7672
  320TMC3    C4 4807   2.333   2.267  16.417 -0.3331  0.3520 -0.1741
  320TMC3    C5 4808   2.263   2.205  16.313  0.4254 -0.6487 -1.3391
  320TMC3    C6 4809   2.148   2.256  16.253  0.3453  0.0165  0.0380
  320TMC3     C 4810   2.395   2.475  16.494  0.4157  1.0554  0.4869
  320TMC3     O 4811   2.377   2.561  16.576 -0.4527  0.6608 -0.4251
  320TMC3     H 4812   2.177   2.551  16.414 -1.1720  0.2336  2.3448
  320TMC3    H1 4813   2.430   2.235  16.451 -0.9786  0.9855  2.3127
  320TMC3    H2 4814   2.086   2.205  16.180  0.1659 -0.4293  0.5073
  320TMC3    C7 4815   2.287   2.065  16.277 -0.1194  0.4217 -0.1849
  320TMC3    C8 4816   2.031   2.468  16.211 -0.2067  1.0241 -0.2196
  320TMC3    O1 4817   2.240   2.021  16.171 -0.6118  0.2558  0.7176
  320TMC3    O2 4818   2.029   2.579  16.254  0.5590 -0.0829  0.2571
  321TMC3    C1 4819   2.811   3.066  16.554  0.1665  0.8459 -0.0200
  321TMC3    C2 4820   2.715   3.056  16.645 -0.1139 -0.7318 -0.6474
  321TMC3    C3 4821   2.715   3.138  16.754  0.6500 -0.4047 -0.2455
  321TMC3    C4 4822   2.909   3.158  16.569  0.2153 -0.2901 -0.2128
  321TMC3    C5 4823   2.912   3.243  16.680  0.2291 -0.2420  0.0363
  321TMC3    C6 4824   2.810   3.234  16.771 -0.0806 -0.2494 -0.5671
  321TMC3     C 4825   2.811   2.971  16.452 -0.3587  0.4976 -0.7099
  321TMC3     O 4826   2.836   3.015  16.342  0.0037  0.3017 -0.3050
  321TMC3     H 4827   2.626   2.997  16.628 -1.2261  0.9471 -0.6454
  321TMC3    H1 4828   2.988   3.167  16.494 -0.3660  1.3747 -0.6129
  321TMC3    H2 4829   2.802   3.313  16.845  0.1586  0.3086 -1.1368
  321TMC3    C7 4830   3.035   3.274  16.740  0.4056 -0.2873  1.3797
  321TMC3    C8 4831   2.702   3.072  16.884 -0.0176  0.0071 -0.5069
  321TMC3    O1 4832   3.027   3.269  16.860  0.6435  0.1583 -0.0105
  321TMC3    O2 4833   2.618   2.985  16.893 -0.4729  0.2743 -0.3321
  322MPD2     C 4834   1.523   3.977  14.045 -0.4576  0.2591 -0.3836
  322MPD2    C1 4835   1.554   3.901  14.155  0.2246  0.6727 -0.2420
  322MPD2    C2 4836   1.561   3.765  14.147 -0.1377 -0.5782 -0.0514
  322MPD2    C3 4837   1.536   3.699  14.030 -0.5365  0.1006 -0.1173
  322MPD2    C4 4838   1.484   3.772  13.925 -0.3806  0.2185  0.1501
  322MPD2    C5 4839   1.478   3.907  13.934  0.1761 -0.7820  0.6318
  322MPD2     H 4840   1.601   3.716  14.234  0.0537 -0.2757  0.0329
  322MPD2    H1 4841   1.463   3.732  13.827 -2.6878  1.8824 -0.0172
  322MPD2    H2 4842   1.524   4.086  14.045  0.1428  0.2489  0.9936
  322MPD2    H3 4843   1.445   3.961  13.846  0.8578  1.1817  1.5647
  322MPD2     N 4844   1.577   3.570  14.020  0.3935  0.1736  0.2253
  322MPD2    H5 4845   1.633   3.534  14.097 -1.2447  0.3047  1.4735
  322MPD2    N1 4846   1.597   3.968  14.268 -0.7936  0.5563  0.1786
  322MPD2    H7 4847   1.602   4.069  14.272  0.4406  0.4467  1.4886
  323TMC3    C1 4848   1.660   4.010  14.498  0.4545 -0.9824 -0.2879
  323TMC3    C2 4849   1.752   4.102  14.455 -0.5048  0.1491 -0.0963
  323TMC3    C3 4850   1.828   4.164  14.550 -0.3424  0.0674  0.6923
  323TMC3    C4 4851   1.648   3.977  14.630 -0.3995  0.1717  0.0608
  323TMC3    C5 4852   1.735   4.029  14.716  0.5052 -0.1669 -0.4993
  323TMC3    C6 4853   1.832   4.123  14.682  0.6934 -0.3801  0.4354
  323TMC3     C 4854   1.616   3.911  14.392  0.2820 -0.3562 -0.1406
  323TMC3     O 4855   1.590   3.803  14.444  0.4118  0.0917  0.2407
  323TMC3     H 4856   1.750   4.141  14.354 -1.7245  1.3794  0.3861
  323TMC3    H1 4857   1.572   3.910  14.669 -1.2225 -0.3112 -2.3329
  323TMC3    H2 4858   1.924   4.148  14.735 -0.0144 -0.5169  1.7316
  323TMC3    C7 4859   1.774   3.937  14.823  0.3494  0.4016  0.4069
  323TMC3    C8 4860   1.937   4.251  14.501  0.0761 -0.8921  0.2823
  323TMC3    O1 4861   1.731   3.824  14.811  0.2874  0.2234 -0.1651
  323TMC3    O2 4862   1.986   4.326  14.582 -0.5766  0.7408  0.3975
  324MPD2     C 4863   3.521   1.274  14.649  0.4130 -0.3189 -0.1971
  324MPD2    C1 4864   3.568   1.147  14.675 -0.0522 -0.1917 -0.0830
  324MPD2    C2 4865   3.477   1.045  14.714 -0.2778  0.3020 -0.7115
  324MPD2    C3 4866   3.341   1.068  14.730  0.6611  0.0024 -0.4358
  324MPD2    C4 4867   3.293   1.190  14.699 -0.5086  0.3425 -0.4833
  324MPD2    C5 4868   3.384   1.289  14.655  0.1584 -0.2380  0.0215
  324MPD2     H 4869   3.521   0.947  14.727 -0.2181  0.3628 -0.4449
  324MPD2    H1 4870   3.188   1.214  14.705 -0.7587 -0.8716 -0.0746
  324MPD2    H2 4871   3.584   1.360  14.627 -0.3137  0.4220  0.5947
  324MPD2    H3 4872   3.343   1.380  14.612 -0.9574 -0.5249  0.4755
  324MPD2     N 4873   3.247   0.971  14.774  0.5676 -0.1503  0.2194
  324MPD2    H5 4874   3.149   0.997  14.768  0.8392  0.9270  0.5019
  324MPD2    N1 4875   3.705   1.104  14.665 -0.2329  0.3350 -0.0661
  324MPD2    H7 4876   3.718   1.004  14.674 -0.8865  0.1349 -1.3889
  325TMC3    C1 4877   3.149   0.772  14.840  0.5519  0.0557 -0.1890
  325TMC3    C2 4878   3.138   0.647  14.786  0.0633  0.3637 -0.3006
  325TMC3    C3 4879   3.018   0.590  14.774 -0.1940 -0.3721  0.1108
  325TMC3    C4 4880   3.036   0.844  14.885 -0.5676 -0.2789 -0.1169
  325TMC3    C5 4881   2.919   0.780  14.877  0.6961 -0.1685  0.0288
  325TMC3    C6 4882   2.907   0.655  14.816  0.1417 -0.1914 -0.3487
  325TMC3     C 4883   3.269   0.844  14.807 -0.1849  0.4768 -0.1561
  325TMC3     O 4884   3.377   0.786  14.819 -0.1902  0.1612  0.4621
  325TMC3     H 4885   3.227   0.606  14.739  1.4848  2.0084  0.9728
  325TMC3    H1 4886   3.043   0.945  14.923  1.0594  0.9025 -3.5723
  325TMC3    H2 4887   2.811   0.606  14.824 -0.7897  1.5455 -0.9706
  325TMC3    C7 4888   2.800   0.867  14.898 -0.1815  0.1115  0.1699
  325TMC3    C8 4889   3.015   0.477  14.688  0.1105 -0.2940 -0.0435
  325TMC3    O1 4890   2.819   0.964  14.968  0.1865 -0.4591 -0.4130
  325TMC3    O2 4891   3.118   0.452  14.626 -0.0335  0.5165 -0.4859
  326MPD2     C 4892   0.130   1.587  11.309  1.7609  0.3948 -0.3617
  326MPD2    C1 4893   0.112   1.575  11.177  0.3017  0.2703  0.4859
  326MPD2    C2 4894   0.180   1.655  11.088  0.0743 -0.6748 -0.5805
  326MPD2    C3 4895   0.271   1.749  11.139  0.8502  0.0105  0.0965
  326MPD2    C4 4896   0.272   1.774  11.278 -0.6892 -0.4356  0.7847
  326MPD2    C5 4897   0.205   1.692  11.359 -0.1690  0.8834  0.3707
  326MPD2     H 4898   0.166   1.637  10.982  0.7614 -0.1597 -0.7617
  326MPD2    H1 4899   0.327   1.857  11.319 -0.6317 -0.0522 -0.0724
  326MPD2    H2 4900   0.096   1.513  11.380 -1.9909  2.1322 -0.3327
  326MPD2    H3 4901   0.209   1.705  11.467 -0.1753  1.4600  0.3025
  326MPD2     N 4902   0.352   1.840  11.063 -0.1589 -0.1080  0.0472
  326MPD2    H5 4903   0.394   1.916  11.115  2.1263 -1.6294  0.4496
  326MPD2    N1 4904   0.009   1.484  11.129  0.3867 -0.0841 -0.4975
  326MPD2    H7 4905   4.712   1.488  11.030 -0.3589 -1.2117 -0.3945
  327TMC3    C1 4906   4.560   1.325  11.112  0.3560  0.1569 -0.7185
  327TMC3    C2 4907   4.475   1.391  11.028  0.8354 -0.6168  0.2850
  327TMC3    C3 4908   4.440   1.337  10.904 -0.8899  0.8015  0.8022
  327TMC3    C4 4909   4.622   1.213  11.064  0.2708  0.0842  0.1398
  327TMC3    C5 4910   4.598   1.173  10.933 -0.1264  0.4391  0.6451
  327TMC3    C6 4911   4.504   1.230  10.850  0.1030 -0.3181  0.4910
  327TMC3     C 4912   4.647   1.404  11.203  0.5338  0.5502  0.5080
  327TMC3     O 4913   4.654   1.359  11.314 -0.6881  0.3048  0.6659
  327TMC3     H 4914   4.432   1.481  11.071 -1.1084 -0.8337 -1.2061
  327TMC3    H1 4915   4.676   1.158  11.140  1.6787 -0.4581 -1.2437
  327TMC3    H2 4916   4.493   1.206  10.745 -0.9035 -1.7156  0.9244
  327TMC3    C7 4917   4.718   1.162  10.854 -0.5215 -0.9472  0.6744
  327TMC3    C8 4918   4.387   1.428  10.811  1.3806 -0.0005  0.0169
  327TMC3    O1 4919   4.708   1.180  10.734  0.2871  0.2121 -0.0291
  327TMC3    O2 4920   4.446   1.424  10.704  0.2868 -0.2080  0.2579
  328MPD2     C 4921   2.394   1.679  17.540 -0.0430 -0.5257  0.0657
  328MPD2    C1 4922   2.299   1.574  17.538  0.5659  0.4415 -0.4901
  328MPD2    C2 4923   2.222   1.554  17.428  0.2691  0.4187  0.3049
  328MPD2    C3 4924   2.241   1.638  17.318  0.2319 -0.2930 -0.8346
  328MPD2    C4 4925   2.338   1.741  17.319  0.0356  0.3529 -0.2973
  328MPD2    C5 4926   2.411   1.755  17.432 -0.0719 -0.2013 -1.0000
  328MPD2     H 4927   2.136   1.488  17.438  1.7672 -1.2139  2.4299
  328MPD2    H1 4928   2.324   1.816  17.242  0.1261  0.2563 -0.4082
  328MPD2    H2 4929   2.461   1.687  17.624  0.0470  1.2620 -0.1814
  328MPD2    H3 4930   2.485   1.835  17.435  2.0871 -2.2467  0.6770
  328MPD2     N 4931   2.155   1.637  17.212  0.7803 -0.3135  0.2083
  328MPD2    H5 4932   2.168   1.710  17.141 -2.4574 -1.0497 -1.1575
  328MPD2    N1 4933   2.287   1.493  17.654 -0.5329 -1.1890 -1.0197
  328MPD2    H7 4934   2.333   1.527   0.040 -0.9030 -1.6503 -0.6305
  329TMC3    C1 4935   2.229   1.306   0.077  0.1950  1.0849 -0.6296
  329TMC3    C2 4936   2.235   1.375   0.199 -0.5091  1.0264 -0.6408
  329TMC3    C3 4937   2.240   1.300   0.318 -0.2964 -0.3539  0.7199
  329TMC3    C4 4938   2.240   1.169   0.076  0.0015  0.4455 -0.4668
  329TMC3    C5 4939   2.257   1.099   0.196 -0.1400 -0.0506  0.4683
  329TMC3    C6 4940   2.245   1.164   0.313  0.3365 -0.4804 -0.8149
  329TMC3     C 4941   2.214   1.372  17.653  0.1454  0.1756  0.5495
  329TMC3     O 4942   2.170   1.311  17.553  0.0286 -0.0231  0.3109
  329TMC3     H 4943   2.235   1.484   0.201  1.9776  1.0291 -0.4948
  329TMC3    H1 4944   2.245   1.119  17.677  1.9936 -0.5622  0.1619
  329TMC3    H2 4945   2.263   1.107   0.403 -0.7303  3.3621  1.8439
  329TMC3    C7 4946   2.268   0.951   0.206 -0.6137 -0.2536  0.4322
  329TMC3    C8 4947   2.223   1.363   0.444  0.2256 -1.1692 -0.2076
  329TMC3    O1 4948   2.246   0.902   0.316 -0.6506 -0.3900  0.0994
  329TMC3    O2 4949   2.275   1.300   0.537 -0.3105  0.1451  0.2581
  330TMC3    C1 4950   0.334   0.566   9.125 -0.4159 -0.3470 -0.2478
  330TMC3    C2 4951   0.207   0.536   9.076  0.0840  0.0398  0.2654
  330TMC3    C3 4952   0.200   0.432   8.986  1.1844 -0.2990  0.4432
  330TMC3    C4 4953   0.442   0.483   9.108 -0.3719  0.6217  0.0844
  330TMC3    C5 4954   0.425   0.375   9.031 -0.3036  0.7148  0.4287
  330TMC3    C6 4955   0.308   0.346   8.966 -0.7513 -0.4413 -0.5978
  330TMC3     C 4956   0.361   0.668   9.221 -0.2291 -0.3662 -0.0359
  330TMC3     O 4957   0.471   0.652   9.274 -0.5742 -0.3861 -0.0299
  330TMC3     H 4958   0.119   0.579   9.120 -0.4541 -2.7895  1.9647
  330TMC3    H1 4959   0.545   0.512   9.128  1.0245 -2.6605 -2.4520
  330TMC3    H2 4960   0.300   0.263   8.897  0.5839 -1.1023  0.0468
  330TMC3    C7 4961   0.519   0.265   9.038 -0.2237  0.6348 -0.1564
  330TMC3    C8 4962   0.077   0.385   8.935 -0.1521  0.5333  0.2334
  330TMC3    O1 4963   0.536   0.180   8.948  0.1472 -0.2998  0.4541
  330TMC3    O2 4964   0.014   0.462   8.865  0.0546  0.0576 -0.6113
  331MPD2     C 4965   2.915   0.274  12.184 -0.2894  0.0918  0.4639
  331MPD2    C1 4966   2.979   0.221  12.070  0.0327  0.6416 -0.0024
  331MPD2    C2 4967   3.053   0.104  12.089  0.0133  0.3749 -0.1461
  331MPD2    C3 4968   3.055   0.044  12.218  0.1152  0.1771 -0.4252
  331MPD2    C4 4969   2.992   0.100  12.328  0.1227 -0.0755  0.4204
  331MPD2    C5 4970   2.924   0.216  12.313 -0.3686  0.0587  0.1211
  331MPD2     H 4971   3.117   0.066  12.010 -2.1445 -2.4654 -0.5236
  331MPD2    H1 4972   3.005   0.057  12.426 -3.3357  1.3299  1.4715
  331MPD2    H2 4973   2.857   0.364  12.167  0.7403  0.4036 -1.4476
  331MPD2    H3 4974   2.875   0.263  12.397 -0.6238  0.1586 -0.0829
  331MPD2     N 4975   3.129   4.643  12.228 -0.0605  0.2007 -0.0504
  331MPD2    H5 4976   3.183   4.621  12.145 -1.9851  1.8384 -1.7417
  331MPD2    N1 4977   2.975   0.288  11.946  0.3911 -0.2058  0.3553
  331MPD2    H7 4978   2.948   0.386  11.945  2.2739  0.3123  0.9286
  332TMC3    C1 4979   3.223   4.443  12.318 -0.5737  0.0603 -0.4855
  332TMC3    C2 4980   3.291   4.415  12.196  0.0462  0.0551 -0.5394
  332TMC3    C3 4981   3.412   4.351  12.200 -0.1302  0.1916  0.1375
  332TMC3    C4 4982   3.272   4.400  12.444  0.1866 -0.7019  0.4690
  332TMC3    C5 4983   3.399   4.347  12.443 -0.1766  0.4562  0.1758
  332TMC3    C6 4984   3.466   4.320  12.325 -0.2119  0.8763 -0.4463
  332TMC3     C 4985   3.125   4.555  12.332 -0.3975  0.0056 -0.3495
  332TMC3     O 4986   3.067   4.561  12.442  0.3924  0.1097  0.4246
  332TMC3     H 4987   3.233   4.424  12.104  1.2136  0.6281 -1.2176
  332TMC3    H1 4988   3.218   4.412  12.537  2.2455 -1.7935  1.8275
  332TMC3    H2 4989   3.558   4.262  12.329  0.4996  2.1004  0.8908
  332TMC3    C7 4990   3.455   4.302  12.574 -0.5189  0.2912  0.8324
  332TMC3    C8 4991   3.450   4.258  12.093  0.1966  1.2564  0.8410
  332TMC3    O1 4992   3.388   4.327  12.675  0.2511  0.1819  0.8668
  332TMC3    O2 4993   3.503   4.151  12.124 -0.0582 -0.5718  0.1136
  333MPD2     C 4994   3.457   0.078  11.197  0.0994  0.0776 -0.0623
  333MPD2    C1 4995   3.533   4.711  11.127  0.0066 -0.1011 -0.4906
  333MPD2    C2 4996   3.489   4.583  11.125 -0.1590 -0.2244 -0.3451
  333MPD2    C3 4997   3.380   4.537  11.194  0.0134 -0.4825 -0.0552
  333MPD2    C4 4998   3.305   4.630  11.258 -0.4110  0.0512 -0.6673
  333MPD2    C5 4999   3.338   0.036  11.257  0.4477 -0.0835 -0.0518
  333MPD2     H 5000   3.555   4.517  11.069  0.6923  0.9093 -0.6638
  333MPD2    H1 5001   3.221   4.611  11.324  0.4018  2.3454  1.0238
  333MPD2    H2 5002   3.468   0.186  11.203  2.5100 -0.1232 -0.9426
  333MPD2    H3 5003   3.279   0.108  11.311  0.7796  0.3522 -0.2681
  333MPD2     N 5004   3.359   4.398  11.220 -0.3535  0.6182  0.1309
  333MPD2    H5 5005   3.391   4.327  11.155  0.1711  2.2075 -1.3659
  333MPD2    N1 5006   3.640   0.045  11.053  0.4159 -0.3593 -0.2578
  333MPD2    H7 5007   3.669   0.137  11.085  1.2678 -0.4997 -0.6235
  334TMC3    C1 5008   3.835   0.037  10.909 -0.2573 -0.4229  0.3274
  334TMC3    C2 5009   3.929   4.690  10.841 -0.8959 -0.4102  0.1852
  334TMC3    C3 5010   4.040   0.028  10.797 -0.3764 -0.1027 -0.8262
  334TMC3    C4 5011   3.855   0.168  10.931 -0.3964  0.1342 -0.4572
  334TMC3    C5 5012   3.971   0.227  10.903 -0.2710 -0.0372 -0.2763
  334TMC3    C6 5013   4.060   0.156  10.820 -0.0660  0.1645 -0.3998
  334TMC3     C 5014   3.713   4.703  10.955  0.6520  0.4486 -0.1040
  334TMC3     O 5015   3.688   4.601  10.890 -0.2372 -0.0846  0.6632
  334TMC3     H 5016   3.910   4.584  10.824 -0.0396 -1.0616  3.3409
  334TMC3    H1 5017   3.777   0.224  10.981 -0.4103 -1.0464  0.8530
  334TMC3    H2 5018   4.143   0.209  10.775  0.7511  0.0655  0.9779
  334TMC3    C7 5019   3.936   0.359  10.845  0.3622  0.2382  0.1552
  334TMC3    C8 5020   4.131   4.680  10.705 -0.1109 -0.1691 -0.5467
  334TMC3    O1 5021   3.837   0.367  10.772  0.4518 -0.3193 -0.2879
  334TMC3    O2 5022   4.092   4.574  10.664 -0.1867 -0.0846 -0.4887
  335TMC3    C1 5023   3.094   2.090  17.514  0.2542  0.3248  0.4226
  335TMC3    C2 5024   3.023   2.018  17.422 -0.6571  0.3493 -0.2567
  335TMC3    C3 5025   3.022   2.044  17.286  0.9308  0.8301 -0.3823
  335TMC3    C4 5026   3.165   2.197  17.469  0.0202  0.3977 -0.5655
  335TMC3    C5 5027   3.177   2.224  17.332 -0.6959 -0.2001  0.4731
  335TMC3    C6 5028   3.104   2.150  17.244 -0.3491 -0.2353  0.2228
  335TMC3     C 5029   3.133   2.023  17.638  0.3953  0.3203 -0.3669
  335TMC3     O 5030   3.102   1.907  17.646 -0.2128 -0.0503  0.0643
  335TMC3     H 5031   2.974   1.925  17.447  0.3813  0.0730  0.7476
  335TMC3    H1 5032   3.230   2.255  17.533 -1.3347  1.4963 -0.1885
  335TMC3    H2 5033   3.111   2.174  17.139 -0.9707  0.7907  0.4163
  335TMC3    C7 5034   3.304   2.265  17.278  0.1539  0.3765  0.8695
  335TMC3    C8 5035   3.038   1.936  17.189  0.2195 -0.1698 -0.2132
  335TMC3    O1 5036   3.342   2.223  17.168 -0.3041 -0.1110  0.5379
  335TMC3    O2 5037   3.134   1.940  17.111  0.9278 -0.0140  0.3809
  336MPD2     C 5038   2.696   3.848  16.427 -0.0738 -0.0899  0.0015
  336MPD2    C1 5039   2.658   3.822  16.295  0.0428  0.0797  0.2917
  336MPD2    C2 5040   2.642   3.690  16.248 -0.1967  0.3393  0.5237
  336MPD2    C3 5041   2.654   3.584  16.333 -0.2438 -0.6816  0.0725
  336MPD2    C4 5042   2.669   3.612  16.467 -0.5185 -0.6907 -0.0755
  336MPD2    C5 5043   2.702   3.739  16.510  0.4294 -0.0276 -0.3025
  336MPD2     H 5044   2.620   3.660  16.146 -1.0482 -1.3502  1.2247
  336MPD2    H1 5045   2.670   3.539  16.547  3.3366 -0.9265 -0.3267
  336MPD2    H2 5046   2.705   3.946  16.473  0.7392 -0.8315  1.4150
  336MPD2    H3 5047   2.714   3.777  16.611 -1.8918  1.3199 -0.5247
  336MPD2     N 5048   2.627   3.454  16.293 -0.3543  0.0643  0.8080
  336MPD2    H5 5049   2.608   3.380  16.360 -2.2854  0.5432  0.7804
  336MPD2    N1 5050   2.651   3.938  16.205 -1.0259  0.2928  0.3985
  336MPD2    H7 5051   2.682   4.024  16.249 -1.2263 -0.1389  1.3831
  337TMC3    C1 5052   2.626   4.061  16.012 -0.4750 -0.9404 -0.7246
  337TMC3    C2 5053   2.513   4.112  15.951  0.4921 -0.3991  0.0136
  337TMC3    C3 5054   2.484   4.245  15.976 -0.3143  0.2514 -1.0008
  337TMC3    C4 5055   2.710   4.144  16.079  0.8733  0.7416 -0.4461
  337TMC3    C5 5056   2.676   4.275  16.104  1.0723  0.5269  0.2091
  337TMC3    C6 5057   2.558   4.330  16.058 -0.1391 -0.8025 -0.3992
  337TMC3     C 5058   2.619   3.929  16.069 -1.0141  0.1382 -0.0474
  337TMC3     O 5059   2.551   3.838  16.027  1.0267 -0.0655 -0.1692
  337TMC3     H 5060   2.449   4.038  15.904  1.2256 -1.3013  0.4169
  337TMC3    H1 5061   2.798   4.091  16.113 -0.8302 -1.0972  1.0936
  337TMC3    H2 5062   2.524   4.433  16.059  1.0997 -0.3969  0.6271
  337TMC3    C7 5063   2.755   4.344  16.201 -0.5534 -0.3096  0.6376
  337TMC3    C8 5064   2.352   4.290  15.950  0.0185  0.2660  0.6834
  337TMC3    O1 5065   2.840   4.285  16.269  0.3011  0.2051  0.0134
  337TMC3    O2 5066   2.312   4.382  16.026  0.1250  0.1492 -0.0168
  338MPD2     C 5067   2.944   3.349   1.025  0.5943 -0.4621  0.3341
  338MPD2    C1 5068   2.922   3.279   0.908  0.4061 -0.5415  0.1226
  338MPD2    C2 5069   2.800   3.268   0.853  0.9133  0.1654  0.5097
  338MPD2    C3 5070   2.695   3.332   0.905 -0.7976  0.1435  0.3934
  338MPD2    C4 5071   2.712   3.411   1.016 -0.3315 -0.8031 -0.3159
  338MPD2    C5 5072   2.839   3.416   1.073  0.4415 -0.4223 -0.0805
  338MPD2     H 5073   2.780   3.210   0.763 -1.1524 -0.4873  1.3823
  338MPD2    H1 5074   2.639   3.485   1.048  1.0355  0.9582 -1.2608
  338MPD2    H2 5075   3.037   3.357   1.081  0.5415 -0.0045  0.3615
  338MPD2    H3 5076   2.857   3.490   1.149  0.1728 -1.8267  1.3419
  338MPD2     N 5077   2.563   3.325   0.844 -0.2127  0.5384 -0.3598
  338MPD2    H5 5078   2.543   3.244   0.786  1.9515 -0.4336  0.2459
  338MPD2    N1 5079   3.031   3.223   0.834 -0.0493 -0.4461  0.1352
  338MPD2    H7 5080   3.007   3.168   0.751  0.2040  1.7619 -1.3939
  339TMC3    C1 5081   2.332   3.369   0.811 -0.8826 -0.0631 -0.3748
  339TMC3    C2 5082   2.301   3.236   0.806 -0.3167  0.6632  0.2627
  339TMC3    C3 5083   2.188   3.195   0.734 -0.1672  0.1411 -0.5341
  339TMC3    C4 5084   2.252   3.465   0.754 -0.1392 -0.3701  0.4290
  339TMC3    C5 5085   2.136   3.423   0.688 -0.5588  0.7239  0.1281
  339TMC3    C6 5086   2.108   3.289   0.673  0.0588 -0.1798 -0.1531
  339TMC3     C 5087   2.458   3.408   0.877 -0.7540  0.3726  0.1696
  339TMC3     O 5088   2.456   3.524   0.924 -0.0590  0.8906  0.4940
  339TMC3     H 5089   2.366   3.168   0.861 -0.4121 -0.4122 -0.9665
  339TMC3    H1 5090   2.282   3.569   0.745 -0.5374 -0.3306 -0.3567
  339TMC3    H2 5091   2.019   3.257   0.620 -0.5904 -0.1361  0.9062
  339TMC3    C7 5092   2.128   3.493   0.569 -0.3818 -0.2370 -0.1449
  339TMC3    C8 5093   2.147   3.065   0.723  0.4027  0.1226  0.5614
  339TMC3    O1 5094   2.232   3.539   0.537 -0.3772 -0.0336  0.2247
  339TMC3    O2 5095   2.050   3.047   0.651 -0.1163 -0.0920  0.4681
  340MPD2     C 5096   3.750   1.274  10.120  0.7725 -0.1089 -0.3672
  340MPD2    C1 5097   3.795   1.151  10.096 -0.5267  0.0953  0.0645
  340MPD2    C2 5098   3.849   1.075  10.191 -0.1047  0.3790 -0.0921
  340MPD2    C3 5099   3.849   1.120  10.327  0.7860  0.6626 -0.5515
  340MPD2    C4 5100   3.800   1.248  10.359  0.3964  0.7951 -0.0874
  340MPD2    C5 5101   3.753   1.322  10.249 -0.1155 -0.0941  0.1946
  340MPD2     H 5102   3.862   0.972  10.162 -2.4053  0.4805 -1.4625
  340MPD2    H1 5103   3.797   1.291  10.458  1.4349 -0.9673  0.7122
  340MPD2    H2 5104   3.693   1.330  10.046 -0.0220 -0.8861 -0.3492
  340MPD2    H3 5105   3.701   1.414  10.272  1.2077  0.5577  0.5675
  340MPD2     N 5106   3.900   1.044  10.441  0.0295  0.2389  0.0055
  340MPD2    H5 5107   3.915   1.087  10.532  0.3543  1.0037 -0.4081
  340MPD2    N1 5108   3.793   1.095   9.963  0.0340 -0.4623 -0.1001
  340MPD2    H7 5109   3.789   0.994   9.957  0.5664 -0.4560 -0.5285
  341TMC3    C1 5110   3.731   1.070   9.730 -0.3485 -0.0552 -0.0840
  341TMC3    C2 5111   3.615   0.994   9.740 -0.0880 -0.2919 -0.0967
  341TMC3    C3 5112   3.543   0.968   9.633 -0.7541  0.6536  0.3039
  341TMC3    C4 5113   3.775   1.117   9.614 -0.1138  0.3749  0.4368
  341TMC3    C5 5114   3.707   1.074   9.498 -0.0006 -0.2779 -0.5684
  341TMC3    C6 5115   3.589   1.007   9.510 -0.4492  0.0663  0.0919
  341TMC3     C 5116   3.759   1.159   9.842 -0.1553  0.2139 -0.8521
  341TMC3     O 5117   3.775   1.279   9.819  0.1717  0.7531  0.1880
  341TMC3     H 5118   3.584   0.954   9.835  0.9781  1.1440  0.8626
  341TMC3    H1 5119   3.861   1.183   9.611  0.5094 -0.3694  2.3139
  341TMC3    H2 5120   3.538   0.978   9.419  1.9467  0.1416 -1.2847
  341TMC3    C7 5121   3.790   1.006   9.405  0.0463 -0.4220 -0.5979
  341TMC3    C8 5122   3.447   0.857   9.651  0.5962 -0.8977 -0.1393
  341TMC3    O1 5123   3.750   0.900   9.370  0.8626  1.1437  0.1724
  341TMC3    O2 5124   3.446   0.800   9.758 -0.2373  0.2188  0.1241
  342MPD2     C 5125   1.069   4.395   0.335  0.4880  0.3232 -0.5230
  342MPD2    C1 5126   1.042   4.392   0.202 -0.4290 -0.1349 -0.3393
  342MPD2    C2 5127   1.011   4.510   0.139 -0.4950  0.0352  0.0847
  342MPD2    C3 5128   0.987   4.631   0.198  0.6999  0.2935 -0.1762
  342MPD2    C4 5129   1.005   4.630   0.337 -0.0417  0.2770 -0.1105
  342MPD2    C5 5130   1.052   4.513   0.407 -0.6609 -0.0559  0.0507
  342MPD2     H 5131   0.987   4.502   0.034 -1.0248  0.3154  0.1840
  342MPD2    H1 5132   0.988   4.714   0.404  2.2574  0.3484  0.3713
  342MPD2    H2 5133   1.101   4.308   0.391  0.3626  1.2944  1.0597
  342MPD2    H3 5134   1.064   4.522   0.514  1.9816  0.8183 -0.3034
  342MPD2     N 5135   0.954   0.017   0.114  0.1257  0.4515 -0.1879
  342MPD2    H5 5136   0.947   0.001   0.014 -0.7166  0.0783 -0.0691
  342MPD2    N1 5137   1.060   4.275   0.114  0.5832  0.2646  0.4233
  342MPD2    H7 5138   1.035   4.280   0.016 -0.0680 -0.3024  0.5601
  343TMC3    C1 5139   1.088   4.048   0.048 -0.1358  0.1741  0.1553
  343TMC3    C2 5140   1.178   4.067  17.641  0.0020  0.1283 -0.2949
  343TMC3    C3 5141   1.207   3.960  17.563  0.2208  0.0588 -0.6277
  343TMC3    C4 5142   1.058   3.924   0.092  0.2743  0.1643  0.6552
  343TMC3    C5 5143   1.097   3.817   0.007 -0.5385 -0.0476  0.4185
  343TMC3    C6 5144   1.164   3.837  17.591 -0.3350  0.4586 -0.2041
  343TMC3     C 5145   1.094   4.149   0.156  0.7075 -0.3618 -0.4600
  343TMC3     O 5146   1.146   4.108   0.257  0.2339 -0.3655  0.1134
  343TMC3     H 5147   1.212   4.166  17.614 -1.5022  0.7967  0.3189
  343TMC3    H1 5148   0.998   3.906   0.180 -2.1082  0.2521 -0.9536
  343TMC3    H2 5149   1.165   3.757  17.517  1.9876 -1.7974  2.2655
  343TMC3    C7 5150   1.082   3.683   0.052 -0.0580  0.3809  0.1288
  343TMC3    C8 5151   1.286   3.984  17.445 -0.1448 -0.2094  0.1649
  343TMC3    O1 5152   1.111   3.594  17.676  0.2788  0.3843  0.3458
  343TMC3    O2 5153   1.288   4.099  17.412  0.2371 -0.6675  0.2745
  344MPD2     C 5154   2.424   3.938  11.001 -0.1188  0.2150  0.2616
  344MPD2    C1 5155   2.356   3.936  10.881 -0.7166  0.1634  0.0962
  344MPD2    C2 5156   2.383   4.028  10.781 -0.9673 -0.4076 -0.0728
  344MPD2    C3 5157   2.483   4.122  10.814 -0.2441  0.1064 -0.3534
  344MPD2    C4 5158   2.539   4.130  10.939  0.3029 -0.0133  0.0255
  344MPD2    C5 5159   2.512   4.035  11.030 -0.1350 -0.2419 -0.0441
  344MPD2     H 5160   2.334   4.030  10.685 -0.7593  1.5887 -0.1290
  344MPD2    H1 5161   2.613   4.207  10.959  1.5592 -1.7587  2.0695
  344MPD2    H2 5162   2.398   3.870  11.082 -1.0990  1.9068  1.3874
  344MPD2    H3 5163   2.572   4.032  11.121  0.6308 -0.3887 -0.5553
  344MPD2     N 5164   2.538   4.223  10.728  0.2629  0.2812 -0.0027
  344MPD2    H5 5165   2.603   4.292  10.764  0.3612 -1.6283  3.4339
  344MPD2    N1 5166   2.255   3.841  10.865 -0.1232  0.2188  0.0867
  344MPD2    H7 5167   2.241   3.770  10.936 -0.5224  0.2333  0.0242
  345TMC3    C1 5168   2.556   4.354  10.529  0.1484 -0.3279  0.0735
  345TMC3    C2 5169   2.691   4.374  10.554 -0.6496 -0.0441  0.4489
  345TMC3    C3 5170   2.763   4.453  10.466  0.0548 -0.2350 -0.2705
  345TMC3    C4 5171   2.487   4.410  10.419 -0.0808  0.1841  0.3063
  345TMC3    C5 5172   2.566   4.485  10.334 -1.0462  0.2626 -0.0124
  345TMC3    C6 5173   2.703   4.511  10.355 -0.6758 -0.2817 -0.7032
  345TMC3     C 5174   2.479   4.259  10.609 -0.4149 -0.0489  0.8338
  345TMC3     O 5175   2.373   4.221  10.568  0.7618  0.3479  0.3558
  345TMC3     H 5176   2.738   4.347  10.648  1.3514 -1.1998 -0.8779
  345TMC3    H1 5177   2.380   4.405  10.400  0.2961 -1.0909 -1.4803
  345TMC3    H2 5178   2.761   4.560  10.277  0.4405  0.4174  0.5851
  345TMC3    C7 5179   2.498   4.603  10.280  0.2667  0.6758  0.3199
  345TMC3    C8 5180   2.856   4.552  10.524  0.0091 -0.1450 -0.4645
  345TMC3    O1 5181   2.573   4.697  10.284  0.1364  0.4041 -0.4319
  345TMC3    O2 5182   2.943   4.513  10.605  0.2291  0.3845  0.1049
  346MPD2     C 5183   2.182   0.490  13.653 -0.2275  0.2554 -0.2353
  346MPD2    C1 5184   2.289   0.537  13.730 -0.0525  0.0071  0.0121
  346MPD2    C2 5185   2.261   0.562  13.864  0.0597 -0.2349 -0.5199
  346MPD2    C3 5186   2.130   0.559  13.918  0.0688 -0.5990  0.2885
  346MPD2    C4 5187   2.025   0.519  13.833  0.9437  0.6058  0.3818
  346MPD2    C5 5188   2.053   0.489  13.702 -0.4102  0.0664 -0.0251
  346MPD2     H 5189   2.338   0.602  13.928 -0.7870  1.7266 -0.7449
  346MPD2    H1 5190   1.922   0.523  13.865  1.4412  0.9169  1.9480
  346MPD2    H2 5191   2.198   0.460  13.550 -3.4600 -1.5230 -0.1943
  346MPD2    H3 5192   1.962   0.472  13.645 -0.4133 -1.2949  0.3906
  346MPD2     N 5193   2.122   0.608  14.054  0.1926 -0.3947 -0.5421
  346MPD2    H5 5194   2.205   0.626  14.110 -0.3722 -0.5201  0.3339
  346MPD2    N1 5195   2.424   0.548  13.684  0.4585  0.0249 -0.0908
  346MPD2    H7 5196   2.497   0.566  13.753 -0.9838  0.7542  1.2406
  347TMC3    C1 5197   2.020   0.660  14.271  0.4597 -0.3091  0.0459
  347TMC3    C2 5198   2.146   0.677  14.332  0.7263 -0.5040  0.0975
  347TMC3    C3 5199   2.146   0.738  14.456  0.0818 -0.6878  0.1097
  347TMC3    C4 5200   1.900   0.694  14.333 -0.6842 -0.3773 -0.7939
  347TMC3    C5 5201   1.910   0.758  14.450 -0.3969 -0.3598  0.1215
  347TMC3    C6 5202   2.025   0.787  14.512  0.6500  0.1492  0.5389
  347TMC3     C 5203   2.007   0.621  14.124 -0.0609  0.3121 -0.0324
  347TMC3     O 5204   1.891   0.608  14.081  0.5372  0.0033  0.0201
  347TMC3     H 5205   2.242   0.639  14.301 -0.1171 -2.7779  0.3281
  347TMC3    H1 5206   1.803   0.674  14.289 -1.6125  0.4083  0.8948
  347TMC3    H2 5207   2.017   0.826  14.612 -1.5464  1.8364 -0.3256
  347TMC3    C7 5208   1.783   0.779  14.516  0.0914  0.9192  0.3468
  347TMC3    C8 5209   2.268   0.752  14.536  0.2324 -0.0878  0.1874
  347TMC3    O1 5210   1.697   0.695  14.506  0.0824  0.1134  0.0766
  347TMC3    O2 5211   2.367   0.677  14.513 -0.0302 -0.1910  0.4512
  348MPD2     C 5212   0.881   0.400  12.263  0.2219  0.1470  0.4115
  348MPD2    C1 5213   1.008   0.450  12.230  0.2818  0.3585  0.2120
  348MPD2    C2 5214   1.026   0.523  12.121 -0.2883 -0.0802 -0.1526
  348MPD2    C3 5215   0.924   0.572  12.047  0.4498  0.4940 -0.0141
  348MPD2    C4 5216   0.796   0.530  12.074  0.6085  0.6613 -0.5430
  348MPD2    C5 5217   0.779   0.440  12.176 -0.1253  0.5376  0.0798
  348MPD2     H 5218   1.130   0.549  12.110 -0.2083 -1.2525 -2.1058
  348MPD2    H1 5219   0.708   0.569  12.024  0.2363 -1.1268 -1.2951
  348MPD2    H2 5220   0.866   0.331  12.345  1.4734  0.6959  1.1100
  348MPD2    H3 5221   0.679   0.405  12.199 -0.1376  1.4820  1.4564
  348MPD2     N 5222   0.939   0.661  11.935  0.0503  0.0819  0.1786
  348MPD2    H5 5223   0.860   0.686  11.875  0.8781 -1.1667 -1.4402
  348MPD2    N1 5224   1.119   0.417  12.305  0.2758  0.3401  0.8478
  348MPD2    H7 5225   1.213   0.444  12.278  0.6604 -1.6725  0.1497
  349TMC3    C1 5226   1.243   0.304  12.466 -0.0273  0.1587  0.4425
  349TMC3    C2 5227   1.233   0.167  12.466  0.3572 -0.0591 -0.2311
  349TMC3    C3 5228   1.325   0.092  12.405 -0.8896  0.2470 -0.5205
  349TMC3    C4 5229   1.348   0.363  12.409 -0.3998 -0.1469  0.3551
  349TMC3    C5 5230   1.451   0.288  12.367 -0.0282  0.9032 -0.2672
  349TMC3    C6 5231   1.448   0.149  12.355  0.1222 -0.1768  0.3576
  349TMC3     C 5232   1.116   0.354  12.429  0.0626 -0.7697  0.3556
  349TMC3     O 5233   1.026   0.319  12.502 -0.1238 -0.1817  0.2322
  349TMC3     H 5234   1.150   0.116  12.514  0.5124 -1.2080 -1.1936
  349TMC3    H1 5235   1.346   0.470  12.391  0.9349 -0.5162 -1.9984
  349TMC3    H2 5236   1.535   0.099  12.316  1.1782  2.1588 -0.2971
  349TMC3    C7 5237   1.515   0.348  12.255 -0.2178 -0.8513  0.3977
  349TMC3    C8 5238   1.310   4.674  12.390 -0.8055 -0.0235  0.3954
  349TMC3    O1 5239   1.493   0.302  12.144 -0.6019 -0.5101 -0.6367
  349TMC3    O2 5240   1.216   4.621  12.443 -0.6719  0.3915  0.0362
  350MPD2     C 5241   4.466   3.335   9.851 -0.6687  0.4483  0.3239
  350MPD2    C1 5242   4.511   3.209   9.873  0.0832 -0.0173 -0.6247
  350MPD2    C2 5243   4.590   3.180   9.980  0.4697 -0.1390  0.0388
  350MPD2    C3 5244   4.622   3.289  10.061  0.3980 -0.8434 -1.1143
  350MPD2    C4 5245   4.567   3.413  10.043  0.4077  0.1859  0.1060
  350MPD2    C5 5246   4.497   3.437   9.929 -0.1341  0.1192 -0.9995
  350MPD2     H 5247   4.625   3.081  10.006 -0.6586 -0.4939  0.2204
  350MPD2    H1 5248   4.584   3.489  10.118  0.3047 -0.5923  0.9247
  350MPD2    H2 5249   4.414   3.361   9.759 -0.0921 -2.4731 -0.8192
  350MPD2    H3 5250   4.467   3.539   9.908 -1.5364  0.0206  0.4932
  350MPD2     N 5251   4.705   3.271  10.173 -0.2653  0.4402  0.7335
  350MPD2    H5 5252   0.001   3.175  10.196  1.2928  0.8447  1.0822
  350MPD2    N1 5253   4.506   3.111   9.775 -0.1261 -0.1029 -0.1192
  350MPD2    H7 5254   4.565   3.032   9.800 -0.4014  0.4574  2.3028
  351TMC3    C1 5255   4.489   3.005   9.560  0.4898 -0.4236  0.7128
  351TMC3    C2 5256   4.576   2.904   9.607 -0.3479 -0.9146  0.8186
  351TMC3    C3 5257   4.617   2.808   9.520  0.5975 -0.4316 -0.1484
  351TMC3    C4 5258   4.454   3.021   9.429 -0.1049  0.2670  0.4495
  351TMC3    C5 5259   4.516   2.930   9.344 -0.0959 -0.6486  0.7800
  351TMC3    C6 5260   4.606   2.831   9.382 -0.2280  0.5614 -0.0503
  351TMC3     C 5261   4.447   3.115   9.649  0.0022  0.5310  0.3655
  351TMC3     O 5262   4.387   3.208   9.597  0.2807 -0.0595  0.6767
  351TMC3     H 5263   4.591   2.894   9.714 -1.9322  0.6340  1.1743
  351TMC3    H1 5264   4.385   3.099   9.400  1.1016  0.8411 -0.8347
  351TMC3    H2 5265   4.664   2.780   9.306 -2.0804 -0.8772 -0.4969
  351TMC3    C7 5266   4.510   2.960   9.197  0.3717  0.4410 -0.2565
  351TMC3    C8 5267   4.705   2.704   9.560  0.9661 -0.6901 -0.6351
  351TMC3    O1 5268   4.462   3.068   9.169 -0.7854 -0.0200 -0.1380
  351TMC3    O2 5269   4.702   2.603   9.485 -0.3937  0.0217 -0.2720
  352MPD2     C 5270   3.752   0.839   1.275 -0.1522 -0.1328  0.3252
  352MPD2    C1 5271   3.625   0.804   1.240 -0.0313 -0.5499 -0.2734
  352MPD2    C2 5272   3.590   0.668   1.238  0.1689 -0.3847  0.2255
  352MPD2    C3 5273   3.676   0.570   1.284  0.1944  0.2949  0.2777
  352MPD2    C4 5274   3.808   0.607   1.299 -0.0725 -0.1567 -0.6309
  352MPD2    C5 5275   3.846   0.741   1.295  0.4912  0.4959  0.2958
  352MPD2     H 5276   3.487   0.643   1.218  0.4927 -1.8080  0.3016
  352MPD2    H1 5277   3.882   0.530   1.318 -0.7526 -0.5286  0.5025
  352MPD2    H2 5278   3.774   0.945   1.276  1.3629 -0.4140 -1.8620
  352MPD2    H3 5279   3.949   0.771   1.314  0.0824  1.3590  1.1456
  352MPD2     N 5280   3.646   0.432   1.275  0.3275 -0.3465  0.1976
  352MPD2    H5 5281   3.724   0.368   1.269  1.5030  0.9770  1.4143
  352MPD2    N1 5282   3.524   0.903   1.221 -0.1346 -0.2002  0.0714
  352MPD2    H7 5283   3.543   1.002   1.229  2.4382 -0.8560  2.0400
  353TMC3    C1 5284   3.506   0.253   1.229  0.3411 -0.1913  0.0059
  353TMC3    C2 5285   3.614   0.183   1.188 -0.3947 -0.1937 -0.0906
  353TMC3    C3 5286   3.590   0.045   1.176  0.2779 -0.6521 -0.0566
  353TMC3    C4 5287   3.376   0.207   1.234 -0.3023 -0.1074 -0.6686
  353TMC3    C5 5288   3.360   0.068   1.225 -0.3753  0.4759  0.6815
  353TMC3    C6 5289   3.463   4.707   1.181  0.2020  0.7491  0.0027
  353TMC3     C 5290   3.517   0.389   1.273 -0.3777  0.8481 -0.2952
  353TMC3     O 5291   3.416   0.450   1.310  0.2298 -0.5245 -0.1217
  353TMC3     H 5292   3.715   0.224   1.189  0.4929 -2.3304 -2.2594
  353TMC3    H1 5293   3.298   0.278   1.254  0.0858  0.6716 -1.9356
  353TMC3    H2 5294   3.436   4.612   1.135 -0.2613  0.0118  1.8204
  353TMC3    C7 5295   3.225   0.028   1.198 -0.8999 -0.9384  0.2859
  353TMC3    C8 5296   3.698   4.678   1.160 -0.2045  0.7732 -0.2939
  353TMC3    O1 5297   3.212   4.664   1.116 -0.3396  0.8176 -0.2183
  353TMC3    O2 5298   3.797   4.720   1.101 -0.1893  0.1401  0.3136
  354TMC3    C1 5299   0.084   1.838  13.675 -0.0348  0.3653  0.4885
  354TMC3    C2 5300   0.090   1.968  13.625  0.4539  0.1625  0.6032
  354TMC3    C3 5301   0.119   1.980  13.493 -0.0995  0.4644  0.9717
  354TMC3    C4 5302   0.092   1.726  13.592  0.2176 -0.9096 -1.2288
  354TMC3    C5 5303   0.141   1.752  13.472  0.0520  0.6609  0.8249
  354TMC3    C6 5304   0.150   1.874  13.415 -0.5344  0.0454 -0.7555
  354TMC3     C 5305   0.047   1.824  13.819 -0.0108  0.2123 -0.2671
  354TMC3     O 5306   4.708   1.726  13.845 -0.1817 -0.2041 -0.7282
  354TMC3     H 5307   0.065   2.055  13.685  2.4784  1.1125  0.0725
  354TMC3    H1 5308   0.092   1.627  13.636  1.8071  0.7923  2.6452
  354TMC3    H2 5309   0.163   1.898  13.310 -2.6935 -1.1365 -1.3022
  354TMC3    C7 5310   0.200   1.643  13.401 -0.4723 -0.2552 -0.7504
  354TMC3    C8 5311   0.142   2.115  13.429  0.2941  0.0838  0.7908
  354TMC3    O1 5312   0.194   1.537  13.460 -0.2729  0.0714 -0.2502
  354TMC3    O2 5313   0.141   2.115  13.306 -0.4976  0.4277 -0.4844
  355MPD2     C 5314   0.184   2.696  11.892 -0.3875 -0.0491 -0.0281
  355MPD2    C1 5315   0.223   2.738  11.762 -0.1781 -0.0933 -0.0008
  355MPD2    C2 5316   0.361   2.733  11.739  0.2658  0.1823 -0.4371
  355MPD2    C3 5317   0.451   2.731  11.842  0.0829  0.6922  0.4244
  355MPD2    C4 5318   0.408   2.693  11.967 -0.7271  0.4703  0.3831
  355MPD2    C5 5319   0.273   2.666  11.988 -0.2311  0.3318  0.3047
  355MPD2     H 5320   0.397   2.769  11.643  1.2001 -0.2160 -0.2303
  355MPD2    H1 5321   0.476   2.692  12.051 -0.7381  1.6912  0.3985
  355MPD2    H2 5322   0.079   2.695  11.919 -0.5354  0.2104 -0.5987
  355MPD2    H3 5323   0.248   2.627  12.086  1.8791 -1.5251  0.0853
  355MPD2     N 5324   0.589   2.750  11.824 -0.1714  0.3174 -0.2231
  355MPD2    H5 5325   0.647   2.755  11.908  0.6330 -1.3923 -0.6781
  355MPD2    N1 5326   0.119   2.766  11.667  0.0133 -0.3110 -0.1345
  355MPD2    H7 5327   0.033   2.729  11.705  0.4615 -1.2036  0.0148
  356TMC3    C1 5328   0.784   2.838  11.706 -0.3257  0.3315 -0.1389
  356TMC3    C2 5329   0.821   2.919  11.606  0.2195 -0.3621  0.3065
  356TMC3    C3 5330   0.909   3.019  11.622  0.2504  0.1131 -0.0686
  356TMC3    C4 5331   0.834   2.866  11.829  0.8037  0.5409  1.0057
  356TMC3    C5 5332   0.921   2.967  11.851 -0.7267  0.1056  0.1188
  356TMC3    C6 5333   0.967   3.045  11.744  0.7560 -0.8480 -0.0999
  356TMC3     C 5334   0.651   2.782  11.697 -0.0941  0.4609  1.0824
  356TMC3     O 5335   0.613   2.770  11.580  0.9329  0.0955  0.5083
  356TMC3     H 5336   0.769   2.911  11.511  0.6707 -0.3833  0.0625
  356TMC3    H1 5337   0.813   2.799  11.912 -1.3127  0.0596  0.0887
  356TMC3    H2 5338   1.020   3.136  11.769  0.3275 -1.0525  1.5148
  356TMC3    C7 5339   0.970   2.982  11.987  0.0884 -0.6617  0.1540
  356TMC3    C8 5340   0.970   3.076  11.494 -0.5726 -0.1093 -0.2340
  356TMC3    O1 5341   0.917   2.913  12.076  0.3051  0.7968  0.5774
  356TMC3    O2 5342   0.928   3.029  11.390 -0.2245  0.2028 -0.1214
  357MPD2     C 5343   0.081   2.624   1.167 -0.0778  0.5271  0.3661
  357MPD2    C1 5344   0.150   2.593   1.280 -0.1936  0.1444 -0.5448
  357MPD2    C2 5345   0.143   2.686   1.386  0.3052 -0.1498  0.4344
  357MPD2    C3 5346   0.060   2.797   1.379  0.3245  0.2343  0.3933
  357MPD2    C4 5347   4.712   2.815   1.259 -0.2770  0.2302  0.1430
  357MPD2    C5 5348   0.000   2.734   1.153  0.2261 -0.2705 -0.1457
  357MPD2     H 5349   0.202   2.668   1.475  0.6307 -1.4286 -0.0409
  357MPD2    H1 5350   4.648   2.901   1.246 -0.0948  0.0536 -1.7941
  357MPD2    H2 5351   0.099   2.554   1.087  1.0079  1.4065 -0.1581
  357MPD2    H3 5352   4.673   2.762   1.061 -0.5560 -0.3547  0.2662
  357MPD2     N 5353   0.036   2.876   1.492  0.6513  0.4922 -0.2401
  357MPD2    H5 5354   4.677   2.934   1.491 -1.6749 -2.7783  0.5366
  357MPD2    N1 5355   0.221   2.475   1.282  0.7112 -0.1858  0.3255
  357MPD2    H7 5356   0.211   2.421   1.197  2.2189 -1.2113  0.8035
  358TMC3    C1 5357   0.329   2.287   1.382 -0.5981  0.3807 -0.3439
  358TMC3    C2 5358   0.245   2.210   1.310  0.0465 -0.7988 -0.2675
  358TMC3    C3 5359   0.245   2.080   1.345 -0.2464 -0.6975 -0.1040
  358TMC3    C4 5360   0.425   2.241   1.472 -0.0980  0.3096  0.0535
  358TMC3    C5 5361   0.419   2.113   1.501 -0.3028  0.0358 -0.3862
  358TMC3    C6 5362   0.330   2.031   1.442  0.0351 -0.1564  0.0101
  358TMC3     C 5363   0.295   2.428   1.386 -0.2474  0.2933 -0.3999
  358TMC3     O 5364   0.332   2.490   1.484  0.1155 -0.0270  0.1908
  358TMC3     H 5365   0.163   2.238   1.246  1.4900  0.9261 -1.3695
  358TMC3    H1 5366   0.497   2.313   1.509  0.6415 -0.0102 -0.7536
  358TMC3    H2 5367   0.357   1.927   1.455 -0.8201 -0.4211 -0.3472
  358TMC3    C7 5368   0.528   2.054   1.573  0.1988 -0.5077 -0.1997
  358TMC3    C8 5369   0.185   1.989   1.255 -0.1790 -0.7107 -0.6735
  358TMC3    O1 5370   0.565   1.943   1.541  0.3119  0.5772 -0.2242
  358TMC3    O2 5371   0.145   2.030   1.143 -0.2767  0.2422 -0.3934
  359MPD2     C 5372   0.710   1.600  12.528  0.2724  0.3318  0.6874
  359MPD2    C1 5373   0.767   1.480  12.561 -0.3253  0.3004  0.4095
  359MPD2    C2 5374   0.698   1.390  12.639 -0.6977  0.5463 -0.3753
  359MPD2    C3 5375   0.569   1.415  12.680 -0.2846 -0.3589 -0.1601
  359MPD2    C4 5376   0.513   1.540  12.642 -0.5343  0.2984  0.1521
  359MPD2    C5 5377   0.589   1.636  12.577  0.2705 -0.8716  0.6158
  359MPD2     H 5378   0.761   1.308  12.669 -1.7907 -0.1076  0.1548
  359MPD2    H1 5379   0.409   1.557  12.665 -0.3101  1.0203  0.6266
  359MPD2    H2 5380   0.769   1.668  12.467  1.6969 -1.3314  0.1820
  359MPD2    H3 5381   0.551   1.736  12.556  0.0858 -0.6326  2.1089
  359MPD2     N 5382   0.501   1.316  12.754 -0.0211  0.2188  0.0852
  359MPD2    H5 5383   0.559   1.233  12.758 -0.0210  0.1576 -1.2851
  359MPD2    N1 5384   0.897   1.435  12.523 -0.3418 -0.0241 -0.2415
  359MPD2    H7 5385   0.917   1.339  12.551 -1.5048 -0.0005  0.6468
  360TMC3    C1 5386   1.098   1.424  12.418 -0.9848  0.2135 -0.0547
  360TMC3    C2 5387   1.203   1.496  12.366  0.7585  0.5098 -0.8824
  360TMC3    C3 5388   1.238   1.477  12.235  0.1144  0.2673 -0.2072
  360TMC3    C4 5389   1.045   1.315  12.345  0.8748 -0.6972 -0.1189
  360TMC3    C5 5390   1.085   1.307  12.218  0.3228 -1.0391 -0.7050
  360TMC3    C6 5391   1.179   1.382  12.154 -1.2328  0.1388 -0.7381
  360TMC3     C 5392   0.998   1.513  12.473  0.8051  0.5316 -0.6834
  360TMC3     O 5393   1.003   1.632  12.441 -0.2479  0.3124 -0.4949
  360TMC3     H 5394   1.229   1.583  12.424  0.4354  1.0863 -1.5902
  360TMC3    H1 5395   0.950   1.265  12.359 -0.1285  1.2463  0.0244
  360TMC3    H2 5396   1.227   1.355  12.060  0.4910 -3.8367  1.2870
  360TMC3    C7 5397   1.021   1.206  12.140 -0.7969 -0.0344  0.1379
  360TMC3    C8 5398   1.330   1.573  12.184  0.1102 -0.5092 -0.2021
  360TMC3    O1 5399   1.017   1.089  12.181  0.2580  0.1600  0.2714
  360TMC3    O2 5400   1.336   1.681  12.241  0.0582 -0.3181 -0.1440
  361MPD2     C 5401   2.071   0.137  16.772  0.5927  0.5208  0.4209
  361MPD2    C1 5402   2.068   0.172  16.904  0.0030  0.3187 -0.0251
  361MPD2    C2 5403   2.187   0.139  16.979  0.1414 -0.4795 -0.4520
  361MPD2    C3 5404   2.296   0.074  16.927 -1.1628  0.0961  0.2585
  361MPD2    C4 5405   2.292   0.050  16.792 -0.4376 -0.0433  0.5350
  361MPD2    C5 5406   2.182   0.083  16.719  0.0875  0.0912  0.2432
  361MPD2     H 5407   2.185   0.155  17.086 -1.1453  0.8317 -0.6756
  361MPD2    H1 5408   2.369   4.709  16.754  0.3301  0.5487  1.0865
  361MPD2    H2 5409   1.991   0.162  16.702  1.6798  2.6471 -0.0587
  361MPD2    H3 5410   2.189   0.066  16.612  1.5728 -0.3063  0.4016
  361MPD2     N 5411   2.403   0.026  17.003 -0.5062  0.1759  0.5043
  361MPD2    H5 5412   2.476   4.706  16.947 -0.8634  1.5778 -1.0851
  361MPD2    N1 5413   1.953   0.218  16.970 -0.6092 -0.5514 -0.2234
  361MPD2    H7 5414   1.866   0.226  16.919  0.9707  4.7916 -2.0345
  362TMC3    C1 5415   1.810   0.309  17.130 -0.1483 -0.2647  0.0444
  362TMC3    C2 5416   1.773   0.310  17.262 -0.8580  1.0566 -0.2700
  362TMC3    C3 5417   1.654   0.361  17.288 -1.0032 -0.8648 -0.4635
  362TMC3    C4 5418   1.741   0.372  17.029 -0.0650 -0.7178 -0.2809
  362TMC3    C5 5419   1.617   0.419  17.057 -0.4252 -0.4617  0.0882
  362TMC3    C6 5420   1.573   0.424  17.187  0.2869  0.9084  0.4217
  362TMC3     C 5421   1.942   0.237  17.104  0.9411  0.0005 -0.4390
  362TMC3     O 5422   2.009   0.196  17.196  0.5049  0.5332  0.5445
  362TMC3     H 5423   1.839   0.268  17.338 -1.9313  0.1728  0.1708
  362TMC3    H1 5424   1.798   0.391  16.939 -0.6592 -0.8097 -0.6787
  362TMC3    H2 5425   1.471   0.459  17.201  0.4306  2.1669 -1.7831
  362TMC3    C7 5426   1.534   0.473  16.954  0.2407  0.8826  0.1717
  362TMC3    C8 5427   1.603   0.343  17.419 -0.2611 -0.4126  0.4313
  362TMC3    O1 5428   1.443   0.542  16.994 -0.3522  0.1372  0.4419
  362TMC3    O2 5429   1.671   0.276  17.496  0.0112  0.1120  0.3646
  363TMC3    C1 5430   0.302   2.546   9.239  0.2689 -0.4958 -0.4421
  363TMC3    C2 5431   0.410   2.525   9.322 -0.1521  0.4518 -0.2611
  363TMC3    C3 5432   0.446   2.635   9.405 -0.7440 -0.3464  0.8568
  363TMC3    C4 5433   0.230   2.666   9.239  0.7755 -0.0846  0.0517
  363TMC3    C5 5434   0.276   2.772   9.315 -0.0184  0.6442  0.6802
  363TMC3    C6 5435   0.385   2.757   9.395  0.2894  0.6224 -1.1428
  363TMC3     C 5436   0.267   2.441   9.138  0.5675  0.2411 -0.3321
  363TMC3     O 5437   0.170   2.464   9.066 -0.2447  0.3848  0.7544
  363TMC3     H 5438   0.443   2.427   9.352  0.9974  0.9045 -0.0399
  363TMC3    H1 5439   0.149   2.689   9.170  1.0259  2.2193  0.5137
  363TMC3    H2 5440   0.421   2.832   9.465  0.5370  1.7078 -2.4166
  363TMC3    C7 5441   0.194   2.897   9.313  0.1920 -0.0859 -0.0914
  363TMC3    C8 5442   0.524   2.608   9.525  0.2543 -0.1719 -0.0399
  363TMC3    O1 5443   0.135   2.920   9.208  0.6958  0.0465  0.4155
  363TMC3    O2 5444   0.503   2.679   9.620  0.3412  0.1022  0.1197
  364MPD2     C 5445   4.279   1.929  10.761 -0.7730  0.9944  0.3912
  364MPD2    C1 5446   4.367   1.843  10.692  0.2098  0.4111 -0.5836
  364MPD2    C2 5447   4.368   1.706  10.719 -0.0210  0.2977  0.2575
  364MPD2    C3 5448   4.288   1.651  10.816  0.3784  0.6347 -0.3003
  364MPD2    C4 5449   4.206   1.735  10.887 -0.2181  0.3100  0.2998
  364MPD2    C5 5450   4.199   1.866  10.858 -0.2333 -0.4457 -0.5107
  364MPD2     H 5451   4.450   1.648  10.677  1.5599  0.5629  2.9687
  364MPD2    H1 5452   4.133   1.703  10.960 -0.3287  0.9284  0.4597
  364MPD2    H2 5453   4.274   2.037  10.748 -3.2266  0.6581 -1.3981
  364MPD2    H3 5454   4.148   1.940  10.919 -1.8306 -1.5789 -0.4805
  364MPD2     N 5455   4.296   1.516  10.863  0.3234  0.0248  0.2517
  364MPD2    H5 5456   4.237   1.491  10.941  0.5405  0.8731  0.6958
  364MPD2    N1 5457   4.452   1.907  10.602  0.8995  0.7693  0.2991
  364MPD2    H7 5458   4.452   2.008  10.608 -4.7221  0.7454  1.0304
  365TMC3    C1 5459   4.629   1.943  10.454  0.7213  0.2382  0.0302
  365TMC3    C2 5460   4.702   1.895  10.353  0.7049  0.2995 -0.7530
  365TMC3    C3 5461   0.070   1.979  10.284 -0.0954  0.2512  1.1019
  365TMC3    C4 5462   4.642   2.076  10.495  0.7512 -0.5645 -0.8708
  365TMC3    C5 5463   4.719   2.157  10.410 -0.0060 -0.1541  0.0999
  365TMC3    C6 5464   0.081   2.110  10.315 -0.0905  0.0118 -0.0400
  365TMC3     C 5465   4.547   1.848  10.524  0.0141  0.5622  0.7177
  365TMC3     O 5466   4.558   1.731  10.497 -0.1589 -0.1476 -0.4245
  365TMC3     H 5467   4.690   1.794  10.316 -0.6527 -0.0791  0.7456
  365TMC3    H1 5468   4.587   2.110  10.582 -0.5041 -0.1626 -1.8205
  365TMC3    H2 5469   0.153   2.167  10.256 -1.8676  1.5623 -0.7059
  365TMC3    C7 5470   0.020   2.292  10.464  0.1851  0.9035  0.2828
  365TMC3    C8 5471   0.178   1.927  10.203 -0.5974 -0.8323  0.5582
  365TMC3    O1 5472   0.127   2.342  10.434 -0.0138 -0.0069 -0.0754
  365TMC3    O2 5473   0.249   2.006  10.142 -0.0534 -0.4932 -0.0577
  366MPD2     C 5474   2.350   2.801  15.914  0.1618  0.3282  0.0090
  366MPD2    C1 5475   2.351   2.793  15.775  0.5574  0.7669  0.3056
  366MPD2    C2 5476   2.324   2.677  15.706 -0.0814  0.3363  0.2901
  366MPD2    C3 5477   2.300   2.562  15.778 -0.0053 -0.6391  0.1350
  366MPD2    C4 5478   2.294   2.571  15.916  0.1268 -0.4211 -0.6253
  366MPD2    C5 5479   2.324   2.688  15.984 -0.1410 -0.1835  0.6315
  366MPD2     H 5480   2.331   2.671  15.598 -0.5861 -1.7965  0.3726
  366MPD2    H1 5481   2.282   2.485  15.980 -0.7873  0.5582  0.5161
  366MPD2    H2 5482   2.377   2.888  15.972 -1.0542  0.2714  0.6610
  366MPD2    H3 5483   2.325   2.698  16.092  0.5560 -0.9545  0.6917
  366MPD2     N 5484   2.291   2.441  15.705  0.1083 -0.2937  0.1943
  366MPD2    H5 5485   2.293   2.444  15.604 -0.4023 -0.9751  0.1635
  366MPD2    N1 5486   2.395   2.897  15.693 -1.1217 -0.1619 -0.1224
  366MPD2    H7 5487   2.410   2.887  15.593  3.3236 -2.2304  0.7689
  367TMC3    C1 5488   2.475   3.110  15.645 -0.4756  0.1261 -0.3995
  367TMC3    C2 5489   2.588   3.183  15.650 -0.4230 -0.4498  0.1949
  367TMC3    C3 5490   2.602   3.291  15.567  0.0883 -0.1946  1.1112
  367TMC3    C4 5491   2.380   3.128  15.549  0.4871 -0.4275 -0.2597
  367TMC3    C5 5492   2.399   3.240  15.475  0.7408 -0.0802 -0.1405
  367TMC3    C6 5493   2.509   3.323  15.478  0.5030 -0.5774 -0.4808
  367TMC3     C 5494   2.455   3.012  15.740  0.0975 -0.0932  0.8430
  367TMC3     O 5495   2.480   3.052  15.857 -0.2021 -0.0409 -0.3287
  367TMC3     H 5496   2.652   3.160  15.734  1.4270  0.2438 -1.0158
  367TMC3    H1 5497   2.291   3.070  15.569  0.6062  0.3690  2.6166
  367TMC3    H2 5498   2.520   3.415  15.422 -1.3245  0.3525  0.6740
  367TMC3    C7 5499   2.278   3.293  15.418 -0.3302 -0.2448  0.4703
  367TMC3    C8 5500   2.710   3.387  15.610  0.5138 -0.5031 -0.3041
  367TMC3    O1 5501   2.284   3.415  15.403 -0.8818  0.2404 -0.8151
  367TMC3    O2 5502   2.783   3.355  15.696 -0.0106  0.2210 -0.2845
  368MPD2     C 5503   4.347   0.165  13.283  0.5174 -0.0071  0.7595
  368MPD2    C1 5504   4.287   0.220  13.175  0.2427  0.3845  0.3577
  368MPD2    C2 5505   4.344   0.209  13.045  0.2009  0.6187 -0.1276
  368MPD2    C3 5506   4.461   0.140  13.037  0.5577  0.2479  0.5031
  368MPD2    C4 5507   4.519   0.085  13.145  1.4431 -0.1845 -0.3078
  368MPD2    C5 5508   4.465   0.093  13.268  0.1693  0.3654 -0.3685
  368MPD2     H 5509   4.289   0.256  12.964 -0.5195  0.7822  0.4538
  368MPD2    H1 5510   4.609   0.025  13.140  0.8760 -1.2140  1.5487
  368MPD2    H2 5511   4.302   0.181  13.380 -2.0394 -1.4388 -0.2083
  368MPD2    H3 5512   4.503   0.039  13.354  0.2769 -1.4988 -1.6012
  368MPD2     N 5513   4.533   0.132  12.918  0.3371  0.0841 -0.1369
  368MPD2    H5 5514   4.634   0.122  12.921  0.0642 -2.5172  0.0930
  368MPD2    N1 5515   4.162   0.283  13.207  0.7500  0.1367 -0.0333
  368MPD2    H7 5516   4.130   0.287  13.303 -0.7454 -0.5777 -0.5018
  369TMC3    C1 5517   3.986   0.426  13.168 -0.3836  0.1934 -0.2572
  369TMC3    C2 5518   3.973   0.561  13.152  0.1757  0.4782  0.4108
  369TMC3    C3 5519   3.897   0.636  13.233 -0.2087 -0.2514 -0.0256
  369TMC3    C4 5520   3.924   0.368  13.272  0.0096  0.0394  0.3806
  369TMC3    C5 5521   3.846   0.449  13.354 -0.3993  0.2994 -0.2376
  369TMC3    C6 5522   3.830   0.582  13.337 -0.4130 -0.0405  0.0307
  369TMC3     C 5523   4.097   0.358  13.112 -0.1800  0.8208  0.2779
  369TMC3     O 5524   4.132   0.399  13.001  0.3950 -0.5209 -0.1794
  369TMC3     H 5525   4.031   0.620  13.082 -1.1856 -1.1816 -2.1018
  369TMC3    H1 5526   3.938   0.260  13.280 -0.4873 -0.0152  0.4890
  369TMC3    H2 5527   3.770   0.646  13.400  1.8818  3.3486 -1.2142
  369TMC3    C7 5528   3.749   0.393  13.439  0.6833  0.1154  0.1067
  369TMC3    C8 5529   3.847   0.762  13.178  0.5129  0.3857  0.6233
  369TMC3    O1 5530   3.714   0.458  13.533  0.6467  0.4655  0.0239
  369TMC3    O2 5531   3.927   0.843  13.128 -0.5445  0.3144 -0.9710
  370TMC3    C1 5532   3.343   1.194  16.363  0.1867  0.0193 -0.3475
  370TMC3    C2 5533   3.261   1.145  16.467 -0.1875 -0.3891 -0.0148
  370TMC3    C3 5534   3.187   1.030  16.433  0.1330  0.6293  0.6976
  370TMC3    C4 5535   3.351   1.143  16.235  0.0924 -0.0675 -0.3100
  370TMC3    C5 5536   3.279   1.030  16.210 -0.1255  0.6152 -0.2101
  370TMC3    C6 5537   3.197   0.971  16.304 -0.4087  0.1400  0.3048
  370TMC3     C 5538   3.404   1.322  16.392 -0.5459 -0.2095  0.3830
  370TMC3     O 5539   3.411   1.351  16.510 -0.1592  0.5037  0.2355
  370TMC3     H 5540   3.264   1.184  16.568  0.1924  0.5257 -0.3836
  370TMC3    H1 5541   3.420   1.184  16.162 -0.8766 -0.2746 -1.3254
  370TMC3    H2 5542   3.147   0.877  16.286 -0.5893  0.2594  0.1893
  370TMC3    C7 5543   3.312   0.958  16.090 -0.3875  0.0490  0.7250
  370TMC3    C8 5544   3.152   0.938  16.541  0.6027  0.1486 -1.0689
  370TMC3    O1 5545   3.372   1.021  16.006  0.2637 -0.7351  0.5841
  370TMC3    O2 5546   3.140   0.817  16.517  0.6067  0.5618 -0.3276
  371TMC3    C1 5547   4.308   4.037  15.631  0.3267  0.2923  0.2978
  371TMC3    C2 5548   4.340   4.095  15.751 -0.6549 -0.7184  0.1309
  371TMC3    C3 5549   4.328   4.231  15.748  0.1351  0.7002 -0.2205
  371TMC3    C4 5550   4.268   4.099  15.519  0.3245 -0.0236 -0.1367
  371TMC3    C5 5551   4.261   4.235  15.518  0.9898  0.1422  0.1380
  371TMC3    C6 5552   4.291   4.299  15.638 -0.8356 -0.5585  0.6752
  371TMC3     C 5553   4.366   3.907  15.613 -0.3180  0.2427  0.9259
  371TMC3     O 5554   4.420   3.870  15.512  0.3672  0.4897 -0.5038
  371TMC3     H 5555   4.399   4.043  15.825  1.4312 -2.5653 -2.8362
  371TMC3    H1 5556   4.241   4.039  15.432 -0.1353 -0.0273  0.0088
  371TMC3    H2 5557   4.276   4.406  15.651  0.2327 -0.1212 -1.5883
  371TMC3    C7 5558   4.273   4.306  15.397 -0.1768  0.5891  0.1236
  371TMC3    C8 5559   4.360   4.293  15.874  0.4281 -0.2335  0.2439
  371TMC3    O1 5560   4.241   4.423  15.404 -0.1061 -0.2258  0.3776
  371TMC3    O2 5561   4.416   4.224  15.960  0.0265  0.7469 -0.1751
  372MPD2     C 5562   4.106   0.911  13.393 -0.0695  0.1018 -0.2834
  372MPD2    C1 5563   4.150   0.794  13.452  0.1353 -0.2261  0.4326
  372MPD2    C2 5564   4.078   0.748  13.565  0.6478  0.5919  0.8534
  372MPD2    C3 5565   3.960   0.810  13.607 -0.2659 -0.5528 -0.5786
  372MPD2    C4 5566   3.912   0.926  13.548 -0.1878  0.1278 -0.7451
  372MPD2    C5 5567   3.991   0.973  13.444 -0.0256 -0.5191  0.4199
  372MPD2     H 5568   4.117   0.653  13.599 -0.3195 -0.1174 -0.0087
  372MPD2    H1 5569   3.814   0.967  13.568  0.6879  1.3712  1.1144
  372MPD2    H2 5570   4.164   0.972  13.324  0.0744 -2.2874 -2.2714
  372MPD2    H3 5571   3.961   1.061  13.388  1.5320 -1.5727 -2.1031
  372MPD2     N 5572   3.905   0.767  13.728  0.7758  0.7065  0.1371
  372MPD2    H5 5573   3.935   0.675  13.762  0.9429  0.5078 -0.5530
  372MPD2    N1 5574   4.252   0.712  13.406  0.3924 -0.2128 -0.0646
  372MPD2    H7 5575   4.272   0.627  13.457  2.3195  1.1507  1.4380
  373TMC3    C1 5576   3.791   0.753  13.927  0.0971 -0.1967  0.0719
  373TMC3    C2 5577   3.773   0.795  14.057  0.1153 -0.5105 -0.2737
  373TMC3    C3 5578   3.731   0.702  14.148  0.5061 -0.1674 -0.2024
  373TMC3    C4 5579   3.745   0.627  13.882  0.5201 -0.1546  0.0615
  373TMC3    C5 5580   3.695   0.535  13.977  0.1169 -0.0450 -0.1536
  373TMC3    C6 5581   3.694   0.571  14.107 -0.3486  0.0901  0.4027
  373TMC3     C 5582   3.840   0.843  13.820 -0.1244  0.0672 -0.0306
  373TMC3     O 5583   3.814   0.963  13.828  0.1960 -0.7473  0.1342
  373TMC3     H 5584   3.791   0.896  14.092 -0.1201  0.0398 -1.7496
  373TMC3    H1 5585   3.738   0.591  13.780  0.1905 -0.9562  0.3631
  373TMC3    H2 5586   3.667   0.498  14.183 -1.1570 -1.4021 -1.3304
  373TMC3    C7 5587   3.690   0.397  13.945 -0.0075  0.4046 -0.0625
  373TMC3    C8 5588   3.784   0.715  14.280  0.0774 -0.4194  0.0696
  373TMC3    O1 5589   3.733   0.368  13.836 -0.2571  0.1928  0.2364
  373TMC3    O2 5590   3.782   0.614  14.349 -0.1431  0.2297 -0.2332
  374TMC3    C1 5591   0.193   0.433   9.774  0.0143 -0.2505  0.3162
  374TMC3    C2 5592   0.278   0.522   9.840 -0.7124 -0.3311 -0.5349
  374TMC3    C3 5593   0.293   0.645   9.785 -0.1003  1.2867  0.1673
  374TMC3    C4 5594   0.104   0.475   9.682 -0.0783  0.5434  0.0628
  374TMC3    C5 5595   0.109   0.609   9.656  0.5529  0.4748 -0.3887
  374TMC3    C6 5596   0.207   0.692   9.694  0.4754 -0.4872  0.6327
  374TMC3     C 5597   0.190   0.297   9.809  0.2431  0.0709 -0.2577
  374TMC3     O 5598   0.246   0.279   9.917  1.1510 -0.3524 -0.1387
  374TMC3     H 5599   0.348   0.483   9.913 -3.6287 -1.7618  1.4830
  374TMC3    H1 5600   0.027   0.414   9.636  0.0065 -0.6053  1.4376
  374TMC3    H2 5601   0.218   0.786   9.641 -1.9271 -0.2768  0.4819
  374TMC3    C7 5602   0.006   0.666   9.567  0.6199 -0.1704 -0.3812
  374TMC3    C8 5603   0.418   0.713   9.798 -0.5265 -0.3798 -0.3785
  374TMC3    O1 5604   4.708   0.791   9.578  0.3915  0.0149 -0.6125
  374TMC3    O2 5605   0.466   0.755   9.693  0.3162 -0.5203  0.3284
  375MPD2     C 5606   4.336   1.494  17.389  0.1367 -0.1540  0.5268
  375MPD2    C1 5607   4.296   1.509  17.258  0.4261  0.1470 -0.1951
  375MPD2    C2 5608   4.358   1.441  17.164  0.4438  1.1043 -0.0070
  375MPD2    C3 5609   4.453   1.348  17.184 -0.3764 -1.0862 -0.3276
  375MPD2    C4 5610   4.491   1.324  17.315 -0.7005 -0.0728 -0.6858
  375MPD2    C5 5611   4.425   1.393  17.416  0.2892 -0.2583 -1.2125
  375MPD2     H 5612   4.336   1.460  17.059  0.1848  1.1376  0.0531
  375MPD2    H1 5613   4.561   1.244  17.340 -1.0878 -0.3337 -0.4282
  375MPD2    H2 5614   4.296   1.548  17.474 -0.4741  0.1654  0.0443
  375MPD2    H3 5615   4.450   1.367  17.518  0.2517  3.3952 -0.2445
  375MPD2     N 5616   4.526   1.282  17.080  0.4876  0.3919 -0.1408
  375MPD2    H5 5617   4.620   1.248  17.098  0.4980  0.0307 -0.8766
  375MPD2    N1 5618   4.201   1.608  17.221 -0.3924  0.4469  0.0402
  375MPD2    H7 5619   4.177   1.603  17.123 -0.9159 -0.1111  0.1974
  376TMC3    C1 5620   4.605   1.239  16.859  0.3786 -0.5121  0.4585
  376TMC3    C2 5621   0.012   1.251  16.900 -0.4499 -0.2864  0.0437
  376TMC3    C3 5622   0.112   1.226  16.809  0.5115  0.3376  0.2220
  376TMC3    C4 5623   4.574   1.224  16.728  0.0239  0.3334  0.3024
  376TMC3    C5 5624   4.679   1.204  16.635 -0.2233 -0.3622 -0.2840
  376TMC3    C6 5625   0.085   1.204  16.673 -1.0074  0.1927  0.0919
  376TMC3     C 5626   4.489   1.278  16.947 -0.0602 -0.6389 -0.5224
  376TMC3     O 5627   4.382   1.293  16.893 -0.0400  0.2409  0.2178
  376TMC3     H 5628   0.039   1.265  17.004  0.7288 -0.5694 -0.2187
  376TMC3    H1 5629   4.472   1.217  16.691 -0.0040 -1.8929  0.7752
  376TMC3    H2 5630   0.171   1.180  16.612 -0.3951  1.0903  0.6124
  376TMC3    C7 5631   4.651   1.204  16.494 -0.0434  0.2992 -0.1078
  376TMC3    C8 5632   0.249   1.250  16.843  0.1541  0.7404 -0.6006
  376TMC3    O1 5633   4.564   1.285  16.457  0.6444  0.3601  0.0917
  376TMC3    O2 5634   0.336   1.192  16.778 -0.2760  0.4623 -0.0989
  377MPD2     C 5635   2.751   0.907  13.109  0.4578  0.1499  0.1605
  377MPD2    C1 5636   2.667   0.895  13.004  0.1183  0.7793  0.1004
  377MPD2    C2 5637   2.536   0.857  13.024  1.1905  0.4847  0.4023
  377MPD2    C3 5638   2.486   0.816  13.148  0.1540 -0.2010 -0.0790
  377MPD2    C4 5639   2.582   0.815  13.249  0.3467 -0.2340  0.4368
  377MPD2    C5 5640   2.705   0.864  13.236  0.5691  0.0823 -0.4662
  377MPD2     H 5641   2.464   0.846  12.944 -0.8770 -1.0539  2.4501
  377MPD2    H1 5642   2.557   0.781  13.349  0.0090  0.0718  0.4578
  377MPD2    H2 5643   2.852   0.945  13.098 -0.4471  2.1948 -1.1527
  377MPD2    H3 5644   2.765   0.856  13.326 -0.1406 -4.2781 -0.4125
  377MPD2     N 5645   2.354   0.775  13.179 -0.0343 -0.5391  0.4582
  377MPD2    H5 5646   2.341   0.730  13.269  0.8821 -0.9594  0.3776
  377MPD2    N1 5647   2.721   0.926  12.882  0.3970 -0.2463 -0.3253
  377MPD2    H7 5648   2.821   0.943  12.883  0.3304  0.2649 -1.6022
  378TMC3    C1 5649   2.748   0.762  12.431  0.6231 -0.2055 -0.4273
  378TMC3    C2 5650   2.705   0.845  12.524 -0.2871 -0.2721 -0.0571
  378TMC3    C3 5651   2.750   0.842  12.652 -0.5108 -0.2276  0.0623
  378TMC3    C4 5652   2.837   0.668  12.466 -0.0795 -0.2854  0.5990
  378TMC3    C5 5653   2.866   0.657  12.599 -0.1868  0.3057  0.5367
  378TMC3    C6 5654   2.834   0.743  12.698 -0.1205 -0.8241  0.1873
  378TMC3     C 5655   2.696   0.761  12.290 -0.6273 -0.2167 -0.0513
  378TMC3     O 5656   2.732   0.666  12.226  0.3315 -0.3117 -0.3420
  378TMC3     H 5657   2.646   0.932  12.497  1.8481  1.2953  0.3306
  378TMC3    H1 5658   2.852   0.590  12.393 -1.0119 -2.6159  2.9112
  378TMC3    H2 5659   2.853   0.717  12.802  1.4598  0.4546  0.2148
  378TMC3    C7 5660   2.941   0.542  12.641  0.0015  0.0394 -0.3280
  378TMC3    C8 5661   2.654   0.893  12.760  0.0671 -0.0045 -0.2243
  378TMC3    O1 5662   2.916   0.490  12.750 -0.2656  0.4847 -0.6127
  378TMC3    O2 5663   2.546   0.939  12.725 -0.2561  0.4792 -0.5454
  379MPD2     C 5664   3.453   3.919  16.293 -0.1646 -0.3083  0.0250
  379MPD2    C1 5665   3.384   3.850  16.387  0.6459 -0.6443 -0.3605
  379MPD2    C2 5666   3.449   3.786  16.488 -0.4828 -0.2151 -0.4351
  379MPD2    C3 5667   3.589   3.794  16.496  0.3843  0.3954 -0.5089
  379MPD2    C4 5668   3.662   3.858  16.394  0.6600  0.6412 -0.1615
  379MPD2    C5 5669   3.590   3.922  16.290  0.1215 -0.1521 -0.9698
  379MPD2     H 5670   3.397   3.717  16.553  0.1720 -0.7472 -0.4721
  379MPD2    H1 5671   3.769   3.845  16.392  0.1420 -3.1009 -2.4686
  379MPD2    H2 5672   3.408   3.967  16.207 -1.4671  0.7746  1.3136
  379MPD2    H3 5673   3.641   3.961  16.203  1.0342 -2.9034 -1.6960
  379MPD2     N 5674   3.669   3.721  16.589  0.8352  0.1452  0.0503
  379MPD2    H5 5675   3.770   3.730  16.587  0.6538  1.7393 -1.6809
  379MPD2    N1 5676   3.240   3.845  16.379  0.4431 -0.8955  0.4114
  379MPD2    H7 5677   3.198   3.878  16.293  0.4687  0.7992  1.0468
  380TMC3    C1 5678   3.035   3.743  16.408 -0.8600 -0.5271  0.9178
  380TMC3    C2 5679   3.032   3.612  16.425  0.3278  0.9022 -0.0437
  380TMC3    C3 5680   3.009   3.538  16.309  0.0680 -0.0315  0.3668
  380TMC3    C4 5681   3.001   3.809  16.296  0.2653 -0.5075 -0.0680
  380TMC3    C5 5682   2.978   3.734  16.186  0.4105 -0.0340 -0.4429
  380TMC3    C6 5683   2.973   3.596  16.192  0.0087 -0.3305 -0.9409
  380TMC3     C 5684   3.148   3.796  16.473  0.8102 -0.1240  0.0598
  380TMC3     O 5685   3.169   3.753  16.588  0.1052  0.2975  0.3982
  380TMC3     H 5686   3.091   3.571  16.506 -0.0849 -0.7679 -0.5768
  380TMC3    H1 5687   3.004   3.917  16.281  3.1382 -0.3544  1.7057
  380TMC3    H2 5688   2.943   3.528  16.113 -0.3112 -0.6719 -0.5292
  380TMC3    C7 5689   2.938   3.796  16.066  0.2863 -0.0906 -0.3062
  380TMC3    C8 5690   3.108   3.430  16.290  1.3599 -0.2314  0.4050
  380TMC3    O1 5691   2.953   3.916  16.053 -0.1620 -0.0826 -0.0634
  380TMC3    O2 5692   3.148   3.370  16.391 -0.4188  0.1776  0.3024
  381TMC3    C1 5693   3.177   0.191  16.526 -0.2891  0.0114 -0.0301
  381TMC3    C2 5694   3.230   0.292  16.454  0.1239  0.2785 -0.1446
  381TMC3    C3 5695   3.243   0.416  16.506  0.0403 -0.3670  0.2225
  381TMC3    C4 5696   3.144   0.212  16.652 -0.2469 -0.1002  0.4305
  381TMC3    C5 5697   3.165   0.333  16.714 -0.2350 -0.0156  0.1372
  381TMC3    C6 5698   3.217   0.441  16.641  0.3549  0.3185 -0.2143
  381TMC3     C 5699   3.153   0.057  16.474  0.8363  0.4492  0.4923
  381TMC3     O 5700   3.174   4.692  16.554 -0.0277  0.3152 -0.2332
  381TMC3     H 5701   3.257   0.266  16.352 -1.9733  0.8789 -0.8443
  381TMC3    H1 5702   3.102   0.129  16.707 -0.5871 -1.4957 -1.9097
  381TMC3    H2 5703   3.239   0.532  16.694 -0.1260  0.7437 -0.7432
  381TMC3    C7 5704   3.119   0.353  16.846  1.2031  0.0315 -0.4244
  381TMC3    C8 5705   3.350   0.491  16.440 -0.2250 -0.1198  0.6310
  381TMC3    O1 5706   3.120   0.254  16.920  0.9577  0.1888  0.6736
  381TMC3    O2 5707   3.410   0.443  16.348 -0.4365 -0.3030 -0.4019
  382MPD2     C 5708   2.413   2.661  16.974 -0.2380 -0.1649  0.6701
  382MPD2    C1 5709   2.407   2.691  17.107  0.3936 -0.4181  0.4501
  382MPD2    C2 5710   2.373   2.592  17.200  0.0364 -0.4490 -1.1016
  382MPD2    C3 5711   2.364   2.459  17.153  0.0879  0.8473 -0.2182
  382MPD2    C4 5712   2.370   2.436  17.019 -0.6768  0.5557 -0.5838
  382MPD2    C5 5713   2.387   2.533  16.930  0.3604 -0.4637 -0.6024
  382MPD2     H 5714   2.356   2.618  17.304  1.7324 -1.7304 -0.5061
  382MPD2    H1 5715   2.360   2.334  16.982  0.9927  0.5645 -1.0833
  382MPD2    H2 5716   2.426   2.742  16.904 -1.3888 -0.4683  0.0970
  382MPD2    H3 5717   2.389   2.510  16.824  2.7934  0.5997 -0.7834
  382MPD2     N 5718   2.344   2.348  17.239 -0.3728 -0.2679 -0.4060
  382MPD2    H5 5719   2.337   2.255  17.198 -0.1519 -0.0024 -1.0541
  382MPD2    N1 5720   2.423   2.826  17.154 -0.2322  0.1434 -0.3379
  382MPD2    H7 5721   2.413   2.904  17.090 -0.4369 -2.0706 -2.9964
  383TMC3    C1 5722   2.309   2.224  17.435 -0.2118 -0.3924 -0.4282
  383TMC3    C2 5723   2.219   2.130  17.390 -0.9358  0.8016  0.9202
  383TMC3    C3 5724   2.174   2.029  17.466  0.2064 -0.0072 -0.4535
  383TMC3    C4 5725   2.355   2.210  17.564  0.3485  0.4211  0.5293
  383TMC3    C5 5726   2.324   2.086  17.623 -0.3418 -0.6109 -0.0465
  383TMC3    C6 5727   2.227   1.998  17.587 -0.2247 -0.2780 -0.6580
  383TMC3     C 5728   2.314   2.356  17.372  1.2125 -0.4187  0.1345
  383TMC3     O 5729   2.313   2.450  17.447 -0.3860  0.4312  0.1436
  383TMC3     H 5730   2.176   2.149  17.292  3.2991 -0.4025 -1.1386
  383TMC3    H1 5731   2.452   2.254  17.582  0.6233 -0.0995  0.2905
  383TMC3    H2 5732   2.212   1.905  17.640 -3.2519  0.0244 -0.9771
  383TMC3    C7 5733   2.379   2.053   0.052  0.4517 -0.2923 -0.0028
  383TMC3    C8 5734   2.043   1.980  17.424 -1.2748 -0.2486  0.0886
  383TMC3    O1 5735   2.368   1.940   0.096  0.7824 -0.0945  0.6417
  383TMC3    O2 5736   1.998   2.011  17.315  0.2604  0.3976  0.1835
  384MPD2     C 5737   3.893   3.498  11.870  0.2325 -0.2485 -0.6447
  384MPD2    C1 5738   3.977   3.488  11.979  0.0810  0.0402 -0.5192
  384MPD2    C2 5739   4.105   3.445  11.957 -0.4417  0.1649  0.0655
  384MPD2    C3 5740   4.161   3.430  11.835  0.4175 -0.1960  0.3303
  384MPD2    C4 5741   4.079   3.458  11.725  0.0308 -0.4505 -0.1640
  384MPD2    C5 5742   3.942   3.487  11.744 -0.3818 -0.9480 -0.4915
  384MPD2     H 5743   4.173   3.436  12.041 -1.3143 -3.9210  0.3703
  384MPD2    H1 5744   4.106   3.453  11.620 -0.6721  0.3689 -0.3794
  384MPD2    H2 5745   3.787   3.521  11.879  0.1294 -0.1365 -2.1089
  384MPD2    H3 5746   3.886   3.515  11.656  0.0146  0.1105 -0.4189
  384MPD2     N 5747   4.297   3.403  11.837 -0.4276 -0.5622  0.5511
  384MPD2    H5 5748   4.340   3.406  11.929  0.5440  1.1946  0.0308
  384MPD2    N1 5749   3.935   3.512  12.114  0.1313  0.6481 -0.2978
  384MPD2    H7 5750   4.003   3.507  12.189  1.0666 -0.1197 -1.1900
  385TMC3    C1 5751   4.506   3.337  11.777  0.1625  0.3803  0.0167
  385TMC3    C2 5752   4.520   3.203  11.778  0.3138  0.2094  0.7825
  385TMC3    C3 5753   4.579   3.139  11.888 -0.3763 -0.5040  0.0305
  385TMC3    C4 5754   4.536   3.408  11.890  0.7912 -0.2464  0.4115
  385TMC3    C5 5755   4.579   3.341  12.002  0.8702 -0.2891  0.4047
  385TMC3    C6 5756   4.611   3.206  12.003 -0.5007 -0.3836 -0.2907
  385TMC3     C 5757   4.373   3.374  11.725 -0.3586  0.1030  0.1706
  385TMC3     O 5758   4.347   3.355  11.607 -0.6585 -0.7198 -0.7278
  385TMC3     H 5759   4.458   3.155  11.703 -1.5643 -0.3700  2.6994
  385TMC3    H1 5760   4.525   3.516  11.886  1.1606 -0.2533 -0.7539
  385TMC3    H2 5761   4.622   3.160  12.100  1.0950  1.0679  0.2238
  385TMC3    C7 5762   4.517   3.397  12.121  0.3528 -0.5443  0.2235
  385TMC3    C8 5763   4.579   2.990  11.894  0.0656 -0.2715 -0.0259
  385TMC3    O1 5764   4.435   3.486  12.099 -0.0893 -0.4272  0.3773
  385TMC3    O2 5765   4.612   2.946  12.000  0.5857  0.0681 -0.4732
  386TMC3    C1 5766   4.657   1.138  12.329 -0.2455 -0.2037  0.0592
  386TMC3    C2 5767   4.653   1.102  12.197 -0.2220  0.6090 -0.6623
  386TMC3    C3 5768   4.540   1.149  12.134  0.0382  0.1694  0.0794
  386TMC3    C4 5769   4.578   1.224  12.390  0.7551  0.0116 -0.1220
  386TMC3    C5 5770   4.464   1.258  12.321  0.4857 -0.7841 -0.0288
  386TMC3    C6 5771   4.440   1.232  12.192  0.4206  0.3793  0.0958
  386TMC3     C 5772   0.024   1.072  12.419 -0.0251  0.4702 -1.1233
  386TMC3     O 5773   0.064   1.135  12.517 -0.2986 -0.4854 -0.0583
  386TMC3     H 5774   4.715   1.025  12.154  3.0761  2.0927  1.3948
  386TMC3    H1 5775   4.587   1.242  12.497  0.7572  0.9409 -0.2797
  386TMC3    H2 5776   4.348   1.262  12.143  0.5596  0.0447 -0.3677
  386TMC3    C7 5777   4.366   1.342  12.392 -0.0125  0.4561  0.2783
  386TMC3    C8 5778   4.514   1.132  11.991 -0.5671  0.0353  0.3781
  386TMC3    O1 5779   4.371   1.335  12.517 -0.8184 -0.2272  0.2546
  386TMC3    O2 5780   4.413   1.181  11.942  0.1014  0.3067  0.1341
  387MPD2     C 5781   2.432   1.332   9.755  0.2823 -0.8765 -0.2662
  387MPD2    C1 5782   2.522   1.275   9.846  0.9958 -0.0026  0.4470
  387MPD2    C2 5783   2.501   1.145   9.884 -0.3245  0.0992 -0.8924
  387MPD2    C3 5784   2.413   1.066   9.820  0.2982  0.2161  0.3441
  387MPD2    C4 5785   2.327   1.119   9.729 -0.3403  0.4389 -0.2603
  387MPD2    C5 5786   2.336   1.251   9.699  0.2209  0.0729  0.3178
  387MPD2     H 5787   2.589   1.110   9.937  0.4868  0.4578 -1.9936
  387MPD2    H1 5788   2.256   1.059   9.674  1.2120 -0.3551 -1.4080
  387MPD2    H2 5789   2.434   1.433   9.714 -0.9638 -1.1310 -0.9549
  387MPD2    H3 5790   2.275   1.292   9.619 -1.7282 -0.4959  1.5278
  387MPD2     N 5791   2.413   0.925   9.859 -0.7697 -0.6885  0.0564
  387MPD2    H5 5792   2.466   0.900   9.942  0.8715 -0.4226 -0.9131
  387MPD2    N1 5793   2.632   1.333   9.907 -0.0768 -0.1023  0.5567
  387MPD2    H7 5794   2.688   1.266   9.960 -0.4800  0.3288  1.5323
  388TMC3    C1 5795   2.835   1.442   9.880 -1.3592 -0.3992 -0.3147
  388TMC3    C2 5796   2.896   1.564   9.892 -0.5202  0.3928 -0.4666
  388TMC3    C3 5797   3.028   1.555   9.925  0.6464  0.0794  0.5254
  388TMC3    C4 5798   2.902   1.326   9.876 -0.2157 -0.1324 -0.4938
  388TMC3    C5 5799   3.038   1.323   9.900  0.5079  0.0153  0.3235
  388TMC3    C6 5800   3.103   1.436   9.931 -0.0264  0.2263  0.3966
  388TMC3     C 5801   2.692   1.449   9.877 -0.2689  0.1980  1.1194
  388TMC3     O 5802   2.643   1.547   9.820  0.3731 -0.6300 -0.1658
  388TMC3     H 5803   2.841   1.656   9.902 -0.0804  0.7278 -1.2195
  388TMC3    H1 5804   2.858   1.233   9.842  3.9765 -1.7966 -1.2415
  388TMC3    H2 5805   3.211   1.438   9.946  0.4209 -0.2614 -2.8228
  388TMC3    C7 5806   3.108   1.190   9.893 -0.1294  0.4180  0.2847
  388TMC3    C8 5807   3.102   1.681   9.936 -0.2855  0.6351 -0.4252
  388TMC3    O1 5808   3.221   1.178   9.845  0.1390 -0.3810 -0.0744
  388TMC3    O2 5809   3.222   1.677   9.908  0.0152 -0.1849  0.0088
  389MPD2     C 5810   1.595   4.046  11.225  0.0801 -0.9229 -0.4098
  389MPD2    C1 5811   1.466   4.004  11.195 -0.1509 -0.1773  0.2263
  389MPD2    C2 5812   1.381   3.947  11.290 -0.0091 -0.3615  0.3122
  389MPD2    C3 5813   1.427   3.934  11.420  1.3272  0.2415 -0.2883
  389MPD2    C4 5814   1.552   3.983  11.455  0.3054 -0.3862  0.5699
  389MPD2    C5 5815   1.635   4.026  11.356 -0.4626  0.6253  0.6296
  389MPD2     H 5816   1.275   3.931  11.273  0.3314 -0.5955 -1.5871
  389MPD2    H1 5817   1.606   3.968  11.548  0.6338  0.8658  0.5797
  389MPD2    H2 5818   1.665   4.070  11.145 -1.7936  2.3593 -1.0729
  389MPD2    H3 5819   1.737   4.053  11.378 -0.0298 -1.6640  1.4113
  389MPD2     N 5820   1.349   3.883  11.524  1.2063 -0.2810 -0.3458
  389MPD2    H5 5821   1.387   3.895  11.617  0.1719 -2.9478  0.3998
  389MPD2    N1 5822   1.425   4.040  11.065 -0.0632 -0.2332  0.7993
  389MPD2    H7 5823   1.483   4.106  11.014  1.2633 -0.3009  2.2134
  390TMC3    C1 5824   1.178   3.755  11.618 -0.5605 -0.2486 -0.2569
  390TMC3    C2 5825   1.104   3.647  11.609 -0.2170 -0.3577 -0.2356
  390TMC3    C3 5826   1.036   3.604  11.721 -0.1852 -0.2584  0.7513
  390TMC3    C4 5827   1.162   3.842  11.725  0.3379 -0.4848  0.0679
  390TMC3    C5 5828   1.069   3.812  11.824 -0.5514  0.6884 -0.5439
  390TMC3    C6 5829   1.021   3.684  11.832 -0.0416  0.3776  0.0306
  390TMC3     C 5830   1.241   3.796  11.497  0.8642  0.6422  0.2222
  390TMC3     O 5831   1.212   3.740  11.391  0.8337 -0.1849 -0.2526
  390TMC3     H 5832   1.095   3.592  11.515 -0.6252  0.6254 -0.7678
  390TMC3    H1 5833   1.214   3.937  11.733 -2.5290  0.9306  1.8695
  390TMC3    H2 5834   0.965   3.654  11.919  1.7351 -0.1242  0.9929
  390TMC3    C7 5835   0.960   3.913  11.805 -0.5719 -0.4472 -0.3168
  390TMC3    C8 5836   0.944   3.492  11.704 -0.4138 -0.0263 -0.2983
  390TMC3    O1 5837   0.983   4.026  11.759 -0.8120  0.0447  0.3054
  390TMC3    O2 5838   0.921   3.465  11.587  0.1463  0.4118  0.3957
  391MPD2     C 5839   0.709   0.572  11.362  0.0866  0.2849  0.6797
  391MPD2    C1 5840   0.793   0.680  11.334 -0.5916  0.3690 -0.0093
  391MPD2    C2 5841   0.823   0.725  11.202  0.2062 -0.0722  0.4142
  391MPD2    C3 5842   0.764   0.654  11.094  0.1411  0.2384 -0.1100
  391MPD2    C4 5843   0.676   0.546  11.118 -0.0772  0.5428  0.9963
  391MPD2    C5 5844   0.652   0.509  11.253 -0.1423 -0.1429 -0.1446
  391MPD2     H 5845   0.898   0.801  11.183 -0.4498  0.1115 -1.4579
  391MPD2    H1 5846   0.627   0.492  11.038 -0.0641 -0.2039  1.4918
  391MPD2    H2 5847   0.693   0.531  11.462  0.4217 -0.1234  0.5668
  391MPD2    H3 5848   0.589   0.424  11.276  1.5581 -1.1493  0.7742
  391MPD2     N 5849   0.787   0.705  10.963  0.8380  0.3607  0.3443
  391MPD2    H5 5850   0.865   0.769  10.955 -0.4274  1.7814 -0.6327
  391MPD2    N1 5851   0.847   0.741  11.452  0.3097  0.7974  0.2335
  391MPD2    H7 5852   0.808   0.694  11.533  0.5251  0.6360  0.2427
  392TMC3    C1 5853   0.790   0.744  10.743 -0.1660 -0.7850  0.2609
  392TMC3    C2 5854   0.718   0.743  10.624 -0.3066 -0.2489  0.1123
  392TMC3    C3 5855   0.772   0.817  10.515  0.6120  0.2992  0.5781
  392TMC3    C4 5856   0.890   0.838  10.767 -0.6368  0.7084 -0.5379
  392TMC3    C5 5857   0.942   0.908  10.662  0.3069  0.5661 -0.5244
  392TMC3    C6 5858   0.882   0.898  10.539 -0.3000  0.0518 -1.0345
  392TMC3     C 5859   0.738   0.658  10.847  0.1973 -0.2207 -0.2806
  392TMC3     O 5860   0.636   0.589  10.833 -0.0662  0.1363  0.1552
  392TMC3     H 5861   0.633   0.675  10.620  0.8476 -1.7375  0.8061
  392TMC3    H1 5862   0.948   0.835  10.859  1.4256 -2.0357 -1.9206
  392TMC3    H2 5863   0.913   0.958  10.454  0.6194 -1.6319 -1.8691
  392TMC3    C7 5864   1.049   1.008  10.677 -0.3765  0.3457 -0.3595
  392TMC3    C8 5865   0.694   0.817  10.395 -0.0944 -0.6603 -0.1046
  392TMC3    O1 5866   1.072   1.029  10.799 -0.0239 -0.4710  0.2067
  392TMC3    O2 5867   0.597   0.737  10.388  0.1866 -0.1867  0.0879
  393TMC3    C1 5868   3.815   3.084  10.522 -0.0133 -0.1312 -0.9853
  393TMC3    C2 5869   3.708   3.013  10.566 -0.1430 -0.1252  0.3364
  393TMC3    C3 5870   3.719   2.960  10.698 -0.2848 -0.6606 -0.3964
  393TMC3    C4 5871   3.932   3.097  10.590 -0.3590  0.1567 -0.5792
  393TMC3    C5 5872   3.937   3.042  10.718 -0.3930 -0.3992  0.4494
  393TMC3    C6 5873   3.837   2.961  10.767  0.2248 -0.2301 -0.3613
  393TMC3     C 5874   3.795   3.181  10.412 -0.0046  0.4782 -0.3749
  393TMC3     O 5875   3.741   3.139  10.314  0.0730 -0.3115 -0.6243
  393TMC3     H 5876   3.616   2.999  10.510  1.1927 -1.6349 -1.5138
  393TMC3    H1 5877   4.012   3.166  10.564 -0.5440  0.7706  0.4882
  393TMC3    H2 5878   3.848   2.909  10.861 -1.4071  0.9190  0.4513
  393TMC3    C7 5879   4.068   3.014  10.782  0.4489  0.0655  0.8915
  393TMC3    C8 5880   3.613   2.890  10.771  0.4032 -0.0991 -0.1134
  393TMC3    O1 5881   4.071   2.940  10.883 -0.6747  0.0725 -0.1254
  393TMC3    O2 5882   3.641   2.848  10.884 -0.4290  0.1819  0.3003
  394TMC3    C1 5883   1.245   4.074  10.901  0.0961 -0.1204  0.1444
  394TMC3    C2 5884   1.110   4.062  10.880  0.1170  0.1868  0.2954
  394TMC3    C3 5885   1.049   4.151  10.798  0.1105 -0.0146 -0.1319
  394TMC3    C4 5886   1.318   4.174  10.848 -0.4618  1.0264  0.0088
  394TMC3    C5 5887   1.249   4.266  10.775  0.3488 -0.2852  0.2977
  394TMC3    C6 5888   1.120   4.248  10.742  1.0295  0.0137  0.3225
  394TMC3     C 5889   1.302   3.991  11.012  0.2802  0.2378  0.4427
  394TMC3     O 5890   1.225   3.903  11.054  0.2860  0.3197 -0.2126
  394TMC3     H 5891   1.052   3.983  10.927  0.0135 -0.4012 -0.8210
  394TMC3    H1 5892   1.426   4.177  10.856 -0.3643  0.2151 -1.0901
  394TMC3    H2 5893   1.076   4.335  10.693  1.2381 -1.4491 -2.4597
  394TMC3    C7 5894   1.334   4.349  10.691 -0.2417  0.2543 -0.1512
  394TMC3    C8 5895   0.933   4.106  10.729  0.0971 -0.7987 -0.4329
  394TMC3    O1 5896   1.296   4.360  10.575  0.1161  0.8206  0.3650
  394TMC3    O2 5897   0.831   4.171  10.740 -0.0584  0.6520 -0.2022
  395TMC3    C1 5898   0.280   0.754  15.504 -0.0017  0.6130 -0.8058
  395TMC3    C2 5899   0.179   0.799  15.422  0.2665 -1.2218  0.1483
  395TMC3    C3 5900   0.189   0.772  15.285 -0.0351  0.2805 -0.3484
  395TMC3    C4 5901   0.401   0.721  15.449 -0.2158  0.5404  0.7470
  395TMC3    C5 5902   0.418   0.718  15.311  0.3322 -0.6707 -0.0848
  395TMC3    C6 5903   0.305   0.726  15.227 -0.1616 -0.1269 -0.2078
  395TMC3     C 5904   0.293   0.821  15.631  0.5375 -0.4754  0.0897
  395TMC3     O 5905   0.242   0.935  15.642  0.0917 -0.6207  0.4499
  395TMC3     H 5906   0.088   0.848  15.456 -0.3232 -2.5462  0.4825
  395TMC3    H1 5907   0.487   0.732  15.514  0.9327  1.6153 -0.9731
  395TMC3    H2 5908   0.325   0.749  15.123  2.2804  1.4541  0.6126
  395TMC3    C7 5909   0.518   0.806  15.279 -0.0801 -0.7042 -0.4312
  395TMC3    C8 5910   0.067   0.780  15.214  0.9921  0.3766 -0.8197
  395TMC3    O1 5911   0.561   0.883  15.366 -0.3641 -0.4524 -0.1081
  395TMC3    O2 5912   4.701   0.849  15.254 -0.2794  0.0969  0.0319
  396MPD2     C 5913   0.179   2.090  17.443  0.2679  0.0839  0.1286
  396MPD2    C1 5914   0.306   2.105  17.489 -0.1151 -0.5867  0.3943
  396MPD2    C2 5915   0.400   2.190  17.423 -0.2276 -0.5087 -0.2155
  396MPD2    C3 5916   0.360   2.264  17.319 -0.2208  0.9026 -0.4143
  396MPD2    C4 5917   0.230   2.254  17.273  0.0983 -0.1249  0.3470
  396MPD2    C5 5918   0.144   2.164  17.331 -0.6361  0.3060  0.2863
  396MPD2     H 5919   0.499   2.203  17.465 -0.4113 -0.4962  0.2104
  396MPD2    H1 5920   0.187   2.296  17.183  0.0090  0.4266  0.6465
  396MPD2    H2 5921   0.101   2.043  17.501  0.4903 -0.4657 -0.0128
  396MPD2    H3 5922   0.045   2.153  17.288 -1.0475  0.3495  1.2338
  396MPD2     N 5923   0.449   2.356  17.260  0.6374  0.0573  0.1785
  396MPD2    H5 5924   0.540   2.340  17.303  0.3690 -1.6939  0.0566
  396MPD2    N1 5925   0.336   2.032  17.603 -0.2284 -0.2105  0.2482
  396MPD2    H7 5926   0.273   1.953  17.612 -0.0905 -0.5372 -1.7554
  397TMC3    C1 5927   0.461   1.904   0.044  0.5104 -0.1764  1.0380
  397TMC3    C2 5928   0.552   1.844  17.657 -0.6911  0.3847  0.3967
  397TMC3    C3 5929   0.507   1.729  17.592 -0.2097  0.6178 -0.6107
  397TMC3    C4 5930   0.340   1.839   0.072  0.1821  0.6798 -0.3826
  397TMC3    C5 5931   0.304   1.719   0.014 -0.8050  0.8515 -0.7802
  397TMC3    C6 5932   0.387   1.665  17.620 -0.0747  0.4206 -0.2458
  397TMC3     C 5933   0.439   2.038  17.693 -0.2851 -1.1196  0.3269
  397TMC3     O 5934   0.533   2.118  17.690  0.1290 -0.0426 -0.8199
  397TMC3     H 5935   0.633   1.908  17.623 -1.3638  2.2981  2.3235
  397TMC3    H1 5936   0.267   1.887   0.137 -0.5078 -2.0783  0.8849
  397TMC3    H2 5937   0.351   1.586  17.555 -2.1527  0.9461  0.2829
  397TMC3    C7 5938   0.216   1.639   0.097  0.0357  0.3413 -0.3628
  397TMC3    C8 5939   0.547   1.730  17.451  0.6834  0.3778 -0.4938
  397TMC3    O1 5940   0.157   1.544   0.048 -0.2146  0.1638 -0.1829
  397TMC3    O2 5941   0.459   1.743  17.370  0.0057  0.4268 -0.6792
  398MPD2     C 5942   3.425   3.354   0.312  0.3463  0.5250  0.1805
  398MPD2    C1 5943   3.463   3.261   0.406 -0.4922 -0.7254 -0.2301
  398MPD2    C2 5944   3.475   3.303   0.536  0.3382 -0.4725 -0.4708
  398MPD2    C3 5945   3.458   3.433   0.578 -0.0813  0.2329 -0.3523
  398MPD2    C4 5946   3.436   3.521   0.479 -0.3981  0.2963  0.0223
  398MPD2    C5 5947   3.417   3.486   0.348  0.4078  0.3783  0.2692
  398MPD2     H 5948   3.494   3.227   0.611 -0.4839  0.8702  1.1205
  398MPD2    H1 5949   3.423   3.625   0.505  1.1219 -0.0137  1.9703
  398MPD2    H2 5950   3.409   3.332   0.207  5.0308  1.1517 -0.6521
  398MPD2    H3 5951   3.393   3.555   0.267  1.3771 -0.1098 -0.4450
  398MPD2     N 5952   3.476   3.482   0.713  0.3694  0.5333 -0.3123
  398MPD2    H5 5953   3.444   3.577   0.725 -0.3988  0.1397  0.8100
  398MPD2    N1 5954   3.490   3.127   0.371 -0.5463  0.1133  0.0857
  398MPD2    H7 5955   3.540   3.073   0.441  0.5521 -0.6337 -1.2726
  399TMC3    C1 5956   3.473   2.923   0.262 -0.4015 -0.2493  0.3938
  399TMC3    C2 5957   3.583   2.874   0.327 -0.3689  0.1210 -0.7006
  399TMC3    C3 5958   3.577   2.742   0.366 -0.0283  0.1151  0.7534
  399TMC3    C4 5959   3.377   2.840   0.214  0.0633  0.4048  0.7326
  399TMC3    C5 5960   3.379   2.712   0.253 -0.4478  0.8127  0.3827
  399TMC3    C6 5961   3.477   2.657   0.325 -0.6014  0.4283 -0.5007
  399TMC3     C 5962   3.441   3.064   0.263 -0.2460 -1.1018  0.5511
  399TMC3     O 5963   3.366   3.103   0.175 -0.4722  0.3136  0.0039
  399TMC3     H 5964   3.672   2.935   0.333  0.6542 -1.4381 -0.1289
  399TMC3    H1 5965   3.283   2.881   0.179  0.5019  1.5404  0.8686
  399TMC3    H2 5966   3.487   2.549   0.329 -0.2884  0.4687 -0.1804
  399TMC3    C7 5967   3.275   2.624   0.204  0.0171 -0.8315 -0.4851
  399TMC3    C8 5968   3.680   2.692   0.457  0.1352  0.4777 -0.3237
  399TMC3    O1 5969   3.262   2.517   0.255 -0.3548  0.5157 -0.3196
  399TMC3    O2 5970   3.763   2.773   0.489 -0.3072  0.3314 -0.2431
  400TMC3    C1 5971   1.947   1.610  17.100 -0.1219  0.0677 -0.5749
  400TMC3    C2 5972   1.853   1.525  17.060  0.2829 -0.2996 -0.5942
  400TMC3    C3 5973   1.772   1.568  16.957 -0.1667 -0.1289  1.1480
  400TMC3    C4 5974   1.959   1.739  17.055  0.9940  0.0938 -0.0336
  400TMC3    C5 5975   1.871   1.778  16.956  0.1203  1.0769  0.1756
  400TMC3    C6 5976   1.778   1.693  16.897 -0.0175  0.2390 -0.0024
  400TMC3     C 5977   2.045   1.558  17.199  0.7150 -0.1670  0.0179
  400TMC3     O 5978   1.998   1.461  17.258  0.8703 -0.0517 -0.1825
  400TMC3     H 5979   1.845   1.427  17.105  1.1719 -0.0013  0.2123
  400TMC3    H1 5980   2.033   1.809  17.093 -0.2560  2.2562 -1.6212
  400TMC3    H2 5981   1.713   1.707  16.811 -1.0218 -1.1163  0.5228
  400TMC3    C7 5982   1.871   1.907  16.900 -0.2456 -0.3410  0.3116
  400TMC3    C8 5983   1.644   1.506  16.939 -0.4115  0.0716 -0.2984
  400TMC3    O1 5984   1.794   1.927  16.803  0.1680  0.0630 -0.0137
  400TMC3    O2 5985   1.573   1.543  16.845 -0.0279 -0.4000  0.5155
  401MPD2     C 5986   0.156   0.726   1.434 -0.8561  0.6767  0.1719
  401MPD2    C1 5987   0.270   0.648   1.450  0.2281 -0.3455 -0.0275
  401MPD2    C2 5988   0.256   0.511   1.433  0.2452  0.2014  0.1510
  401MPD2    C3 5989   0.140   0.463   1.389  0.2312  0.4312  0.1679
  401MPD2    C4 5990   0.029   0.539   1.357  0.4884  0.2418 -0.1713
  401MPD2    C5 5991   0.037   0.671   1.391 -0.2919  0.4408  0.3425
  401MPD2     H 5992   0.339   0.442   1.423  0.3389  0.4267 -0.5949
  401MPD2    H1 5993   4.668   0.508   1.298 -0.8329  2.0204  0.7820
  401MPD2    H2 5994   0.155   0.832   1.452 -1.4363  1.2029 -2.9535
  401MPD2    H3 5995   4.674   0.729   1.362  0.0325  1.2025  0.9331
  401MPD2     N 5996   0.143   0.329   1.356 -0.2840  0.2879  0.6995
  401MPD2    H5 5997   0.228   0.275   1.367  1.8028  3.3679 -0.2671
  401MPD2    N1 5998   0.398   0.696   1.481  0.1077 -0.0416  0.1631
  401MPD2    H7 5999   0.469   0.626   1.495  1.2645  1.3888  1.4589
  402TMC3    C1 6000   0.085   0.127   1.262 -0.0329 -0.1449 -0.6676
  402TMC3    C2 6001   0.161   0.070   1.362 -0.0567  0.5957  0.7923
  402TMC3    C3 6002   0.253   4.696   1.325 -1.0544 -1.5162  0.4558
  402TMC3    C4 6003   0.086   0.087   1.135  0.5515 -0.2710  0.0823
  402TMC3    C5 6004   0.182   4.719   1.101  0.2456  0.7102  0.1219
  402TMC3    C6 6005   0.262   4.655   1.195 -0.0995  0.6956  0.0702
  402TMC3     C 6006   0.050   0.268   1.276 -0.2324 -0.2649  0.6316
  402TMC3     O 6007   4.687   0.313   1.201 -0.3602 -0.2879 -0.0191
  402TMC3     H 6008   0.151   0.109   1.463 -1.1473  2.3366  0.0177
  402TMC3    H1 6009   0.035   0.135   1.052  1.1204 -1.8846 -1.1946
  402TMC3    H2 6010   0.313   4.562   1.172 -0.4907  0.4393  0.2356
  402TMC3    C7 6011   0.190   4.686   0.960  0.6510  0.5167 -0.1774
  402TMC3    C8 6012   0.365   4.664   1.421 -0.1312 -0.6042 -0.0167
  402TMC3    O1 6013   0.112   0.017   0.886 -0.0511  0.6056  0.3453
  402TMC3    O2 6014   0.453   4.596   1.371 -0.5265  0.3126  0.0416
  403MPD2     C 6015   3.579   3.537  13.430 -0.9671  0.5555 -0.0444
  403MPD2    C1 6016   3.567   3.414  13.496 -0.5939  0.2588 -0.5917
  403MPD2    C2 6017   3.599   3.400  13.631 -0.1634  0.3427 -0.4793
  403MPD2    C3 6018   3.626   3.513  13.699 -0.2951 -0.6409 -0.5582
  403MPD2    C4 6019   3.649   3.636  13.634 -0.0679  0.0045 -0.0286
  403MPD2    C5 6020   3.623   3.647  13.499 -0.0358  0.1848 -0.4286
  403MPD2     H 6021   3.598   3.304  13.681 -2.0511  0.2964 -0.5767
  403MPD2    H1 6022   3.686   3.724  13.686  1.8126 -0.6851 -0.2050
  403MPD2    H2 6023   3.555   3.559  13.327  1.2715 -0.1786 -0.7039
  403MPD2    H3 6024   3.641   3.741  13.448 -0.9511  1.2318  1.1870
  403MPD2     N 6025   3.653   3.506  13.840  0.0872  0.4738 -0.3435
  403MPD2    H5 6026   3.679   3.411  13.865  0.3238  0.6097 -0.0713
  403MPD2    N1 6027   3.522   3.316  13.411 -0.3439  0.2355  0.0845
  403MPD2    H7 6028   3.501   3.349  13.317  2.1235  1.2018 -0.1507
  404TMC3    C1 6029   3.442   3.100  13.355  0.0967 -0.1418  0.5594
  404TMC3    C2 6030   3.365   3.003  13.402 -0.3063 -0.0602 -0.1323
  404TMC3    C3 6031   3.267   2.950  13.313 -0.2057  0.1245  0.1512
  404TMC3    C4 6032   3.446   3.137  13.225  0.7111 -0.1566 -0.3293
  404TMC3    C5 6033   3.368   3.065  13.141 -0.1650  0.1148  0.5068
  404TMC3    C6 6034   3.266   2.986  13.184  0.5563  0.2489 -0.0725
  404TMC3     C 6035   3.486   3.190  13.459  0.4600  0.1850  0.5322
  404TMC3     O 6036   3.466   3.160  13.575  0.1131  0.3225 -0.0563
  404TMC3     H 6037   3.370   2.964  13.503  1.3700 -0.6177 -0.4262
  404TMC3    H1 6038   3.533   3.192  13.192  0.3489  0.4537 -0.2578
  404TMC3    H2 6039   3.181   2.964  13.120 -1.3365  1.4454  2.0463
  404TMC3    C7 6040   3.347   3.129  13.010  0.1808 -0.7771 -0.1856
  404TMC3    C8 6041   3.171   2.854  13.370 -0.2540 -0.1459  0.1455
  404TMC3    O1 6042   3.398   3.240  13.020 -0.1064 -0.1140 -0.7811
  404TMC3    O2 6043   3.111   2.785  13.289 -0.0995 -0.3253 -0.0656
  405MPD2     C 6044   3.561   4.137  15.216 -0.1223 -0.7202  1.0698
  405MPD2    C1 6045   3.558   4.003  15.177  0.1719 -0.6157 -0.6720
  405MPD2    C2 6046   3.437   3.955  15.120  0.2455 -0.2016 -0.5532
  405MPD2    C3 6047   3.330   4.036  15.109  0.3979 -0.0338 -0.0738
  405MPD2    C4 6048   3.336   4.171  15.159 -0.6443 -0.9089  0.2956
  405MPD2    C5 6049   3.453   4.214  15.223 -0.1987 -0.1424  0.2440
  405MPD2     H 6050   3.426   3.850  15.097 -0.3327  0.4082 -3.0732
  405MPD2    H1 6051   3.248   4.232  15.173  0.3123  0.8692 -1.4490
  405MPD2    H2 6052   3.651   4.177  15.261  1.3876 -1.0712 -1.6478
  405MPD2    H3 6053   3.456   4.312  15.269 -4.3615 -0.3010  0.9066
  405MPD2     N 6054   3.217   3.990  15.047 -0.1609 -0.2032  0.1158
  405MPD2    H5 6055   3.231   3.894  15.017 -0.3287 -0.2502  0.1884
  405MPD2    N1 6056   3.673   3.923  15.186 -0.3068 -0.1425  0.2387
  405MPD2    H7 6057   3.761   3.970  15.203 -0.2854 -0.7367  1.8372
  406TMC3    C1 6058   2.860   3.943  14.769 -0.1921  0.5902 -0.2510
  406TMC3    C2 6059   2.936   3.856  14.687 -0.8454 -0.3329  0.0234
  406TMC3    C3 6060   3.062   3.826  14.721  0.7442  0.0036 -0.3411
  406TMC3    C4 6061   2.912   4.001  14.883  0.7266 -0.4562  0.7398
  406TMC3    C5 6062   3.048   3.979  14.902 -0.2547  0.3627  0.3360
  406TMC3    C6 6063   3.123   3.892  14.826 -0.1770  0.2872 -0.5540
  406TMC3     C 6064   2.722   3.973  14.733  0.0985  0.3180 -0.2444
  406TMC3     O 6065   2.696   3.960  14.614  0.1827  0.3287  0.2285
  406TMC3     H 6066   2.889   3.808  14.602 -0.2093  3.2931 -2.3631
  406TMC3    H1 6067   2.861   4.069  14.950  3.1781  2.0760  0.0146
  406TMC3    H2 6068   3.230   3.909  14.829 -0.3992  0.9198  2.7239
  406TMC3    C7 6069   3.112   4.062  14.999  0.0527  0.1282  0.7988
  406TMC3    C8 6070   3.150   3.765  14.624  0.0364  0.2005 -0.1522
  406TMC3    O1 6071   3.060   4.168  15.028 -0.0756  0.5106 -0.4708
  406TMC3    O2 6072   3.111   3.774  14.507 -0.4551 -0.5320  0.0425
  407MPD2     C 6073   1.822   0.612   9.676 -0.0851 -0.7720 -0.0208
  407MPD2    C1 6074   1.928   0.694   9.642 -0.5781 -0.2365 -0.1684
  407MPD2    C2 6075   1.943   0.827   9.670 -0.6068 -0.0350 -0.0323
  407MPD2    C3 6076   1.845   0.892   9.747  0.8482 -0.5282  0.2971
  407MPD2    C4 6077   1.733   0.812   9.777 -0.5635 -0.9018 -0.3204
  407MPD2    C5 6078   1.716   0.681   9.740 -0.3593 -0.6643  0.0160
  407MPD2     H 6079   2.026   0.887   9.636 -0.8815  0.6877  0.5558
  407MPD2    H1 6080   1.648   0.850   9.833 -0.8759 -0.0887 -1.3217
  407MPD2    H2 6081   1.824   0.504   9.675  1.8813 -0.7282 -1.2047
  407MPD2    H3 6082   1.633   0.615   9.760 -0.6298  0.0533  1.2515
  407MPD2     N 6083   1.872   1.017   9.807 -0.1257  1.0160  0.0002
  407MPD2    H5 6084   1.800   1.050   9.871 -1.5148  1.2214 -1.6482
  407MPD2    N1 6085   2.044   0.637   9.580  0.0262 -0.5877 -0.0970
  407MPD2    H7 6086   2.121   0.702   9.565  1.4294 -2.0690  0.7055
  408TMC3    C1 6087   2.210   0.485   9.504  0.0599 -0.1021  0.2623
  408TMC3    C2 6088   2.258   0.363   9.541  0.3407  0.3675  0.4161
  408TMC3    C3 6089   2.398   0.340   9.534  0.3195 -0.4480  0.9369
  408TMC3    C4 6090   2.289   0.586   9.461 -0.5013  0.4960 -0.6450
  408TMC3    C5 6091   2.424   0.576   9.488  0.3008 -0.4358  0.6243
  408TMC3    C6 6092   2.485   0.452   9.522 -0.5574  0.9511  0.3785
  408TMC3     C 6093   2.061   0.509   9.534 -0.8375 -0.3216  0.1077
  408TMC3     O 6094   1.987   0.409   9.525  0.0434  0.3775  0.1697
  408TMC3     H 6095   2.200   0.287   9.592  0.1120  0.9158  0.9699
  408TMC3    H1 6096   2.248   0.683   9.437 -0.7788  0.0697 -1.8728
  408TMC3    H2 6097   2.593   0.455   9.530 -0.5676 -0.8771  1.0199
  408TMC3    C7 6098   2.502   0.704   9.496  0.1726  0.1959  0.1775
  408TMC3    C8 6099   2.446   0.221   9.601  0.3955 -1.1817  0.5295
  408TMC3    O1 6100   2.432   0.792   9.445  0.0381 -0.1775  0.4726
  408TMC3    O2 6101   2.366   0.132   9.618 -0.0940 -0.5619  0.2045
  409MPD2     C 6102   0.788   1.205  17.224  0.1683 -0.1361  0.2037
  409MPD2    C1 6103   0.867   1.249  17.327  0.2427  0.3177  0.6008
  409MPD2    C2 6104   0.939   1.369  17.315  0.5308  0.5893  0.2552
  409MPD2    C3 6105   0.943   1.431  17.189 -0.1825  0.0952 -0.1060
  409MPD2    C4 6106   0.868   1.376  17.089 -0.1529  0.1625 -0.5895
  409MPD2    C5 6107   0.788   1.270  17.109 -0.2169 -0.5754  0.3141
  409MPD2     H 6108   1.005   1.399  17.395  0.6016  0.1443  0.3669
  409MPD2    H1 6109   0.856   1.418  16.990  0.6002  1.8313  0.0325
  409MPD2    H2 6110   0.734   1.111  17.216 -0.7298  0.4793 -0.8520
  409MPD2    H3 6111   0.730   1.232  17.026 -2.3805  1.4039  0.9499
  409MPD2     N 6112   1.034   1.539  17.156 -0.0541  0.3963  0.3404
  409MPD2    H5 6113   1.023   1.580  17.063  2.0323  0.9592  0.3460
  409MPD2    N1 6114   0.885   1.171  17.448  0.1839  0.3043 -0.2030
  409MPD2    H7 6115   0.940   1.212  17.522 -0.5764 -0.4361  0.7817
  410TMC3    C1 6116   1.228   1.682  17.152  0.1163  0.8317 -0.4026
  410TMC3    C2 6117   1.341   1.731  17.218 -0.4155  1.1745  0.4700
  410TMC3    C3 6118   1.429   1.804  17.144 -0.2753 -0.2593  0.2546
  410TMC3    C4 6119   1.201   1.708  17.019  0.1449 -0.4972 -0.2226
  410TMC3    C5 6120   1.293   1.789  16.959 -0.6642  0.1815  0.0484
  410TMC3    C6 6121   1.404   1.845  17.015 -0.0819  0.1648 -0.3896
  410TMC3     C 6122   1.144   1.591  17.229  0.6640 -0.5690  0.6692
  410TMC3     O 6123   1.177   1.561  17.339 -0.3888  0.2043  0.2036
  410TMC3     H 6124   1.358   1.702  17.321  1.3884 -0.7175 -0.3516
  410TMC3    H1 6125   1.116   1.671  16.962 -1.0757 -0.2025  1.3975
  410TMC3    H2 6126   1.492   1.868  16.957 -0.7400 -1.3413 -1.9733
  410TMC3    C7 6127   1.285   1.801  16.815  0.4557  0.2229  0.0206
  410TMC3    C8 6128   1.573   1.800  17.185 -1.0446  0.6786  0.3447
  410TMC3    O1 6129   1.219   1.714  16.755 -0.7639 -0.0624 -1.1025
  410TMC3    O2 6130   1.649   1.884  17.131 -0.0136 -0.7678 -0.5780
  411MPD2     C 6131   1.031   1.513  14.678  0.4942  0.4657  0.0748
  411MPD2    C1 6132   0.951   1.581  14.585  0.6339  0.1686  0.3644
  411MPD2    C2 6133   0.872   1.505  14.494  0.0831  0.2030  0.5838
  411MPD2    C3 6134   0.891   1.366  14.493 -0.1805 -0.1266  0.3257
  411MPD2    C4 6135   0.957   1.302  14.593  0.0532  0.5292  0.3804
  411MPD2    C5 6136   1.027   1.378  14.684  0.2013  0.4696  0.4656
  411MPD2     H 6137   0.813   1.548  14.414  0.3774 -0.3452  0.0717
  411MPD2    H1 6138   0.971   1.195  14.599 -2.3346  0.0603 -2.7811
  411MPD2    H2 6139   1.093   1.563  14.752  1.2654  0.6919 -0.7286
  411MPD2    H3 6140   1.077   1.330  14.767 -0.6137 -2.1607 -0.5764
  411MPD2     N 6141   0.825   1.284  14.400 -0.0860 -0.5976 -0.5910
  411MPD2    H5 6142   0.855   1.187  14.395  2.2163 -0.0026  1.5246
  411MPD2    N1 6143   0.954   1.726  14.583  0.9826  0.3696 -0.2297
  411MPD2    H7 6144   1.013   1.768  14.654 -1.4484  2.5905  0.4704
  412TMC3    C1 6145   0.731   1.213  14.207 -0.0029 -0.2563 -0.0274
  412TMC3    C2 6146   0.639   1.228  14.109 -0.2878  0.0353 -0.1368
  412TMC3    C3 6147   0.651   1.144  14.003 -0.1846  0.5405  0.4739
  412TMC3    C4 6148   0.855   1.151  14.189 -0.7681 -0.0354 -0.0975
  412TMC3    C5 6149   0.866   1.079  14.072 -0.2414  0.2134  0.4631
  412TMC3    C6 6150   0.756   1.061  13.991  0.3711  0.7513 -0.1878
  412TMC3     C 6151   0.732   1.318  14.302 -0.7133 -0.3442  0.2932
  412TMC3     O 6152   0.665   1.417  14.278  0.9491 -0.3854  0.4269
  412TMC3     H 6153   0.550   1.290  14.107  1.2697  2.3345  1.8462
  412TMC3    H1 6154   0.942   1.188  14.242 -1.3160 -1.5890  1.8919
  412TMC3    H2 6155   0.760   0.999  13.902 -0.9325 -0.7096  0.7797
  412TMC3    C7 6156   0.990   1.089  13.999  0.1629  0.0313  0.6217
  412TMC3    C8 6157   0.606   1.212  13.882 -0.9433 -0.0183  0.2107
  412TMC3    O1 6158   0.966   1.071  13.879 -0.1727  1.0266 -0.1324
  412TMC3    O2 6159   0.490   1.254  13.880  0.2431  0.1642 -0.4327
  413MPD2     C 6160   2.485   0.468  15.428  0.1937 -0.5825  0.1750
  413MPD2    C1 6161   2.438   0.391  15.328  0.2981  0.2180  1.0720
  413MPD2    C2 6162   2.514   0.286  15.278  0.0918  0.0726  0.8481
  413MPD2    C3 6163   2.639   0.261  15.337 -0.5467  0.0953 -0.0416
  413MPD2    C4 6164   2.685   0.343  15.437  0.0042  0.0481 -0.8669
  413MPD2    C5 6165   2.607   0.446  15.486  0.6317 -0.2113  0.1186
  413MPD2     H 6166   2.498   0.216  15.197 -3.3965  4.0909 -1.9314
  413MPD2    H1 6167   2.784   0.330  15.478 -0.3039  3.0691  0.8716
  413MPD2    H2 6168   2.431   0.554  15.466  0.1336 -1.2894  1.6750
  413MPD2    H3 6169   2.642   0.504  15.570 -3.7937  1.8284  0.5291
  413MPD2     N 6170   2.707   0.146  15.293  0.7784 -0.4434 -0.7445
  413MPD2    H5 6171   2.675   0.103  15.207  1.1803  0.5143 -1.3760
  413MPD2    N1 6172   2.306   0.427  15.280 -0.1314 -0.2888  0.3122
  413MPD2    H7 6173   2.258   0.492  15.342 -0.3886  0.7073 -0.9306
  414TMC3    C1 6174   2.853   4.679  15.319 -0.8256 -0.4364  0.6236
  414TMC3    C2 6175   2.903   4.592  15.415  0.0942  0.0246  0.3869
  414TMC3    C3 6176   2.969   4.492  15.372  0.2959 -0.2472  0.0617
  414TMC3    C4 6177   2.879   4.666  15.184  0.0749 -0.5782 -0.4812
  414TMC3    C5 6178   2.957   4.560  15.147 -0.2072 -1.5794 -0.1615
  414TMC3    C6 6179   3.001   4.468  15.240 -0.2400  0.8315 -0.0329
  414TMC3     C 6180   2.791   0.077  15.374  0.0691 -0.2867 -0.3673
  414TMC3     O 6181   2.819   0.096  15.489  0.1006 -0.5652  0.1076
  414TMC3     H 6182   2.872   4.588  15.519 -0.5672 -0.1339  0.1847
  414TMC3    H1 6183   2.852   0.013  15.107 -1.1439  0.3151  0.7822
  414TMC3    H2 6184   3.047   4.375  15.208 -0.2521 -0.0676  2.6086
  414TMC3    C7 6185   3.028   4.564  15.022 -0.3991 -0.2425 -0.1417
  414TMC3    C8 6186   3.039   4.414  15.468  0.5971 -0.6677 -0.4371
  414TMC3    O1 6187   2.981   4.624  14.925 -0.0868 -0.1214 -0.5058
  414TMC3    O2 6188   3.045   4.299  15.439 -0.5717  0.0122  0.2747
  415TMC3    C1 6189   3.889   2.949   9.664  0.1979  0.3633 -0.4581
  415TMC3    C2 6190   3.860   3.051   9.583 -0.4220  0.0664  0.2599
  415TMC3    C3 6191   3.815   3.009   9.461 -0.1512 -0.0573 -0.3394
  415TMC3    C4 6192   3.881   2.816   9.628 -0.6474 -0.4781 -0.5927
  415TMC3    C5 6193   3.850   2.782   9.505 -0.1296  0.0428 -0.0992
  415TMC3    C6 6194   3.810   2.881   9.420 -0.3234 -0.5909  0.6936
  415TMC3     C 6195   3.927   2.980   9.799 -0.3548 -0.1976  0.0856
  415TMC3     O 6196   3.889   2.891   9.883  0.3764 -0.7333 -0.1437
  415TMC3     H 6197   3.857   3.150   9.626 -2.7482  0.2022 -0.2136
  415TMC3    H1 6198   3.914   2.742   9.700  1.6623  0.1980 -0.9839
  415TMC3    H2 6199   3.779   2.866   9.317  1.5464  1.1194 -0.1376
  415TMC3    C7 6200   3.894   2.655   9.449 -0.0372  0.3018  1.1445
  415TMC3    C8 6201   3.783   3.118   9.365  0.0634  0.1387 -0.1819
  415TMC3    O1 6202   3.877   2.643   9.328 -0.0771  0.3024 -0.4315
  415TMC3    O2 6203   3.702   3.090   9.279  0.6368 -0.1451  0.0614
  416MPD2     C 6204   0.761   2.059  11.818 -0.4265 -0.0956  0.6967
  416MPD2    C1 6205   0.658   2.053  11.719  0.1814 -0.4027  0.5248
  416MPD2    C2 6206   0.662   1.972  11.608 -0.0032 -0.1225 -0.2357
  416MPD2    C3 6207   0.767   1.877  11.597 -0.2883  0.1454  0.0975
  416MPD2    C4 6208   0.870   1.881  11.693  0.5743 -0.5536  0.3288
  416MPD2    C5 6209   0.870   1.975  11.796  0.3707  0.0396  0.2873
  416MPD2     H 6210   0.573   1.977  11.546 -0.6644 -2.5143  0.5319
  416MPD2    H1 6211   0.947   1.805  11.699  0.5981 -0.6004 -0.6287
  416MPD2    H2 6212   0.756   2.123  11.905  1.3341  0.0526  0.6798
  416MPD2    H3 6213   0.955   1.964  11.861  1.9033 -2.2901 -2.0877
  416MPD2     N 6214   0.758   1.766  11.508  0.0259 -1.2657  0.6517
  416MPD2    H5 6215   0.841   1.708  11.501  1.1956  0.2913  1.7391
  416MPD2    N1 6216   0.543   2.118  11.760 -0.8126  0.0426 -0.2789
  416MPD2    H7 6217   0.555   2.187  11.834 -2.0661  1.0929 -1.0568
  417TMC3    C1 6218   0.315   2.136  11.812  0.1916  0.2813 -0.4824
  417TMC3    C2 6219   0.350   2.199  11.926  0.0496  0.3644  0.0588
  417TMC3    C3 6220   0.257   2.293  11.975 -0.0073 -0.4364 -0.4950
  417TMC3    C4 6221   0.198   2.151  11.748 -0.0436 -0.4805  0.2413
  417TMC3    C5 6222   0.110   2.246  11.794 -0.4690  0.6933  0.4513
  417TMC3    C6 6223   0.137   2.313  11.910 -0.2750  0.0987 -0.1688
  417TMC3     C 6224   0.412   2.070  11.728  0.3156 -0.2533  0.4027
  417TMC3     O 6225   0.376   1.981  11.656 -0.0285  0.0668  0.2071
  417TMC3     H 6226   0.445   2.179  11.975 -0.7616 -0.1033  1.4413
  417TMC3    H1 6227   0.181   2.100  11.654 -0.3891  1.4456 -0.7487
  417TMC3    H2 6228   0.062   2.380  11.952 -1.5405 -0.6350 -1.2475
  417TMC3    C7 6229   0.065   2.330  11.685  0.4593 -0.0893  0.6402
  417TMC3    C8 6230   0.266   2.316  12.119 -0.2953 -0.1571 -0.3008
  417TMC3    O1 6231   0.099   2.443  11.693 -0.0977  0.6968 -0.1579
  417TMC3    O2 6232   0.198   2.411  12.159 -0.3882 -0.1647 -0.4502
  418TMC3    C1 6233   3.706   3.647   0.994  0.2848  0.0597 -0.1316
  418TMC3    C2 6234   3.604   3.600   0.914  0.3917  0.5151 -0.3547
  418TMC3    C3 6235   3.565   3.477   0.934  0.2242  0.4097 -0.0124
  418TMC3    C4 6236   3.774   3.578   1.093 -0.2299 -0.3216 -0.6907
  418TMC3    C5 6237   3.726   3.452   1.106 -0.3550 -0.5082  0.0480
  418TMC3    C6 6238   3.619   3.398   1.037 -0.7337  0.2664  0.1784
  418TMC3     C 6239   3.782   3.752   0.931  0.6858 -0.0971  0.7072
  418TMC3     O 6240   3.729   3.864   0.920 -0.4970  0.2578  1.1470
  418TMC3     H 6241   3.580   3.660   0.827  0.2034  4.2268  2.2823
  418TMC3    H1 6242   3.864   3.623   1.133  0.5143 -1.7445 -0.7429
  418TMC3    H2 6243   3.574   3.305   1.069 -2.3017  0.8559 -0.3088
  418TMC3    C7 6244   3.803   3.354   1.179  0.6461 -0.5867 -0.4674
  418TMC3    C8 6245   3.527   3.404   0.817 -0.1151  0.6417  0.3640
  418TMC3    O1 6246   3.767   3.239   1.152  0.1643  0.5444 -0.7638
  418TMC3    O2 6247   3.558   3.287   0.818 -0.3337 -0.4678  0.2003
  419MPD2     C 6248   2.786   1.507  12.182 -0.3251 -0.0742  0.6503
  419MPD2    C1 6249   2.721   1.629  12.163  0.0097 -0.4366  0.5638
  419MPD2    C2 6250   2.672   1.687  12.280 -0.2883 -0.6719  0.1598
  419MPD2    C3 6251   2.680   1.627  12.402 -0.8727 -0.2523 -0.3638
  419MPD2    C4 6252   2.740   1.507  12.418  0.3238  0.3307  0.1205
  419MPD2    C5 6253   2.790   1.447  12.304  0.3314 -0.0125  0.0939
  419MPD2     H 6254   2.631   1.787  12.272 -0.9208 -1.0516 -1.3248
  419MPD2    H1 6255   2.764   1.464  12.515  1.8499 -0.6862 -0.7026
  419MPD2    H2 6256   2.836   1.449  12.106 -0.2001  0.9838 -0.0682
  419MPD2    H3 6257   2.845   1.353  12.309  0.8300  0.2685 -0.0895
  419MPD2     N 6258   2.605   1.695  12.503 -0.3712  0.3255  0.4005
  419MPD2    H5 6259   2.537   1.764  12.474 -0.1498  0.0800 -0.6993
  419MPD2    N1 6260   2.698   1.703  12.044 -0.5280 -0.2823  0.5332
  419MPD2    H7 6261   2.658   1.796  12.053 -2.0369 -0.8199 -0.5875
  420TMC3    C1 6262   2.508   1.739  12.714  0.8114 -0.2649 -0.9080
  420TMC3    C2 6263   2.387   1.761  12.651 -0.7626 -0.1705  0.6185
  420TMC3    C3 6264   2.286   1.816  12.724 -0.3889 -0.1438  0.4848
  420TMC3    C4 6265   2.516   1.739  12.852 -0.6141 -0.2089 -0.4221
  420TMC3    C5 6266   2.401   1.778  12.919 -0.2267 -0.2581  0.4004
  420TMC3    C6 6267   2.289   1.821  12.861 -0.2998  0.0323  0.0022
  420TMC3     C 6268   2.619   1.676  12.639 -0.1969 -0.8215  0.2059
  420TMC3     O 6269   2.701   1.608  12.701 -0.0246 -0.4288  0.1329
  420TMC3     H 6270   2.369   1.748  12.545 -0.3329  1.7696  0.3041
  420TMC3    H1 6271   2.604   1.703  12.905 -2.0768 -3.0866  0.0509
  420TMC3    H2 6272   2.211   1.861  12.924  0.6384  0.4984  0.8538
  420TMC3    C7 6273   2.385   1.716  13.050 -0.2149 -0.3869  0.0382
  420TMC3    C8 6274   2.184   1.882  12.652 -0.3674  0.5343 -0.2508
  420TMC3    O1 6275   2.488   1.709  13.115 -0.6688  0.4288  0.3678
  420TMC3    O2 6276   2.210   1.930  12.541 -0.0990  0.4086  0.7783
  421TMC3    C1 6277   3.716   3.585  14.060 -0.4032 -0.1564 -0.0288
  421TMC3    C2 6278   3.744   3.706  14.126 -0.0362  0.4246  0.0131
  421TMC3    C3 6279   3.856   3.704  14.204 -0.1588  0.1654 -0.1019
  421TMC3    C4 6280   3.796   3.472  14.077 -1.0334 -0.4712  0.2137
  421TMC3    C5 6281   3.894   3.472  14.174 -0.4118 -0.5749  0.5095
  421TMC3    C6 6282   3.939   3.597  14.219  0.0585  1.1569 -0.1533
  421TMC3     C 6283   3.646   3.608  13.933 -0.5497  0.1033  0.6887
  421TMC3     O 6284   3.592   3.715  13.917  0.2106 -0.0406 -0.3012
  421TMC3     H 6285   3.692   3.798  14.101  0.9327  0.8863 -0.2974
  421TMC3    H1 6286   3.759   3.374  14.050  1.0885 -1.0127 -0.6895
  421TMC3    H2 6287   4.024   3.607  14.286 -0.8406 -2.4249  1.5567
  421TMC3    C7 6288   3.974   3.350  14.197  0.0576  0.2941  0.0924
  421TMC3    C8 6289   3.908   3.844  14.231 -0.3409  0.9664 -0.3839
  421TMC3    O1 6290   4.089   3.369  14.233  0.0157  0.0386 -0.2064
  421TMC3    O2 6291   3.829   3.930  14.259  0.1137 -0.0102  0.1068
  422TMC3    C1 6292   1.736   4.546  12.931 -0.2727 -0.3133  0.2248
  422TMC3    C2 6293   1.705   4.668  12.992  0.4137  0.6489  0.7325
  422TMC3    C3 6294   1.573   4.684  13.025 -0.2865 -0.4477  0.0835
  422TMC3    C4 6295   1.641   4.446  12.915  0.6287  0.8298  0.1993
  422TMC3    C5 6296   1.506   4.475  12.941 -0.9606 -0.5324  0.4251
  422TMC3    C6 6297   1.472   4.589  13.012 -0.0872  0.0552 -0.1255
  422TMC3     C 6298   1.854   4.553  12.838  0.7607 -0.4699  0.3699
  422TMC3     O 6299   1.882   4.657  12.784 -0.6629  0.2970 -0.1118
  422TMC3     H 6300   1.781   0.021  12.993 -0.0312  1.1033 -0.5095
  422TMC3    H1 6301   1.671   4.360  12.856 -0.9223 -0.1397  0.8270
  422TMC3    H2 6302   1.366   4.609  13.022 -0.5010 -1.1610 -1.9286
  422TMC3    C7 6303   1.403   4.410  12.856 -0.1555 -0.5909 -0.5297
  422TMC3    C8 6304   1.549   0.091  13.079  0.1635  0.2900  0.4851
  422TMC3    O1 6305   1.437   4.376  12.744  0.2886  0.1761 -0.5446
  422TMC3    O2 6306   1.624   0.184  13.056 -0.1396 -0.9002 -0.0654
  423MPD2     C 6307   2.957   1.255   0.731 -0.6722 -0.4730 -0.1492
  423MPD2    C1 6308   2.976   1.122   0.747  0.0358  0.7035 -0.4010
  423MPD2    C2 6309   2.961   1.031   0.637 -0.0114  0.9312 -0.6925
  423MPD2    C3 6310   2.936   1.084   0.511 -0.3377 -0.1329 -0.2041
  423MPD2    C4 6311   2.921   1.218   0.495 -0.0838 -0.4646  0.0357
  423MPD2    C5 6312   2.916   1.296   0.604 -0.0248 -0.6547 -0.0933
  423MPD2     H 6313   2.976   0.925   0.653 -0.6635  1.0591  0.8378
  423MPD2    H1 6314   2.888   1.261   0.402  0.9124  1.5260  0.5940
  423MPD2    H2 6315   2.967   1.325   0.813  1.1617  0.0321 -0.8196
  423MPD2    H3 6316   2.882   1.398   0.586  0.8132 -0.5708 -1.2048
  423MPD2     N 6317   2.919   1.012   0.397 -0.2783  0.1843  1.1064
  423MPD2    H5 6318   2.921   1.070   0.313 -0.3577 -0.9263  0.3499
  423MPD2    N1 6319   3.028   1.075   0.867 -0.1195  0.3027 -0.2820
  423MPD2    H7 6320   3.053   0.977   0.862 -1.1671 -0.0347  1.1314
  424TMC3    C1 6321   3.095   1.060   1.092  0.6013  0.0845  0.5500
  424TMC3    C2 6322   3.207   0.994   1.065 -0.5356 -0.4048 -0.2263
  424TMC3    C3 6323   3.306   0.982   1.165 -0.6584  0.5430 -0.0010
  424TMC3    C4 6324   3.074   1.116   1.218 -0.7343 -0.5001 -0.6061
  424TMC3    C5 6325   3.173   1.107   1.309 -0.6093 -0.5138 -0.2279
  424TMC3    C6 6326   3.285   1.036   1.288  0.1409 -0.1676  0.0121
  424TMC3     C 6327   3.031   1.140   0.991 -0.0502  0.3980  0.1756
  424TMC3     O 6328   3.000   1.253   1.027 -0.0671  0.4499  0.3644
  424TMC3     H 6329   3.230   0.956   0.966  1.9980  0.0443  0.1868
  424TMC3    H1 6330   2.982   1.171   1.230 -0.4353 -0.2388  0.4449
  424TMC3    H2 6331   3.360   1.037   1.366  0.4002  0.1616 -0.2442
  424TMC3    C7 6332   3.158   1.181   1.435  0.2136  0.0992  1.1019
  424TMC3    C8 6333   3.404   0.871   1.153  0.2483 -0.2585  0.4027
  424TMC3    O1 6334   3.070   1.264   1.439 -0.5788  0.1282 -0.8194
  424TMC3    O2 6335   3.373   0.793   1.063 -0.2839  0.1469 -0.3515
  425MPD2     C 6336   1.366   0.161  17.063 -0.4168  0.4417  0.4792
  425MPD2    C1 6337   1.381   0.083  17.175  0.2062 -0.7448 -0.1947
  425MPD2    C2 6338   1.313   0.124  17.285  0.1267  0.4169 -0.3832
  425MPD2    C3 6339   1.216   0.223  17.285 -0.0543 -0.2843  0.2672
  425MPD2    C4 6340   1.213   0.306  17.172  0.1127 -0.6921 -0.3400
  425MPD2    C5 6341   1.284   0.269  17.060  0.5767  0.0302 -0.2733
  425MPD2     H 6342   1.340   0.079  17.380 -0.0349  0.2013 -0.4386
  425MPD2    H1 6343   1.148   0.392  17.159  1.2871  0.1297 -0.7670
  425MPD2    H2 6344   1.425   0.143  16.973 -1.3605  1.1199 -0.2742
  425MPD2    H3 6345   1.290   0.339  16.978  0.7628  0.0962 -0.2033
  425MPD2     N 6346   1.129   0.239  17.398  0.2657 -0.6326 -0.2145
  425MPD2    H5 6347   1.138   0.180  17.480 -0.0123 -3.0110 -1.9047
  425MPD2    N1 6348   1.476   4.702  17.179 -0.4583 -0.4767 -0.2650
  425MPD2    H7 6349   1.542   4.690  17.104 -1.5862 -0.7453 -1.2187
  426TMC3    C1 6350   1.593   4.508  17.271 -0.2285 -0.0004 -0.7110
  426TMC3    C2 6351   1.613   4.458  17.143  0.0475  0.5885  0.0126
  426TMC3    C3 6352   1.681   4.341  17.131  0.0963  0.0502  0.2285
  426TMC3    C4 6353   1.617   4.424  17.378 -0.1268 -0.4710  0.4563
  426TMC3    C5 6354   1.674   4.305  17.362  0.0535  0.2674 -0.3082
  426TMC3    C6 6355   1.710   4.259  17.233  0.1956 -0.1703 -0.1197
  426TMC3     C 6356   1.496   4.612  17.285 -0.0015 -0.2515 -0.3959
  426TMC3     O 6357   1.429   4.608  17.385  0.4541  0.0201  0.2694
  426TMC3     H 6358   1.573   4.504  17.054 -3.7947 -0.3691  1.2625
  426TMC3    H1 6359   1.582   4.451  17.477  1.6332  0.0824  0.9347
  426TMC3    H2 6360   1.743   4.157  17.216 -4.7028 -1.8258  0.2928
  426TMC3    C7 6361   1.644   4.219  17.466  0.2627  0.8134 -0.1824
  426TMC3    C8 6362   1.709   4.297  16.992  0.7320  0.0551 -0.8963
  426TMC3    O1 6363   1.597   4.113  17.445 -0.1551 -0.0850  0.5790
  426TMC3    O2 6364   1.747   4.182  16.986 -0.0695 -0.0584 -0.1160
  427MPD2     C 6365   0.058   2.255  15.135  0.6102  0.6324  0.1027
  427MPD2    C1 6366   0.058   2.228  15.272  0.0785  0.3222 -0.1976
  427MPD2    C2 6367   4.707   2.309  15.354  0.1226  0.3114  0.1797
  427MPD2    C3 6368   4.621   2.402  15.300  0.1215 -0.0139 -0.4496
  427MPD2    C4 6369   4.629   2.434  15.166  0.3126  0.4136 -0.8435
  427MPD2    C5 6370   4.707   2.358  15.084  0.1984  0.1416  0.2623
  427MPD2     H 6371   4.687   2.282  15.457 -1.0462 -0.5075 -0.2528
  427MPD2    H1 6372   4.563   2.503  15.115  0.1553  0.8281 -0.0824
  427MPD2    H2 6373   0.106   2.193  15.061 -3.6187 -0.9900 -1.2767
  427MPD2    H3 6374   4.713   2.379  14.978  0.4434 -1.3427 -0.0214
  427MPD2     N 6375   4.516   2.452  15.375 -0.1110  0.3800  0.1316
  427MPD2    H5 6376   4.463   2.514  15.314  0.0738 -1.2509 -1.6866
  427MPD2    N1 6377   0.127   2.120  15.332  0.4011  0.5384 -0.2081
  427MPD2    H7 6378   0.120   2.111  15.433  1.8456  0.4950 -0.1019
  428TMC3    C1 6379   0.220   1.897  15.313  0.5341  0.3076 -0.2069
  428TMC3    C2 6380   0.173   1.858  15.432  0.7719  0.4732 -0.2306
  428TMC3    C3 6381   0.222   1.746  15.486  0.6997  0.3983  0.4126
  428TMC3    C4 6382   0.316   1.831  15.249  0.1573  0.6366 -0.7587
  428TMC3    C5 6383   0.375   1.719  15.307 -0.8903 -1.1478  0.5586
  428TMC3    C6 6384   0.318   1.675  15.427 -0.1733 -0.4828 -0.3774
  428TMC3     C 6385   0.178   2.018  15.253  0.2719 -0.1192 -0.8411
  428TMC3     O 6386   0.184   2.002  15.133  0.5341  0.6535 -0.2549
  428TMC3     H 6387   0.099   1.919  15.483  0.9195 -0.2039  0.7964
  428TMC3    H1 6388   0.360   1.876  15.161  1.4074  1.4365  0.2793
  428TMC3    H2 6389   0.369   1.589  15.470  1.6795  0.3234 -0.9356
  428TMC3    C7 6390   0.519   1.733  15.322 -0.4918 -0.4275  0.7968
  428TMC3    C8 6391   0.203   1.713  15.620 -0.5651 -0.0289  0.1545
  428TMC3    O1 6392   0.558   1.799  15.413  0.1886 -0.3283 -1.2148
  428TMC3    O2 6393   0.208   1.594  15.652 -0.3092 -0.0702  0.6088
  429MPD2     C 6394   1.277   2.263  17.598  0.1255 -0.3888 -0.1643
  429MPD2    C1 6395   1.404   2.218  17.641 -0.3787 -0.3846 -0.1011
  429MPD2    C2 6396   1.514   2.299  17.610 -0.8112  0.0869  0.5940
  429MPD2    C3 6397   1.497   2.424  17.541 -0.5139 -0.4879 -0.5991
  429MPD2    C4 6398   1.370   2.466  17.511  0.1242  0.2021 -0.7939
  429MPD2    C5 6399   1.258   2.391  17.539 -0.0209  0.1830  0.0589
  429MPD2     H 6400   1.615   2.278  17.645 -1.1163 -0.1155  1.3622
  429MPD2    H1 6401   1.352   2.567  17.475 -1.7243  0.7433  1.6721
  429MPD2    H2 6402   1.185   2.206  17.605  0.5339 -1.1181 -0.8129
  429MPD2    H3 6403   1.168   2.423  17.489  0.0532  0.3898  0.0596
  429MPD2     N 6404   1.619   2.499  17.530 -0.3139 -0.2047  0.5503
  429MPD2    H5 6405   1.704   2.443  17.536 -0.0275  0.3724  1.7954
  429MPD2    N1 6406   1.422   2.103   0.021 -0.5960  0.1292  0.0947
  429MPD2    H7 6407   1.521   2.081   0.020 -0.4008  0.9561  0.8814
  430TMC3    C1 6408   1.745   2.659  17.425 -0.5417  0.1139  0.6176
  430TMC3    C2 6409   1.741   2.775  17.352  0.1067 -0.1258 -0.5080
  430TMC3    C3 6410   1.819   2.796  17.242  0.2933  0.4913  0.2852
  430TMC3    C4 6411   1.830   2.565  17.389 -0.3936 -0.4931  0.0621
  430TMC3    C5 6412   1.906   2.578  17.280 -0.1863  0.5857 -0.5319
  430TMC3    C6 6413   1.907   2.698  17.207  0.2953  0.1595  0.3929
  430TMC3     C 6414   1.624   2.631  17.491 -0.1637  0.6166  0.2239
  430TMC3     O 6415   1.535   2.715  17.503  0.1457  0.3229  0.3086
  430TMC3     H 6416   1.679   2.860  17.380 -0.5428 -0.1513 -1.8949
  430TMC3    H1 6417   1.840   2.473  17.446  0.0645 -0.8482 -0.5937
  430TMC3    H2 6418   1.966   2.720  17.118 -0.2306  1.2450  0.3106
  430TMC3    C7 6419   1.969   2.462  17.218 -0.0410 -0.1550 -0.1024
  430TMC3    C8 6420   1.777   2.897  17.154  0.3528 -0.0409 -0.2519
  430TMC3    O1 6421   1.984   2.361  17.283  0.4239 -0.3169  0.1943
  430TMC3    O2 6422   1.736   3.005  17.197  0.4977 -0.2626 -0.1277
  431MPD2     C 6423   2.480   2.426  12.206 -0.3278 -0.1886 -0.8760
  431MPD2    C1 6424   2.602   2.444  12.133 -0.1953 -0.7770 -0.4597
  431MPD2    C2 6425   2.639   2.355  12.037  0.1549  0.2227 -0.7642
  431MPD2    C3 6426   2.578   2.231  12.023 -0.5440 -0.4174  0.0434
  431MPD2    C4 6427   2.469   2.211  12.105 -0.1229  0.9084  0.3366
  431MPD2    C5 6428   2.420   2.304  12.191 -0.2222  0.5661 -0.1834
  431MPD2     H 6429   2.732   2.379  11.987  0.9166  0.3586  0.7194
  431MPD2    H1 6430   2.427   2.111  12.106 -1.2129  1.3917  2.1099
  431MPD2    H2 6431   2.448   2.503  12.275 -0.0993 -1.2667  0.4323
  431MPD2    H3 6432   2.327   2.286  12.243 -0.6220  1.8564 -0.4517
  431MPD2     N 6433   2.620   2.123  11.939 -0.3045 -0.0343  0.8257
  431MPD2    H5 6434   2.566   2.038  11.952  0.7901 -0.4538  2.6621
  431MPD2    N1 6435   2.689   2.555  12.149 -0.0632 -0.5136  0.5074
  431MPD2    H7 6436   2.769   2.551  12.087 -0.9558 -0.1179 -0.6615
  432TMC3    C1 6437   2.760   1.994  11.799 -0.3537 -0.4269  0.0916
  432TMC3    C2 6438   2.868   1.979  11.721 -0.2599 -0.8330  0.7332
  432TMC3    C3 6439   2.904   1.849  11.682 -0.2965  0.0219  0.2539
  432TMC3    C4 6440   2.701   1.886  11.867 -0.8746  0.4395 -0.7232
  432TMC3    C5 6441   2.740   1.762  11.820  0.3637  0.4785 -0.5996
  432TMC3    C6 6442   2.840   1.737  11.725 -0.0924 -0.2284  0.7485
  432TMC3     C 6443   2.721   2.125  11.844 -0.1886  0.5996 -0.0482
  432TMC3     O 6444   2.792   2.217  11.808  0.5822 -0.1236  0.6506
  432TMC3     H 6445   2.915   2.059  11.664 -3.4603 -0.1102 -0.8920
  432TMC3    H1 6446   2.607   1.893  11.920 -0.2621  2.8479  0.0713
  432TMC3    H2 6447   2.862   1.639  11.685  0.1270  0.9448 -1.9586
  432TMC3    C7 6448   2.733   1.654  11.917 -0.6580  0.0172 -0.5922
  432TMC3    C8 6449   3.022   1.828  11.596 -0.5437  0.4347  0.6121
  432TMC3    O1 6450   2.794   1.554  11.887 -0.0351  0.0292 -0.0586
  432TMC3    O2 6451   3.025   1.726  11.526  0.5970  0.3670  0.8104
  433MPD2     C 6452   1.861   1.434  10.730  0.1545  0.2440  0.7171
  433MPD2    C1 6453   1.790   1.316  10.759  0.5920  0.4295  0.3315
  433MPD2    C2 6454   1.740   1.306  10.886 -0.1222 -0.5178 -0.3398
  433MPD2    C3 6455   1.766   1.411  10.976 -0.7750 -0.0625 -0.2018
  433MPD2    C4 6456   1.826   1.525  10.937 -0.3696  0.0626 -0.2562
  433MPD2    C5 6457   1.883   1.531  10.819 -0.5522 -0.3550 -0.1746
  433MPD2     H 6458   1.689   1.215  10.915 -0.7114  0.6338  2.3080
  433MPD2    H1 6459   1.860   1.595  11.013 -0.1509  0.8443 -1.0737
  433MPD2    H2 6460   1.916   1.444  10.636 -2.8689  0.6249 -1.0114
  433MPD2    H3 6461   1.959   1.607  10.802 -0.5852 -0.2677  0.0598
  433MPD2     N 6462   1.750   1.376  11.115  0.0635 -0.6008 -0.0609
  433MPD2    H5 6463   1.716   1.282  11.129  0.4360 -0.8603 -0.8759
  433MPD2    N1 6464   1.784   1.219  10.655 -0.0072  0.9620  0.6073
  433MPD2    H7 6465   1.851   1.228  10.579 -2.2370 -1.0306 -1.6053
  434TMC3    C1 6466   1.738   1.008  10.554  0.3710  0.3977  0.2333
  434TMC3    C2 6467   1.774   0.882  10.601  0.3042 -0.0722 -0.5410
  434TMC3    C3 6468   1.867   0.811  10.527 -0.5207 -0.5450  0.6020
  434TMC3    C4 6469   1.785   1.053  10.433  0.0373 -0.2774 -0.5207
  434TMC3    C5 6470   1.862   0.964  10.354 -0.6905  0.5648  0.9697
  434TMC3    C6 6471   1.911   0.845  10.400 -0.1133  0.7390  0.6003
  434TMC3     C 6472   1.712   1.099  10.665 -0.9997  0.1471 -0.4753
  434TMC3     O 6473   1.656   1.049  10.760 -0.3448 -0.1355  0.1072
  434TMC3     H 6474   1.742   0.853  10.700  1.8863  0.3403  0.0854
  434TMC3    H1 6475   1.753   1.144  10.385  1.9328  1.4422  1.4752
  434TMC3    H2 6476   1.959   0.778  10.329 -1.1235  0.1528  0.4681
  434TMC3    C7 6477   1.879   0.997  10.214  0.2592 -0.4003 -0.3715
  434TMC3    C8 6478   1.919   0.696  10.596  1.1678  0.2513 -0.2210
  434TMC3    O1 6479   1.988   1.047  10.184  0.7135  0.1667  0.0787
  434TMC3    O2 6480   1.856   0.661  10.699 -0.2063 -0.5154 -0.2808
  435MPD2     C 6481   3.475   1.072  15.492 -0.0346  0.1009  0.7242
  435MPD2    C1 6482   3.442   1.052  15.625 -0.5165 -0.8677  0.1472
  435MPD2    C2 6483   3.529   0.977  15.702 -0.0238 -0.4970  0.3005
  435MPD2    C3 6484   3.650   0.937  15.663 -0.1894  0.4142 -0.4783
  435MPD2    C4 6485   3.691   0.964  15.535 -0.2298 -0.7172 -0.5186
  435MPD2    C5 6486   3.597   1.022  15.449 -0.4682  0.0236  0.2180
  435MPD2     H 6487   3.500   0.961  15.806 -1.3442  2.9058  0.4789
  435MPD2    H1 6488   3.786   0.940  15.489  0.5946  2.3194 -0.3561
  435MPD2    H2 6489   3.414   1.130  15.424  1.0372 -0.2000 -0.5032
  435MPD2    H3 6490   3.629   1.038  15.346  1.9195 -0.5005  0.8821
  435MPD2     N 6491   3.738   0.882  15.760  0.4023 -0.8806  0.7922
  435MPD2    H5 6492   3.706   0.879  15.857 -1.0286 -4.9833  0.1718
  435MPD2    N1 6493   3.323   1.091  15.687 -0.1677  0.1912  0.8436
  435MPD2    H7 6494   3.314   1.070  15.786  0.8523 -3.0360  0.2461
  436TMC3    C1 6495   3.072   1.279  15.940 -0.3083 -0.0108 -0.4165
  436TMC3    C2 6496   3.166   1.225  15.857  0.2246 -0.0678  0.0222
  436TMC3    C3 6497   3.124   1.193  15.730  0.1235  0.0621  0.1021
  436TMC3    C4 6498   2.943   1.293  15.904 -0.1977 -0.5007 -0.4287
  436TMC3    C5 6499   2.901   1.246  15.779  0.0395  1.0965 -0.2398
  436TMC3    C6 6500   2.991   1.193  15.695  0.7292  0.0328  0.1473
  436TMC3     C 6501   3.116   1.348  16.058 -0.1182 -0.2340 -0.8846
  436TMC3     O 6502   3.229   1.395  16.062  0.1962  0.5676 -0.8929
  436TMC3     H 6503   3.271   1.216  15.882 -0.1541  0.2067  1.7179
  436TMC3    H1 6504   2.877   1.359  15.960 -1.6782 -0.8883 -1.7087
  436TMC3    H2 6505   2.960   1.146  15.603  2.9300 -0.6355 -0.2696
  436TMC3    C7 6506   2.763   1.244  15.755  0.0915  0.5485 -0.1469
  436TMC3    C8 6507   3.219   1.158  15.628 -0.4188 -0.0339  0.0675
  436TMC3    O1 6508   2.694   1.242  15.857 -0.4837 -0.1432 -0.1687
  436TMC3    O2 6509   3.196   1.188  15.512 -0.3212  0.0605 -0.5994
  437TMC3    C1 6510   2.218   3.367  12.056 -0.2915  0.3170  0.1534
  437TMC3    C2 6511   2.157   3.440  11.957 -0.3356  0.0919 -0.2421
  437TMC3    C3 6512   2.217   3.443  11.837 -0.1113  1.2636 -0.0834
  437TMC3    C4 6513   2.340   3.303  12.037 -0.2827  0.1872 -0.5421
  437TMC3    C5 6514   2.402   3.318  11.916 -1.0664 -0.1536  0.3955
  437TMC3    C6 6515   2.349   3.397  11.819 -0.4654  0.0031 -0.0421
  437TMC3     C 6516   2.146   3.371  12.181 -0.3041  0.1882  0.0242
  437TMC3     O 6517   2.062   3.456  12.190  0.2111  0.1201 -0.3413
  437TMC3     H 6518   2.062   3.491  11.970 -0.8012 -1.1376  1.0995
  437TMC3    H1 6519   2.367   3.222  12.104 -0.1697 -0.8240 -1.7852
  437TMC3    H2 6520   2.385   3.407  11.718 -0.6452  0.7687 -0.0307
  437TMC3    C7 6521   2.546   3.285  11.904  0.1290 -0.0782  0.3493
  437TMC3    C8 6522   2.177   3.562  11.759 -0.8943 -0.1644  0.5055
  437TMC3    O1 6523   2.597   3.298  11.797  0.1713 -0.6606  0.2056
  437TMC3    O2 6524   2.060   3.569  11.728 -0.1477 -0.4101  0.3976
  438MPD2     C 6525   4.424   3.804  17.363 -0.2346  0.2346 -0.1262
  438MPD2    C1 6526   4.501   3.691  17.394 -0.3058 -0.7657  0.0891
  438MPD2    C2 6527   4.493   3.645  17.522 -0.0217 -0.6278 -1.0513
  438MPD2    C3 6528   4.402   3.696  17.610  0.0845 -0.0708 -0.8907
  438MPD2    C4 6529   4.326   3.811  17.579  0.2237 -0.3022  0.4380
  438MPD2    C5 6530   4.342   3.856  17.452  0.2059  0.1138 -0.1172
  438MPD2     H 6531   4.545   3.554  17.546 -1.0170 -1.0344 -0.4429
  438MPD2    H1 6532   4.252   3.855  17.644 -0.1133 -0.7949  0.3940
  438MPD2    H2 6533   4.438   3.856  17.268  1.3389 -0.9724 -0.5684
  438MPD2    H3 6534   4.297   3.951  17.425 -3.5939 -1.4791  0.6250
  438MPD2     N 6535   4.373   3.630   0.034 -0.0649 -0.3885  0.2675
  438MPD2    H5 6536   4.284   3.650   0.078 -1.0912 -1.7596 -1.1791
  438MPD2    N1 6537   4.582   3.620  17.305  0.0055  0.0590 -0.2374
  438MPD2    H7 6538   4.636   3.545  17.348  2.0298  0.7179 -1.6407
  439TMC3    C1 6539   4.665   3.518  17.117 -0.2504  0.2563  0.6036
  439TMC3    C2 6540   4.642   3.495  16.985 -0.4144 -0.2368 -0.0152
  439TMC3    C3 6541   4.690   3.380  16.927  0.0449  0.4768 -0.1360
  439TMC3    C4 6542   0.021   3.433  17.190 -0.8393 -0.9166 -0.1786
  439TMC3    C5 6543   0.070   3.324  17.131 -0.0746 -0.7927  0.1192
  439TMC3    C6 6544   0.042   3.289  17.001 -0.4205  0.1203 -0.1678
  439TMC3     C 6545   4.596   3.635  17.167 -0.0256  0.7454 -0.1540
  439TMC3     O 6546   4.543   3.711  17.087  0.8014 -0.2607 -0.2900
  439TMC3     H 6547   4.569   3.555  16.931 -0.4632 -1.3737 -1.2260
  439TMC3    H1 6548   0.059   3.457  17.288 -1.0732 -1.3269  0.0114
  439TMC3    H2 6549   0.095   3.209  16.950 -0.1336 -0.2348  0.7029
  439TMC3    C7 6550   0.148   3.238  17.220  0.0380  0.2017  0.3024
  439TMC3    C8 6551   4.684   3.351  16.787 -0.0753 -0.5392 -0.4731
  439TMC3    O1 6552   0.205   3.293  17.314 -0.6346  0.8046 -0.3070
  439TMC3    O2 6553   4.710   3.236  16.759 -0.0720 -0.8633  0.0393
  440MPD2     C 6554   2.866   3.849  15.200  0.4291  0.0371 -0.7147
  440MPD2    C1 6555   2.924   3.945  15.279 -0.4992 -0.0983  0.6732
  440MPD2    C2 6556   3.043   3.913  15.345  0.2207 -0.7594  0.4613
  440MPD2    C3 6557   3.114   3.794  15.319  0.4257 -0.3668  0.2775
  440MPD2    C4 6558   3.048   3.688  15.262  0.0102 -0.3354  0.1568
  440MPD2    C5 6559   2.923   3.720  15.207  0.0903 -0.4984 -0.0041
  440MPD2     H 6560   3.085   3.993  15.406  0.3126 -1.0376  0.7597
  440MPD2    H1 6561   3.093   3.590  15.259 -1.6906 -1.0897 -0.4394
  440MPD2    H2 6562   2.774   3.871  15.146 -0.8565  1.1457  1.9534
  440MPD2    H3 6563   2.868   3.643  15.156  0.2019 -1.0667  0.7411
  440MPD2     N 6564   3.243   3.778  15.367  0.0923  0.3479 -0.0426
  440MPD2    H5 6565   3.284   3.687  15.353 -1.6857 -0.3388 -0.7752
  440MPD2    N1 6566   2.867   4.072  15.291  0.1519 -0.9305 -0.4506
  440MPD2    H7 6567   2.904   4.133  15.364  0.6208 -1.6176 -0.1096
  441TMC3    C1 6568   3.458   3.827  15.470  0.3713  0.9568 -0.9305
  441TMC3    C2 6569   3.520   3.929  15.518 -0.0803 -0.3197 -0.7353
  441TMC3    C3 6570   3.559   3.934  15.646  0.3643  0.5946 -0.2578
  441TMC3    C4 6571   3.461   3.711  15.554  0.9375  0.4522 -1.0966
  441TMC3    C5 6572   3.517   3.709  15.678 -0.4374  0.0604 -0.6510
  441TMC3    C6 6573   3.563   3.829  15.730  0.8330 -0.3505  0.4218
  441TMC3     C 6574   3.329   3.875  15.417  0.2824  0.2621  0.0094
  441TMC3     O 6575   3.303   3.992  15.447 -0.1134 -0.0157 -0.0579
  441TMC3     H 6576   3.545   4.016  15.459  1.9881 -1.2673 -1.2304
  441TMC3    H1 6577   3.420   3.622  15.508 -1.0042  1.2210 -0.8564
  441TMC3    H2 6578   3.588   3.844  15.835  3.8947 -0.3705 -0.2956
  441TMC3    C7 6579   3.455   3.606  15.769 -0.0331  0.3450 -0.5827
  441TMC3    C8 6580   3.529   4.061  15.711  0.1644 -0.2150 -0.6207
  441TMC3    O1 6581   3.346   3.567  15.735 -0.1447  0.3022 -0.0730
  441TMC3    O2 6582   3.588   4.087  15.814 -0.6099  0.5377  0.2464
  442MPD2     C 6583   1.521   4.258  16.682 -0.0721 -0.6529  0.7752
  442MPD2    C1 6584   1.420   4.180  16.728  0.1940  0.4316  0.1443
  442MPD2    C2 6585   1.377   4.076  16.643  0.0796  0.3093 -0.5166
  442MPD2    C3 6586   1.446   4.056  16.523 -0.2609  0.0042 -0.0327
  442MPD2    C4 6587   1.546   4.137  16.480 -0.8791  0.0555 -0.2641
  442MPD2    C5 6588   1.590   4.234  16.565  0.3536  0.4356  0.6367
  442MPD2     H 6589   1.281   4.028  16.658  0.9250 -0.6009  1.8461
  442MPD2    H1 6590   1.594   4.119  16.384  0.7752  1.0586  0.3859
  442MPD2    H2 6591   1.562   4.344  16.733 -1.5176  2.7490 -3.8044
  442MPD2    H3 6592   1.671   4.300  16.533  0.6108 -1.0125 -1.7244
  442MPD2     N 6593   1.416   3.949  16.431  0.2659 -0.7246  0.1474
  442MPD2    H5 6594   1.462   3.946  16.341  1.2101  0.6289  0.5873
  442MPD2    N1 6595   1.349   4.208  16.848  0.3496  0.4183  0.2114
  442MPD2    H7 6596   1.280   4.136  16.866  0.2669  0.1843 -0.9949
  443TMC3    C1 6597   1.247   4.333  17.028 -0.0787 -0.1708  0.9443
  443TMC3    C2 6598   1.198   4.458  17.049  0.8400 -0.1318  0.6186
  443TMC3    C3 6599   1.092   4.474  17.134 -0.8860  0.5469 -0.9216
  443TMC3    C4 6600   1.183   4.225  17.072  0.0493  0.0426 -1.0379
  443TMC3    C5 6601   1.079   4.240  17.159 -0.8962 -0.3076 -0.6341
  443TMC3    C6 6602   1.036   4.366  17.196 -0.0021 -0.4899  0.0763
  443TMC3     C 6603   1.344   4.328  16.917 -0.0257  0.0556  0.2569
  443TMC3     O 6604   1.402   4.432  16.886 -0.0694  0.3531  0.4696
  443TMC3     H 6605   1.241   4.548  17.006  0.7202  0.2415  1.2754
  443TMC3    H1 6606   1.218   4.128  17.040  2.8440  1.3066 -1.9221
  443TMC3    H2 6607   0.940   4.382  17.244  0.2592  2.9709 -0.5422
  443TMC3    C7 6608   1.021   4.118  17.218  0.1117  0.3185 -0.7301
  443TMC3    C8 6609   1.038   4.603  17.168  0.0552  0.1506 -0.5003
  443TMC3    O1 6610   1.058   4.012  17.183  0.1336  0.1657  0.2663
  443TMC3    O2 6611   0.998   4.612  17.282  0.2139 -0.3884  0.0351
  444MPD2     C 6612   1.450   3.992  17.197 -0.3889 -0.4124  0.6607
  444MPD2    C1 6613   1.444   3.882  17.281  0.7115 -0.0622  0.0652
  444MPD2    C2 6614   1.516   3.770  17.254  0.3120  0.2845 -0.6498
  444MPD2    C3 6615   1.610   3.768  17.151 -0.3971  0.2744 -0.7389
  444MPD2    C4 6616   1.633   3.885  17.082 -0.1808  0.1937  0.2406
  444MPD2    C5 6617   1.539   3.980  17.095  0.6121 -0.1538 -0.2983
  444MPD2     H 6618   1.492   3.685  17.317  2.7059 -0.3178 -0.5699
  444MPD2    H1 6619   1.708   3.910  17.008  0.2874 -2.1359 -0.0746
  444MPD2    H2 6620   1.392   4.083  17.206 -1.0057 -0.7948  0.5356
  444MPD2    H3 6621   1.539   4.064  17.027  0.5123 -0.6575 -0.9224
  444MPD2     N 6622   1.698   3.658  17.143 -0.3012 -0.0789 -0.0383
  444MPD2    H5 6623   1.694   3.586  17.214 -1.1397 -1.1061 -1.1094
  444MPD2    N1 6624   1.362   3.877  17.400  0.4981  0.3552 -0.4384
  444MPD2    H7 6625   1.358   3.786  17.444 -2.2062  0.7696  0.1535
  445TMC3    C1 6626   1.856   3.515  17.047 -0.1122  0.3587  0.1135
  445TMC3    C2 6627   1.877   3.449  17.164  0.4186 -0.3490  0.2530
  445TMC3    C3 6628   1.937   3.328  17.158 -0.0748  0.2343  0.0547
  445TMC3    C4 6629   1.913   3.478  16.928  0.5180 -1.0489  0.2757
  445TMC3    C5 6630   1.983   3.360  16.934  0.6174 -0.3297 -0.1674
  445TMC3    C6 6631   1.989   3.279  17.042  0.0664  0.3280 -0.5309
  445TMC3     C 6632   1.789   3.645  17.045 -0.3930 -0.4949 -0.2700
  445TMC3     O 6633   1.800   3.708  16.943 -0.3531 -0.1308 -0.0567
  445TMC3     H 6634   1.846   3.494  17.258 -1.0899 -1.0694  0.0974
  445TMC3    H1 6635   1.908   3.539  16.838  0.0211  1.0825  1.7532
  445TMC3    H2 6636   2.049   3.189  17.041 -0.2140  0.1461 -1.0310
  445TMC3    C7 6637   2.036   3.311  16.812 -0.3806  0.3985 -0.5738
  445TMC3    C8 6638   1.966   3.254  17.285  0.3671 -0.7096 -0.5071
  445TMC3    O1 6639   2.094   3.386  16.731 -0.2646 -0.1719 -0.3614
  445TMC3    O2 6640   1.932   3.312  17.387  0.5245 -0.1807  0.1198
  446MPD2     C 6641   1.549   0.677  11.185 -0.0798  0.5032  0.6136
  446MPD2    C1 6642   1.552   0.667  11.045 -0.3412  0.1136  0.2135
  446MPD2    C2 6643   1.655   0.722  10.971 -1.1158 -0.4394  0.3361
  446MPD2    C3 6644   1.768   0.778  11.042  0.8050 -0.1766 -0.0350
  446MPD2    C4 6645   1.752   0.794  11.185  0.1772 -0.6078 -0.0236
  446MPD2    C5 6646   1.642   0.747  11.254  0.4401 -0.4262  0.2449
  446MPD2     H 6647   1.667   0.702  10.865 -0.4781 -1.1220  0.5376
  446MPD2    H1 6648   1.831   0.851  11.233 -0.6050  0.2699  0.2395
  446MPD2    H2 6649   1.462   0.650  11.243 -0.2595  0.3943  0.2921
  446MPD2    H3 6650   1.626   0.768  11.359 -1.3137  0.0429 -0.1222
  446MPD2     N 6651   1.887   0.804  10.967  0.4815 -0.6329 -0.0489
  446MPD2    H5 6652   1.879   0.794  10.866  0.9275  0.3552 -0.1786
  446MPD2    N1 6653   1.457   0.591  10.972  0.4779 -0.8936  0.1994
  446MPD2    H7 6654   1.464   0.588  10.871  3.1457 -1.4018  0.4162
  447TMC3    C1 6655   2.122   0.810  10.931  0.3221  1.0411 -0.5993
  447TMC3    C2 6656   2.112   0.877  10.811 -0.1020  0.1996 -0.1567
  447TMC3    C3 6657   2.231   0.893  10.741 -0.2328 -0.2754 -0.7890
  447TMC3    C4 6658   2.243   0.775  10.983  0.1750  0.1963  0.3104
  447TMC3    C5 6659   2.361   0.791  10.915  0.0202  0.7048 -0.1312
  447TMC3    C6 6660   2.355   0.855  10.794  0.9651  0.0997  0.0387
  447TMC3     C 6661   2.011   0.796  11.025 -0.5685 -0.2934  0.1852
  447TMC3     O 6662   2.043   0.762  11.136 -0.7694  0.0525  0.2172
  447TMC3     H 6663   2.016   0.917  10.778  0.5211  0.6510 -1.4269
  447TMC3    H1 6664   2.247   0.718  11.075 -2.0184 -0.6904 -0.1292
  447TMC3    H2 6665   2.448   0.874  10.741  0.0362  1.1995 -1.1748
  447TMC3    C7 6666   2.492   0.738  10.957 -0.1942  0.8360 -0.3384
  447TMC3    C8 6667   2.232   0.957  10.612 -0.0417 -0.1934  0.0657
  447TMC3    O1 6668   2.583   0.737  10.873 -0.0737 -0.2469 -0.4038
  447TMC3    O2 6669   2.130   0.944  10.543 -0.4081 -0.0366 -0.1877
  448TMC3    C1 6670   4.149   0.369  17.263  0.3461  0.3348  0.4310
  448TMC3    C2 6671   4.163   0.238  17.221  0.0416 -0.0482  0.0624
  448TMC3    C3 6672   4.209   0.150  17.313 -0.0741  0.5170  0.1946
  448TMC3    C4 6673   4.160   0.413  17.396 -0.3443  0.3628  0.1007
  448TMC3    C5 6674   4.216   0.327  17.484 -0.2125  0.2589 -0.3405
  448TMC3    C6 6675   4.244   0.195  17.443 -0.2612 -0.2243 -0.0110
  448TMC3     C 6676   4.134   0.470  17.164  0.0724  0.3250 -0.5457
  448TMC3     O 6677   4.130   0.425  17.051 -0.1676  0.1329 -0.0752
  448TMC3     H 6678   4.135   0.211  17.120 -0.8204  0.0287  0.2792
  448TMC3    H1 6679   4.130   0.515  17.418  0.0033  0.7038 -0.9785
  448TMC3    H2 6680   4.273   0.122  17.517 -1.2015 -0.0707  0.5179
  448TMC3    C7 6681   4.233   0.377  17.616 -0.9385  0.2440 -0.3084
  448TMC3    C8 6682   4.238   0.008  17.280 -0.3497  0.3356 -0.2796
  448TMC3    O1 6683   4.168   0.477  17.632  0.4550  0.1964 -0.5849
  448TMC3    O2 6684   4.297   4.668  17.363 -0.5209  0.2975 -0.1755
  449MPD2     C 6685   1.182   3.077  12.827 -0.0321 -0.4283  0.3416
  449MPD2    C1 6686   1.144   2.951  12.878  1.0282  0.1034  0.4485
  449MPD2    C2 6687   1.055   2.938  12.979 -0.3684 -0.2001  0.6181
  449MPD2    C3 6688   0.985   3.044  13.034 -0.6848 -0.6518  0.1717
  449MPD2    C4 6689   1.021   3.169  12.987 -0.2691 -0.1444 -0.1426
  449MPD2    C5 6690   1.117   3.178  12.890  0.1451  0.2062 -0.6487
  449MPD2     H 6691   1.029   2.839  13.017  1.0627 -0.8620 -0.1131
  449MPD2    H1 6692   0.967   3.256  13.025 -0.1110  0.0888 -0.4487
  449MPD2    H2 6693   1.247   3.097  12.743 -3.6415  1.8571 -1.8429
  449MPD2    H3 6694   1.146   3.279  12.864  3.3877 -0.3770  0.7776
  449MPD2     N 6695   0.901   3.026  13.146 -0.2266 -0.1849 -0.1745
  449MPD2    H5 6696   0.903   2.931  13.183  2.0405  0.4831  1.4398
  449MPD2    N1 6697   1.170   2.823  12.825  0.4315 -0.8446 -0.4662
  449MPD2    H7 6698   1.121   2.747  12.872  3.8543 -3.2953 -0.8533
  450TMC3    C1 6699   1.257   2.636  12.702  0.5694 -0.0291 -0.2309
  450TMC3    C2 6700   1.375   2.576  12.747 -0.0507  0.5205 -0.2978
  450TMC3    C3 6701   1.379   2.450  12.798  0.2415 -0.3527 -0.0476
  450TMC3    C4 6702   1.142   2.564  12.731  0.0974 -0.0719 -0.3162
  450TMC3    C5 6703   1.146   2.452  12.813  0.6187 -0.2996 -0.7050
  450TMC3    C6 6704   1.261   2.389  12.831 -0.6976 -0.0736 -0.4833
  450TMC3     C 6705   1.252   2.784  12.722  0.0634  1.1272  0.2133
  450TMC3     O 6706   1.345   2.846  12.678  0.1224  0.3429  0.0709
  450TMC3     H 6707   1.468   2.630  12.733 -1.1483  1.9948 -1.9619
  450TMC3    H1 6708   1.047   2.617  12.729 -1.4959 -2.7167  3.9203
  450TMC3    H2 6709   1.263   2.293  12.882 -1.1838  0.0208 -0.2890
  450TMC3    C7 6710   1.068   2.480  12.932  0.8089 -0.2991 -0.0226
  450TMC3    C8 6711   1.507   2.384  12.822 -0.5889 -0.0689  0.0201
  450TMC3    O1 6712   1.051   2.600  12.953  1.1169  0.2053  0.1146
  450TMC3    O2 6713   1.499   2.264  12.847  0.3486 -0.1848  0.3130
  451MPD2     C 6714   2.394   1.650   1.535 -0.4107 -0.4121  0.8128
  451MPD2    C1 6715   2.390   1.721   1.423  0.1226  0.2617  0.1693
  451MPD2    C2 6716   2.506   1.716   1.344  0.4526  0.7875  0.5197
  451MPD2    C3 6717   2.621   1.661   1.387 -0.7580 -0.2040 -1.0182
  451MPD2    C4 6718   2.624   1.596   1.514  0.0234 -0.0574  0.1715
  451MPD2    C5 6719   2.503   1.586   1.580 -0.0643  0.8966  0.1934
  451MPD2     H 6720   2.506   1.782   1.258  0.4772  0.2664  0.1183
  451MPD2    H1 6721   2.719   1.557   1.547  0.4416  0.4690 -0.4099
  451MPD2    H2 6722   2.314   1.647   1.608 -1.5242  1.5344 -0.3234
  451MPD2    H3 6723   2.501   1.532   1.674  0.6561  0.6364  0.0599
  451MPD2     N 6724   2.744   1.683   1.315  0.6065 -0.1242  0.4945
  451MPD2    H5 6725   2.830   1.645   1.353  0.7170 -0.2988  0.0704
  451MPD2    N1 6726   2.265   1.789   1.391 -0.1154  0.1683  0.5964
  451MPD2    H7 6727   2.194   1.809   1.461 -3.1933  1.2279 -2.8163
  452TMC3    C1 6728   2.886   1.745   1.138  0.3458 -0.3027 -0.0198
  452TMC3    C2 6729   2.997   1.728   1.214  0.4748 -0.5547 -0.3174
  452TMC3    C3 6730   3.116   1.717   1.147  0.1939 -0.0437  0.1955
  452TMC3    C4 6731   2.892   1.771   0.999  0.2956 -0.2469 -0.3974
  452TMC3    C5 6732   3.006   1.747   0.938 -0.4057 -0.3846  0.2015
  452TMC3    C6 6733   3.121   1.719   1.007 -0.2164  0.1582 -0.0122
  452TMC3     C 6734   2.752   1.740   1.191  0.4294  0.0805 -0.2555
  452TMC3     O 6735   2.664   1.773   1.115 -0.8290 -0.0232 -0.2104
  452TMC3     H 6736   2.993   1.734   1.322 -2.5676 -1.6545 -0.3808
  452TMC3    H1 6737   2.801   1.793   0.945  0.8913  1.6876 -0.5991
  452TMC3    H2 6738   3.218   1.715   0.958  0.0029 -1.3566  0.5504
  452TMC3    C7 6739   2.989   1.732   0.796 -0.3134  0.6755 -0.3730
  452TMC3    C8 6740   3.241   1.714   1.216  0.1962 -0.2977  0.0836
  452TMC3    O1 6741   2.880   1.766   0.753  0.1323 -0.1069  0.2116
  452TMC3    O2 6742   3.348   1.739   1.159 -0.2823  0.5355 -0.4249
  453TMC3    C1 6743   3.782   3.825  11.340 -0.0429 -0.4821 -0.0398
  453TMC3    C2 6744   3.683   3.786  11.424 -0.0128 -0.4414 -0.4019
  453TMC3    C3 6745   3.572   3.748  11.362 -0.7391  0.2907  0.6123
  453TMC3    C4 6746   3.777   3.811  11.206  0.7140  0.6895  0.3632
  453TMC3    C5 6747   3.665   3.764  11.149  0.1620 -0.7929 -0.0796
  453TMC3    C6 6748   3.554   3.743  11.227  0.3795  0.1789  0.2016
  453TMC3     C 6749   3.874   3.909  11.403  0.3988  0.4171  0.1007
  453TMC3     O 6750   3.898   3.898  11.523  0.0275  0.0591 -0.2352
  453TMC3     H 6751   3.692   3.784  11.532  0.4596 -1.7729 -0.4558
  453TMC3    H1 6752   3.867   3.824  11.147 -0.6190 -1.5879 -2.1158
  453TMC3    H2 6753   3.462   3.707  11.182  0.5702  0.8982 -0.7597
  453TMC3    C7 6754   3.663   3.757  11.004 -0.4680  0.2564 -0.3853
  453TMC3    C8 6755   3.462   3.698  11.440 -0.0710  0.0708  0.4298
  453TMC3    O1 6756   3.756   3.804  10.946  0.1789  0.0309 -0.1184
  453TMC3    O2 6757   3.357   3.693  11.376  0.2375 -0.5652  0.6077
  454MPD2     C 6758   2.209   3.397  16.242 -0.3432  0.1942  0.0267
  454MPD2    C1 6759   2.265   3.438  16.121  0.2162  0.8725  0.1849
  454MPD2    C2 6760   2.313   3.562  16.109 -0.0553 -0.0591 -0.5142
  454MPD2    C3 6761   2.298   3.663  16.208  0.2989 -0.4382 -0.2038
  454MPD2    C4 6762   2.254   3.620  16.334 -0.1153 -0.5033  0.2991
  454MPD2    C5 6763   2.203   3.492  16.344 -0.5840  0.1377  0.1710
  454MPD2     H 6764   2.356   3.591  16.014  0.8292  0.9886  0.2108
  454MPD2    H1 6765   2.258   3.692  16.415 -1.3855 -1.3773  1.1417
  454MPD2    H2 6766   2.184   3.296  16.271  3.1338 -0.6931 -0.1323
  454MPD2    H3 6767   2.158   3.457  16.437  0.2919  4.8540  2.3570
  454MPD2     N 6768   2.318   3.794  16.172  0.0773 -0.1842  0.8818
  454MPD2    H5 6769   2.382   3.815  16.096 -0.4712 -0.9105  0.2286
  454MPD2    N1 6770   2.266   3.351  16.014  0.5719 -0.2456  0.0421
  454MPD2    H7 6771   2.329   3.375  15.938 -1.0364  0.3928 -1.0805
  455TMC3    C1 6772   2.131   3.898  16.290  0.3021 -0.2684 -0.2773
  455TMC3    C2 6773   2.091   3.996  16.378 -0.4526 -0.3450  0.8058
  455TMC3    C3 6774   1.976   3.979  16.452 -0.2925 -0.2082  0.2633
  455TMC3    C4 6775   2.042   3.797  16.254  0.0551 -0.9057 -0.5841
  455TMC3    C5 6776   1.939   3.773  16.337  0.1610  0.1359 -0.2310
  455TMC3    C6 6777   1.906   3.860  16.438  0.5854 -0.0109  0.0478
  455TMC3     C 6778   2.272   3.905  16.239  0.0098  0.1677  0.3796
  455TMC3     O 6779   2.321   4.018  16.218 -0.2640  0.5479  0.6790
  455TMC3     H 6780   2.162   4.074  16.400 -0.4814  0.5592 -2.2682
  455TMC3    H1 6781   2.060   3.733  16.168  0.0535  1.8287 -2.6018
  455TMC3    H2 6782   1.822   3.842  16.504  0.4739 -0.8391 -0.3242
  455TMC3    C7 6783   1.897   3.636  16.365  0.3002  0.2885 -0.2040
  455TMC3    C8 6784   1.933   4.068  16.558  0.1081  0.7113  0.6211
  455TMC3    O1 6785   1.862   3.601  16.481  0.0089  0.4548  0.2460
  455TMC3    O2 6786   1.889   4.008  16.656  0.2544  0.0514  0.1076
  456MPD2     C 6787   0.313   4.222  16.629 -0.1306  0.6768  0.6383
  456MPD2    C1 6788   0.220   4.117  16.623  0.6130 -0.2556  0.2263
  456MPD2    C2 6789   0.143   4.095  16.734 -0.7952 -0.5497  0.1215
  456MPD2    C3 6790   0.170   4.164  16.849 -0.3575 -0.0795  0.1334
  456MPD2    C4 6791   0.261   4.270  16.851  0.8143 -0.1957  0.2804
  456MPD2    C5 6792   0.320   4.306  16.730 -0.1050 -0.0117 -0.7666
  456MPD2     H 6793   0.066   4.019  16.727 -1.6119  0.3103 -0.3418
  456MPD2    H1 6794   0.282   4.334  16.936 -0.3603  0.3147  0.1830
  456MPD2    H2 6795   0.375   4.245  16.543 -0.7271 -1.3927 -0.3382
  456MPD2    H3 6796   0.397   4.382  16.722  0.8687 -0.8916  0.2330
  456MPD2     N 6797   0.106   4.125  16.967 -0.1729 -0.0499 -0.3498
  456MPD2    H5 6798   0.036   4.053  16.955 -0.8086  0.5299 -0.1037
  456MPD2    N1 6799   0.197   4.046  16.500 -0.7271  0.4913  0.5827
  456MPD2    H7 6800   0.253   4.067  16.417 -1.0933  1.0576  0.4822
  457TMC3    C1 6801   0.038   4.114  17.179 -0.3718  0.3055  0.0465
  457TMC3    C2 6802   4.627   4.120  17.155 -0.3604  0.6210 -0.1730
  457TMC3    C3 6803   4.542   4.119  17.265  0.0995  0.4882 -0.7210
  457TMC3    C4 6804   0.089   4.117  17.307 -0.2208  0.2087 -0.6401
  457TMC3    C5 6805   0.000   4.110  17.411 -0.1877 -1.2751  0.1099
  457TMC3    C6 6806   4.590   4.106  17.391  0.0263 -0.0381 -0.5267
  457TMC3     C 6807   0.132   4.170  17.089  0.1466 -0.2855  0.6455
  457TMC3     O 6808   0.227   4.237  17.128  0.4471  0.2170  0.2273
  457TMC3     H 6809   4.580   4.145  17.061 -0.0809 -0.2789 -0.5454
  457TMC3    H1 6810   0.197   4.109  17.317 -0.5354 -0.0951  2.5506
  457TMC3    H2 6811   4.517   4.123  17.469 -0.3086 -1.8554 -0.4517
  457TMC3    C7 6812   0.053   4.113  17.547  0.2384 -0.2148 -0.2944
  457TMC3    C8 6813   4.443   4.217  17.256 -0.2952 -0.3500  0.2480
  457TMC3    O1 6814   4.698   4.082  17.638  0.0789  0.3195  0.1358
  457TMC3    O2 6815   4.437   4.290  17.355  0.2091 -0.2042 -0.3418
  458MPD2     C 6816   2.996   3.291  12.123 -0.4497 -0.3605  0.3085
  458MPD2    C1 6817   2.897   3.293  12.219 -0.3473 -0.3101  0.1311
  458MPD2    C2 6818   2.765   3.290  12.177 -0.1617 -0.4229  0.1179
  458MPD2    C3 6819   2.731   3.269  12.044 -0.5516 -0.3459  0.3219
  458MPD2    C4 6820   2.829   3.256  11.947 -0.2473  0.4488  0.7312
  458MPD2    C5 6821   2.963   3.264  11.991 -0.9304 -0.4652 -0.1224
  458MPD2     H 6822   2.689   3.316  12.250  1.7785 -0.0744  2.0161
  458MPD2    H1 6823   2.809   3.238  11.842  0.9673  0.9707  0.4104
  458MPD2    H2 6824   3.096   3.310  12.161 -0.6563 -0.1368  0.7307
  458MPD2    H3 6825   3.046   3.249  11.923 -1.0013  1.9338 -0.7576
  458MPD2     N 6826   2.598   3.278  12.028 -0.2560 -0.0236  0.2825
  458MPD2    H5 6827   2.536   3.293  12.107  0.8960  0.7730  1.0359
  458MPD2    N1 6828   2.936   3.325  12.355 -0.5789  0.1484 -0.2128
  458MPD2    H7 6829   3.030   3.355  12.380  0.9041 -2.5969 -2.5211
  459TMC3    C1 6830   2.902   3.393  12.575  0.3233  0.4413  0.3045
  459TMC3    C2 6831   2.993   3.498  12.561  0.2311 -0.5608  0.0287
  459TMC3    C3 6832   3.082   3.518  12.665 -0.0620  0.3609  0.4054
  459TMC3    C4 6833   2.884   3.329  12.688 -0.3334 -0.2735 -0.2262
  459TMC3    C5 6834   2.975   3.346  12.784 -0.2725  0.0403 -0.4430
  459TMC3    C6 6835   3.080   3.437  12.774 -0.3044  0.1751  0.1918
  459TMC3     C 6836   2.846   3.338  12.457  0.3523  0.6690 -0.7343
  459TMC3     O 6837   2.734   3.287  12.464 -0.2090 -0.6884 -0.0430
  459TMC3     H 6838   3.022   3.547  12.469  0.3770 -0.2659  0.2311
  459TMC3    H1 6839   2.811   3.250  12.697  0.1646 -0.3926  2.7024
  459TMC3    H2 6840   3.162   3.447  12.845  0.4695  1.9634 -0.9623
  459TMC3    C7 6841   2.950   3.279  12.916  0.5183 -0.0452  0.8122
  459TMC3    C8 6842   3.185   3.619  12.654  0.1729  0.9098 -0.5278
  459TMC3    O1 6843   2.877   3.178  12.914  0.3055 -0.3594 -0.0538
  459TMC3    O2 6844   3.287   3.596  12.713 -0.0858  0.0033 -0.4112
  460MPD2     C 6845   2.506   1.142  10.442  0.2031  0.8607  0.1567
  460MPD2    C1 6846   2.380   1.086  10.456 -0.1251  0.2751 -0.0205
  460MPD2    C2 6847   2.284   1.101  10.350 -0.0479 -0.0154 -0.1919
  460MPD2    C3 6848   2.303   1.204  10.260 -0.2400  0.8037  0.5616
  460MPD2    C4 6849   2.424   1.272  10.256  0.4881  0.2425  0.7641
  460MPD2    C5 6850   2.528   1.233  10.337  0.1057  0.0071 -0.0190
  460MPD2     H 6851   2.187   1.055  10.346 -0.4782  0.7207  1.6226
  460MPD2    H1 6852   2.445   1.351  10.185  0.1970  0.4224  0.8785
  460MPD2    H2 6853   2.603   1.124  10.488 -1.2828 -1.0512  2.5345
  460MPD2    H3 6854   2.624   1.278  10.317  1.4432 -1.8410  2.3248
  460MPD2     N 6855   2.198   1.232  10.171 -0.1702 -0.1956 -0.1203
  460MPD2    H5 6856   2.130   1.156  10.162  0.3936 -0.4564 -2.0879
  460MPD2    N1 6857   2.354   1.007  10.575 -0.5546 -0.2934  0.7111
  460MPD2    H7 6858   2.420   0.996  10.651  0.9620  1.7084 -0.3232
  461TMC3    C1 6859   2.089   1.345   9.988 -0.0892  0.4579  0.1609
  461TMC3    C2 6860   2.049   1.221   9.941 -0.4412  0.5539  0.1021
  461TMC3    C3 6861   1.962   1.226   9.839 -0.3287 -0.8945  0.3811
  461TMC3    C4 6862   2.049   1.468   9.924 -0.2497 -0.4137  0.1767
  461TMC3    C5 6863   1.951   1.462   9.828 -0.1235  0.4367  0.6809
  461TMC3    C6 6864   1.921   1.338   9.778  0.1599 -0.0606 -0.0540
  461TMC3     C 6865   2.185   1.350  10.099 -0.6061  0.1550 -0.8165
  461TMC3     O 6866   2.233   1.454  10.139  0.3790  0.2398  0.4748
  461TMC3     H 6867   2.088   1.126   9.976 -1.1851  0.6930  1.3314
  461TMC3    H1 6868   2.090   1.560   9.963  0.4185 -1.3919  1.7803
  461TMC3    H2 6869   1.842   1.326   9.705 -0.9666 -0.4362  1.2376
  461TMC3    C7 6870   1.854   1.565   9.800  0.2884  0.3794  0.5657
  461TMC3    C8 6871   1.956   1.109   9.756 -0.2389 -0.4624  0.6630
  461TMC3    O1 6872   1.751   1.543   9.739  0.3926 -0.8651 -0.4546
  461TMC3    O2 6873   1.976   1.121   9.638 -0.0154 -0.3544  0.5567
  462TMC3    C1 6874   1.679   2.180   0.501  0.8073  0.4130 -0.2783
  462TMC3    C2 6875   1.782   2.102   0.552  0.1401  0.0937 -0.0206
  462TMC3    C3 6876   1.745   2.020   0.650  0.5035  0.1914  0.0382
  462TMC3    C4 6877   1.539   2.157   0.521  0.3863 -0.0990 -1.1850
  462TMC3    C5 6878   1.510   2.054   0.609 -0.9021  0.0680 -0.3585
  462TMC3    C6 6879   1.611   1.989   0.673  0.3462 -0.0690 -0.8388
  462TMC3     C 6880   1.705   2.274   0.393  0.4813  0.9830  0.2037
  462TMC3     O 6881   1.635   2.374   0.392  0.3876  0.5406 -0.7297
  462TMC3     H 6882   1.886   2.124   0.530 -0.4627  1.4779 -1.4289
  462TMC3    H1 6883   1.466   2.218   0.469 -0.9259 -1.8926 -1.4128
  462TMC3    H2 6884   1.600   1.901   0.734  1.1572  0.0225 -0.5564
  462TMC3    C7 6885   1.382   1.989   0.612 -0.4241  0.7284  0.2389
  462TMC3    C8 6886   1.848   1.928   0.714 -0.4221 -0.0650  0.1216
  462TMC3    O1 6887   1.362   1.893   0.686  0.2263  0.0120  0.1675
  462TMC3    O2 6888   1.840   1.909   0.836  0.4666 -0.2897 -0.1937
  463MPD2     C 6889   3.631   4.639   1.507  0.2142 -0.5112  0.3315
  463MPD2    C1 6890   3.535   0.010   1.539 -0.1969 -0.6144 -0.8135
  463MPD2    C2 6891   3.577   0.138   1.565 -0.4917  0.3214 -0.5574
  463MPD2    C3 6892   3.711   0.178   1.551 -0.4026  0.0316  0.2114
  463MPD2    C4 6893   3.804   0.085   1.504  0.4164 -0.5971  0.4243
  463MPD2    C5 6894   3.766   4.678   1.490 -0.3486  0.4295 -0.0034
  463MPD2     H 6895   3.502   0.205   1.604 -0.9737 -0.2722 -0.4744
  463MPD2    H1 6896   3.903   0.116   1.474 -0.5547 -0.0445 -2.2101
  463MPD2    H2 6897   3.605   4.539   1.473 -1.3316  0.5294 -1.5273
  463MPD2    H3 6898   3.834   4.601   1.455 -2.3797 -1.4899  0.3162
  463MPD2     N 6899   3.751   0.309   1.577  0.7150 -1.1300 -0.5858
  463MPD2    H5 6900   3.848   0.329   1.558  1.2127 -1.7317  1.2831
  463MPD2    N1 6901   3.395   4.708   1.556  0.2598 -0.2959 -0.1771
  463MPD2    H7 6902   3.334   0.061   1.579 -0.7223 -0.9509 -0.6183
  464TMC3    C1 6903   3.188   4.600   1.532  0.8128  0.6138  0.0377
  464TMC3    C2 6904   3.139   4.688   1.620 -0.6089  0.3834 -0.2100
  464TMC3    C3 6905   3.001   4.693   1.635  0.0615  0.0853 -0.2362
  464TMC3    C4 6906   3.111   4.497   1.481 -0.1916 -0.0585  0.3450
  464TMC3    C5 6907   2.974   4.503   1.507 -0.2501  0.5182  0.4794
  464TMC3    C6 6908   2.913   4.601   1.580  0.2283 -0.1156 -0.0640
  464TMC3     C 6909   3.333   4.594   1.519  0.0211 -0.3060 -0.8409
  464TMC3     O 6910   3.384   4.510   1.446  0.0124  0.0461 -0.3005
  464TMC3     H 6911   3.199   0.035   1.676 -0.8068  0.6420 -0.3259
  464TMC3    H1 6912   3.145   4.429   1.403  1.4503  0.2813  0.7601
  464TMC3    H2 6913   2.808   4.617   1.600  0.1015  1.8669 -2.4216
  464TMC3    C7 6914   2.888   4.415   1.427  0.0150 -0.3927  0.3464
  464TMC3    C8 6915   2.958   0.092   1.697  0.3631 -0.1232  0.4068
  464TMC3    O1 6916   2.942   4.326   1.363 -0.0629  0.0864  0.4075
  464TMC3    O2 6917   3.039   0.184   1.715 -0.2929  0.0052  0.0177
  465MPD2     C 6918   4.272   3.619  16.941  0.0826 -0.3293  0.1686
  465MPD2    C1 6919   4.176   3.627  17.048 -0.4292 -0.4389 -0.1438
  465MPD2    C2 6920   4.063   3.710  17.030  0.2016  0.0288  0.1040
  465MPD2    C3 6921   4.059   3.793  16.920 -0.3905 -0.0451 -0.1425
  465MPD2    C4 6922   4.158   3.781  16.822  0.1670  0.7483  0.6295
  465MPD2    C5 6923   4.267   3.700  16.837  0.2041  0.4163  0.1285
  465MPD2     H 6924   3.983   3.733  17.099  0.2029  1.9852 -0.5386
  465MPD2    H1 6925   4.155   3.850  16.739  1.8455 -1.6133 -1.3775
  465MPD2    H2 6926   4.362   3.558  16.946 -0.6434 -1.3735  0.5764
  465MPD2    H3 6927   4.334   3.694  16.753 -0.1464 -2.2790  0.0474
  465MPD2     N 6928   3.947   3.877  16.902  0.4943  0.1837 -0.1592
  465MPD2    H5 6929   3.868   3.869  16.965  1.0907  1.9824  0.7967
  465MPD2    N1 6930   4.187   3.555  17.173 -0.0356 -0.2342 -0.2115
  465MPD2    H7 6931   4.111   3.579  17.236  0.3779 -0.5211  0.3886
  466TMC3    C1 6932   3.576   4.053  16.792 -0.2519 -0.6557 -0.1864
  466TMC3    C2 6933   3.585   4.173  16.726 -0.3609  0.2967  0.4252
  466TMC3    C3 6934   3.702   4.236  16.698 -0.3294 -0.4219 -0.3112
  466TMC3    C4 6935   3.694   4.000  16.836  0.3602  0.5879  0.2401
  466TMC3    C5 6936   3.819   4.061  16.811  1.0680  0.3044 -0.0782
  466TMC3    C6 6937   3.818   4.179  16.748 -0.1848 -0.5152 -0.1606
  466TMC3     C 6938   3.467   4.037  16.880 -0.7960  0.1249  0.3583
  466TMC3     O 6939   3.484   3.990  16.993  0.5452  0.2000 -0.3502
  466TMC3     H 6940   3.501   4.232  16.692  0.9851  1.7996 -0.3157
  466TMC3    H1 6941   3.687   3.905  16.886  0.8766 -0.2761 -1.3327
  466TMC3    H2 6942   3.915   4.222  16.729 -0.1559  0.2397  1.8191
  466TMC3    C7 6943   3.943   3.990  16.824  0.1445  0.0036  0.7161
  466TMC3    C8 6944   3.701   4.382  16.683 -0.2544  0.6443  0.7601
  466TMC3    O1 6945   4.035   4.042  16.766 -0.7512 -0.3660  0.0519
  466TMC3    O2 6946   3.785   4.446  16.749  0.1411 -0.0529  0.6961
  467TMC3    C1 6947   4.305   2.667  13.996  0.2216  0.5244 -1.1077
  467TMC3    C2 6948   4.337   2.795  13.955 -0.1493 -0.7660  0.2171
  467TMC3    C3 6949   4.244   2.869  13.889  0.5925 -0.3495  0.8567
  467TMC3    C4 6950   4.178   2.615  13.965 -0.2332  0.2133  0.4204
  467TMC3    C5 6951   4.090   2.694  13.894 -0.5097 -0.2970 -0.0971
  467TMC3    C6 6952   4.123   2.817  13.845  0.0837 -0.2029  0.2661
  467TMC3     C 6953   4.400   2.562  14.008  0.0189 -0.1210  0.6245
  467TMC3     O 6954   4.373   2.442  14.022 -0.8274 -0.2721 -0.0337
  467TMC3     H 6955   4.428   2.849  13.978  0.1848 -1.0177 -0.5576
  467TMC3    H1 6956   4.142   2.521  14.007  1.0931 -0.2958  0.3991
  467TMC3    H2 6957   4.048   2.880  13.798 -0.2766 -0.4801  0.4710
  467TMC3    C7 6958   3.962   2.649  13.840 -0.1437 -0.0297 -0.3676
  467TMC3    C8 6959   4.296   2.970  13.801  0.4882  0.2839  0.6138
  467TMC3    O1 6960   3.950   2.681  13.723  1.1515 -0.5435 -0.6057
  467TMC3    O2 6961   4.383   3.044  13.849  0.2762  0.2670 -0.2133
  468MPD2     C 6962   3.904   0.874  10.888 -0.4176 -0.0961 -0.2059
  468MPD2    C1 6963   4.027   0.837  10.921 -0.5139  0.8441  0.1685
  468MPD2    C2 6964   4.061   0.702  10.916 -0.4061  0.2877 -0.4756
  468MPD2    C3 6965   3.968   0.601  10.879  0.1527  0.5471  0.4036
  468MPD2    C4 6966   3.843   0.644  10.838 -0.5086 -0.3471  0.6667
  468MPD2    C5 6967   3.815   0.778  10.843  0.3654 -0.6323 -1.0661
  468MPD2     H 6968   4.162   0.676  10.942  0.1836  2.8316 -0.2107
  468MPD2    H1 6969   3.766   0.571  10.817 -1.6991  1.0661  0.0641
  468MPD2    H2 6970   3.871   0.977  10.901  2.4896  0.4548  2.8162
  468MPD2    H3 6971   3.716   0.820  10.828  0.1188 -0.5589  0.7851
  468MPD2     N 6972   4.003   0.467  10.900  0.0154  0.6276 -0.3043
  468MPD2    H5 6973   4.089   0.447  10.951 -1.4363  0.3252  2.0262
  468MPD2    N1 6974   4.124   0.933  10.965 -0.3683  0.8953  0.1130
  468MPD2    H7 6975   4.212   0.890  10.991  0.2655  1.9392 -0.3103
  469TMC3    C1 6976   4.200   1.130  11.072 -0.2956 -0.3719  0.2687
  469TMC3    C2 6977   4.280   1.057  11.156  0.2645 -0.9332 -0.1072
  469TMC3    C3 6978   4.346   1.119  11.259  0.3209  0.4357  0.1597
  469TMC3    C4 6979   4.184   1.260  11.104  0.0376  0.6045  0.2770
  469TMC3    C5 6980   4.218   1.306  11.226  1.0376  0.3572  0.2403
  469TMC3    C6 6981   4.315   1.243  11.299  0.6616  0.6762 -0.9813
  469TMC3     C 6982   4.107   1.070  10.982 -0.4511 -0.3187 -0.5643
  469TMC3     O 6983   4.018   1.139  10.932 -0.6074  0.3885  0.1813
  469TMC3     H 6984   4.304   0.953  11.135  1.6862 -0.6747  0.2160
  469TMC3    H1 6985   4.116   1.320  11.045 -1.9364 -0.0640  1.9019
  469TMC3    H2 6986   4.374   1.296  11.373 -1.9624  0.2863  1.3969
  469TMC3    C7 6987   4.211   1.452  11.238  0.0453  0.0576 -0.3263
  469TMC3    C8 6988   4.448   1.043  11.336 -0.5998 -0.2066 -0.5130
  469TMC3    O1 6989   4.176   1.510  11.139  0.1952 -0.0458 -0.5129
  469TMC3    O2 6990   4.497   0.951  11.275  0.2232 -1.1565  0.4724
  470TMC3    C1 6991   0.974   1.740   0.896  1.1329 -0.4694  0.2396
  470TMC3    C2 6992   0.986   1.880   0.893  0.2590 -0.4750 -0.2595
  470TMC3    C3 6993   1.093   1.946   0.941  0.0676  1.0253 -0.5073
  470TMC3    C4 6994   1.076   1.668   0.947 -0.0043 -0.6452  0.1561
  470TMC3    C5 6995   1.177   1.735   1.009 -0.5880  0.0050  0.5503
  470TMC3    C6 6996   1.193   1.871   1.003  0.3694 -0.0519 -0.0095
  470TMC3     C 6997   0.866   1.684   0.814  0.2009  0.0716  0.3705
  470TMC3     O 6998   0.804   1.743   0.727 -0.1021  0.1486  0.6914
  470TMC3     H 6999   0.902   1.930   0.847 -1.5252 -3.0037  0.2025
  470TMC3    H1 7000   1.062   1.561   0.956  0.1869 -0.4375  2.8747
  470TMC3    H2 7001   1.279   1.913   1.054  0.1875  1.6023 -1.0328
  470TMC3    C7 7002   1.281   1.663   1.081  0.2801 -0.1098 -0.1309
  470TMC3    C8 7003   1.087   2.089   0.974  0.5183 -0.1616 -0.6078
  470TMC3    O1 7004   1.335   1.571   1.022  0.0558 -0.1227 -0.7265
  470TMC3    O2 7005   1.182   2.132   1.036 -0.3856  0.2030  0.2499
  471MPD2     C 7006   1.611   3.042  16.699  0.8197 -0.3844 -0.1593
  471MPD2    C1 7007   1.630   2.913  16.696 -0.2435 -0.2854 -0.4012
  471MPD2    C2 7008   1.677   2.848  16.799  0.2812  0.6770 -0.2846
  471MPD2    C3 7009   1.709   2.922  16.915 -0.5437 -0.3503  0.2522
  471MPD2    C4 7010   1.705   3.056  16.912 -0.2703  0.1943  0.0331
  471MPD2    C5 7011   1.645   3.116  16.804 -0.1462  0.3011  0.5976
  471MPD2     H 7012   1.681   2.740  16.796 -1.7142  0.5766  0.8545
  471MPD2    H1 7013   1.749   3.114  16.992  1.6156  0.4613 -1.2003
  471MPD2    H2 7014   1.579   3.100  16.613  0.2286 -2.6734 -1.4794
  471MPD2    H3 7015   1.616   3.221  16.808 -1.3426 -0.0709  1.4576
  471MPD2     N 7016   1.752   2.848  17.026 -0.4163  0.0721 -0.0787
  471MPD2    H5 7017   1.759   2.748  17.014  1.6120  0.2815 -0.6570
  471MPD2    N1 7018   1.571   2.825  16.605  0.9619  0.0700  0.2113
  471MPD2    H7 7019   1.574   2.726  16.628  1.9278 -0.1647 -0.9089
  472TMC3    C1 7020   1.425   2.741  16.437  0.5548  0.7124  0.4706
  472TMC3    C2 7021   1.307   2.767  16.373 -1.0009  0.3008  0.0839
  472TMC3    C3 7022   1.226   2.652  16.350 -0.5709 -0.2347 -0.3432
  472TMC3    C4 7023   1.472   2.615  16.468  0.1583 -0.3683  0.5008
  472TMC3    C5 7024   1.396   2.508  16.433 -0.3734 -0.0769  0.5510
  472TMC3    C6 7025   1.275   2.531  16.374 -0.0534  0.4115  0.3452
  472TMC3     C 7026   1.498   2.858  16.495  1.1379 -0.2185 -0.2296
  472TMC3     O 7027   1.453   2.968  16.459 -0.8026  0.2281  0.6332
  472TMC3     H 7028   1.251   2.859  16.358  0.3080  1.0531 -0.1992
  472TMC3    H1 7029   1.566   2.586  16.512  0.9915  0.2506 -0.8802
  472TMC3    H2 7030   1.222   2.446  16.332 -1.3713  1.3184  0.1486
  472TMC3    C7 7031   1.421   2.379  16.504 -0.5968  0.7389 -0.3387
  472TMC3    C8 7032   1.086   2.670  16.308 -0.2867  0.1341  0.1678
  472TMC3    O1 7033   1.464   2.385  16.619  0.3110  0.3057  0.4634
  472TMC3    O2 7034   1.071   2.764  16.230  0.2996  0.3129 -0.5378
  473MPD2     C 7035   1.946   0.067  13.698 -0.0313  0.9041 -0.1915
  473MPD2    C1 7036   1.819   0.123  13.728 -0.6323 -0.6018  0.6540
  473MPD2    C2 7037   1.795   0.148  13.860 -0.0034  0.2810 -0.1624
  473MPD2    C3 7038   1.886   0.125  13.963  0.1230  0.6347  0.2309
  473MPD2    C4 7039   2.009   0.058  13.938 -0.3609  0.3272 -0.0659
  473MPD2    C5 7040   2.035   0.039  13.802  0.1275 -0.3262  0.0612
  473MPD2     H 7041   1.697   0.192  13.879 -0.1421 -0.5785  1.0704
  473MPD2    H1 7042   2.080   0.014  14.008  0.3986  0.7887 -0.5527
  473MPD2    H2 7043   1.968   0.049  13.594  1.3668  0.1398  0.2438
  473MPD2    H3 7044   2.129   4.718  13.771  0.9842  0.6446  1.2015
  473MPD2     N 7045   1.841   0.161  14.090  0.1335  0.4680 -0.0169
  473MPD2    H5 7046   1.752   0.210  14.090 -0.8225 -1.2842 -0.6325
  473MPD2    N1 7047   1.700   0.138  13.650 -0.1328  0.1634 -0.2111
  473MPD2    H7 7048   1.626   0.177  13.708  0.0231  1.3578 -0.8115
  474TMC3    C1 7049   1.834   0.209  14.324 -0.9287  0.1798 -0.8921
  474TMC3    C2 7050   1.708   0.262  14.296  0.4371  0.0762 -0.7750
  474TMC3    C3 7051   1.655   0.348  14.386 -1.4209 -0.1384 -1.3928
  474TMC3    C4 7052   1.907   0.253  14.432 -0.0404 -0.1782  0.1748
  474TMC3    C5 7053   1.849   0.345  14.518  0.3260  0.9713 -0.4434
  474TMC3    C6 7054   1.718   0.389  14.501  0.2340 -0.0642 -0.0971
  474TMC3     C 7055   1.910   0.150  14.208 -0.3286  0.6546 -0.1554
  474TMC3     O 7056   2.027   0.107  14.225 -0.4904 -0.7991 -0.3427
  474TMC3     H 7057   1.648   0.248  14.206  3.0803 -0.5711 -2.4485
  474TMC3    H1 7058   1.996   0.195  14.455 -0.1989 -0.1472  0.8736
  474TMC3    H2 7059   1.658   0.442  14.573  0.7462 -0.0042  0.2801
  474TMC3    C7 7060   1.955   0.425  14.591 -0.2544  0.0902  0.7337
  474TMC3    C8 7061   1.528   0.392  14.343 -0.0903  0.6550 -1.1735
  474TMC3    O1 7062   2.070   0.401  14.557 -0.3577 -0.5478  0.0832
  474TMC3    O2 7063   1.461   0.328  14.267 -0.1390 -0.0217 -0.0820
  475MPD2     C 7064   4.576   3.077  10.866 -0.0203 -0.2486 -0.1474
  475MPD2    C1 7065   4.549   3.129  10.741 -0.0886 -0.3288 -0.3259
  475MPD2    C2 7066   4.423   3.114  10.689  0.6601  0.0280  0.0644
  475MPD2    C3 7067   4.318   3.062  10.770 -0.4119 -0.5798  0.4115
  475MPD2    C4 7068   4.347   3.023  10.896 -0.3862 -0.1239  0.1239
  475MPD2    C5 7069   4.476   3.025  10.949  0.6254  0.3259  0.4251
  475MPD2     H 7070   4.404   3.156  10.591  1.5389  1.2536  0.4257
  475MPD2    H1 7071   4.272   2.991  10.968 -1.3695 -2.9088 -2.1337
  475MPD2    H2 7072   4.676   3.084  10.907  0.6331 -0.2090 -1.7250
  475MPD2    H3 7073   4.493   2.996  11.052  0.4129 -2.1719 -0.2375
  475MPD2     N 7074   4.185   3.066  10.715 -0.1806  0.3960  0.2070
  475MPD2    H5 7075   4.173   3.125  10.633 -0.0834  1.1092  0.7052
  475MPD2    N1 7076   4.645   3.175  10.650 -0.0376 -0.5851  0.2828
  475MPD2    H7 7077   4.611   3.215  10.563 -2.9298 -0.7787  1.3124
  476TMC3    C1 7078   0.126   3.260  10.574 -0.9885 -0.5945  0.0740
  476TMC3    C2 7079   0.073   3.260  10.448 -0.1088  0.2788  0.3426
  476TMC3    C3 7080   0.129   3.331  10.352  0.1471 -0.6999 -0.2261
  476TMC3    C4 7081   0.229   3.339  10.611 -0.2456 -0.2621  0.5843
  476TMC3    C5 7082   0.284   3.411  10.514 -0.6770  0.1828 -0.2295
  476TMC3    C6 7083   0.237   3.414  10.385  0.2919  0.7147  0.4622
  476TMC3     C 7084   0.048   3.214  10.685  0.3674 -0.0096 -0.0921
  476TMC3     O 7085   0.113   3.215  10.788 -0.3279  0.4015  0.7796
  476TMC3     H 7086   4.718   3.190  10.424 -2.0065  1.2079  3.8000
  476TMC3    H1 7087   0.282   3.324  10.704 -0.8689 -1.5947  0.7286
  476TMC3    H2 7088   0.287   3.469  10.307  0.3236  0.0226 -0.0041
  476TMC3    C7 7089   0.410   3.476  10.544 -0.0821 -0.2900  0.2698
  476TMC3    C8 7090   0.065   3.364  10.226 -1.0236  0.4785 -0.6068
  476TMC3    O1 7091   0.501   3.466  10.458 -0.4999  1.0646  0.3119
  476TMC3    O2 7092   0.080   3.473  10.182 -0.0856  0.1790  0.0381
  477MPD2     C 7093   2.675   4.680  11.382  0.8284  0.0456  0.6369
  477MPD2    C1 7094   2.582   0.028  11.451 -0.2583 -0.0721  0.3006
  477MPD2    C2 7095   2.587   0.033  11.594 -0.1229 -0.6716  0.2490
  477MPD2    C3 7096   2.678   4.674  11.653  0.9475 -0.0101 -0.2393
  477MPD2    C4 7097   2.771   4.599  11.580  0.3125 -0.2812  0.7058
  477MPD2    C5 7098   2.767   4.600  11.443  0.6654  0.4302  0.0651
  477MPD2     H 7099   2.514   0.092  11.648  0.7207  1.7621 -1.2719
  477MPD2    H1 7100   2.838   4.536  11.638 -1.5217 -1.2385  1.7956
  477MPD2    H2 7101   2.668   4.676  11.273  3.0868 -1.3139  0.5518
  477MPD2    H3 7102   2.832   4.531  11.391  0.8822  0.6273  0.0725
  477MPD2     N 7103   2.704   4.674  11.791  0.1274 -0.4785  0.8274
  477MPD2    H5 7104   2.777   4.610  11.821  0.2844 -0.6624  0.0716
  477MPD2    N1 7105   2.479   0.089  11.378 -0.1428 -0.4743  0.1340
  477MPD2    H7 7106   2.491   0.072  11.279 -2.9351 -0.8815 -0.1276
  478TMC3    C1 7107   2.291   0.231  11.337 -0.3694  0.1679  1.4852
  478TMC3    C2 7108   2.158   0.246  11.362  0.4987 -1.2160 -0.1949
  478TMC3    C3 7109   2.091   0.340  11.291 -0.3771 -0.1787 -0.6730
  478TMC3    C4 7110   2.347   0.289  11.228  0.5575  0.6023  0.4942
  478TMC3    C5 7111   2.270   0.375  11.155 -0.6166  0.4713 -0.1544
  478TMC3    C6 7112   2.148   0.409  11.190  0.5842  0.8293 -0.5894
  478TMC3     C 7113   2.372   0.154  11.426 -0.2947 -0.2550 -0.3555
  478TMC3     O 7114   2.328   0.164  11.540 -0.1659 -0.2902  0.8184
  478TMC3     H 7115   2.114   0.192  11.445  1.7326 -0.4823  0.9281
  478TMC3    H1 7116   2.452   0.277  11.203  0.7030 -0.5506  1.6370
  478TMC3    H2 7117   2.086   0.480  11.137  1.0546  0.4386 -1.6718
  478TMC3    C7 7118   2.313   0.384  11.013  0.3881  0.4324 -0.0504
  478TMC3    C8 7119   1.977   0.398  11.355  0.2747  0.4304  0.0750
  478TMC3    O1 7120   2.432   0.371  10.990 -0.1960  0.5945  0.7757
  478TMC3    O2 7121   1.904   0.317  11.414  0.1555 -0.0366 -0.2868
  479MPD2     C 7122   0.762   1.674  15.058  0.1514  0.6236  0.4471
  479MPD2    C1 7123   0.723   1.710  15.185  0.1732  0.2089  0.2219
  479MPD2    C2 7124   0.817   1.766  15.269 -0.2130 -0.5306 -0.1609
  479MPD2    C3 7125   0.947   1.785  15.217 -0.4962 -0.0182 -0.0057
  479MPD2    C4 7126   0.972   1.763  15.084  0.0618  0.2491 -0.3832
  479MPD2    C5 7127   0.878   1.714  15.006  0.3816  0.1724  0.6362
  479MPD2     H 7128   0.793   1.781  15.373 -0.5246 -0.4807 -0.2409
  479MPD2    H1 7129   1.070   1.775  15.039 -0.1946 -0.1648 -1.0436
  479MPD2    H2 7130   0.690   1.619  14.999 -0.7359 -0.1908  2.3093
  479MPD2    H3 7131   0.905   1.695  14.903  0.0257  0.8084  0.4293
  479MPD2     N 7132   1.053   1.838  15.299  0.0634 -0.6227  0.2000
  479MPD2    H5 7133   1.129   1.888  15.253 -1.4651  0.8241 -0.7726
  479MPD2    N1 7134   0.587   1.681  15.215  0.0741  0.5731  0.8272
  479MPD2    H7 7135   0.528   1.634  15.147 -1.7855  1.6202  1.7237
  480TMC3    C1 7136   1.132   2.045  15.715 -0.5985  0.2059  0.2426
  480TMC3    C2 7137   1.118   2.169  15.653  0.2268 -0.1117 -0.6221
  480TMC3    C3 7138   1.122   2.177  15.513 -1.1023  0.2242 -0.1596
  480TMC3    C4 7139   1.139   1.927  15.648  0.4170 -0.9374  0.1171
  480TMC3    C5 7140   1.127   1.942  15.507 -0.2645 -0.2423  0.0898
  480TMC3    C6 7141   1.136   2.060  15.440 -0.1556  0.3136  0.3011
  480TMC3     C 7142   1.099   2.031  15.856  0.4511 -0.3195  0.0573
  480TMC3     O 7143   1.123   1.922  15.902 -0.1708  0.9386 -0.0974
  480TMC3     H 7144   1.112   2.260  15.713 -2.1767 -0.6884  0.0053
  480TMC3    H1 7145   1.149   1.830  15.695 -0.9735 -0.3839  1.5531
  480TMC3    H2 7146   1.132   2.055  15.332 -2.2650 -0.9983  0.4316
  480TMC3    C7 7147   1.050   1.837  15.440 -0.2443 -0.3750 -0.4882
  480TMC3    C8 7148   1.054   2.291  15.449  0.2402 -0.0477  0.0851
  480TMC3    O1 7149   0.994   1.759  15.515 -0.2189  0.0633  0.2534
  480TMC3    O2 7150   0.978   2.356  15.516 -0.1093 -0.0413 -0.1029
  481MPD2     C 7151   2.646   1.132  14.298  0.1774 -0.2450  0.0179
  481MPD2    C1 7152   2.568   1.239  14.261 -0.3516  0.0988  0.1749
  481MPD2    C2 7153   2.517   1.326  14.357 -0.3184 -0.5125  0.2260
  481MPD2    C3 7154   2.536   1.308  14.497  0.1247 -0.3800 -0.2137
  481MPD2    C4 7155   2.598   1.195  14.532 -0.1386  0.0750 -0.6026
  481MPD2    C5 7156   2.659   1.117  14.435 -0.1035 -0.1325 -1.6682
  481MPD2     H 7157   2.464   1.415  14.324  1.9033  0.1058 -1.7141
  481MPD2    H1 7158   2.621   1.165  14.633  1.0960  1.3269 -0.5111
  481MPD2    H2 7159   2.705   1.068  14.234  0.7621  1.3202 -1.0219
  481MPD2    H3 7160   2.719   1.038  14.480  1.1395  1.8120  0.0880
  481MPD2     N 7161   2.495   1.398  14.597 -0.2968  0.5596  0.9553
  481MPD2    H5 7162   2.496   1.355  14.689 -1.2902 -2.0206 -0.2361
  481MPD2    N1 7163   2.570   1.273  14.128 -0.1651 -0.5125  0.5022
  481MPD2    H7 7164   2.635   1.220  14.070  0.4898  0.3713  0.4353
  482TMC3    C1 7165   2.510   1.410  13.941  0.4518  0.1925 -0.5929
  482TMC3    C2 7166   2.640   1.415  13.895  0.5545  0.7179 -0.2414
  482TMC3    C3 7167   2.659   1.448  13.758 -0.7651  0.4612  0.5900
  482TMC3    C4 7168   2.402   1.445  13.863 -0.3504  0.3339  0.8229
  482TMC3    C5 7169   2.430   1.479  13.732  0.0951 -0.1836 -0.4956
  482TMC3    C6 7170   2.555   1.473  13.676 -0.7256 -0.1119 -0.5907
  482TMC3     C 7171   2.476   1.353  14.071 -0.4889 -0.9036 -0.2380
  482TMC3     O 7172   2.356   1.345  14.091  0.2115  0.0118  0.1715
  482TMC3     H 7173   2.718   1.410  13.970  1.1083 -1.2088 -0.9406
  482TMC3    H1 7174   2.303   1.448  13.906 -0.3863 -1.4389  0.8650
  482TMC3    H2 7175   2.557   1.476  13.567 -1.2004 -0.0222 -0.5955
  482TMC3    C7 7176   2.313   1.475  13.647  0.0165 -0.7392 -0.4189
  482TMC3    C8 7177   2.758   1.368  13.692  1.1794 -1.2076  0.2993
  482TMC3    O1 7178   2.212   1.414  13.683 -0.1072  0.7474 -0.6566
  482TMC3    O2 7179   2.732   1.328  13.576  0.5938 -0.1665  0.9088
  483TMC3    C1 7180   0.569   0.854   1.514  0.1550  0.2364  0.2240
  483TMC3    C2 7181   0.621   0.975   1.480 -0.1009 -0.3843 -0.5893
  483TMC3    C3 7182   0.757   0.991   1.487 -0.2959 -0.2728  0.0980
  483TMC3    C4 7183   0.648   0.758   1.570  0.6774 -0.3350  0.1298
  483TMC3    C5 7184   0.785   0.777   1.579 -0.2422  0.3984 -0.1774
  483TMC3    C6 7185   0.840   0.891   1.534 -0.6687  1.1644  0.9154
  483TMC3     C 7186   0.433   0.832   1.472  0.4597 -0.4477  0.6216
  483TMC3     O 7187   0.363   0.926   1.441  0.2891  0.4758  0.2603
  483TMC3     H 7188   0.561   1.062   1.456  0.4536  0.4685  1.1018
  483TMC3    H1 7189   0.607   0.667   1.612  2.4427 -1.8223 -1.3715
  483TMC3    H2 7190   0.947   0.904   1.545 -0.3473 -0.9714  0.3135
  483TMC3    C7 7191   0.873   0.663   1.591 -0.3864 -0.0844 -0.0757
  483TMC3    C8 7192   0.803   1.062   1.366  0.0899  0.1565  0.2897
  483TMC3    O1 7193   0.979   0.690   1.643 -0.5984 -0.3998  0.0151
  483TMC3    O2 7194   0.726   1.097   1.280 -0.4433  0.1981 -0.0478
  484MPD2     C 7195   3.183   3.928  12.460 -0.6895  0.1106 -0.5185
  484MPD2    C1 7196   3.233   3.832  12.539 -0.6523  0.5481 -0.5980
  484MPD2    C2 7197   3.372   3.822  12.551 -0.5423 -1.5354 -0.3823
  484MPD2    C3 7198   3.454   3.899  12.479  0.0546  0.0522 -0.5707
  484MPD2    C4 7199   3.399   3.995  12.400  0.1508  0.4710 -0.0071
  484MPD2    C5 7200   3.263   4.012  12.399  0.4705  0.2253 -0.1463
  484MPD2     H 7201   3.411   3.744  12.616  1.0399  0.6459  1.3181
  484MPD2    H1 7202   3.465   4.063  12.346 -1.8293  2.1636 -0.2959
  484MPD2    H2 7203   3.075   3.941  12.458 -0.7579 -0.6827 -2.0565
  484MPD2    H3 7204   3.217   4.090  12.340  1.5051 -0.7612 -2.2475
  484MPD2     N 7205   3.592   3.870  12.464  0.5634 -0.3377 -0.1202
  484MPD2    H5 7206   3.637   3.913  12.384  1.2715  2.6012  1.8640
  484MPD2    N1 7207   3.143   3.734  12.588  0.3655  0.0345  1.1151
  484MPD2    H7 7208   3.044   3.743  12.565  0.4756  1.6895  1.3576
  485TMC3    C1 7209   3.784   3.740  12.482 -0.5954 -0.2967 -0.4226
  485TMC3    C2 7210   3.865   3.663  12.554  0.7004 -0.3556  0.1799
  485TMC3    C3 7211   3.931   3.555  12.502 -0.1417 -0.1386 -0.0736
  485TMC3    C4 7212   3.782   3.721  12.348  1.0872  0.0027  0.1714
  485TMC3    C5 7213   3.831   3.607  12.295  0.6682  0.4189  0.3275
  485TMC3    C6 7214   3.912   3.519  12.369  0.6660 -0.5284  0.4853
  485TMC3     C 7215   3.664   3.791  12.549 -0.4372  0.1256 -0.3691
  485TMC3     O 7216   3.635   3.742  12.658 -0.5171 -0.3450 -0.3089
  485TMC3     H 7217   3.887   3.693  12.656 -2.6798 -1.0129  1.0689
  485TMC3    H1 7218   3.712   3.772  12.282 -0.6334 -1.0845  1.1709
  485TMC3    H2 7219   3.953   3.425  12.332  0.8710  0.3369 -1.5148
  485TMC3    C7 7220   3.821   3.582  12.152  0.4107  0.8268 -0.3436
  485TMC3    C8 7221   4.059   3.513  12.565 -0.2467 -0.2887 -0.6507
  485TMC3    O1 7222   3.721   3.614  12.089 -0.9177 -0.4871 -0.1055
  485TMC3    O2 7223   4.076   3.523  12.683  0.6097 -0.2314  0.0490
  486MPD2     C 7224   0.589   2.377  13.044 -1.0035  0.0663 -0.1710
  486MPD2    C1 7225   0.676   2.369  12.940  0.7513  0.5906  0.5291
  486MPD2    C2 7226   0.719   2.491  12.884  0.5090  0.2037 -0.4893
  486MPD2    C3 7227   0.676   2.615  12.932  0.2764 -0.1979 -0.5708
  486MPD2    C4 7228   0.604   2.614  13.049 -0.0956 -0.8789  0.1660
  486MPD2    C5 7229   0.553   2.499  13.100  0.2613 -0.5193 -0.4127
  486MPD2     H 7230   0.786   2.492  12.799  0.6917  2.1986 -0.3140
  486MPD2    H1 7231   0.577   2.704  13.102  1.5098 -0.3398  0.0600
  486MPD2    H2 7232   0.545   2.288  13.088 -2.6143 -0.0631 -2.0661
  486MPD2    H3 7233   0.489   2.491  13.187 -1.3449 -0.5483 -1.5923
  486MPD2     N 7234   0.708   2.733  12.865  0.3577 -0.0511 -0.5466
  486MPD2    H5 7235   0.755   2.733  12.775  0.7273 -1.8999 -0.3537
  486MPD2    N1 7236   0.715   2.237  12.899  0.1005 -0.2485 -0.3919
  486MPD2    H7 7237   0.675   2.163  12.956 -1.7233  2.6839  2.1023
  487TMC3    C1 7238   0.806   2.056  12.778 -0.5512  0.0784  0.4058
  487TMC3    C2 7239   0.696   1.989  12.811  0.1673 -0.0322 -0.0810
  487TMC3    C3 7240   0.699   1.853  12.830 -0.2255  0.2007 -0.3283
  487TMC3    C4 7241   0.930   1.993  12.767 -0.5391 -0.5023  0.3777
  487TMC3    C5 7242   0.925   1.852  12.766  0.5329 -0.3676 -0.4551
  487TMC3    C6 7243   0.814   1.779  12.814  0.8403 -0.2185 -0.1443
  487TMC3     C 7244   0.799   2.206  12.795 -0.4165 -0.2024 -0.8198
  487TMC3     O 7245   0.864   2.275  12.720  0.2463 -0.2282  0.5045
  487TMC3     H 7246   0.603   2.044  12.815  0.5802  0.5701  1.1457
  487TMC3    H1 7247   1.015   2.060  12.761 -1.4615  0.6618  0.3213
  487TMC3    H2 7248   0.814   1.671  12.808 -1.0940 -0.2577  0.5317
  487TMC3    C7 7249   1.041   1.780  12.775  0.2010 -0.0612 -0.1474
  487TMC3    C8 7250   0.581   1.785  12.879 -0.3956  0.0510 -0.4803
  487TMC3    O1 7251   1.031   1.663  12.799 -0.1539 -0.0873  0.1168
  487TMC3    O2 7252   0.484   1.855  12.889  0.2820 -0.3552  0.2026
  488MPD2     C 7253   0.820   3.609  16.603 -0.4516 -0.0530  0.2657
  488MPD2    C1 7254   0.819   3.717  16.688 -0.3377  0.2739  0.2707
  488MPD2    C2 7255   0.777   3.698  16.816  0.2432 -0.2065  0.2308
  488MPD2    C3 7256   0.716   3.580  16.856 -0.1658 -0.9976  0.1007
  488MPD2    C4 7257   0.698   3.478  16.766  0.3794 -0.3833 -0.0158
  488MPD2    C5 7258   0.756   3.495  16.641 -0.8660 -0.3685 -0.2204
  488MPD2     H 7259   0.780   3.783  16.884  0.2798  0.2787 -0.3822
  488MPD2    H1 7260   0.669   3.376  16.788 -5.5716  2.0039  3.1104
  488MPD2    H2 7261   0.851   3.615  16.500  1.7750  0.1782  0.9514
  488MPD2    H3 7262   0.741   3.417  16.568 -0.7188  0.9729 -1.6974
  488MPD2     N 7263   0.686   3.571  16.995  0.4592 -0.4178 -0.4913
  488MPD2    H5 7264   0.734   3.639  17.053 -1.5410  0.4890  0.0697
  488MPD2    N1 7265   0.859   3.849  16.652  0.7918 -0.1104  0.1451
  488MPD2    H7 7266   0.856   3.910  16.733  2.1968  1.3748 -0.9034
  489TMC3    C1 7267   0.678   3.451  17.198  0.2158  0.0727 -0.6984
  489TMC3    C2 7268   0.802   3.491  17.230  0.3816  0.2288 -0.2577
  489TMC3    C3 7269   0.828   3.505  17.364  0.1973  0.5543 -0.4189
  489TMC3    C4 7270   0.587   3.404  17.289 -0.0149 -0.9119 -0.2474
  489TMC3    C5 7271   0.624   3.418  17.422  0.9890 -0.6765  0.2697
  489TMC3    C6 7272   0.743   3.468  17.459 -0.2838 -0.4950  0.2345
  489TMC3     C 7273   0.638   3.456  17.057 -0.0999 -0.1022  0.5027
  489TMC3     O 7274   0.571   3.366  17.007  0.0497  0.3186 -0.4457
  489TMC3     H 7275   0.869   3.518  17.149  0.1232 -1.6776 -1.1017
  489TMC3    H1 7276   0.492   3.363  17.258 -1.1872  1.9421 -0.3980
  489TMC3    H2 7277   0.770   3.468  17.564  0.9845 -0.5780 -0.0964
  489TMC3    C7 7278   0.523   3.368  17.516  0.1024  1.0421 -0.0721
  489TMC3    C8 7279   0.903   3.619  17.391 -0.2022 -0.4775 -0.1505
  489TMC3    O1 7280   0.403   3.370  17.493 -0.3045  0.1378 -0.2920
  489TMC3    O2 7281   0.977   3.658  17.302  0.3882 -0.1831  0.7163
  490MPD2     C 7282   1.384   3.513   0.307 -0.5185  0.0141  1.3576
  490MPD2    C1 7283   1.415   3.469   0.174 -0.0318 -0.3002 -0.2852
  490MPD2    C2 7284   1.473   3.560   0.084  0.6252 -0.1314  0.0840
  490MPD2    C3 7285   1.511   3.688   0.122  0.5764  0.0123  0.0277
  490MPD2    C4 7286   1.489   3.725   0.259 -0.0307 -0.6311 -0.3353
  490MPD2    C5 7287   1.428   3.635   0.346 -0.2096 -0.6934  0.4323
  490MPD2     H 7288   1.490   3.517  17.683  1.4346 -0.4399  0.3606
  490MPD2    H1 7289   1.508   3.822   0.302 -1.8297 -0.9940  1.2718
  490MPD2    H2 7290   1.336   3.450   0.380 -0.2597  0.0021  1.5152
  490MPD2    H3 7291   1.413   3.667   0.448  0.3050 -0.7866  0.5384
  490MPD2     N 7292   1.586   3.786   0.047  0.3540 -0.1952  0.1264
  490MPD2    H5 7293   1.613   3.875   0.089 -0.5323  0.4781 -0.7484
  490MPD2    N1 7294   1.396   3.334   0.140  0.0816  0.4671  0.3477
  490MPD2    H7 7295   1.435   3.304   0.051 -2.5813  0.7446 -0.8920
  491TMC3    C1 7296   1.395   3.098   0.151  0.0354 -0.4096  0.3771
  491TMC3    C2 7297   1.470   3.003   0.215 -0.0385 -0.1662  0.0613
  491TMC3    C3 7298   1.460   2.869   0.187 -0.2740 -0.9724 -0.1154
  491TMC3    C4 7299   1.307   3.061   0.056 -0.3593 -0.1199 -0.3141
  491TMC3    C5 7300   1.295   2.927   0.036 -0.2506 -0.5734  0.1953
  491TMC3    C6 7301   1.371   2.830   0.090  0.2842 -0.5304 -0.3316
  491TMC3     C 7302   1.375   3.224   0.226  1.1569  0.4610  0.1938
  491TMC3     O 7303   1.385   3.223   0.346 -0.4797 -0.4998 -0.2243
  491TMC3     H 7304   1.533   3.037   0.297 -0.8685  2.1650 -0.2713
  491TMC3    H1 7305   1.246   3.131   0.001  0.7989  3.1019  2.5624
  491TMC3    H2 7306   1.365   2.729   0.051  2.4943 -0.1028 -1.7245
  491TMC3    C7 7307   1.179   2.879  17.665  0.2718 -0.3161  1.4239
  491TMC3    C8 7308   1.565   2.785   0.234 -0.0223 -0.4390 -0.5304
  491TMC3    O1 7309   1.135   2.941  17.571 -0.5603 -0.2678 -0.0147
  491TMC3    O2 7310   1.681   2.831   0.219  0.5025 -0.0548 -0.2184
  492MPD2     C 7311   2.266   3.377  11.268  0.2480  0.1738 -0.4071
  492MPD2    C1 7312   2.136   3.398  11.209  1.3932 -0.1095  0.5158
  492MPD2    C2 7313   2.026   3.346  11.285 -0.8360  0.0525 -0.6094
  492MPD2    C3 7314   2.039   3.302  11.416  0.3371 -0.1597  0.1820
  492MPD2    C4 7315   2.170   3.279  11.460  0.9286 -0.1724  0.0356
  492MPD2    C5 7316   2.281   3.311  11.392  0.3119 -0.5187  0.1838
  492MPD2     H 7317   1.922   3.353  11.254 -1.3127 -1.2414  0.6968
  492MPD2    H1 7318   2.180   3.224  11.554 -0.6628 -0.1082  0.2367
  492MPD2    H2 7319   2.356   3.402  11.212  0.7247 -0.2433  0.1699
  492MPD2    H3 7320   2.379   3.305  11.438 -0.1183 -2.5807  0.7960
  492MPD2     N 7321   1.937   3.266  11.506  0.1346  0.0575 -0.4381
  492MPD2    H5 7322   1.976   3.244  11.598 -0.1432  0.2945 -0.2650
  492MPD2    N1 7323   2.119   3.459  11.084 -0.4499 -0.7257  0.8641
  492MPD2    H7 7324   2.199   3.509  11.049 -0.1020 -2.0465 -0.2207
  493TMC3    C1 7325   2.003   3.537  10.904 -0.4818  0.4399  0.7687
  493TMC3    C2 7326   2.081   3.651  10.909  0.1619  0.2782 -0.7102
  493TMC3    C3 7327   2.094   3.709  10.778 -0.6525  0.2347  0.2050
  493TMC3    C4 7328   1.930   3.490  10.795  0.1043  0.6746 -0.0193
  493TMC3    C5 7329   1.940   3.562  10.672  0.5881  0.8912 -0.4921
  493TMC3    C6 7330   2.029   3.667  10.660 -0.1874  0.3551 -0.0174
  493TMC3     C 7331   2.003   3.446  11.015 -0.6184 -0.3682  0.7086
  493TMC3     O 7332   1.919   3.359  11.026 -0.4519  0.1108 -0.2515
  493TMC3     H 7333   2.108   3.696  11.004 -1.2323 -0.2774 -0.0476
  493TMC3    H1 7334   1.890   3.389  10.792 -0.0621  0.7426 -0.0883
  493TMC3    H2 7335   2.063   3.716  10.570  0.3329  1.8425  0.9809
  493TMC3    C7 7336   1.841   3.540  10.571  0.3862  0.3778  0.3819
  493TMC3    C8 7337   2.163   3.832  10.761  0.6788  0.0443 -0.9705
  493TMC3    O1 7338   1.775   3.437  10.586 -0.4328  0.6218 -0.0939
  493TMC3    O2 7339   2.150   3.903  10.661 -0.4169  0.0136  0.1201
  494TMC3    C1 7340   2.629   0.922   0.765 -1.0047 -0.9175 -0.3606
  494TMC3    C2 7341   2.611   0.784   0.754 -0.0058 -1.3779  0.1585
  494TMC3    C3 7342   2.561   0.736   0.633  0.3630  0.1349  0.4274
  494TMC3    C4 7343   2.616   1.005   0.656  0.4764 -0.7646  0.1440
  494TMC3    C5 7344   2.557   0.953   0.546  0.0016  0.1625  1.0714
  494TMC3    C6 7345   2.546   0.818   0.527 -0.2099 -0.2510 -0.2664
  494TMC3     C 7346   2.672   0.967   0.898  0.1952  0.5558 -0.1367
  494TMC3     O 7347   2.712   0.876   0.973 -0.6930  0.0719 -0.5623
  494TMC3     H 7348   2.630   0.716   0.837 -0.7609 -3.1308 -1.1018
  494TMC3    H1 7349   2.641   1.110   0.670 -2.1283 -0.2136  0.6987
  494TMC3    H2 7350   2.475   0.785   0.451  1.2172  0.2507 -1.8175
  494TMC3    C7 7351   2.565   1.019   0.417 -0.6556 -0.0771 -0.6059
  494TMC3    C8 7352   2.538   0.594   0.625  0.3073  0.1027 -0.2179
  494TMC3    O1 7353   2.572   0.947   0.318  0.0755  0.3400  0.1938
  494TMC3    O2 7354   2.540   0.533   0.736  0.0623  0.5140  0.4217
  495TMC3    C1 7355   0.890   1.943  14.539 -0.8442 -0.2962 -0.4559
  495TMC3    C2 7356   0.874   2.043  14.440  0.0754 -0.1801 -0.6319
  495TMC3    C3 7357   0.895   2.170  14.469  0.1915 -0.1851 -0.0444
  495TMC3    C4 7358   0.926   1.977  14.668  0.3884 -0.2244  0.3817
  495TMC3    C5 7359   0.953   2.102  14.692 -0.0453  0.2605  0.3915
  495TMC3    C6 7360   0.935   2.203  14.598 -0.2229  0.2316  0.0500
  495TMC3     C 7361   0.882   1.805  14.496  0.4099  0.7401 -0.2602
  495TMC3     O 7362   0.847   1.774  14.383  0.3817 -0.4942 -0.3714
  495TMC3     H 7363   0.838   2.011  14.343 -1.1067  0.9424 -0.5683
  495TMC3    H1 7364   0.932   1.903  14.747 -0.0371 -0.7604 -0.0825
  495TMC3    H2 7365   0.929   2.304  14.636  1.3780 -0.5092  2.2539
  495TMC3    C7 7366   0.982   2.139  14.830  0.1949 -0.0123 -0.1385
  495TMC3    C8 7367   0.792   2.252  14.410  0.6093 -0.5546  0.3533
  495TMC3    O1 7368   1.053   2.063  14.901 -0.2254 -0.4612  0.0588
  495TMC3    O2 7369   0.697   2.191  14.358  0.3781 -0.6257 -0.1531
  496MPD2     C 7370   3.306   2.790  15.696  0.6242  1.1527 -0.5657
  496MPD2    C1 7371   3.313   2.661  15.743  0.1978  0.1227 -0.4807
  496MPD2    C2 7372   3.304   2.641  15.882 -0.4339  0.2912 -0.3996
  496MPD2    C3 7373   3.281   2.748  15.969  0.1712 -0.2132  0.0925
  496MPD2    C4 7374   3.261   2.876  15.915  0.3583 -0.0374  0.1026
  496MPD2    C5 7375   3.283   2.896  15.781 -0.0960  0.1988 -0.5132
  496MPD2     H 7376   3.310   2.540  15.921 -2.2227 -0.1250 -1.1938
  496MPD2    H1 7377   3.206   2.950  15.972 -0.6682 -1.6563  1.1883
  496MPD2    H2 7378   3.317   2.817  15.592 -1.2626  1.3554 -0.7147
  496MPD2    H3 7379   3.267   2.999  15.750  2.3304 -0.4165 -3.8430
  496MPD2     N 7380   3.260   2.733  16.108  0.3118 -0.1899  0.0532
  496MPD2    H5 7381   3.225   2.812  16.160 -1.8989  0.2977 -2.1888
  496MPD2    N1 7382   3.338   2.563  15.642 -0.8818 -0.4651 -0.2669
  496MPD2    H7 7383   3.359   2.600  15.550  1.5514 -2.0726 -0.3471
  497TMC3    C1 7384   3.251   2.622  16.313 -0.0257 -0.7502 -0.1028
  497TMC3    C2 7385   3.182   2.505  16.344  0.2245 -0.5436 -0.3617
  497TMC3    C3 7386   3.104   2.508  16.451 -0.1076 -0.6946  0.0201
  497TMC3    C4 7387   3.239   2.738  16.390 -0.2537  0.6813 -0.2390
  497TMC3    C5 7388   3.140   2.734  16.487 -0.5265 -0.6948  0.6189
  497TMC3    C6 7389   3.083   2.616  16.529 -0.2629  0.2679  0.3495
  497TMC3     C 7390   3.299   2.624  16.178  0.1043 -1.2389 -0.0185
  497TMC3     O 7391   3.339   2.517  16.141  0.2942  0.3697  0.1452
  497TMC3     H 7392   3.192   2.415  16.285  1.1911 -1.1904  0.7795
  497TMC3    H1 7393   3.296   2.829  16.374  0.0466  0.1655 -2.0498
  497TMC3    H2 7394   3.019   2.617  16.616  0.4296  0.6131  0.8509
  497TMC3    C7 7395   3.147   2.823  16.602 -0.3716  0.4522  0.1539
  497TMC3    C8 7396   2.981   2.428  16.443  0.4120  0.3978  0.6954
  497TMC3    O1 7397   3.039   2.847  16.655  0.1460  0.4342  0.1296
  497TMC3    O2 7398   2.905   2.429  16.539 -0.2022  0.1854  0.2756
  498MPD2     C 7399   3.919   3.562   9.151  0.5341  1.1432  0.7341
  498MPD2    C1 7400   4.013   3.530   9.240 -0.4364  0.1230 -0.6385
  498MPD2    C2 7401   3.995   3.414   9.310  0.0908 -0.0759 -0.3416
  498MPD2    C3 7402   3.890   3.325   9.288 -0.2906  0.2635 -0.5829
  498MPD2    C4 7403   3.802   3.358   9.186 -0.4696 -0.1027  0.2552
  498MPD2    C5 7404   3.813   3.480   9.130 -0.6669  0.1882  0.0108
  498MPD2     H 7405   4.070   3.383   9.382 -0.0554 -0.7219 -0.4680
  498MPD2    H1 7406   3.720   3.291   9.160 -0.3140 -0.2329  0.0991
  498MPD2    H2 7407   3.927   3.656   9.096  0.6537  1.6517  1.6125
  498MPD2    H3 7408   3.733   3.512   9.064 -1.0074 -1.8050 -0.5592
  498MPD2     N 7409   3.878   3.216   9.366  1.0262  0.2462  0.2952
  498MPD2    H5 7410   3.952   3.206   9.435  0.2270 -0.4385  1.0583
  498MPD2    N1 7411   4.125   3.607   9.274 -0.1696  0.3460 -0.8358
  498MPD2    H7 7412   4.182   3.569   9.348 -0.3715 -0.3841 -1.0512
  499TMC3    C1 7413   4.290   3.783   9.252  0.4471  0.5437  0.6720
  499TMC3    C2 7414   4.321   3.765   9.386 -0.2598  0.2080 -0.0178
  499TMC3    C3 7415   4.435   3.823   9.435  0.7558  0.4508  0.5014
  499TMC3    C4 7416   4.362   3.869   9.169 -0.3681  0.5506  0.4334
  499TMC3    C5 7417   4.478   3.933   9.219 -0.1997  0.5535  0.4634
  499TMC3    C6 7418   4.515   3.906   9.350  0.4742 -0.6808 -0.2736
  499TMC3     C 7419   4.169   3.722   9.201  0.2632  0.4549  0.9324
  499TMC3     O 7420   4.118   3.767   9.097  0.3103  0.6127  0.4204
  499TMC3     H 7421   4.268   3.700   9.455  1.2397  0.8798  1.7642
  499TMC3    H1 7422   4.339   3.886   9.064 -0.4005  0.8440  0.4879
  499TMC3    H2 7423   4.613   3.942   9.380  0.0697 -1.1060  1.5780
  499TMC3    C7 7424   4.555   4.025   9.138 -0.1595  0.2203  0.3606
  499TMC3    C8 7425   4.498   3.748   9.539 -0.7248 -0.4180  0.2137
  499TMC3    O1 7426   4.676   4.015   9.149 -0.3358  0.0297 -0.3631
  499TMC3    O2 7427   4.441   3.654   9.589  0.3469 -0.1083 -0.3800
  500MPD2     C 7428   1.218   0.061  10.639 -0.5673 -0.0178 -0.2620
  500MPD2    C1 7429   1.245   0.132  10.523  0.0454 -0.5760  0.1677
  500MPD2    C2 7430   1.149   0.130  10.429  0.1869  0.3149  0.1799
  500MPD2    C3 7431   1.031   0.059  10.441  0.5981  0.0556  0.3770
  500MPD2    C4 7432   1.002   4.718  10.553  0.5075 -0.2257  0.3878
  500MPD2    C5 7433   1.096   0.003  10.650 -0.2147 -0.5797 -0.1585
  500MPD2     H 7434   1.178   0.189  10.342 -0.6743  0.9001  0.2956
  500MPD2    H1 7435   0.914   4.656  10.568 -1.0988  1.9645  0.0962
  500MPD2    H2 7436   1.290   0.047  10.719 -0.4955 -2.6722 -0.7712
  500MPD2    H3 7437   1.069   4.678  10.743  2.5661  0.7523  1.3407
  500MPD2     N 7438   0.934   0.051  10.344  0.1873 -0.0014  0.3010
  500MPD2    H5 7439   0.851   0.006  10.382 -0.5484  0.5794 -0.6343
  500MPD2    N1 7440   1.368   0.193  10.494 -0.2111  0.5122  1.3338
  500MPD2    H7 7441   1.378   0.209  10.394 -1.8922  1.4939  1.3254
  501TMC3    C1 7442   1.598   0.256  10.529  0.9953  0.1446  0.4633
  501TMC3    C2 7443   1.590   0.342  10.433 -0.1892  1.0501 -0.3318
  501TMC3    C3 7444   1.707   0.400  10.391 -0.0451  0.2278  0.7997
  501TMC3    C4 7445   1.712   0.227  10.601  0.7032 -0.7218 -0.9047
  501TMC3    C5 7446   1.819   0.299  10.568  0.5563  0.0350 -0.2241
  501TMC3    C6 7447   1.820   0.383  10.461  0.7657  0.8614  0.1788
  501TMC3     C 7448   1.467   0.217  10.589  0.2815  0.3985  0.2873
  501TMC3     O 7449   1.459   0.216  10.713 -0.1753 -0.4969 -0.2115
  501TMC3     H 7450   1.493   0.377  10.401 -0.6345  1.7122  1.7317
  501TMC3    H1 7451   1.708   0.170  10.694  0.1303  0.8847  0.0481
  501TMC3    H2 7452   1.919   0.423  10.443  1.3705  1.3935  4.5887
  501TMC3    C7 7453   1.942   0.231  10.617 -0.2739 -0.3699 -0.2180
  501TMC3    C8 7454   1.707   0.519  10.312 -0.0221 -0.2438  0.6437
  501TMC3    O1 7455   1.943   0.181  10.733 -0.0806 -0.0184  0.1909
  501TMC3    O2 7456   1.814   0.569  10.294  0.5492 -0.3737 -0.6770
  502TMC3    C1 7457   0.403   3.324  15.269 -0.3370  0.6005 -0.2508
  502TMC3    C2 7458   0.393   3.457  15.246 -0.3520 -0.1259 -0.3587
  502TMC3    C3 7459   0.275   3.514  15.273  0.9032 -0.0116 -0.1883
  502TMC3    C4 7460   0.307   3.239  15.302 -0.3778 -0.9568  0.2290
  502TMC3    C5 7461   0.185   3.297  15.315  0.8941  0.3578 -0.5624
  502TMC3    C6 7462   0.167   3.436  15.303  0.3413  0.0514  0.6389
  502TMC3     C 7463   0.526   3.284  15.332  0.2092 -0.2585  0.0224
  502TMC3     O 7464   0.628   3.291  15.260 -0.1466  0.8503  0.0806
  502TMC3     H 7465   0.477   3.527  15.247  0.1523 -0.7159 -1.1274
  502TMC3    H1 7466   0.324   3.139  15.340  2.2076 -1.1250 -1.3904
  502TMC3    H2 7467   0.072   3.489  15.303 -0.3604 -1.2335 -3.8790
  502TMC3    C7 7468   0.104   3.231  15.413 -0.6526  0.6198  0.5464
  502TMC3    C8 7469   0.275   3.661  15.286  0.4271 -0.1108 -0.0499
  502TMC3    O1 7470   0.159   3.165  15.501 -0.0018  0.0644  0.3125
  502TMC3    O2 7471   0.383   3.713  15.263 -0.0444 -0.1138  1.1305
  503MPD2     C 7472   2.500   4.005  17.117 -0.2652  0.2818  0.2215
  503MPD2    C1 7473   2.588   4.055  17.206 -0.4937 -0.4942  0.0767
  503MPD2    C2 7474   2.681   3.963  17.257 -0.1266  0.0381  0.2958
  503MPD2    C3 7475   2.659   3.824  17.243  0.0938 -0.9549 -0.3226
  503MPD2    C4 7476   2.551   3.778  17.167 -0.5921  0.0564  0.0381
  503MPD2    C5 7477   2.491   3.871  17.092  0.3400 -0.0663  0.3374
  503MPD2     H 7478   2.763   3.999  17.319  1.3166 -0.8486 -1.0728
  503MPD2    H1 7479   2.525   3.675  17.145  1.1140 -0.4345  0.3667
  503MPD2    H2 7480   2.418   4.063  17.077 -0.7701 -1.4419 -1.2744
  503MPD2    H3 7481   2.410   3.837  17.027  1.0194 -0.0180 -0.5356
  503MPD2     N 7482   2.743   3.739  17.313 -0.2948  0.2932 -0.0124
  503MPD2    H5 7483   2.812   3.786  17.371  1.1020 -0.8223 -0.8065
  503MPD2    N1 7484   2.593   4.198  17.236 -0.0076  0.0505 -0.3110
  503MPD2    H7 7485   2.664   4.220  17.305  1.6789 -1.2059 -1.6300
  504TMC3    C1 7486   2.843   3.550  17.404 -0.5629 -0.2905  0.3772
  504TMC3    C2 7487   2.817   3.419  17.442  0.3666 -0.1528 -0.3597
  504TMC3    C3 7488   2.920   3.334  17.470  0.1880 -0.5074  0.3417
  504TMC3    C4 7489   2.968   3.592  17.384  0.0990  0.3392  0.0657
  504TMC3    C5 7490   3.068   3.514  17.427  0.5759 -0.0231 -0.7365
  504TMC3    C6 7491   3.048   3.391  17.476  0.8065 -0.3968 -0.0376
  504TMC3     C 7492   2.732   3.605  17.319  0.3393 -0.6536 -0.1194
  504TMC3     O 7493   2.659   3.529  17.263 -0.4591  0.6152 -0.5093
  504TMC3     H 7494   2.717   3.381  17.460 -1.0583  4.3391  1.3063
  504TMC3    H1 7495   2.997   3.694  17.358 -2.1706  1.9052  3.7198
  504TMC3    H2 7496   3.131   3.322  17.485  0.9282 -0.3677 -0.9891
  504TMC3    C7 7497   3.203   3.531  17.378  0.4375  0.0260 -1.3700
  504TMC3    C8 7498   2.879   3.208  17.537 -0.6502 -0.2058  0.5602
  504TMC3    O1 7499   3.210   3.588  17.271  0.6846  0.0283 -0.2566
  504TMC3    O2 7500   2.774   3.158  17.499 -0.3947 -0.9473  0.5582
  505MPD2     C 7501   3.817   2.137  10.299 -0.4014  0.8541 -0.2006
  505MPD2    C1 7502   3.944   2.183  10.268 -0.7556  0.2441  1.0143
  505MPD2    C2 7503   3.993   2.296  10.328 -0.7246 -0.3609 -0.1629
  505MPD2    C3 7504   3.921   2.365  10.421 -0.5797  0.3273  0.0804
  505MPD2    C4 7505   3.796   2.329  10.449 -0.3543 -0.1690 -0.8227
  505MPD2    C5 7506   3.748   2.213  10.390 -0.0562 -0.1160 -0.0263
  505MPD2     H 7507   4.090   2.337  10.300  1.3120 -4.2292  1.3552
  505MPD2    H1 7508   3.730   2.380  10.518 -0.2528 -2.4662  0.9470
  505MPD2    H2 7509   3.761   2.065  10.241 -0.4820 -0.9306  2.1001
  505MPD2    H3 7510   3.651   2.173  10.420 -0.4581 -1.4014 -2.9850
  505MPD2     N 7511   3.967   2.486  10.487 -0.6429 -0.1708 -0.0356
  505MPD2    H5 7512   3.905   2.548  10.538 -3.2707 -2.2886 -0.6478
  505MPD2    N1 7513   4.027   2.106  10.180 -0.1628 -0.3595  0.0756
  505MPD2    H7 7514   3.987   2.031  10.125  1.5998  0.2008 -1.9659
  506TMC3    C1 7515   4.227   2.029  10.069  0.9132  0.0032 -0.1603
  506TMC3    C2 7516   4.187   2.061   9.945 -0.2361 -0.2717 -0.4248
  506TMC3    C3 7517   4.289   2.059   9.847 -0.1721  0.1659  0.0771
  506TMC3    C4 7518   4.352   2.003  10.103 -0.2674  0.2303  0.0843
  506TMC3    C5 7519   4.455   2.024  10.013 -0.1114 -0.9148  0.3150
  506TMC3    C6 7520   4.423   2.037   9.881 -0.2104 -0.2347  0.1092
  506TMC3     C 7521   4.164   2.111  10.173 -0.4359  0.2411 -0.5706
  506TMC3     O 7522   4.247   2.157  10.248 -0.0825  0.3701 -0.2183
  506TMC3     H 7523   4.085   2.085   9.918 -0.6825 -1.1980  0.4012
  506TMC3    H1 7524   4.370   1.985  10.209  0.3877  0.4178  0.0049
  506TMC3    H2 7525   4.502   2.032   9.808  1.0942 -4.0298  1.7834
  506TMC3    C7 7526   4.547   2.126  10.056  0.2357 -0.9179 -0.7571
  506TMC3    C8 7527   4.253   2.091   9.711  0.1530 -0.2319  0.0592
  506TMC3    O1 7528   4.640   2.144   9.976 -0.5147  0.1570  0.0416
  506TMC3    O2 7529   4.305   2.030   9.622  0.1150 -0.1999 -0.3316
  507TMC3    C1 7530   3.925   3.548  15.071 -0.1601  1.0692  0.0439
  507TMC3    C2 7531   3.963   3.599  14.952 -0.4260 -0.1785  0.2810
  507TMC3    C3 7532   3.904   3.713  14.902 -0.3111 -0.6611 -0.5405
  507TMC3    C4 7533   3.833   3.607  15.144 -0.1091 -0.3793 -0.7188
  507TMC3    C5 7534   3.793   3.737  15.114  0.0817 -0.0341  0.1193
  507TMC3    C6 7535   3.826   3.792  14.990 -0.6802  0.2147  0.0435
  507TMC3     C 7536   3.994   3.438  15.132 -0.1520 -0.0771  1.0856
  507TMC3     O 7537   3.950   3.390  15.235 -0.4893 -0.3844  0.3634
  507TMC3     H 7538   4.018   3.539  14.880 -2.2324 -1.4408 -0.0505
  507TMC3    H1 7539   3.807   3.562  15.239  0.8729 -0.9929 -0.7440
  507TMC3    H2 7540   3.779   3.881  14.951  0.1467 -0.1561 -1.7956
  507TMC3    C7 7541   3.678   3.786  15.183 -0.3697 -0.3950  0.0531
  507TMC3    C8 7542   3.842   3.697  14.772  0.3049  0.3433 -0.2809
  507TMC3    O1 7543   3.594   3.704  15.224  0.1307 -0.1504 -0.1989
  507TMC3    O2 7544   3.914   3.669  14.677  0.2856  0.5591  0.1495
  508MPD2     C 7545   0.055   0.962  16.242 -0.2529 -0.2553  0.2587
  508MPD2    C1 7546   0.000   1.081  16.290  0.4481  0.3697 -0.1841
  508MPD2    C2 7547   4.655   1.165  16.209 -0.5501 -0.4601  0.3514
  508MPD2    C3 7548   4.652   1.139  16.073  1.0295 -0.2708  0.6869
  508MPD2    C4 7549   4.716   1.026  16.021  0.3401 -0.2129 -0.8872
  508MPD2    C5 7550   0.057   0.936  16.106  0.0881 -0.3008  0.1714
  508MPD2     H 7551   4.616   1.260  16.242 -0.1274  1.0151 -3.4208
  508MPD2    H1 7552   4.709   1.002  15.915 -1.6716 -0.7706 -0.6274
  508MPD2    H2 7553   0.107   0.896  16.311 -0.6885 -0.4735  0.3772
  508MPD2    H3 7554   0.100   0.840  16.081  1.0531  0.7518 -2.1688
  508MPD2     N 7555   4.577   1.218  15.984  0.5974  0.7967  0.1191
  508MPD2    H5 7556   4.532   1.299  16.025  1.1510  1.3998 -0.4695
  508MPD2    N1 7557   0.007   1.119  16.423 -0.5544 -0.8309  0.4138
  508MPD2    H7 7558   0.071   1.067  16.483  0.5111  2.4230  2.1367
  509TMC3    C1 7559   4.292   1.445  15.799  0.7119  0.3705  0.0621
  509TMC3    C2 7560   4.318   1.491  15.669  0.3653 -0.0171  0.2446
  509TMC3    C3 7561   4.429   1.441  15.601  0.0803  0.2698 -0.2723
  509TMC3    C4 7562   4.370   1.348  15.859  0.0426 -0.6619 -0.0213
  509TMC3    C5 7563   4.487   1.314  15.795  0.0181  0.2361  0.0708
  509TMC3    C6 7564   4.518   1.364  15.664 -0.1820 -0.3005  0.2180
  509TMC3     C 7565   4.254   1.543  15.904  0.2493 -0.5646 -0.3040
  509TMC3     O 7566   4.248   1.521  16.023 -0.1794 -0.3286  0.3072
  509TMC3     H 7567   4.268   1.575  15.623  0.6178  0.4719  0.8672
  509TMC3    H1 7568   4.354   1.311  15.959 -2.7586 -1.0169 -0.5978
  509TMC3    H2 7569   4.622   1.367  15.633 -0.7649 -1.9623 -1.8806
  509TMC3    C7 7570   4.580   1.219  15.847 -0.5987 -0.0798 -0.3779
  509TMC3    C8 7571   4.494   1.548  15.535  0.1520  0.4850 -1.4698
  509TMC3    O1 7572   4.646   1.155  15.767  0.1363  1.1496  0.0881
  509TMC3    O2 7573   4.543   1.519  15.426 -0.1731 -0.1261 -0.3059
  510MPD2     C 7574   2.433   3.046  14.623  0.0705 -0.8127 -0.1044
  510MPD2    C1 7575   2.474   2.919  14.652 -0.6752 -0.2909  0.3988
  510MPD2    C2 7576   2.610   2.891  14.619  0.8556 -0.4726  0.0685
  510MPD2    C3 7577   2.690   2.976  14.547 -0.5736  0.4210 -0.2098
  510MPD2    C4 7578   2.637   3.100  14.514  0.1385 -0.0586 -0.3815
  510MPD2    C5 7579   2.513   3.141  14.552 -0.8777  0.6548 -0.0051
  510MPD2     H 7580   2.657   2.798  14.650  0.1316 -0.9513 -0.2751
  510MPD2    H1 7581   2.699   3.162  14.449  0.7774  2.0585  2.2645
  510MPD2    H2 7582   2.328   3.075  14.633  0.2315  0.2395 -1.3943
  510MPD2    H3 7583   2.470   3.236  14.522  0.6823  2.2514  2.8009
  510MPD2     N 7584   2.808   2.915  14.491  0.0794  0.0068  0.5708
  510MPD2    H5 7585   2.844   2.833  14.539 -0.6896  0.0318  1.1802
  510MPD2    N1 7586   2.380   2.830  14.702 -0.4648 -0.4516  0.6061
  510MPD2    H7 7587   2.284   2.861  14.718 -1.0946 -2.2963  0.3693
  511TMC3    C1 7588   2.300   2.621  14.810 -0.6142  0.1476 -0.5500
  511TMC3    C2 7589   2.197   2.680  14.876 -0.1941  0.5878  0.6981
  511TMC3    C3 7590   2.109   2.597  14.950  0.2859  0.6657 -0.2111
  511TMC3    C4 7591   2.307   2.484  14.806 -0.5377  0.0627  0.4462
  511TMC3    C5 7592   2.224   2.404  14.876 -0.4908  0.0466 -0.3919
  511TMC3    C6 7593   2.125   2.464  14.950 -0.9582 -0.3385  0.0988
  511TMC3     C 7594   2.406   2.696  14.741 -0.4162 -0.2269 -1.1109
  511TMC3     O 7595   2.499   2.628  14.702  0.1461  0.2154 -0.2300
  511TMC3     H 7596   2.194   2.789  14.876 -1.5754  0.5456 -0.0800
  511TMC3    H1 7597   2.381   2.435  14.743 -0.0827  0.6743  0.5063
  511TMC3    H2 7598   2.063   2.406  15.018 -2.0344  1.7599  0.9102
  511TMC3    C7 7599   2.230   2.264  14.857  0.4650 -0.6910  0.4921
  511TMC3    C8 7600   2.017   2.659  15.041  0.7638  0.7004 -0.1067
  511TMC3    O1 7601   2.309   2.234  14.767 -0.6711  0.1694 -0.8305
  511TMC3    O2 7602   2.044   2.773  15.078 -0.2333  0.4164  0.5936
  512TMC3    C1 7603   2.036   2.063  13.293 -1.0054  0.0739  0.0161
  512TMC3    C2 7604   1.998   2.064  13.426  0.3982  0.9578  0.0327
  512TMC3    C3 7605   1.897   1.974  13.458  0.0318  0.4425  0.5525
  512TMC3    C4 7606   1.982   1.982  13.198 -0.5689 -0.0798  0.5783
  512TMC3    C5 7607   1.883   1.896  13.238 -0.1661 -0.0413 -0.3393
  512TMC3    C6 7608   1.845   1.884  13.369  0.0172  0.4607 -0.1439
  512TMC3     C 7609   2.121   2.171  13.245 -0.1435 -0.1490 -0.0518
  512TMC3     O 7610   2.168   2.144  13.139 -0.9294 -0.0269  0.0186
  512TMC3     H 7611   2.048   2.120  13.503 -0.0936  1.2053  0.1702
  512TMC3    H1 7612   2.012   1.998  13.095  0.4301 -1.6096  0.6413
  512TMC3    H2 7613   1.765   1.818  13.399  0.0780  0.8680  0.9212
  512TMC3    C7 7614   1.830   1.800  13.142  0.0797  0.7783  0.0405
  512TMC3    C8 7615   1.846   1.963  13.596 -0.6472  0.9556  0.4369
  512TMC3    O1 7616   1.857   1.823  13.027 -0.4813  0.4001 -0.0318
  512TMC3    O2 7617   1.807   1.852  13.628  0.1702 -0.0814  0.2872
  513MPD2     C 7618   3.050   2.100  13.258  0.0801  0.5694 -0.7890
  513MPD2    C1 7619   3.155   2.194  13.251 -0.6184  1.5632  0.4314
  513MPD2    C2 7620   3.230   2.217  13.363 -0.2314  0.5235  0.9125
  513MPD2    C3 7621   3.191   2.170  13.488 -0.0790 -0.7240  0.1476
  513MPD2    C4 7622   3.082   2.084  13.495 -0.1542  0.0525  1.0579
  513MPD2    C5 7623   3.012   2.047  13.386 -0.1039 -0.2657  0.3737
  513MPD2     H 7624   3.307   2.293  13.363 -1.9916  2.3182  0.2376
  513MPD2    H1 7625   3.038   2.062  13.592 -2.9000 -1.1886 -0.4681
  513MPD2    H2 7626   2.990   2.078  13.171  0.4357  2.0424 -1.4086
  513MPD2    H3 7627   2.921   1.991  13.406 -0.4719  0.2449  0.1381
  513MPD2     N 7628   3.270   2.193  13.598  0.2651  0.5302  0.2763
  513MPD2    H5 7629   3.345   2.258  13.578  0.1216  0.9790  1.1817
  513MPD2    N1 7630   3.186   2.263  13.134 -0.3143  0.5321  0.3216
  513MPD2    H7 7631   3.254   2.337  13.135  0.6968 -0.4005  0.2566
  514TMC3    C1 7632   3.240   2.295  12.910 -0.1059 -0.2862  0.1272
  514TMC3    C2 7633   3.209   2.311  12.778  0.3105 -0.6308 -0.0070
  514TMC3    C3 7634   3.307   2.374  12.704  0.8426  0.1521 -0.2703
  514TMC3    C4 7635   3.369   2.309  12.954 -0.0182 -0.2020 -0.0842
  514TMC3    C5 7636   3.466   2.366  12.873 -0.4917 -0.0371 -0.5903
  514TMC3    C6 7637   3.434   2.408  12.744  0.0151  0.5051 -0.3975
  514TMC3     C 7638   3.140   2.238  13.005  0.7636  0.0941 -0.2377
  514TMC3     O 7639   3.046   2.166  12.968  0.4231  0.0363 -0.2066
  514TMC3     H 7640   3.117   2.271  12.738 -0.1270  0.8969 -0.5272
  514TMC3    H1 7641   3.404   2.252  13.039  1.8895  0.1230 -0.6530
  514TMC3    H2 7642   3.498   2.463  12.677  1.8341  0.3979  1.2178
  514TMC3    C7 7643   3.598   2.412  12.923 -0.7790 -0.6033  0.7331
  514TMC3    C8 7644   3.278   2.405  12.564  0.4150  1.1092 -0.3853
  514TMC3    O1 7645   3.696   2.429  12.851 -0.2637 -0.4959  0.4429
  514TMC3    O2 7646   3.159   2.432  12.538  0.4085  0.1241 -0.2664
  515MPD2     C 7647   1.017   4.019  15.205 -0.2119  0.5945  0.1343
  515MPD2    C1 7648   1.087   3.928  15.130  0.2837  0.2015  0.2151
  515MPD2    C2 7649   1.220   3.909  15.149 -0.3330 -0.2022 -0.1992
  515MPD2    C3 7650   1.290   3.990  15.240  0.4700 -0.9863 -0.5126
  515MPD2    C4 7651   1.221   4.093  15.314  0.3640  0.1906 -0.4402
  515MPD2    C5 7652   1.084   4.093  15.303  0.5606 -0.2120 -0.0766
  515MPD2     H 7653   1.261   3.833  15.084 -1.5640  0.1350 -1.3825
  515MPD2    H1 7654   1.277   4.159  15.380 -1.0441 -0.2182  1.1683
  515MPD2    H2 7655   0.913   4.044  15.183 -0.6819 -1.0251  0.4893
  515MPD2    H3 7656   1.037   4.177  15.354  1.7820 -0.7326  1.8780
  515MPD2     N 7657   1.426   3.985  15.262  0.4767  0.5065 -0.0896
  515MPD2    H5 7658   1.462   4.051  15.331  0.4042  0.3681  0.0797
  515MPD2    N1 7659   1.023   3.853  15.029 -0.4815 -0.2419 -0.3071
  515MPD2    H7 7660   1.073   3.779  14.979 -1.0600  0.8741 -2.5303
  516TMC3    C1 7661   0.850   3.764  14.892  0.5142 -0.9102 -0.2591
  516TMC3    C2 7662   0.741   3.784  14.815  0.3547 -0.4460  0.0042
  516TMC3    C3 7663   0.704   3.693  14.720 -0.0486  0.1287  1.2862
  516TMC3    C4 7664   0.929   3.652  14.876 -1.0042 -0.6807  0.3299
  516TMC3    C5 7665   0.882   3.560  14.791  0.5348  0.1651 -0.3309
  516TMC3    C6 7666   0.771   3.575  14.711 -1.0389  0.4462 -0.4352
  516TMC3     C 7667   0.889   3.861  14.992 -0.6641 -0.0911  0.6059
  516TMC3     O 7668   0.802   3.938  15.023 -0.9576  0.5220  0.0442
  516TMC3     H 7669   0.679   3.871  14.836  0.6261  0.1803 -1.7776
  516TMC3    H1 7670   1.003   3.628  14.953  0.4375  0.7340 -0.6203
  516TMC3    H2 7671   0.745   3.499  14.638  1.2800 -1.0975  0.3248
  516TMC3    C7 7672   0.935   3.416  14.804  0.1572  0.2712  0.1543
  516TMC3    C8 7673   0.620   3.734  14.605  0.5075 -0.3385 -0.3724
  516TMC3    O1 7674   0.983   3.385  14.913 -0.1348  0.6225  0.0118
  516TMC3    O2 7675   0.584   3.647  14.527  1.7971 -0.4921  0.6181
  517MPD2     C 7676   0.624   0.829   0.058 -0.3496 -0.4829  0.0195
  517MPD2    C1 7677   0.714   0.780   0.149 -0.1610 -0.9859 -0.7472
  517MPD2    C2 7678   0.740   0.855   0.268  0.2555 -0.3505 -0.3269
  517MPD2    C3 7679   0.695   0.985   0.276  0.5106  0.0870 -0.4727
  517MPD2    C4 7680   0.606   1.030   0.188  0.0433  0.7097  0.5275
  517MPD2    C5 7681   0.571   0.957   0.076  0.5367  0.1428 -0.7086
  517MPD2     H 7682   0.804   0.806   0.341  0.0727  2.5847  1.8370
  517MPD2    H1 7683   0.555   1.125   0.203 -2.0052 -0.0882 -1.3049
  517MPD2    H2 7684   0.579   0.768  17.679  0.2202  0.2441 -0.8865
  517MPD2    H3 7685   0.502   0.993  17.698  3.5244  4.2154 -1.5002
  517MPD2     N 7686   0.738   1.077   0.379 -0.1164  0.1565 -0.2812
  517MPD2    H5 7687   0.710   1.173   0.364 -2.0757 -0.2676  0.7247
  517MPD2    N1 7688   0.786   0.656   0.118  0.2959 -0.0580 -1.0275
  517MPD2    H7 7689   0.864   0.630   0.178 -0.1806 -0.3612 -0.5404
  518TMC3    C1 7690   0.848   0.459  17.691  0.2680 -0.0734  0.8849
  518TMC3    C2 7691   0.880   0.376   0.099  0.3657 -0.1302  0.0529
  518TMC3    C3 7692   0.933   0.254   0.063 -0.8085 -0.1275 -1.1398
  518TMC3    C4 7693   0.890   0.441  17.561  0.7033  0.1167  0.2283
  518TMC3    C5 7694   0.961   0.327  17.531 -0.4584 -0.3844 -0.3408
  518TMC3    C6 7695   0.966   0.226  17.626  0.4053 -0.0375 -0.1782
  518TMC3     C 7696   0.759   0.569   0.010  0.3234 -0.2962  0.4357
  518TMC3     O 7697   0.687   0.590  17.611 -0.1957 -0.1103 -0.0106
  518TMC3     H 7698   0.832   0.387   0.196 -2.0535 -0.0420 -1.1394
  518TMC3    H1 7699   0.874   0.521  17.488 -0.6961 -0.0215  0.3913
  518TMC3    H2 7700   1.017   0.133  17.600  1.3403 -0.0166  1.5713
  518TMC3    C7 7701   1.031   0.335  17.403 -0.1372 -0.7929 -0.0622
  518TMC3    C8 7702   0.934   0.149   0.161  0.0663  0.4681  0.0495
  518TMC3    O1 7703   0.993   0.418  17.322  0.2599 -0.4226 -0.3482
  518TMC3    O2 7704   0.899   0.176   0.275  0.5972 -0.0875 -0.1528
  519MPD2     C 7705   2.541   3.663  14.875  0.6649  0.2867 -0.0920
  519MPD2    C1 7706   2.500   3.705  14.750  0.0067 -0.6838  0.8468
  519MPD2    C2 7707   2.566   3.663  14.640 -0.5250 -0.0021  0.1669
  519MPD2    C3 7708   2.676   3.578  14.650  0.7035  0.5842 -0.4996
  519MPD2    C4 7709   2.723   3.546  14.778  0.0026  0.0607  0.2804
  519MPD2    C5 7710   2.658   3.590  14.887 -0.6771 -0.7430  0.1405
  519MPD2     H 7711   2.525   3.679  14.541 -1.2940  4.5705  1.2396
  519MPD2    H1 7712   2.803   3.475  14.795 -1.0054 -0.7295  1.7021
  519MPD2    H2 7713   2.491   3.706  14.961 -0.9135 -0.1231 -0.7976
  519MPD2    H3 7714   2.693   3.554  14.984 -1.2556 -0.1779  0.5589
  519MPD2     N 7715   2.737   3.519  14.536 -0.4255  0.0581 -0.5589
  519MPD2    H5 7716   2.816   3.459  14.558  0.8801  1.3780 -1.6364
  519MPD2    N1 7717   2.371   3.765  14.736  0.3838 -0.4653  0.7662
  519MPD2    H7 7718   2.319   3.779  14.822  0.4337 -0.1382  0.7406
  520TMC3    C1 7719   2.777   3.470  14.296 -0.3763  0.1296  1.0264
  520TMC3    C2 7720   2.707   3.448  14.181  0.1042 -0.3664 -0.1780
  520TMC3    C3 7721   2.767   3.367  14.088  0.0695  0.2464 -0.3205
  520TMC3    C4 7722   2.895   3.414  14.318  0.2493  0.1775 -0.5472
  520TMC3    C5 7723   2.955   3.347  14.214  0.3272  0.2997 -0.5769
  520TMC3    C6 7724   2.894   3.324  14.095 -0.1631 -0.2277  0.2143
  520TMC3     C 7725   2.696   3.526  14.400 -0.1130  0.0500  0.0589
  520TMC3     O 7726   2.604   3.593  14.354 -0.7380 -0.2774  0.1444
  520TMC3     H 7727   2.613   3.497  14.161  0.7078  0.9545  0.1892
  520TMC3    H1 7728   2.950   3.434  14.408 -0.1101  0.9241 -0.4968
  520TMC3    H2 7729   2.926   3.258  14.016 -0.5823 -0.8917  0.5993
  520TMC3    C7 7730   3.079   3.284  14.243 -0.3092  0.2985  0.1856
  520TMC3    C8 7731   2.702   3.361  13.964  0.4138 -0.4659  0.2206
  520TMC3    O1 7732   3.123   3.279  14.358 -0.0212  0.1815 -0.3387
  520TMC3    O2 7733   2.761   3.346  13.861  0.0362 -0.1127 -0.4909
  521MPD2     C 7734   3.571   2.424  17.473 -0.0127 -1.0046  0.1193
  521MPD2    C1 7735   3.525   2.346  17.373  0.7578  0.3330 -0.2056
  521MPD2    C2 7736   3.611   2.271  17.290 -0.4887  0.6369 -0.6260
  521MPD2    C3 7737   3.748   2.278  17.314 -0.3440  0.0639 -0.0111
  521MPD2    C4 7738   3.794   2.370  17.402  0.0096 -0.2082  0.0291
  521MPD2    C5 7739   3.702   2.435  17.475  0.4355 -0.1921 -0.2921
  521MPD2     H 7740   3.562   2.209  17.216 -0.4878 -0.0601 -0.0426
  521MPD2    H1 7741   3.899   2.390  17.419  0.0378  0.3704 -0.7912
  521MPD2    H2 7742   3.507   2.485  17.536  0.2505 -1.7636  1.1285
  521MPD2    H3 7743   3.740   2.501  17.553  1.4400  0.0356 -0.9809
  521MPD2     N 7744   3.829   2.179  17.242  0.2151  0.6129  0.0281
  521MPD2    H5 7745   3.790   2.125  17.165  1.9001  2.7764 -2.3329
  521MPD2    N1 7746   3.385   2.329  17.369  0.0711  0.3736 -0.2933
  521MPD2    H7 7747   3.338   2.373  17.448 -0.9783 -2.6184  0.7251
  522TMC3    C1 7748   4.001   2.028  17.217  1.0110 -0.2161 -0.7139
  522TMC3    C2 7749   4.064   1.932  17.289 -0.0592  0.6496  0.3566
  522TMC3    C3 7750   4.086   1.812  17.221  0.3162  0.3667 -0.0523
  522TMC3    C4 7751   3.966   2.017  17.085  0.1243 -0.1886 -0.3396
  522TMC3    C5 7752   4.002   1.903  17.026  0.0991  0.5150  0.1686
  522TMC3    C6 7753   4.056   1.792  17.088 -0.4963 -0.2745  0.5514
  522TMC3     C 7754   3.948   2.136  17.288  0.8013 -0.7360 -0.5646
  522TMC3     O 7755   4.008   2.156  17.394  0.3070 -0.3015 -0.2711
  522TMC3     H 7756   4.078   1.930  17.396 -0.1696  2.6413  0.4160
  522TMC3    H1 7757   3.913   2.096  17.032 -0.1862 -2.5436 -3.5088
  522TMC3    H2 7758   4.048   1.694  17.042 -0.6901  0.5091 -1.0736
  522TMC3    C7 7759   4.005   1.895  16.879  0.2082 -0.4315 -0.4574
  522TMC3    C8 7760   4.150   1.710  17.301  0.4949 -0.6166 -0.0134
  522TMC3    O1 7761   4.088   1.820  16.824  0.5847 -0.9543  0.1614
  522TMC3    O2 7762   4.148   1.709  17.422  0.0564  0.0870 -0.0978
  523MPD2     C 7763   1.821   1.884   9.988  0.5982 -0.0151  0.3797
  523MPD2    C1 7764   1.785   1.785   9.903 -0.3642  0.1981 -0.3431
  523MPD2    C2 7765   1.652   1.785   9.858 -1.4416  0.5682 -0.3193
  523MPD2    C3 7766   1.556   1.882   9.886 -0.2909  0.0908  0.3380
  523MPD2    C4 7767   1.600   1.975   9.973  0.3583 -0.2555 -0.5220
  523MPD2    C5 7768   1.725   1.972  10.024 -0.2646  0.1620  0.7053
  523MPD2     H 7769   1.616   1.711   9.787 -0.4844 -0.4793  0.2873
  523MPD2    H1 7770   1.538   2.054  10.013 -0.7758 -1.1321 -0.5605
  523MPD2    H2 7771   1.917   1.893  10.038  0.9250 -0.2044 -0.1999
  523MPD2    H3 7772   1.754   2.052  10.092  1.3374 -0.8942  1.2788
  523MPD2     N 7773   1.426   1.884   9.833  0.3800 -0.4147  0.2406
  523MPD2    H5 7774   1.367   1.949   9.883 -3.1083 -1.6381 -2.3662
  523MPD2    N1 7775   1.883   1.681   9.872 -0.0037 -0.4289  0.3056
  523MPD2    H7 7776   1.977   1.687   9.911 -0.4753  0.6160  1.2672
  524TMC3    C1 7777   1.229   1.828   9.726 -0.2797  0.6524  0.3475
  524TMC3    C2 7778   1.179   1.758   9.619  0.2334 -0.0250  0.0502
  524TMC3    C3 7779   1.057   1.802   9.569 -0.8048  0.0753  0.2131
  524TMC3    C4 7780   1.172   1.946   9.771  0.4976  0.1454 -0.9559
  524TMC3    C5 7781   1.062   1.985   9.710  0.1783 -0.7798  0.2973
  524TMC3    C6 7782   0.996   1.911   9.615  0.4394 -0.0993 -0.2978
  524TMC3     C 7783   1.371   1.794   9.750 -0.3425  1.0226 -0.0699
  524TMC3     O 7784   1.428   1.710   9.681 -0.1185 -0.2617 -0.2576
  524TMC3     H 7785   1.225   1.667   9.584  1.5977  0.1012  1.4960
  524TMC3    H1 7786   1.219   2.011   9.844  0.0364  0.4103 -0.8937
  524TMC3    H2 7787   0.906   1.934   9.559  0.8704 -0.0736 -0.9719
  524TMC3    C7 7788   1.002   2.109   9.748  0.5523  0.3719  0.3440
  524TMC3    C8 7789   0.991   1.719   9.468  0.3721 -0.2517 -0.2361
  524TMC3    O1 7790   1.050   2.169   9.841  0.4851  0.0482 -0.3591
  524TMC3    O2 7791   0.880   1.753   9.437  0.2604 -0.2426  0.2431
  525MPD2     C 7792   3.957   3.157  14.671 -0.0124  0.7070  0.5015
  525MPD2    C1 7793   4.081   3.163  14.739  0.2205 -0.4880 -0.1677
  525MPD2    C2 7794   4.169   3.253  14.697  0.3738 -0.2100  0.0928
  525MPD2    C3 7795   4.139   3.347  14.598  0.1863  0.0482 -0.1017
  525MPD2    C4 7796   4.017   3.335  14.533  1.4058 -0.8568  0.5488
  525MPD2    C5 7797   3.931   3.236  14.563  0.1703 -0.2826 -0.0171
  525MPD2     H 7798   4.261   3.263  14.754 -0.9617 -1.8192  2.5011
  525MPD2    H1 7799   3.992   3.399  14.450 -0.3901 -1.1580  0.8754
  525MPD2    H2 7800   3.876   3.097  14.711  1.0200 -0.4757  0.8182
  525MPD2    H3 7801   3.837   3.226  14.510  1.4862  0.3575 -2.4622
  525MPD2     N 7802   4.220   3.460  14.576 -0.2405  0.5945  0.0398
  525MPD2    H5 7803   4.178   3.549  14.553 -1.6782 -0.3664 -1.0782
  525MPD2    N1 7804   4.104   3.073  14.847 -0.3749 -0.2407 -0.2158
  525MPD2    H7 7805   4.202   3.047  14.858  0.0601  1.1670 -0.7036
  526TMC3    C1 7806   4.065   2.957  15.052  0.2806 -0.0285  0.2306
  526TMC3    C2 7807   3.996   2.956  15.172 -0.0382  0.5145 -0.1838
  526TMC3    C3 7808   4.057   2.890  15.277  0.6040  0.5691  0.1766
  526TMC3    C4 7809   4.174   2.870  15.028  0.6921  0.5581 -0.3433
  526TMC3    C5 7810   4.223   2.806  15.140 -0.3075  0.5716  0.3076
  526TMC3    C6 7811   4.171   2.817  15.263 -0.2144 -0.5583  0.7299
  526TMC3     C 7812   4.008   3.027  14.935  0.0731 -0.6485  0.3132
  526TMC3     O 7813   3.891   3.058  14.943 -0.3441  0.0283  0.3357
  526TMC3     H 7814   3.908   3.017  15.186 -0.5955 -0.3411  0.0469
  526TMC3    H1 7815   4.204   2.855  14.925 -1.2015 -0.3358 -0.7742
  526TMC3    H2 7816   4.213   2.771  15.352 -0.0657  0.9277  1.4366
  526TMC3    C7 7817   4.360   2.758  15.127 -0.8313  0.2396  0.3830
  526TMC3    C8 7818   3.988   2.873  15.406  0.0263  0.3306  1.6808
  526TMC3    O1 7819   4.410   2.714  15.231  0.2818 -0.2828 -0.5251
  526TMC3    O2 7820   4.055   2.857  15.508  0.4431 -0.0554  0.0039
  527MPD2     C 7821   3.242   1.245   1.937  0.0301  0.2128  0.0462
  527MPD2    C1 7822   3.325   1.143   1.891 -0.6529 -0.6316  0.4729
  527MPD2    C2 7823   3.327   1.116   1.757 -0.2002 -0.1142 -0.3101
  527MPD2    C3 7824   3.240   1.177   1.672  0.6436  0.4950 -0.3340
  527MPD2    C4 7825   3.161   1.279   1.714  1.0256  0.6946  0.1756
  527MPD2    C5 7826   3.155   1.307   1.846  0.4232 -0.2316 -0.2527
  527MPD2     H 7827   3.397   1.039   1.726  2.6872  1.4965  2.1901
  527MPD2    H1 7828   3.099   1.340   1.650  1.2147 -0.4617 -1.1079
  527MPD2    H2 7829   3.249   1.287   2.037  1.7593  1.8250 -0.7475
  527MPD2    H3 7830   3.096   1.394   1.876 -0.7599 -0.5771 -1.5851
  527MPD2     N 7831   3.234   1.136   1.538  0.4239 -0.0211  0.1845
  527MPD2    H5 7832   3.307   1.072   1.509 -0.1722 -0.0719 -1.1972
  527MPD2    N1 7833   3.422   1.075   1.966  0.7916 -0.8607 -0.3958
  527MPD2    H7 7834   3.482   1.007   1.920  1.4948 -1.1315  0.9083
  528TMC3    C1 7835   3.584   1.046   2.119 -0.1911  0.0748  0.8752
  528TMC3    C2 7836   3.684   1.132   2.087 -0.0421 -0.5147  0.5205
  528TMC3    C3 7837   3.798   1.074   2.042  0.0653 -0.1199  0.1435
  528TMC3    C4 7838   3.587   0.916   2.096  0.8348 -0.4743  0.1513
  528TMC3    C5 7839   3.698   0.868   2.037 -0.5537 -0.3736 -0.4596
  528TMC3    C6 7840   3.812   0.945   2.020 -0.1027 -0.1612  0.2763
  528TMC3     C 7841   3.458   1.113   2.092  0.0612 -0.4187  0.3742
  528TMC3     O 7842   3.427   1.204   2.168 -0.3427  0.0661 -0.1793
  528TMC3     H 7843   3.675   1.238   2.105  0.5747 -0.0072 -2.2622
  528TMC3    H1 7844   3.514   0.852   2.145  2.2419 -2.4105 -0.2869
  528TMC3    H2 7845   3.889   0.909   1.952  0.6928  0.9154  0.5891
  528TMC3    C7 7846   3.711   0.728   2.044  0.0196 -1.2063  0.3454
  528TMC3    C8 7847   3.860   1.167   1.947  1.1911 -0.5805 -0.1163
  528TMC3    O1 7848   3.607   0.663   2.028  0.4553 -0.3117  0.4016
  528TMC3    O2 7849   3.805   1.274   1.929  0.4755 -0.2668  0.7104
  529MPD2     C 7850   4.628   4.547   1.368 -0.4483  0.3739 -0.1865
  529MPD2    C1 7851   4.702   4.467   1.288 -0.7878 -0.3508 -0.3794
  529MPD2    C2 7852   4.686   4.494   1.148  0.4865 -0.3092 -0.0859
  529MPD2    C3 7853   4.589   4.584   1.100  0.0822  0.5756  0.1064
  529MPD2    C4 7854   4.517   4.654   1.194 -0.1138  1.1750  0.6660
  529MPD2    C5 7855   4.543   4.643   1.326 -0.0291 -0.2929  0.5323
  529MPD2     H 7856   0.030   4.444   1.079 -0.9128 -0.7812 -1.1238
  529MPD2    H1 7857   4.437   0.000   1.176 -0.1954  0.7690 -0.5803
  529MPD2    H2 7858   4.637   4.535   1.475  2.8694  2.6587 -0.2100
  529MPD2    H3 7859   4.490   4.696   1.404 -2.3448  2.2069 -2.7307
  529MPD2     N 7860   4.567   4.607   0.963 -0.1085  0.5233 -0.5386
  529MPD2    H5 7861   4.499   4.677   0.935  0.6173  0.1345 -3.1731
  529MPD2    N1 7862   0.065   4.363   1.329 -0.3573 -0.7853 -0.2167
  529MPD2    H7 7863   0.127   4.322   1.261 -0.8068 -0.0173 -1.0905
  530TMC3    C1 7864   0.161   4.203   1.468 -0.4063  0.3225 -0.6391
  530TMC3    C2 7865   0.284   4.269   1.468  0.3341  0.0256  0.4818
  530TMC3    C3 7866   0.387   4.182   1.489 -0.1415 -0.0435 -0.2328
  530TMC3    C4 7867   0.141   4.072   1.486  0.5029  0.1031 -0.1644
  530TMC3    C5 7868   0.259   4.000   1.513  0.4627 -0.0871 -0.0924
  530TMC3    C6 7869   0.385   4.050   1.500  0.3826 -0.6431 -1.2307
  530TMC3     C 7870   0.050   4.293   1.448  0.4228 -0.2506 -0.3516
  530TMC3     O 7871   4.687   4.274   1.531  0.4098 -0.4751  0.1345
  530TMC3     H 7872   0.281   4.377   1.481  0.2237 -0.0966  1.4509
  530TMC3    H1 7873   0.042   4.027   1.483  0.4024  0.3181 -0.0796
  530TMC3    H2 7874   0.466   3.995   1.547  1.3041  0.7473 -1.1964
  530TMC3    C7 7875   0.246   3.854   1.514  0.1087  0.3857  0.7051
  530TMC3    C8 7876   0.502   4.251   1.547 -0.1480  0.6055 -0.1657
  530TMC3    O1 7877   0.342   3.792   1.482  0.0634  0.1007 -0.3172
  530TMC3    O2 7878   0.476   4.343   1.620  1.0895 -0.0520  0.0341
  531MPD2     C 7879   3.880   2.406  13.361  0.5031  0.1702  0.2053
  531MPD2    C1 7880   3.745   2.382  13.386 -0.4601 -0.0376 -0.4292
  531MPD2    C2 7881   3.648   2.392  13.281  0.0850  1.0169  0.9082
  531MPD2    C3 7882   3.696   2.413  13.154 -0.1687  0.5468  0.4172
  531MPD2    C4 7883   3.830   2.409  13.130  0.2498  0.7120  0.5417
  531MPD2    C5 7884   3.917   2.417  13.232 -0.3593  0.2859 -0.2318
  531MPD2     H 7885   3.547   2.355  13.295  0.9109 -2.2248 -1.5048
  531MPD2    H1 7886   3.869   2.408  13.029  3.7381  1.3026  1.8721
  531MPD2    H2 7887   3.958   2.392  13.436 -1.1845 -3.3908  1.3026
  531MPD2    H3 7888   4.020   2.426  13.200 -0.5300  1.5207 -0.4358
  531MPD2     N 7889   3.592   2.419  13.056 -0.0459  0.4246 -0.8699
  531MPD2    H5 7890   3.498   2.428  13.094 -0.2705 -2.4363 -0.7879
  531MPD2    N1 7891   3.718   2.341  13.515 -0.1300  0.1796 -0.2212
  531MPD2    H7 7892   3.797   2.308  13.569 -0.4022  0.1638  0.1720
  532TMC3    C1 7893   3.579   2.266  13.702 -0.4844 -0.1502  0.5944
  532TMC3    C2 7894   3.453   2.275  13.742  0.4043  0.1871 -0.3424
  532TMC3    C3 7895   3.391   2.169  13.796  0.5738  0.0376  0.5939
  532TMC3    C4 7896   3.657   2.154  13.733  0.5134 -0.4059  0.2669
  532TMC3    C5 7897   3.595   2.050  13.794 -0.1971  0.0315  0.0877
  532TMC3    C6 7898   3.459   2.049  13.830 -0.1690  0.4802 -0.5068
  532TMC3     C 7899   3.591   2.327  13.568 -0.2473  0.1067  0.1231
  532TMC3     O 7900   3.488   2.376  13.523 -0.1621 -0.0965 -0.1518
  532TMC3     H 7901   3.393   2.362  13.720 -0.6294 -0.6166 -0.7297
  532TMC3    H1 7902   3.760   2.146  13.700  1.2107  0.5385  2.2274
  532TMC3    H2 7903   3.409   1.959  13.864  0.6771  0.6405  1.1662
  532TMC3    C7 7904   3.676   1.940  13.851 -0.5843 -0.0171  0.1599
  532TMC3    C8 7905   3.269   2.135  13.720 -0.2537  0.1634  0.1471
  532TMC3    O1 7906   3.609   1.852  13.906 -0.7508 -0.4104 -0.0922
  532TMC3    O2 7907   3.196   2.055  13.767 -0.4241 -0.3239 -0.0547
  533TMC3    C1 7908   4.397   3.598  14.647  0.0199  0.0900  0.5634
  533TMC3    C2 7909   4.534   3.600  14.658  0.0028 -0.1177 -0.5446
  533TMC3    C3 7910   4.588   3.686  14.750 -0.6090  0.0058  0.5782
  533TMC3    C4 7911   4.311   3.674  14.714 -0.0919  0.2531  0.0000
  533TMC3    C5 7912   4.365   3.762  14.803  0.5865 -0.2710  0.4690
  533TMC3    C6 7913   4.502   3.770  14.816  0.7065  0.1651  0.0739
  533TMC3     C 7914   4.352   3.469  14.610 -0.3749 -0.0460 -0.3313
  533TMC3     O 7915   4.426   3.377  14.649 -0.3923  0.1882  0.3239
  533TMC3     H 7916   4.599   3.534  14.603 -0.1354 -2.6874  2.3964
  533TMC3    H1 7917   4.208   3.645  14.730  0.4783 -1.3786  0.7334
  533TMC3    H2 7918   4.540   3.837  14.892  0.8025 -0.6040  0.6967
  533TMC3    C7 7919   4.301   3.768  14.933 -0.1274  0.1499 -0.2703
  533TMC3    C8 7920   4.717   3.662  14.807 -0.3286 -0.1678 -0.0078
  533TMC3    O1 7921   4.265   3.664  14.984 -0.1013 -0.2831 -0.0644
  533TMC3    O2 7922   0.018   3.547  14.813  0.4770 -0.1365  0.6319
  534MPD2     C 7923   2.668   4.283   1.261 -0.2476 -0.4575 -0.0550
  534MPD2    C1 7924   2.655   4.395   1.341 -0.0900 -0.0140 -0.0186
  534MPD2    C2 7925   2.534   4.461   1.326 -0.2200 -0.1597 -0.4302
  534MPD2    C3 7926   2.437   4.420   1.240  0.1536  0.6453 -0.8019
  534MPD2    C4 7927   2.456   4.305   1.162  0.1379 -0.3438 -0.4538
  534MPD2    C5 7928   2.573   4.237   1.175  0.6849 -0.0416  0.2944
  534MPD2     H 7929   2.525   4.548   1.391 -0.6982 -2.1462  2.1457
  534MPD2    H1 7930   2.385   4.271   1.087 -0.7627  1.0978 -0.2501
  534MPD2    H2 7931   2.765   4.234   1.252 -0.5108 -0.9692 -0.1399
  534MPD2    H3 7932   2.612   4.164   1.104 -0.1288 -0.9008  0.7294
  534MPD2     N 7933   2.332   4.507   1.205  0.3307  0.0611  0.3104
  534MPD2    H5 7934   2.280   4.470   1.126  1.4543 -2.2415  0.6298
  534MPD2    N1 7935   2.753   4.453   1.428 -0.1206  0.7332 -0.4325
  534MPD2    H7 7936   2.723   4.535   1.480 -1.1344  0.7564 -1.0418
  535TMC3    C1 7937   2.183   4.683   1.210 -0.3921  0.8353 -0.0071
  535TMC3    C2 7938   2.114   0.048   1.290  0.0524 -0.0227  0.2021
  535TMC3    C3 7939   2.045   0.149   1.227  0.2334 -0.2205  0.0673
  535TMC3    C4 7940   2.205   4.707   1.078  0.1342 -0.0320  0.3512
  535TMC3    C5 7941   2.138   0.092   1.026 -0.9295  0.1079 -0.0093
  535TMC3    C6 7942   2.054   0.176   1.097  0.0825  0.4155 -0.3574
  535TMC3     C 7943   2.277   4.602   1.279  0.5911  0.1223 -0.4260
  535TMC3     O 7944   2.317   4.654   1.382  0.3295  0.2431 -0.0509
  535TMC3     H 7945   2.094   0.027   1.395  0.8616 -0.9004  0.1740
  535TMC3    H1 7946   2.285   4.661   1.022  0.8128 -0.6291  1.8172
  535TMC3    H2 7947   2.002   0.258   1.050 -0.7204  1.2871  2.0194
  535TMC3    C7 7948   2.149   0.115   0.886 -0.2223 -0.3416  0.3164
  535TMC3    C8 7949   1.922   0.193   1.291  0.0208  0.4459 -0.4422
  535TMC3    O1 7950   2.207   0.024   0.827 -0.4153 -0.1873  0.1456
  535TMC3    O2 7951   1.825   0.212   1.220  0.0380  0.1335 -0.4555
  536MPD2     C 7952   0.935   2.829  16.638 -0.0950  0.6983  0.0680
  536MPD2    C1 7953   0.797   2.809  16.665  0.0717  0.3428  0.5116
  536MPD2    C2 7954   0.700   2.836  16.567 -0.2516 -1.0066 -0.1824
  536MPD2    C3 7955   0.739   2.901  16.449 -0.1027 -0.2707 -0.0296
  536MPD2    C4 7956   0.873   2.928  16.429  0.3247 -0.0183 -0.1329
  536MPD2    C5 7957   0.964   2.893  16.521  0.1943  0.2573 -0.0224
  536MPD2     H 7958   0.607   2.784  16.585  0.2271 -2.1149 -0.9529
  536MPD2    H1 7959   0.900   2.986  16.342  0.3304  0.9628  0.5269
  536MPD2    H2 7960   1.019   2.804  16.703 -0.5598 -0.6269  0.1472
  536MPD2    H3 7961   1.068   2.910  16.493  0.1283  2.5405  1.1129
  536MPD2     N 7962   0.640   2.943  16.350 -0.2114  0.0476 -0.6545
  536MPD2    H5 7963   0.674   2.979  16.261  1.3559 -1.4961 -0.6895
  536MPD2    N1 7964   0.768   2.737  16.786 -0.3646  0.2807  0.3185
  536MPD2    H7 7965   0.850   2.714  16.841  0.0219 -1.0150 -0.7954
  537TMC3    C1 7966   0.662   2.643  16.971  0.4592  0.0660 -0.3895
  537TMC3    C2 7967   0.769   2.666  17.048  0.5839  0.0180 -0.3440
  537TMC3    C3 7968   0.753   2.620  17.179 -0.7168  1.0542  0.5309
  537TMC3    C4 7969   0.548   2.568  17.004  0.0113 -0.1818 -0.1165
  537TMC3    C5 7970   0.535   2.539  17.135  0.7187 -0.4913  0.3494
  537TMC3    C6 7971   0.633   2.572  17.224  0.1756  0.4391  0.3404
  537TMC3     C 7972   0.651   2.699  16.834  0.2466  0.8283  0.4980
  537TMC3     O 7973   0.537   2.700  16.787  0.4820 -0.4834 -0.0142
  537TMC3     H 7974   0.853   2.732  17.027  1.7776 -1.7694 -1.1645
  537TMC3    H1 7975   0.467   2.548  16.935 -0.2101  1.1774 -0.2539
  537TMC3    H2 7976   0.622   2.548  17.330  3.3901 -1.1943  0.3329
  537TMC3    C7 7977   0.423   2.450  17.166 -0.2766  0.8713  0.0437
  537TMC3    C8 7978   0.864   2.638  17.271 -0.0420  0.0969  0.0876
  537TMC3    O1 7979   0.332   2.454  17.086 -0.4634 -0.2907  0.2564
  537TMC3    O2 7980   0.943   2.728  17.257  0.2909 -0.2184  0.1970
  538TMC3    C1 7981   2.301   1.882  11.220 -0.1161 -0.9592 -0.5138
  538TMC3    C2 7982   2.353   1.758  11.217 -0.2756  0.0809 -0.4546
  538TMC3    C3 7983   2.363   1.692  11.099  0.0087 -0.2853  0.0819
  538TMC3    C4 7984   2.279   1.954  11.111 -0.5789  0.4334 -0.0308
  538TMC3    C5 7985   2.271   1.879  10.991 -0.1678  0.3837 -0.5338
  538TMC3    C6 7986   2.312   1.749  10.982  0.3631  0.4303 -0.0458
  538TMC3     C 7987   2.233   1.927  11.343 -0.3261 -0.4476  0.5550
  538TMC3     O 7988   2.202   2.046  11.340 -0.1824 -0.7868  0.0490
  538TMC3     H 7989   2.383   1.710  11.309 -0.3651 -1.7957 -1.4149
  538TMC3    H1 7990   2.247   2.057  11.121  1.0208  0.9483 -0.2588
  538TMC3    H2 7991   2.291   1.691  10.893  0.7123  1.9468 -1.1145
  538TMC3    C7 7992   2.150   1.896  10.907 -0.0915 -0.1673  0.2998
  538TMC3    C8 7993   2.448   1.566  11.100 -0.6332 -0.2946  0.0249
  538TMC3    O1 7994   2.101   1.796  10.852  0.3671 -0.2190 -0.3153
  538TMC3    O2 7995   2.465   1.519  11.211 -0.2600  0.4879 -0.3704
  539MPD2     C 7996   1.821   0.559  11.551 -0.1258  0.5658 -0.2569
  539MPD2    C1 7997   1.910   0.617  11.460 -0.8953  0.3031 -0.1972
  539MPD2    C2 7998   1.925   0.748  11.466 -0.4989 -0.2238  0.2894
  539MPD2    C3 7999   1.850   0.833  11.548 -0.1368 -0.4098 -1.1007
  539MPD2    C4 8000   1.768   0.773  11.640  0.5589 -0.4758 -0.2975
  539MPD2    C5 8001   1.759   0.636  11.641 -0.7126  0.8429  0.0435
  539MPD2     H 8002   1.979   0.790  11.383  2.2566  0.6221  2.5178
  539MPD2    H1 8003   1.711   0.827  11.715  3.7393  2.1793  0.1881
  539MPD2    H2 8004   1.801   0.454  11.562  1.2522  0.2834 -0.4038
  539MPD2    H3 8005   1.697   0.582  11.711 -1.0195 -1.2859 -1.8935
  539MPD2     N 8006   1.841   0.974  11.539  0.1447 -0.2983  0.2466
  539MPD2    H5 8007   1.767   1.017  11.593 -1.1840 -0.2826 -1.5677
  539MPD2    N1 8008   1.984   0.541  11.371  0.2217 -0.0195 -0.1830
  539MPD2    H7 8009   2.060   0.599  11.338  0.2833  0.3002  0.5224
  540TMC3    C1 8010   1.890   1.183  11.446  0.3486  0.3421  0.1865
  540TMC3    C2 8011   1.870   1.245  11.327 -0.5052  0.6501  0.0040
  540TMC3    C3 8012   1.815   1.368  11.335  0.3017  0.3124  0.2212
  540TMC3    C4 8013   1.863   1.232  11.564  0.0434  0.3974  0.2541
  540TMC3    C5 8014   1.807   1.360  11.571  0.7799  0.6411  0.5361
  540TMC3    C6 8015   1.777   1.424  11.453 -0.3508  0.4751 -0.1685
  540TMC3     C 8016   1.915   1.043  11.447  0.0523  0.6267 -0.4959
  540TMC3     O 8017   1.974   1.002  11.350 -0.1043 -0.3228  0.5109
  540TMC3     H 8018   1.900   1.195  11.235 -1.1018 -1.4056  0.9285
  540TMC3    H1 8019   1.903   1.185  11.654  1.8253  1.1274 -0.1521
  540TMC3    H2 8020   1.736   1.525  11.459 -0.0575  0.5075  1.3511
  540TMC3    C7 8021   1.736   1.396  11.692 -0.5178 -0.4389 -0.3573
  540TMC3    C8 8022   1.785   1.455  11.222  0.7686 -0.3107 -0.6652
  540TMC3    O1 8023   1.703   1.305  11.763  0.3491 -0.1874  0.4162
  540TMC3    O2 8024   1.773   1.575  11.235 -0.3524  0.0138  0.1767
  541MPD2     C 8025   0.213   2.432  13.579 -0.5409 -0.7102 -0.0132
  541MPD2    C1 8026   0.202   2.345  13.475  0.2121 -0.2275  0.6765
  541MPD2    C2 8027   0.192   2.397  13.347  0.7932 -0.4003 -0.3387
  541MPD2    C3 8028   0.193   2.535  13.321 -0.4867  0.6222  0.1987
  541MPD2    C4 8029   0.198   2.614  13.431  0.2972 -0.0549 -0.1735
  541MPD2    C5 8030   0.210   2.567  13.562 -0.3331  0.1633  0.4985
  541MPD2     H 8031   0.192   2.321  13.269 -0.5369  0.5562 -1.2755
  541MPD2    H1 8032   0.207   2.721  13.415 -1.9247 -0.0143 -1.0307
  541MPD2    H2 8033   0.229   2.395  13.679 -0.8156 -0.5528  0.0862
  541MPD2    H3 8034   0.227   2.629  13.650 -0.6209 -0.1466  0.7731
  541MPD2     N 8035   0.194   2.603  13.194  0.2147  0.7643  0.3305
  541MPD2    H5 8036   0.193   2.704  13.189  0.3695  0.8773  3.0753
  541MPD2    N1 8037   0.171   2.209  13.516  0.2572 -0.2892  0.5243
  541MPD2    H7 8038   0.186   2.182  13.613  1.2558 -0.9893  0.1743
  542TMC3    C1 8039   0.248   2.618  12.965 -0.0490  0.0777 -0.2108
  542TMC3    C2 8040   0.266   2.557  12.842 -0.3956 -0.0685 -0.0991
  542TMC3    C3 8041   0.298   2.630  12.731  0.3243  0.3437  0.1038
  542TMC3    C4 8042   0.256   2.761  12.980  0.0153 -0.5385  0.8046
  542TMC3    C5 8043   0.281   2.829  12.869  0.1140  0.3586 -0.2868
  542TMC3    C6 8044   0.307   2.765  12.745  0.2874 -0.2256 -0.4575
  542TMC3     C 8045   0.215   2.533  13.079  0.1122 -0.6583 -0.1122
  542TMC3     O 8046   0.228   2.409  13.065 -0.1276  0.0363 -0.0104
  542TMC3     H 8047   0.272   2.449  12.843 -1.4621 -0.1546 -1.9535
  542TMC3    H1 8048   0.225   2.800  13.076  0.9502 -0.1961  0.9705
  542TMC3    H2 8049   0.342   2.819  12.658 -1.8238 -1.1967 -1.9211
  542TMC3    C7 8050   0.305   2.974  12.869 -0.3337  0.6714 -0.3688
  542TMC3    C8 8051   0.310   2.560  12.609 -0.2119  0.0716 -0.3682
  542TMC3    O1 8052   0.350   3.023  12.765 -0.0742  0.0816 -0.5867
  542TMC3    O2 8053   0.266   2.607  12.507 -0.5496  0.3059 -0.2526
  543TMC3    C1 8054   4.358   3.468   0.203 -0.6464  0.1652 -0.7105
  543TMC3    C2 8055   4.381   3.332   0.234  0.1595  0.0320 -0.0060
  543TMC3    C3 8056   4.302   3.264   0.322  0.0710  0.5869 -0.3245
  543TMC3    C4 8057   4.258   3.539   0.262  0.2029  0.4399 -0.5581
  543TMC3    C5 8058   4.188   3.468   0.356 -0.2254  0.7632  0.0664
  543TMC3    C6 8059   4.199   3.334   0.384 -0.1023  0.8426 -0.1100
  543TMC3     C 8060   4.425   3.510   0.077  0.1128  0.1770 -0.2945
  543TMC3     O 8061   4.532   3.459   0.056  0.0832 -0.0623 -0.0727
  543TMC3     H 8062   4.479   3.294   0.206 -0.8048 -2.1913 -0.4060
  543TMC3    H1 8063   4.248   3.646   0.249 -2.3382  0.4727  1.8718
  543TMC3    H2 8064   4.123   3.272   0.431  1.1280 -1.1658 -0.7533
  543TMC3    C7 8065   4.070   3.520   0.418 -0.1550  0.3825  0.4273
  543TMC3    C8 8066   4.298   3.130   0.287 -0.5072 -0.1872  0.1595
  543TMC3    O1 8067   4.039   3.463   0.521 -0.2741  0.0041 -0.2470
  543TMC3    O2 8068   4.321   3.099   0.170  0.3569  0.1539  0.8155
  544MPD2     C 8069   4.234   2.636   0.388  0.3065  0.1224 -0.1951
  544MPD2    C1 8070   4.275   2.692   0.267 -0.2781  0.3037  0.6522
  544MPD2    C2 8071   4.274   2.826   0.264  0.2765  0.1263  0.9055
  544MPD2    C3 8072   4.239   2.905   0.377 -0.3813 -0.0224  0.2969
  544MPD2    C4 8073   4.202   2.846   0.497  0.2428 -0.3557  0.0489
  544MPD2    C5 8074   4.197   2.710   0.502 -0.6561 -1.1074 -0.2477
  544MPD2     H 8075   4.292   2.877   0.170  3.1234 -1.2938  0.6974
  544MPD2    H1 8076   4.174   2.915   0.576 -0.9107  0.6347 -1.2274
  544MPD2    H2 8077   4.224   2.529   0.403 -1.1313  0.0507 -1.6528
  544MPD2    H3 8078   4.176   2.666   0.599 -0.2617 -1.2496 -0.2236
  544MPD2     N 8079   4.252   3.048   0.385  0.5352 -0.4111 -0.2801
  544MPD2    H5 8080   4.243   3.088   0.478  1.9358  1.5287 -0.9889
  544MPD2    N1 8081   4.311   2.607   0.164 -0.0306 -0.4780  0.1017
  544MPD2    H7 8082   4.295   2.507   0.170 -1.4172 -0.1912  1.0892
  545TMC3    C1 8083   4.387   2.559  17.635  0.4674  0.4018  0.1351
  545TMC3    C2 8084   4.408   2.615  17.507  0.4670  0.2798  0.2697
  545TMC3    C3 8085   4.429   2.526  17.403 -0.0582 -0.6790 -0.0265
  545TMC3    C4 8086   4.411   2.431  17.664  0.9832 -0.7494  0.3430
  545TMC3    C5 8087   4.439   2.343  17.561 -0.3403  0.0441  0.9431
  545TMC3    C6 8088   4.449   2.389  17.431 -0.3020 -0.4591  0.1727
  545TMC3     C 8089   4.347   2.663   0.038 -0.2630 -0.0365  0.0651
  545TMC3     O 8090   4.311   2.769  17.683  0.1696 -0.1965 -0.3053
  545TMC3     H 8091   4.406   2.721  17.486  2.0545  0.5214  1.2889
  545TMC3    H1 8092   4.392   2.397   0.067  1.9248 -2.2559  0.0140
  545TMC3    H2 8093   4.458   2.318  17.350  1.4257  0.4229 -0.4155
  545TMC3    C7 8094   4.446   2.201  17.584 -0.2000 -0.0664  0.1284
  545TMC3    C8 8095   4.463   2.575  17.273 -0.3855 -0.2291  0.6212
  545TMC3    O1 8096   4.501   2.141  17.492 -0.3132 -0.6148  0.2239
  545TMC3    O2 8097   4.526   2.503  17.196 -0.6130  0.4078  0.0855
  546MPD2     C 8098   0.983   3.308   0.383  0.9366 -0.2041 -0.1673
  546MPD2    C1 8099   0.969   3.315   0.243 -0.3835 -0.7104 -0.4051
  546MPD2    C2 8100   0.989   3.438   0.181  0.0436  0.0251 -0.6185
  546MPD2    C3 8101   1.028   3.552   0.251 -0.8063  0.2506  0.2056
  546MPD2    C4 8102   1.045   3.536   0.390  0.0781 -0.1708 -1.2869
  546MPD2    C5 8103   1.026   3.419   0.453  1.3480  0.2219 -0.2312
  546MPD2     H 8104   0.970   3.445   0.074 -4.5577  1.0500  0.2530
  546MPD2    H1 8105   1.091   3.614   0.449  0.2084 -1.7168  0.6763
  546MPD2    H2 8106   0.986   3.213   0.434  3.4347  0.2185  0.4794
  546MPD2    H3 8107   1.059   3.413   0.557 -0.0993  0.6758  0.2577
  546MPD2     N 8108   1.055   3.674   0.187 -0.7564  0.3568  0.0771
  546MPD2    H5 8109   1.076   3.757   0.241  0.6715 -0.8772  1.4206
  546MPD2    N1 8110   0.933   3.198   0.174 -0.3507  0.3015  0.6318
  546MPD2    H7 8111   0.941   3.114   0.231  2.4847 -0.5474 -1.0362
  547TMC3    C1 8112   0.851   3.057   0.005 -0.1880 -0.2697  0.1616
  547TMC3    C2 8113   0.785   3.065  17.583 -0.4517 -0.9330 -0.2374
  547TMC3    C3 8114   0.683   2.974  17.562 -0.3075  1.0830 -0.7886
  547TMC3    C4 8115   0.826   2.961   0.097 -0.3688  0.5229  0.2930
  547TMC3    C5 8116   0.735   2.861   0.071 -0.0262  0.1810  0.2406
  547TMC3    C6 8117   0.659   2.871  17.655  0.0657 -0.1158  0.2179
  547TMC3     C 8118   0.913   3.182   0.039 -0.0355  0.5442 -0.0498
  547TMC3     O 8119   0.917   3.267  17.646 -0.3310  0.6758 -0.1268
  547TMC3     H 8120   0.787   3.145  17.509  1.4724  0.6010  1.5020
  547TMC3    H1 8121   0.895   2.955   0.180  0.7759  0.6094 -0.6422
  547TMC3    H2 8122   0.569   2.811  17.647  0.3495 -0.4594 -0.4311
  547TMC3    C7 8123   0.672   2.804   0.186 -0.5244 -0.3744 -0.1830
  547TMC3    C8 8124   0.582   3.001  17.461  0.8779  0.2154  0.2408
  547TMC3    O1 8125   0.714   2.844   0.295 -0.4104  0.1666 -0.2750
  547TMC3    O2 8126   0.599   3.096  17.385 -0.1114  0.0448 -0.0191
  548MPD2     C 8127   1.095   4.242  12.191  0.4748 -0.0583  1.2172
  548MPD2    C1 8128   1.061   4.139  12.277 -0.6939 -0.5128 -0.5914
  548MPD2    C2 8129   1.142   4.029  12.280 -0.4471  0.5708  0.1249
  548MPD2    C3 8130   1.248   4.016  12.192 -0.6407 -0.0589 -0.0281
  548MPD2    C4 8131   1.285   4.120  12.111 -0.4009 -0.0156  0.0284
  548MPD2    C5 8132   1.202   4.232  12.113 -0.3581  0.2045 -0.7248
  548MPD2     H 8133   1.126   3.950  12.353  0.4796 -0.1230 -0.4356
  548MPD2    H1 8134   1.365   4.123  12.038 -0.9751 -3.6863 -0.7791
  548MPD2    H2 8135   1.048   4.340  12.200  0.5683  0.1378 -0.3542
  548MPD2    H3 8136   1.230   4.316  12.051 -0.2418  0.8283  0.1801
  548MPD2     N 8137   1.329   3.903  12.203 -0.1329 -0.2927 -0.2277
  548MPD2    H5 8138   1.306   3.837  12.276 -1.2341 -0.3249 -0.6075
  548MPD2    N1 8139   0.952   4.165  12.363 -0.1642  0.2410  0.1100
  548MPD2    H7 8140   0.897   4.249  12.353 -0.0816  0.3709  0.6942
  549TMC3    C1 8141   0.778   4.105  12.512 -0.8277  0.4605  0.4575
  549TMC3    C2 8142   0.675   4.179  12.447  0.2212 -0.2388 -0.1896
  549TMC3    C3 8143   0.546   4.167  12.497 -0.7396  0.2526 -0.1490
  549TMC3    C4 8144   0.740   4.025  12.612 -0.5240 -0.0830 -0.1463
  549TMC3    C5 8145   0.612   3.997  12.641 -0.0210 -0.2330 -0.7429
  549TMC3    C6 8146   0.509   4.074  12.589 -0.4583  0.2675 -0.3246
  549TMC3     C 8147   0.899   4.066  12.445  0.5087 -0.1600  0.0129
  549TMC3     O 8148   0.934   3.951  12.469  0.2199  0.6350  0.0790
  549TMC3     H 8149   0.687   4.214  12.345  0.4250 -3.1383 -1.1347
  549TMC3    H1 8150   0.816   3.965  12.661 -2.2723 -0.4535  2.0827
  549TMC3    H2 8151   0.406   4.074  12.623 -0.6760 -1.2681 -0.9788
  549TMC3    C7 8152   0.593   3.935  12.775 -0.2830  0.4059  0.3266
  549TMC3    C8 8153   0.441   4.212  12.408 -0.1320 -0.3874 -1.0531
  549TMC3    O1 8154   0.498   3.965  12.841 -0.0618  0.3215  0.1706
  549TMC3    O2 8155   0.343   4.140  12.405 -0.0056  0.5163  0.5735
  550TMC3    C1 8156   4.690   2.370  12.613  0.2160  0.5084 -0.5104
  550TMC3    C2 8157   4.606   2.391  12.720  0.0134  0.3269  0.3001
  550TMC3    C3 8158   4.481   2.441  12.681  0.4121 -0.1702  0.5329
  550TMC3    C4 8159   4.666   2.410  12.483  0.3378 -0.2062  0.2893
  550TMC3    C5 8160   4.538   2.463  12.450 -0.4652  0.3546  0.6760
  550TMC3    C6 8161   4.443   2.480  12.551 -0.6720  0.3628 -0.5119
  550TMC3     C 8162   0.050   2.256  12.631  0.1834  0.5155 -0.6904
  550TMC3     O 8163   0.115   2.240  12.736 -0.1994 -0.4859 -0.2559
  550TMC3     H 8164   4.630   2.342  12.813  0.8527 -2.7761 -1.5314
  550TMC3    H1 8165   0.023   2.412  12.412  0.6398 -1.7852  0.5922
  550TMC3    H2 8166   4.341   2.504  12.523 -0.8901  0.4119  0.3454
  550TMC3    C7 8167   4.485   2.442  12.314  0.2822  0.0670  0.3525
  550TMC3    C8 8168   4.394   2.478  12.789 -0.0149  0.1051  0.1552
  550TMC3    O1 8169   4.378   2.495  12.296 -0.3104  0.7354 -0.2724
  550TMC3    O2 8170   4.278   2.501  12.762 -0.2770 -0.2407  0.1825
  551TMC3    C1 8171   1.635   4.332  13.392 -0.1192 -0.1002 -0.3322
  551TMC3    C2 8172   1.763   4.351  13.342  1.0552 -0.1780  0.5777
  551TMC3    C3 8173   1.847   4.434  13.396  0.6248  0.4859 -0.2251
  551TMC3    C4 8174   1.604   4.385  13.515 -0.4043 -0.5464 -0.0357
  551TMC3    C5 8175   1.699   4.458  13.576 -0.5982  0.2381  0.5965
  551TMC3    C6 8176   1.818   4.487  13.519  0.4332  0.5314 -0.2653
  551TMC3     C 8177   1.537   4.265  13.307 -0.2403  0.5351  1.1268
  551TMC3     O 8178   1.579   4.221  13.200  0.2119  0.3490  0.1119
  551TMC3     H 8179   1.773   4.323  13.238 -0.1818 -0.0362  0.4205
  551TMC3    H1 8180   1.512   4.363  13.568 -1.0550  0.9011 -0.5646
  551TMC3    H2 8181   1.884   4.563  13.560 -2.0407  1.1103  2.6586
  551TMC3    C7 8182   1.690   4.476  13.718  0.1327 -0.0359  0.7311
  551TMC3    C8 8183   1.954   4.495  13.321 -0.5040  0.7965 -0.3499
  551TMC3    O1 8184   1.576   4.461  13.757  0.1626 -0.5786 -0.2790
  551TMC3    O2 8185   2.006   4.421  13.237  0.1611  0.3420 -0.4541
  552MPD2     C 8186   3.134   1.828  14.228 -0.3525  0.0235  0.0959
  552MPD2    C1 8187   3.268   1.802  14.215  0.6425 -0.9739 -0.3595
  552MPD2    C2 8188   3.362   1.839  14.307  0.0741 -0.5792  0.3462
  552MPD2    C3 8189   3.324   1.913  14.421 -0.2272  0.2177  0.7773
  552MPD2    C4 8190   3.194   1.950  14.438 -0.3134  0.0259 -0.0922
  552MPD2    C5 8191   3.104   1.907  14.343 -0.2167 -0.0465  0.2586
  552MPD2     H 8192   3.465   1.813  14.282 -0.1678 -1.1511 -0.0687
  552MPD2    H1 8193   3.165   2.003  14.528 -1.9322  0.5918 -0.9467
  552MPD2    H2 8194   3.054   1.787  14.167  0.5176  0.5730 -1.4128
  552MPD2    H3 8195   3.001   1.936  14.361  0.0910  0.7160  0.8315
  552MPD2     N 8196   3.420   1.962  14.510  0.2654 -0.3593  0.2943
  552MPD2    H5 8197   3.387   2.023  14.585 -3.8058 -0.0914 -1.6811
  552MPD2    N1 8198   3.315   1.726  14.102 -0.1681 -1.0773  0.6829
  552MPD2    H7 8199   3.416   1.722  14.107 -0.1535 -0.7342  0.6285
  553TMC3    C1 8200   3.336   1.647  13.885 -0.3772  0.5295  0.1986
  553TMC3    C2 8201   3.322   1.681  13.752  0.2687  0.4743  0.1502
  553TMC3    C3 8202   3.424   1.631  13.673 -0.3302  0.5376 -0.0347
  553TMC3    C4 8203   3.425   1.560  13.933  0.4517 -0.1251 -0.0606
  553TMC3    C5 8204   3.509   1.501  13.845  0.1158  0.1005 -0.5348
  553TMC3    C6 8205   3.514   1.532  13.710 -0.9691  0.4319 -0.8928
  553TMC3     C 8206   3.248   1.701  13.987  0.7615  0.1941 -0.6954
  553TMC3     O 8207   3.139   1.745  13.953 -0.3215  0.2258 -0.0022
  553TMC3     H 8208   3.257   1.762  13.723  2.0849  1.5342 -1.0139
  553TMC3    H1 8209   3.421   1.540  14.039  1.2684 -4.6005 -0.8851
  553TMC3    H2 8210   3.581   1.492  13.635 -0.3398 -1.0621  0.4684
  553TMC3    C7 8211   3.600   1.399  13.892  0.7875 -0.8971  0.8930
  553TMC3    C8 8212   3.466   1.716  13.560  0.6661 -0.4782  0.0657
  553TMC3    O1 8213   3.606   1.307  13.813  0.2449  0.3503 -0.0637
  553TMC3    O2 8214   3.388   1.809  13.531  0.3285 -0.3295  0.0568
  554TMC3    C1 8215   1.050   0.827  11.801  0.5216 -0.4262 -0.6055
  554TMC3    C2 8216   0.972   0.795  11.692 -0.2544 -0.1819  0.5940
  554TMC3    C3 8217   0.966   0.895  11.595 -0.6763 -0.0486 -0.1880
  554TMC3    C4 8218   1.112   0.950  11.822  0.4148  0.7385 -0.8132
  554TMC3    C5 8219   1.109   1.039  11.715 -0.4629  0.4667 -0.1071
  554TMC3    C6 8220   1.039   1.008  11.602 -0.3423 -0.0677  0.5306
  554TMC3     C 8221   1.054   0.737  11.917  0.0971  0.6430  0.1040
  554TMC3     O 8222   1.149   0.746  11.990  0.5212  0.0393  0.6749
  554TMC3     H 8223   0.926   0.697  11.681  0.4873 -0.1694 -2.4831
  554TMC3    H1 8224   1.171   0.971  11.911  1.5545 -1.6019 -1.0159
  554TMC3    H2 8225   1.040   1.074  11.516  0.0201 -0.3517  0.3155
  554TMC3    C7 8226   1.196   1.162  11.727  0.0232 -0.1073  0.0469
  554TMC3    C8 8227   0.926   0.860  11.461  0.0863 -0.2914 -0.3505
  554TMC3    O1 8228   1.237   1.192  11.836  0.1104  0.0247 -0.2536
  554TMC3    O2 8229   0.945   0.947  11.379 -0.5015 -0.2698  0.0906
  555TMC3    C1 8230   4.482   0.250  14.882  0.6393  0.3889  0.1753
  555TMC3    C2 8231   4.523   0.338  14.976 -0.0798 -0.4736 -0.0338
  555TMC3    C3 8232   4.602   0.300  15.073 -0.0086  0.6053  0.0205
  555TMC3    C4 8233   4.510   0.116  14.896  0.2905 -0.0222  0.4718
  555TMC3    C5 8234   4.604   0.087  14.999  0.3763  0.1613  0.3294
  555TMC3    C6 8235   4.654   0.178  15.082 -0.0971  0.5278  0.6703
  555TMC3     C 8236   4.352   0.273  14.821 -1.5582  0.2230 -0.3846
  555TMC3     O 8237   4.299   0.179  14.765  0.2225  0.6020  0.0340
  555TMC3     H 8238   4.509   0.446  14.974  0.3267 -0.4450 -1.2821
  555TMC3    H1 8239   4.472   0.037  14.831  1.6522  1.3252 -1.9923
  555TMC3    H2 8240   4.718   0.141  15.162 -0.7497  2.0471  1.8964
  555TMC3    C7 8241   4.629   4.675  15.026 -0.6108  0.0658  0.2502
  555TMC3    C8 8242   4.613   0.392  15.190 -0.1224 -0.1549  0.3903
  555TMC3    O1 8243   0.015   4.630  15.059  0.3893 -0.6694 -0.3315
  555TMC3    O2 8244   4.520   0.474  15.189  0.0712 -0.2670  0.8594
  556MPD2     C 8245   3.157   2.103  10.584  0.6028  0.1086  0.3092
  556MPD2    C1 8246   3.137   2.014  10.682  0.0295  0.7368  0.0312
  556MPD2    C2 8247   3.111   1.884  10.648 -0.7376 -0.0665 -0.5149
  556MPD2    C3 8248   3.114   1.835  10.517  0.0133 -0.0495 -0.0584
  556MPD2    C4 8249   3.119   1.927  10.420 -0.4543 -0.0090  0.4228
  556MPD2    C5 8250   3.150   2.055  10.451  0.0520  0.8336  0.4438
  556MPD2     H 8251   3.101   1.818  10.733  0.4082  0.5159  0.0770
  556MPD2    H1 8252   3.127   1.901  10.315 -0.5256 -1.6364  0.8207
  556MPD2    H2 8253   3.181   2.208  10.592  1.1327  0.0987 -1.1301
  556MPD2    H3 8254   3.169   2.126  10.370 -0.0325 -0.6434 -0.8699
  556MPD2     N 8255   3.092   1.697  10.485 -0.0871  0.3755 -0.0082
  556MPD2    H5 8256   3.100   1.631  10.562 -3.0054 -1.4111 -1.2377
  556MPD2    N1 8257   3.140   2.047  10.821  0.6545 -0.3111 -0.0218
  556MPD2    H7 8258   3.123   1.972  10.888  0.7126 -1.0500 -0.8291
  557TMC3    C1 8259   3.038   1.499  10.381 -0.5389 -0.4031  0.1937
  557TMC3    C2 8260   3.072   1.417  10.271  0.1433 -1.0589 -0.2948
  557TMC3    C3 8261   3.078   1.284  10.298  0.1415 -0.0526  0.1778
  557TMC3    C4 8262   2.993   1.449  10.498  0.4750 -0.2137 -0.6756
  557TMC3    C5 8263   2.976   1.311  10.508  0.1863  0.1499 -0.1273
  557TMC3    C6 8264   3.037   1.229  10.417  0.2612 -0.5837  0.4467
  557TMC3     C 8265   3.080   1.632  10.366  0.3537  0.1963 -0.2394
  557TMC3     O 8266   3.086   1.674  10.251 -0.3536 -0.1666  0.0544
  557TMC3     H 8267   3.123   1.456  10.184  1.9573 -0.4424  1.0537
  557TMC3    H1 8268   2.949   1.518  10.569  1.0490  0.6734 -1.1753
  557TMC3    H2 8269   3.039   1.123  10.438  0.9536 -0.4409  1.0934
  557TMC3    C7 8270   2.909   1.248  10.618  0.4405  0.2581 -0.0091
  557TMC3    C8 8271   3.182   1.217  10.225  0.5387 -0.1882  0.0801
  557TMC3    O1 8272   2.948   1.140  10.658  0.1551 -0.0181  0.3508
  557TMC3    O2 8273   3.279   1.284  10.186 -0.2637 -0.2487 -0.7539
  558TMC3    C1 8274   0.809   0.086  10.141  0.8611  0.9036 -0.3829
  558TMC3    C2 8275   0.728   4.701  10.169 -0.3542 -0.0431  0.4262
  558TMC3    C3 8276   0.610   4.699  10.101 -0.2989  0.4522  0.8984
  558TMC3    C4 8277   0.781   0.184  10.052  0.2709  0.3545 -0.2093
  558TMC3    C5 8278   0.655   0.182  10.000  0.0875 -0.0445  0.5620
  558TMC3    C6 8279   0.568   0.085  10.026  0.5615  0.1475  1.0241
  558TMC3     C 8280   0.932   0.118  10.217  0.0884 -0.2897  0.3733
  558TMC3     O 8281   1.031   0.178  10.169 -0.3376 -0.2883  0.1776
  558TMC3     H 8282   0.771   4.613  10.216 -0.9001  0.3463  1.6377
  558TMC3    H1 8283   0.851   0.265  10.035 -1.1908  1.9099  1.2340
  558TMC3    H2 8284   0.469   0.086   9.981  1.0487  0.9360 -0.0167
  558TMC3    C7 8285   0.632   0.269   9.889  0.3588  0.1119  0.4271
  558TMC3    C8 8286   0.500   4.622  10.152 -0.4062 -0.5653  0.6618
  558TMC3    O1 8287   0.688   0.380   9.892 -0.0696 -0.3151 -0.1495
  558TMC3    O2 8288   0.392   4.639  10.097  0.0707 -0.7694  0.1070
  559MPD2     C 8289   0.688   0.386  10.322  0.5170 -0.1411 -0.3510
  559MPD2    C1 8290   0.668   0.299  10.427  0.8901  0.2624  0.2876
  559MPD2    C2 8291   0.763   0.299  10.530 -0.2111 -0.1257  0.1147
  559MPD2    C3 8292   0.869   0.394  10.524  0.6111 -0.2438  0.8438
  559MPD2    C4 8293   0.889   0.474  10.408  0.3875  0.2271 -0.0310
  559MPD2    C5 8294   0.796   0.466  10.306  0.5909 -0.1081  0.4857
  559MPD2     H 8295   0.757   0.238  10.619  1.6759 -1.4189 -0.6318
  559MPD2    H1 8296   0.974   0.540  10.401 -0.1843  0.9358 -0.2818
  559MPD2    H2 8297   0.610   0.396  10.247  0.0908 -1.8659 -0.1269
  559MPD2    H3 8298   0.811   0.532  10.221 -4.3836  1.5863  0.9107
  559MPD2     N 8299   0.949   0.391  10.637 -0.1537  0.3316  0.1687
  559MPD2    H5 8300   0.915   0.332  10.712 -1.6199 -0.4499 -1.0815
  559MPD2    N1 8301   0.553   0.217  10.433 -0.2404 -0.3955 -0.2944
  559MPD2    H7 8302   0.471   0.241  10.378 -1.7523 -1.9508  1.2782
  560TMC3    C1 8303   1.129   0.413  10.785 -0.0024  0.1120  0.3627
  560TMC3    C2 8304   1.084   0.296  10.836  0.5173  0.0188  0.1199
  560TMC3    C3 8305   1.158   0.239  10.936 -0.2268 -0.3746 -0.0386
  560TMC3    C4 8306   1.235   0.482  10.829 -0.6296 -0.4349 -0.1023
  560TMC3    C5 8307   1.300   0.419  10.931 -0.5724  0.0140 -0.4500
  560TMC3    C6 8308   1.262   0.299  10.990  0.0412 -0.3153 -0.4181
  560TMC3     C 8309   1.063   0.462  10.658 -0.0856  0.3298 -0.1245
  560TMC3     O 8310   1.128   0.542  10.594 -0.2257 -0.0185  0.3342
  560TMC3     H 8311   1.002   0.232  10.802  2.2236 -3.2868  2.2019
  560TMC3    H1 8312   1.261   0.583  10.800  0.0694 -0.5980 -0.0440
  560TMC3    H2 8313   1.310   0.250  11.074 -0.0475  0.0618 -0.1539
  560TMC3    C7 8314   1.372   0.502  11.028  0.8719 -0.2576 -0.3374
  560TMC3    C8 8315   1.103   0.119  10.995 -0.6095  0.2151 -0.8568
  560TMC3    O1 8316   1.354   0.486  11.145 -0.4490  0.2557 -0.2593
  560TMC3    O2 8317   0.982   0.105  10.985 -0.3288  0.5992 -0.6092
  561TMC3    C1 8318   3.256   4.001  11.298  0.1732 -0.2983  0.0912
  561TMC3    C2 8319   3.224   3.966  11.425 -0.1196 -0.5823 -0.1479
  561TMC3    C3 8320   3.241   4.054  11.521 -0.0212 -0.2020 -0.4950
  561TMC3    C4 8321   3.282   4.133  11.258 -0.4492 -0.2847  0.2118
  561TMC3    C5 8322   3.296   4.218  11.360  0.2449  0.0387 -0.2919
  561TMC3    C6 8323   3.289   4.177  11.491  0.0964  0.1013 -0.0018
  561TMC3     C 8324   3.234   3.903  11.187 -0.1811 -0.5023  0.0361
  561TMC3     O 8325   3.157   3.809  11.212 -0.0230 -0.4766  0.0685
  561TMC3     H 8326   3.202   3.863  11.452  1.0092 -1.1455 -1.3543
  561TMC3    H1 8327   3.288   4.151  11.151  0.0279  0.5422  0.3799
  561TMC3    H2 8328   3.314   4.247  11.570  0.7832  0.2704 -0.3621
  561TMC3    C7 8329   3.308   4.362  11.343 -0.4226  0.1548  0.0601
  561TMC3    C8 8330   3.213   4.019  11.661  0.0794  0.3343  0.2654
  561TMC3    O1 8331   3.275   4.425  11.444  0.0301 -0.6469 -0.4593
  561TMC3    O2 8332   3.211   3.901  11.697  0.2420  0.2373 -0.2547
  562TMC3    C1 8333   4.233   0.434  15.439  0.3883 -0.6140 -0.0218
  562TMC3    C2 8334   4.130   0.437  15.350 -0.7250  0.3463 -0.2790
  562TMC3    C3 8335   4.140   0.345  15.244 -0.3719 -0.3736 -0.0944
  562TMC3    C4 8336   4.332   0.336  15.447 -0.2104  0.0351  0.2949
  562TMC3    C5 8337   4.322   0.239  15.350 -0.0372  0.6674  0.8989
  562TMC3    C6 8338   4.235   0.244  15.244  0.5515 -0.4013 -0.2248
  562TMC3     C 8339   4.220   0.527  15.546 -0.0202  0.9654  0.1330
  562TMC3     O 8340   4.147   0.622  15.513 -0.3008 -0.3613 -0.2542
  562TMC3     H 8341   4.052   0.512  15.361 -1.0210  0.0324 -0.2366
  562TMC3    H1 8342   4.419   0.341  15.511  0.5140  1.5494 -0.8225
  562TMC3    H2 8343   4.230   0.167  15.168 -0.4500  0.8408 -1.4064
  562TMC3    C7 8344   4.404   0.120  15.358 -0.4511  0.0755 -1.0886
  562TMC3    C8 8345   4.026   0.325  15.157  0.2218 -0.4885  0.2727
  562TMC3    O1 8346   4.391   0.051  15.259  0.4537 -0.1445  0.1371
  562TMC3    O2 8347   4.024   0.223  15.091  0.4720  0.6851 -0.0063
  563MPD2     C 8348   1.879   2.086  15.845 -0.0154  0.1811  0.5039
  563MPD2    C1 8349   1.934   1.998  15.941 -0.3423  0.1379  0.3893
  563MPD2    C2 8350   2.054   1.936  15.915 -0.1522 -0.4287 -0.2537
  563MPD2    C3 8351   2.117   1.938  15.794 -0.5810  0.1481  0.4743
  563MPD2    C4 8352   2.066   2.029  15.704  0.4772  0.4376 -0.0971
  563MPD2    C5 8353   1.951   2.098  15.728  0.0226  0.2786  0.0438
  563MPD2     H 8354   2.101   1.865  15.983  2.0601 -1.8178 -3.2486
  563MPD2    H1 8355   2.098   2.030  15.601 -1.0407 -0.7679 -0.5641
  563MPD2    H2 8356   1.786   2.143  15.850 -1.0705 -1.6087  1.4008
  563MPD2    H3 8357   1.915   2.156  15.644  1.4343 -2.1011 -2.2260
  563MPD2     N 8358   2.234   1.865  15.771 -0.9274 -0.0135  0.0559
  563MPD2    H5 8359   2.265   1.804  15.847  2.9889  0.4415 -1.1775
  563MPD2    N1 8360   1.878   1.983  16.072 -0.5436  0.6027 -0.9348
  563MPD2    H7 8361   1.927   1.915  16.129  0.7852  0.5151 -2.1690
  564TMC3    C1 8362   1.725   1.964  16.247 -0.3065  0.2181  0.5841
  564TMC3    C2 8363   1.616   1.882  16.251  0.0399  1.0294 -0.5364
  564TMC3    C3 8364   1.578   1.828  16.374  0.1063 -0.1697  0.1263
  564TMC3    C4 8365   1.816   1.967  16.346 -0.6430 -0.3108 -0.7633
  564TMC3    C5 8366   1.770   1.911  16.466 -0.3505  0.4490 -0.5692
  564TMC3    C6 8367   1.652   1.846  16.486  0.2334 -0.2878 -0.0015
  564TMC3     C 8368   1.756   2.024  16.119  1.2281 -0.5820  0.6358
  564TMC3     O 8369   1.660   2.055  16.052  0.1212 -0.0056 -0.1078
  564TMC3     H 8370   1.558   1.868  16.161  1.2734 -0.3168 -1.1234
  564TMC3    H1 8371   1.897   2.038  16.341  0.1205 -0.8763  2.9433
  564TMC3    H2 8372   1.600   1.823  16.578  1.2114  2.2419  1.1971
  564TMC3    C7 8373   1.880   1.844  16.531 -0.6899  0.2410 -0.7536
  564TMC3    C8 8374   1.498   1.714  16.370  0.2457  0.3189  0.1278
  564TMC3    O1 8375   1.990   1.893  16.521 -0.3276 -0.2063  0.0621
  564TMC3    O2 8376   1.521   1.642  16.464  0.4129  0.0660 -0.0760
  565TMC3    C1 8377   2.591   3.695  10.682 -1.1431 -0.3095 -0.0937
  565TMC3    C2 8378   2.635   3.572  10.729 -0.0156 -0.5764  0.0289
  565TMC3    C3 8379   2.613   3.461  10.647  0.4267 -0.1828 -0.5342
  565TMC3    C4 8380   2.512   3.697  10.569  0.2879  0.5650  0.5854
  565TMC3    C5 8381   2.477   3.585  10.500  0.1023 -0.0361  0.2128
  565TMC3    C6 8382   2.541   3.473  10.532 -0.2980 -0.1001 -0.6092
  565TMC3     C 8383   2.661   3.813  10.712  0.4845 -0.8198 -1.2965
  565TMC3     O 8384   2.638   3.903  10.631  0.2379 -0.4679 -0.3799
  565TMC3     H 8385   2.705   3.569  10.812  2.3618  1.1424 -1.8979
  565TMC3    H1 8386   2.457   3.789  10.551  2.0418  1.3364 -0.7397
  565TMC3    H2 8387   2.501   3.379  10.495  0.3663  0.1800 -2.0105
  565TMC3    C7 8388   2.426   3.610  10.375 -0.1310 -0.1166 -0.0759
  565TMC3    C8 8389   2.636   3.328  10.708  0.3611  0.3045  0.4259
  565TMC3    O1 8390   2.394   3.725  10.341 -0.1348  0.2366  0.6575
  565TMC3    O2 8391   2.654   3.333  10.834  0.1566  0.4594 -0.0520
  566MPD2     C 8392   4.242   0.798  14.477 -0.3159  0.0921 -0.3129
  566MPD2    C1 8393   4.185   0.675  14.446  0.4250 -0.1763 -0.0733
  566MPD2    C2 8394   4.053   0.678  14.394  0.4298 -0.2354 -0.0461
  566MPD2    C3 8395   3.988   0.798  14.381  0.4724  0.0791 -0.3303
  566MPD2    C4 8396   4.041   0.917  14.421 -0.1690 -0.2624 -0.4329
  566MPD2    C5 8397   4.168   0.911  14.469  0.2538 -0.7159  0.0582
  566MPD2     H 8398   4.018   0.585  14.351 -1.5642  0.0501  0.9546
  566MPD2    H1 8399   3.996   1.014  14.407 -1.1871 -0.4753  1.3293
  566MPD2    H2 8400   4.342   0.814  14.514 -1.0317  0.7881  1.3020
  566MPD2    H3 8401   4.213   1.001  14.508  1.6665 -1.3666 -0.0625
  566MPD2     N 8402   3.866   0.814  14.307 -0.0747  0.0502 -0.2912
  566MPD2    H5 8403   3.823   0.906  14.308 -1.7068 -0.7045 -1.5434
  566MPD2    N1 8404   4.270   0.561  14.450  0.2052 -0.7654 -0.0047
  566MPD2    H7 8405   4.366   0.575  14.479  0.0389  1.0636 -0.3058
  567TMC3    C1 8406   4.345   0.359  14.381 -0.6017 -0.4350 -0.4576
  567TMC3    C2 8407   4.380   0.378  14.249 -0.5786 -0.2973 -0.3738
  567TMC3    C3 8408   4.414   0.262  14.175  0.3684 -0.1133 -0.4761
  567TMC3    C4 8409   4.364   0.241  14.448 -0.3077  0.1901 -0.1356
  567TMC3    C5 8410   4.406   0.133  14.372 -1.3426  0.4400  0.4357
  567TMC3    C6 8411   4.440   0.139  14.235 -1.0440  0.2412  0.4319
  567TMC3     C 8412   4.231   0.435  14.410 -0.2109  0.4093  0.3808
  567TMC3     O 8413   4.125   0.385  14.393  0.4889 -0.2814  0.0148
  567TMC3     H 8414   4.350   0.471  14.202 -1.6224 -0.6998 -0.5088
  567TMC3    H1 8415   4.310   0.226  14.541 -1.7165  3.2230 -0.4703
  567TMC3    H2 8416   4.493   0.058  14.187  0.0530  1.6598 -0.7347
  567TMC3    C7 8417   4.404   4.719  14.427  0.7300 -0.2173 -0.4941
  567TMC3    C8 8418   4.448   0.295  14.041 -0.3828  0.4535  0.4025
  567TMC3    O1 8419   4.439   4.630  14.350 -0.3399 -0.2074  0.2476
  567TMC3    O2 8420   4.429   0.411  14.006  0.3740  0.0440 -0.5717
  568MPD2     C 8421   1.561   0.454  16.595  0.0416  0.0442  0.1040
  568MPD2    C1 8422   1.501   0.488  16.710  0.6390  0.1734  0.3010
  568MPD2    C2 8423   1.387   0.570  16.703 -0.9874  0.3518 -0.2712
  568MPD2    C3 8424   1.353   0.632  16.581 -0.0578 -0.3599  0.0359
  568MPD2    C4 8425   1.425   0.600  16.470  0.3679 -0.2341 -0.5164
  568MPD2    C5 8426   1.523   0.504  16.476 -0.1981  0.2222 -0.2329
  568MPD2     H 8427   1.339   0.598  16.797  1.2198  2.7045  0.1480
  568MPD2    H1 8428   1.400   0.649  16.377  1.8366  1.8538  0.1986
  568MPD2    H2 8429   1.638   0.379  16.599  1.0593  1.0676 -0.3017
  568MPD2    H3 8430   1.578   0.482  16.385  1.1340  0.9621  0.3761
  568MPD2     N 8431   1.251   0.727  16.564  0.5507  0.1506  0.0508
  568MPD2    H5 8432   1.225   0.748  16.468 -0.1963 -1.2879 -0.0745
  568MPD2    N1 8433   1.561   0.432  16.829 -0.3831  0.4877 -0.0547
  568MPD2    H7 8434   1.632   0.361  16.813 -1.3696 -0.1906 -1.4640
  569TMC3    C1 8435   1.124   0.904  16.656 -0.4707  0.0867  0.1670
  569TMC3    C2 8436   1.091   0.963  16.775  0.2178 -0.3815 -0.6473
  569TMC3    C3 8437   1.067   1.094  16.769 -0.5374 -0.2694 -0.2414
  569TMC3    C4 8438   1.153   0.976  16.539  0.1755 -0.3244  0.2719
  569TMC3    C5 8439   1.135   1.109  16.544  0.1642 -1.0263 -0.5147
  569TMC3    C6 8440   1.085   1.174  16.656 -0.1947  0.2126  0.3777
  569TMC3     C 8441   1.168   0.770  16.662  0.4451 -0.5736 -0.1819
  569TMC3     O 8442   1.141   0.712  16.769 -0.3767  0.3195 -0.4487
  569TMC3     H 8443   1.081   0.910  16.869  1.7596 -0.1154 -0.3505
  569TMC3    H1 8444   1.191   0.944  16.443 -0.0745  0.9919 -0.2784
  569TMC3    H2 8445   1.047   1.275  16.654  0.7460  0.5438 -1.0065
  569TMC3    C7 8446   1.121   1.177  16.419 -0.0371 -0.2481  0.3930
  569TMC3    C8 8447   1.089   1.150  16.897 -0.1111  0.5817  0.2510
  569TMC3    O1 8448   1.093   1.113  16.322  0.0229  0.4683  0.1383
  569TMC3    O2 8449   1.041   1.093  16.998 -0.1753  0.3453 -0.5489
  570TMC3    C1 8450   0.947   4.019  16.506  0.7848  0.5867  0.9434
  570TMC3    C2 8451   1.006   4.054  16.387 -0.5036  0.0357 -0.0521
  570TMC3    C3 8452   1.061   4.178  16.377  0.0318 -0.1976 -0.7450
  570TMC3    C4 8453   0.929   4.108  16.614 -0.3654 -0.4779  0.7163
  570TMC3    C5 8454   0.982   4.238  16.591 -0.9442 -0.4592 -0.6283
  570TMC3    C6 8455   1.053   4.267  16.481  0.3214  0.3767 -0.0398
  570TMC3     C 8456   0.913   3.885  16.523 -1.1709 -0.3005 -0.0716
  570TMC3     O 8457   0.937   3.808  16.430  0.4020  0.1704 -0.0519
  570TMC3     H 8458   1.013   3.977  16.311 -1.3568 -0.9796  0.8974
  570TMC3    H1 8459   0.878   4.095  16.708  2.5467  3.5647  2.8513
  570TMC3    H2 8460   1.089   4.368  16.461 -1.1079  0.4676 -2.1886
  570TMC3    C7 8461   0.969   4.335  16.696 -0.3095 -0.5626 -0.4118
  570TMC3    C8 8462   1.130   4.229  16.262 -1.0145  0.0457 -0.1018
  570TMC3    O1 8463   0.975   4.285  16.809  0.1399 -0.1500 -0.3467
  570TMC3    O2 8464   1.128   4.353  16.242 -0.3096  0.1644  0.2325
  571MPD2     C 8465   3.381   1.794  17.411  0.4999 -0.4550 -0.2687
  571MPD2    C1 8466   3.409   1.742  17.539  0.0303  0.9061 -0.2713
  571MPD2    C2 8467   3.470   1.821  17.632  0.9450  0.3621  0.4510
  571MPD2    C3 8468   3.511   1.947  17.602  0.0113 -0.1092 -0.0065
  571MPD2    C4 8469   3.488   1.992  17.472  0.0588  0.2199 -0.6042
  571MPD2    C5 8470   3.413   1.925  17.378 -0.3119 -0.1981 -0.6381
  571MPD2     H 8471   3.469   1.781   0.035 -1.8230  2.9225  1.4422
  571MPD2    H1 8472   3.538   2.083  17.439 -1.8262  1.1677 -0.8583
  571MPD2    H2 8473   3.325   1.751  17.328 -0.6709 -0.9604  0.7965
  571MPD2    H3 8474   3.400   1.965  17.278  2.6956 -0.4737 -1.1247
  571MPD2     N 8475   3.573   2.034  17.694 -0.0815  0.2891 -0.1615
  571MPD2    H5 8476   3.594   2.127  17.661  1.0830  0.0253 -0.1619
  571MPD2    N1 8477   3.365   1.607  17.564  0.5807  0.3190 -0.1465
  571MPD2    H7 8478   3.328   1.564  17.479  0.7644 -1.4366  0.6544
  572TMC3    C1 8479   3.678   2.103   0.195 -0.4425 -0.0197 -0.1127
  572TMC3    C2 8480   3.781   2.069   0.281 -0.3597 -0.6171  0.1371
  572TMC3    C3 8481   3.843   2.179   0.344  0.0332  0.3537 -0.2725
  572TMC3    C4 8482   3.635   2.231   0.162 -0.0312  0.0514  0.0362
  572TMC3    C5 8483   3.713   2.334   0.216 -0.3084  0.1137 -0.0152
  572TMC3    C6 8484   3.812   2.304   0.307 -0.5954  0.0251 -0.3574
  572TMC3     C 8485   3.626   1.992   0.119 -0.7844  1.0017 -0.1333
  572TMC3     O 8486   3.624   1.880   0.169 -0.6565 -0.2684  0.1952
  572TMC3     H 8487   3.801   1.964   0.300  0.2226 -0.3824  0.8061
  572TMC3    H1 8488   3.549   2.243   0.098 -0.3060  0.4050  0.4742
  572TMC3    H2 8489   3.871   2.388   0.343 -0.2484 -0.8815  1.2152
  572TMC3    C7 8490   3.695   2.456   0.161 -0.3115  0.3065  0.5196
  572TMC3    C8 8491   3.969   2.154   0.408 -0.3344  0.4218 -0.3512
  572TMC3    O1 8492   3.587   2.478   0.111 -0.2412 -0.4937 -0.0077
  572TMC3    O2 8493   4.053   2.238   0.387 -0.0286 -0.2285  0.1553
  573MPD2     C 8494   0.095   1.635   1.319 -0.4420 -0.2159 -0.7797
  573MPD2    C1 8495   0.111   1.751   1.239 -0.5366  0.0403  0.4619
  573MPD2    C2 8496   0.052   1.757   1.114  0.5593  0.3819 -0.6708
  573MPD2    C3 8497   4.722   1.644   1.055 -0.0229 -0.1865  0.8566
  573MPD2    C4 8498   0.002   1.527   1.133  0.4442  0.0745  0.0489
  573MPD2    C5 8499   0.050   1.522   1.259 -0.0262  0.3926  0.4720
  573MPD2     H 8500   0.072   1.837   1.043  2.6803 -1.7899 -2.5163
  573MPD2    H1 8501   4.686   1.437   1.088 -1.0255  1.2567 -0.9777
  573MPD2    H2 8502   0.131   1.637   1.422 -0.6292 -1.4363 -0.6932
  573MPD2    H3 8503   0.047   1.430   1.317  2.8050  0.2047  0.3084
  573MPD2     N 8504   4.665   1.636   0.927  0.2541 -0.0425 -0.1594
  573MPD2    H5 8505   4.623   1.544   0.915 -0.2834  0.3406 -1.1484
  573MPD2    N1 8506   0.178   1.858   1.303 -0.4966  0.0577 -0.7544
  573MPD2    H7 8507   0.222   1.840   1.393  1.1950  2.3022 -1.1404
  574TMC3    C1 8508   4.596   1.680   0.712  0.3253 -0.4527  0.0402
  574TMC3    C2 8509   4.593   1.756   0.595  1.2003 -0.0232  0.1715
  574TMC3    C3 8510   4.512   1.716   0.491 -0.3876 -0.8956  0.4338
  574TMC3    C4 8511   4.512   1.569   0.725 -0.2107 -0.4026 -0.0599
  574TMC3    C5 8512   4.425   1.542   0.619  0.1740  0.0320 -0.3344
  574TMC3    C6 8513   4.422   1.609   0.501  0.7407  0.2698  0.7866
  574TMC3     C 8514   4.663   1.730   0.829 -0.4265 -0.3812  0.9485
  574TMC3     O 8515   0.001   1.836   0.827 -0.4335  0.1077  0.4417
  574TMC3     H 8516   4.651   1.846   0.580  0.9135 -0.0611 -1.1662
  574TMC3    H1 8517   4.496   1.510   0.814 -0.3256  1.6026  1.2374
  574TMC3    H2 8518   4.335   1.596   0.437  1.4110 -1.5907  0.2440
  574TMC3    C7 8519   4.316   1.443   0.642  0.1876 -0.1221  0.0505
  574TMC3    C8 8520   4.521   1.796   0.368 -0.6981  0.8103 -0.5303
  574TMC3    O1 8521   4.233   1.432   0.553  0.0873 -0.5920 -0.1214
  574TMC3    O2 8522   4.614   1.876   0.349  0.2521 -0.5076 -0.5501
  575TMC3    C1 8523   2.676   2.761  11.414  0.1368  0.4988 -0.7867
  575TMC3    C2 8524   2.670   2.624  11.393 -0.0753 -0.1048 -0.4574
  575TMC3    C3 8525   2.674   2.582  11.262  0.4228 -0.4368  0.7020
  575TMC3    C4 8526   2.691   2.852  11.311 -0.6156 -0.3030 -0.2516
  575TMC3    C5 8527   2.689   2.806  11.184  0.3057  0.0734 -0.3287
  575TMC3    C6 8528   2.698   2.668  11.159  0.7733  0.7979  0.3703
  575TMC3     C 8529   2.652   2.825  11.547 -0.1869 -0.3618  0.2043
  575TMC3     O 8530   2.660   2.946  11.553  0.3621 -0.0528  0.3520
  575TMC3     H 8531   2.655   2.550  11.471 -0.5350  1.2331  0.7042
  575TMC3    H1 8532   2.699   2.959  11.331  0.4697 -0.6643  1.2822
  575TMC3    H2 8533   2.666   2.642  11.058 -2.1273  4.0309  0.4639
  575TMC3    C7 8534   2.664   2.892  11.073 -0.5803 -0.4254 -0.0424
  575TMC3    C8 8535   2.638   2.443  11.231  0.3720  0.0014  0.1014
  575TMC3    O1 8536   2.633   3.007  11.105 -0.0763  0.2313  0.3519
  575TMC3    O2 8537   2.578   2.376  11.311  0.1714 -0.2339 -0.1926
  576MPD2     C 8538   2.625   0.317  12.535  0.1609  0.5939 -0.0513
  576MPD2    C1 8539   2.531   0.283  12.431  0.1345 -0.4608  0.1145
  576MPD2    C2 8540   2.430   0.368  12.397 -0.2856 -0.1227 -0.5989
  576MPD2    C3 8541   2.431   0.490  12.461  0.0666  0.1450 -0.5567
  576MPD2    C4 8542   2.520   0.526  12.560 -0.3093 -0.5089  0.1754
  576MPD2    C5 8543   2.617   0.436  12.598  0.1760 -0.3391 -0.8832
  576MPD2     H 8544   2.369   0.352  12.309  0.2871 -0.2356 -0.9789
  576MPD2    H1 8545   2.512   0.624  12.605  1.9718  0.8235 -2.3616
  576MPD2    H2 8546   2.715   0.268  12.571 -0.6067  0.2796  1.4065
  576MPD2    H3 8547   2.671   0.446  12.691 -0.8585  0.3272 -0.3457
  576MPD2     N 8548   2.325   0.569  12.403  0.3885  0.1654 -0.4545
  576MPD2    H5 8549   2.260   0.521  12.343  1.4535 -2.4128  0.4725
  576MPD2    N1 8550   2.537   0.163  12.353 -0.6616  0.1838  0.4481
  576MPD2    H7 8551   2.466   0.161  12.280  2.9759 -1.3883 -3.0572
  577TMC3    C1 8552   2.650   4.703  12.260 -0.2479  0.6001  0.0121
  577TMC3    C2 8553   2.730   4.588  12.274  1.0503  0.3693  0.2689
  577TMC3    C3 8554   2.771   4.527  12.162  0.1184 -0.4855 -0.1477
  577TMC3    C4 8555   2.621   0.024  12.137 -0.4349  0.2689  0.0757
  577TMC3    C5 8556   2.657   4.681  12.021 -0.0057  0.5425  0.0782
  577TMC3    C6 8557   2.728   4.562  12.034 -0.3123  0.0944 -0.3012
  577TMC3     C 8558   2.631   0.065  12.369 -0.6822 -0.0716 -0.3137
  577TMC3     O 8559   2.671   0.030  12.481  0.1050 -0.3580 -0.4614
  577TMC3     H 8560   2.752   4.558  12.376 -0.3348 -1.5807  0.0012
  577TMC3    H1 8561   2.571   0.118  12.119 -0.7401  0.4937  2.0863
  577TMC3    H2 8562   2.748   4.502  11.946  0.0178 -2.5494  1.5676
  577TMC3    C7 8563   2.621   0.004  11.885 -0.3482  0.6899 -0.0876
  577TMC3    C8 8564   2.846   4.404  12.176  0.1636  0.4518 -0.5052
  577TMC3    O1 8565   2.522   0.079  11.874  0.2183  0.3834 -0.2759
  577TMC3    O2 8566   2.849   4.350  12.289  0.1581  0.1339  0.2146
  578MPD2     C 8567   0.411   4.702   1.780 -0.9965  0.0742  0.3373
  578MPD2    C1 8568   0.434   4.706   1.647  0.2056 -0.6459 -0.4011
  578MPD2    C2 8569   0.567   4.709   1.602  0.3157 -0.2459 -0.4935
  578MPD2    C3 8570   0.674   4.720   1.689  0.0305  0.4067  0.0173
  578MPD2    C4 8571   0.646   0.007   1.822  0.0735 -0.4148 -0.4756
  578MPD2    C5 8572   0.517   4.722   1.866  0.1765 -0.5014  0.1164
  578MPD2     H 8573   0.595   4.716   1.498  0.0947  0.9678 -0.4659
  578MPD2    H1 8574   0.722   0.022   1.897 -0.5315 -1.3558  0.3419
  578MPD2    H2 8575   0.311   4.684   1.820 -1.0443  0.4028  0.3646
  578MPD2    H3 8576   0.502   0.008   1.973 -1.9056  1.6660 -0.3980
  578MPD2     N 8577   0.807   0.006   1.634  0.3932 -0.3254  0.1180
  578MPD2    H5 8578   0.827   4.704   1.538  1.1546 -1.8929  0.6954
  578MPD2    N1 8579   0.331   4.699   1.553  0.3354 -0.0419  0.0496
  578MPD2    H7 8580   0.237   4.707   1.589  0.9855  2.4278  1.2384
  579TMC3    C1 8581   1.038   0.050   1.633 -0.8916  0.3117  0.4520
  579TMC3    C2 8582   1.143   0.138   1.663 -0.1075 -0.0959  0.7937
  579TMC3    C3 8583   1.259   0.140   1.585  0.3624 -0.0152  0.4478
  579TMC3    C4 8584   1.055   4.692   1.523 -0.2122  0.9410 -0.0271
  579TMC3    C5 8585   1.175   4.690   1.456 -0.0168  0.5601 -0.0774
  579TMC3    C6 8586   1.272   0.056   1.478 -0.9556 -0.0138  0.0508
  579TMC3     C 8587   0.914   0.064   1.699 -0.0937 -0.2776  0.6744
  579TMC3     O 8588   0.918   0.120   1.811  0.2379  0.1017  0.1108
  579TMC3     H 8589   1.139   0.219   1.735  1.7276  0.1689  0.6093
  579TMC3    H1 8590   0.993   4.603   1.522  1.6551 -0.3812  1.1915
  579TMC3    H2 8591   1.352   0.066   1.405 -1.3573 -0.8221 -0.5102
  579TMC3    C7 8592   1.214   4.577   1.372 -0.3410  0.1920 -0.0149
  579TMC3    C8 8593   1.379   0.175   1.643  0.9345 -0.2844 -0.3312
  579TMC3    O1 8594   1.332   4.565   1.343 -0.0915  0.0982 -0.6281
  579TMC3    O2 8595   1.384   0.169   1.764  0.3790  0.6102  0.7158
  580TMC3    C1 8596   0.167   3.843  12.045 -0.9393  0.3380  0.3418
  580TMC3    C2 8597   0.144   3.830  11.910 -0.9210 -0.1811 -0.1538
  580TMC3    C3 8598   0.182   3.709  11.844  0.5231  0.4581 -0.6954
  580TMC3    C4 8599   0.221   3.739  12.117 -1.1264 -0.3065 -0.2302
  580TMC3    C5 8600   0.246   3.620  12.055 -0.0437  0.3047  0.4521
  580TMC3    C6 8601   0.239   3.605  11.922  0.0051  1.4381  0.2114
  580TMC3     C 8602   0.233   3.965  12.052  0.6282  0.0206  0.3042
  580TMC3     O 8603   0.172   4.066  12.031  0.2927 -0.2555  0.2752
  580TMC3     H 8604   0.137   3.919  11.847  0.6816 -1.5525 -2.2911
  580TMC3    H1 8605   0.231   3.746  12.224 -1.0889  0.9373 -0.3143
  580TMC3    H2 8606   0.275   3.526  11.858  2.1267  1.7390  1.0545
  580TMC3    C7 8607   0.273   3.505  12.137 -0.1350  0.1860 -0.1069
  580TMC3    C8 8608   0.263   3.750  11.734 -0.8141 -0.3430 -0.3022
  580TMC3    O1 8609   0.296   3.528  12.255  0.7778  0.0942  0.5112
  580TMC3    O2 8610   0.216   3.823  11.649 -0.3922 -0.1093  0.0999
  581MPD2     C 8611   2.568   2.587  15.092 -0.0822 -0.2680  0.2829
  581MPD2    C1 8612   2.460   2.578  15.179  0.3703 -0.3857  0.2206
  581MPD2    C2 8613   2.374   2.684  15.182  0.3551  0.0813  0.0603
  581MPD2    C3 8614   2.411   2.799  15.111 -0.1987 -0.3346 -0.6116
  581MPD2    C4 8615   2.529   2.816  15.048  0.5188  0.4261 -0.1261
  581MPD2    C5 8616   2.600   2.700  15.022  0.2091 -0.1780  0.4095
  581MPD2     H 8617   2.285   2.683  15.243 -0.5589  0.7943 -1.2762
  581MPD2    H1 8618   2.559   2.907  14.997 -1.2457  1.5292  0.8455
  581MPD2    H2 8619   2.623   2.495  15.083  2.9930  1.5057  0.7590
  581MPD2    H3 8620   2.694   2.700  14.968 -0.0339 -0.4826 -0.0143
  581MPD2     N 8621   2.325   2.913  15.111  0.2442  0.6926 -0.1567
  581MPD2    H5 8622   2.227   2.885  15.106  0.9181 -1.6873 -0.0459
  581MPD2    N1 8623   2.447   2.457  15.249  0.8742 -0.0187  0.4505
  581MPD2    H7 8624   2.508   2.384  15.213 -0.8043 -1.1315 -0.1300
  582TMC3    C1 8625   2.399   2.315  15.426 -0.4036 -0.0914  0.1543
  582TMC3    C2 8626   2.528   2.320  15.469 -0.3303 -0.2886 -0.8980
  582TMC3    C3 8627   2.567   2.265  15.591 -0.6451 -0.2707 -0.2042
  582TMC3    C4 8628   2.307   2.279  15.522  0.3021  0.0686 -0.0621
  582TMC3    C5 8629   2.341   2.233  15.649 -0.5237 -0.1272 -0.2647
  582TMC3    C6 8630   2.474   2.226  15.683 -0.5635 -1.3330  0.1689
  582TMC3     C 8631   2.352   2.423  15.342  0.1499 -0.3198 -1.0806
  582TMC3     O 8632   2.252   2.483  15.386  0.0707 -0.3708 -0.4237
  582TMC3     H 8633   2.607   2.358  15.405  1.6231 -0.3771  1.4483
  582TMC3    H1 8634   2.202   2.296  15.501 -0.1887 -2.8021  0.0847
  582TMC3    H2 8635   2.507   2.198  15.782  1.1745 -2.1140 -0.6283
  582TMC3    C7 8636   2.285   2.317  15.755  0.0233 -0.9247 -0.0374
  582TMC3    C8 8637   2.678   2.344  15.636 -0.4139  0.4913  0.1780
  582TMC3    O1 8638   2.307   2.278  15.871 -0.1341 -0.0992 -0.1460
  582TMC3    O2 8639   2.773   2.340  15.558 -0.5665 -0.5313 -0.3169
  583MPD2     C 8640   3.067   0.445  17.116 -0.1492 -0.1714 -0.0763
  583MPD2    C1 8641   3.018   0.511  17.004 -0.5407 -0.0104  0.1492
  583MPD2    C2 8642   2.934   0.618  17.027 -0.0252 -0.4129  0.3877
  583MPD2    C3 8643   2.903   0.663  17.154  0.4107 -0.0271  1.0532
  583MPD2    C4 8644   2.962   0.600  17.261 -1.1638 -0.7232 -0.1677
  583MPD2    C5 8645   3.037   0.488  17.239  0.2474  0.6225  0.2450
  583MPD2     H 8646   2.910   0.675  16.938  0.4114 -1.7556 -0.6006
  583MPD2    H1 8647   2.958   0.630  17.365  1.8600 -0.5912 -0.0872
  583MPD2    H2 8648   3.148   0.373  17.116 -1.1066 -1.2387  0.5359
  583MPD2    H3 8649   3.101   0.443  17.314  0.7792  1.0252  0.0329
  583MPD2     N 8650   2.833   0.781  17.177 -0.1753  0.3532  0.0471
  583MPD2    H5 8651   2.818   0.829  17.089  0.3455  1.8150  0.7484
  583MPD2    N1 8652   3.060   0.471  16.874 -0.3711  0.1258 -0.0570
  583MPD2    H7 8653   3.032   0.519  16.789 -1.0058 -2.4689 -1.3267
  584TMC3    C1 8654   2.665   0.927  17.275  0.1195 -0.7749  0.7164
  584TMC3    C2 8655   2.716   1.021  17.196  0.3782 -0.1078  0.1997
  584TMC3    C3 8656   2.714   1.154  17.236 -0.7802  0.0895 -0.0245
  584TMC3    C4 8657   2.610   0.961  17.395 -0.1912 -0.0870 -0.2926
  584TMC3    C5 8658   2.598   1.098  17.429  0.0773  0.0042  0.4163
  584TMC3    C6 8659   2.655   1.193  17.353  0.5928  0.5273  0.2822
  584TMC3     C 8660   2.747   0.805  17.286 -0.1720 -0.5188  0.7153
  584TMC3     O 8661   2.717   0.725  17.376  0.2447 -0.7206 -0.8438
  584TMC3     H 8662   2.781   1.001  17.112  0.6851  0.6467  0.2598
  584TMC3    H1 8663   2.567   0.882  17.456 -0.7959 -0.3015 -0.9884
  584TMC3    H2 8664   2.646   1.298  17.378  0.7160  0.9114 -1.2843
  584TMC3    C7 8665   2.555   1.119  17.568  0.1676 -0.4257 -0.2401
  584TMC3    C8 8666   2.767   1.250  17.136  0.7418 -0.3636 -0.4953
  584TMC3    O1 8667   2.515   1.024  17.631 -0.4396  0.0256  0.6810
  584TMC3    O2 8668   2.782   1.210  17.020 -0.9147  0.4853 -0.4297
  585MPD2     C 8669   2.198   4.283   0.454  0.3523 -0.5080  0.6434
  585MPD2    C1 8670   2.234   4.307   0.321 -0.9125  0.0840 -0.4563
  585MPD2    C2 8671   2.179   4.234   0.216  0.0522 -0.1308  0.1201
  585MPD2    C3 8672   2.085   4.130   0.238 -0.3920  0.4620  0.3691
  585MPD2    C4 8673   2.057   4.105   0.380  0.4307  0.6111  0.6543
  585MPD2    C5 8674   2.115   4.180   0.475  0.6895 -0.3765 -0.0068
  585MPD2     H 8675   2.202   4.270   0.116  0.3742 -1.1466 -0.1705
  585MPD2    H1 8676   1.986   4.027   0.405 -1.0730  1.5911 -0.5574
  585MPD2    H2 8677   2.223   4.358   0.529  2.0066 -1.3645  0.9488
  585MPD2    H3 8678   2.086   4.154   0.576  2.4052 -0.5232  0.4618
  585MPD2     N 8679   2.027   4.060   0.136 -0.2028  0.1336 -0.2482
  585MPD2    H5 8680   1.960   3.992   0.171 -0.5918  0.7593  0.2253
  585MPD2    N1 8681   2.316   4.421   0.306 -0.4962 -0.0948 -0.8498
  585MPD2    H7 8682   2.352   4.468   0.388  1.8274  0.6667 -2.3051
  586TMC3    C1 8683   1.919   4.025  17.620 -0.3305 -0.2930 -0.1091
  586TMC3    C2 8684   1.952   4.029  17.486  0.7306  0.6904  0.2444
  586TMC3    C3 8685   1.875   3.952  17.406  0.3415 -0.1864  0.4489
  586TMC3    C4 8686   1.822   3.943  17.664  0.4308 -0.4601  0.1790
  586TMC3    C5 8687   1.756   3.855  17.584  0.2723  0.0379 -0.2040
  586TMC3    C6 8688   1.787   3.853  17.452 -0.2103  0.4253 -0.4375
  586TMC3     C 8689   2.016   4.098   0.006 -0.3504 -0.8449 -0.6509
  586TMC3     O 8690   2.061   4.194  17.645 -0.6387 -0.0264  0.7525
  586TMC3     H 8691   2.026   4.097  17.446 -0.7518  0.4314 -2.9527
  586TMC3    H1 8692   1.800   3.939   0.072  1.1133 -2.6358  0.2296
  586TMC3    H2 8693   1.724   3.791  17.389  0.7863  1.9632 -2.9950
  586TMC3    C7 8694   1.659   3.755  17.631  0.5980  0.7399 -0.2647
  586TMC3    C8 8695   1.951   3.919  17.295 -0.8412  0.0640  0.0048
  586TMC3    O1 8696   1.640   3.653  17.562 -0.1031 -0.1531 -0.4148
  586TMC3    O2 8697   1.992   4.000  17.211  0.0237 -0.5326 -0.5442
  587TMC3    C1 8698   4.571   2.875  16.252 -0.5712 -0.0992 -0.8833
  587TMC3    C2 8699   4.499   2.985  16.286  0.6139 -0.1085  0.2469
  587TMC3    C3 8700   4.516   3.097  16.203 -0.0844  0.3589  0.9257
  587TMC3    C4 8701   4.660   2.874  16.151  0.2262  0.4377 -0.1247
  587TMC3    C5 8702   4.676   2.988  16.069  0.1530  0.0576 -0.1757
  587TMC3    C6 8703   4.597   3.094  16.097  0.5258 -0.0860 -0.4167
  587TMC3     C 8704   4.554   2.754  16.330 -0.4391 -0.1901 -0.3231
  587TMC3     O 8705   4.601   2.654  16.276  0.0996 -0.2230 -0.2215
  587TMC3     H 8706   4.411   2.980  16.349 -0.8107 -1.5646 -1.8647
  587TMC3    H1 8707   0.001   2.788  16.139 -1.6996 -1.0624  0.2310
  587TMC3    H2 8708   4.603   3.181  16.032 -1.0672 -0.0603 -0.5458
  587TMC3    C7 8709   0.055   3.005  15.967 -0.0964 -0.4394  0.1979
  587TMC3    C8 8710   4.430   3.221  16.215  0.2412 -0.6000  0.1968
  587TMC3    O1 8711   0.050   3.097  15.886  0.0720 -0.2202  0.0993
  587TMC3    O2 8712   4.382   3.256  16.110  0.1009  0.1781 -0.3203
  588TMC3    C1 8713   2.414   0.693   9.820 -0.1237 -0.1870 -0.1581
  588TMC3    C2 8714   2.331   0.591   9.837 -0.3517  0.8301 -0.2020
  588TMC3    C3 8715   2.381   0.479   9.900  0.1724 -0.1636 -0.5875
  588TMC3    C4 8716   2.541   0.702   9.874  0.5374  0.2582  0.1780
  588TMC3    C5 8717   2.584   0.590   9.941 -0.4211  0.5956 -0.0605
  588TMC3    C6 8718   2.510   0.473   9.933 -0.2704  0.0342  0.3960
  588TMC3     C 8719   2.350   0.823   9.793 -0.4883 -0.4810  0.0487
  588TMC3     O 8720   2.253   0.826   9.721  0.7536 -0.2901  0.3394
  588TMC3     H 8721   2.226   0.597   9.811 -0.0721  0.9423 -1.2711
  588TMC3    H1 8722   2.608   0.784   9.848 -0.9004  1.5257  0.4647
  588TMC3    H2 8723   2.553   0.377   9.959  0.9133  0.4431 -0.0461
  588TMC3    C7 8724   2.722   0.582   9.981 -0.2950  0.1750  0.0921
  588TMC3    C8 8725   2.301   0.360   9.911 -0.7137  0.0449  0.1949
  588TMC3    O1 8726   2.776   0.476   9.966  0.4484  0.1832  0.2186
  588TMC3    O2 8727   2.202   0.360   9.840  0.2160  0.0946 -0.2138
  589TMC3    C1 8728   1.172   2.854   1.474 -0.1335  0.1789 -0.6649
  589TMC3    C2 8729   1.288   2.834   1.539  0.7186 -0.0785  0.1454
  589TMC3    C3 8730   1.358   2.716   1.505  0.0490 -0.2696 -0.0471
  589TMC3    C4 8731   1.123   2.762   1.381 -0.4962 -0.5835  0.3924
  589TMC3    C5 8732   1.205   2.656   1.340  0.4073 -0.2123 -0.0651
  589TMC3    C6 8733   1.318   2.622   1.415 -0.6572 -0.2803 -0.1637
  589TMC3     C 8734   1.098   2.976   1.484  0.4327 -0.3042  0.0352
  589TMC3     O 8735   0.982   2.961   1.458  0.3173 -0.6213 -0.0494
  589TMC3     H 8736   1.328   2.892   1.622 -0.4063  1.4009 -0.3543
  589TMC3    H1 8737   1.030   2.786   1.330  0.8328 -1.8753 -2.6329
  589TMC3    H2 8738   1.380   2.538   1.387  0.9707  0.9738 -0.3251
  589TMC3    C7 8739   1.165   2.552   1.242  0.0934 -0.0940 -0.0717
  589TMC3    C8 8740   1.477   2.690   1.583 -0.1430 -0.3569 -0.3095
  589TMC3    O1 8741   1.232   2.451   1.235 -0.5933  0.0669 -0.7275
  589TMC3    O2 8742   1.483   2.742   1.693  0.3167 -0.4817 -0.4043
  590MPD2     C 8743   0.405   1.450  17.115  0.5327  0.5639 -0.0308
  590MPD2    C1 8744   0.386   1.396  16.987  0.1194 -0.2931  0.3635
  590MPD2    C2 8745   0.485   1.417  16.897  0.3076 -0.4560  0.3783
  590MPD2    C3 8746   0.600   1.494  16.914 -0.7363 -1.4628 -0.6233
  590MPD2    C4 8747   0.614   1.548  17.040  0.1987  0.3035  0.1525
  590MPD2    C5 8748   0.520   1.525  17.136  0.2247  0.1847  0.3570
  590MPD2     H 8749   0.464   1.391  16.793  1.0350 -1.0105  0.3645
  590MPD2    H1 8750   0.694   1.619  17.056 -0.0554  0.4055  0.9419
  590MPD2    H2 8751   0.334   1.438  17.197 -0.2893  2.5806 -0.4493
  590MPD2    H3 8752   0.532   1.580  17.229 -0.2325 -1.0558  1.1460
  590MPD2     N 8753   0.679   1.521  16.801  0.0045  0.2569  0.1192
  590MPD2    H5 8754   0.638   1.496  16.711  0.5688 -0.4462  0.0547
  590MPD2    N1 8755   0.261   1.338  16.951  0.3169 -0.1192  0.1166
  590MPD2    H7 8756   0.177   1.358  17.005 -0.2599 -1.2364 -0.3715
  591TMC3    C1 8757   0.865   1.604  16.673 -0.2109  0.2306  0.1048
  591TMC3    C2 8758   0.846   1.506  16.583 -0.5055 -0.1892 -0.0947
  591TMC3    C3 8759   0.866   1.523  16.448 -0.2399  0.2916  0.0519
  591TMC3    C4 8760   0.897   1.726  16.633  0.2912 -0.4174  0.3978
  591TMC3    C5 8761   0.907   1.748  16.496  0.4722 -0.1665 -0.3611
  591TMC3    C6 8762   0.892   1.648  16.400 -0.6337 -0.4888  0.5878
  591TMC3     C 8763   0.798   1.593  16.805  0.5803  0.1031  0.3721
  591TMC3     O 8764   0.848   1.660  16.897 -0.2009 -0.4135  0.5455
  591TMC3     H 8765   0.819   1.405  16.611 -1.3168 -0.0633 -0.4309
  591TMC3    H1 8766   0.919   1.804  16.704 -1.5442  0.5374 -0.0586
  591TMC3    H2 8767   0.906   1.670  16.295  0.7288 -0.8494  0.6889
  591TMC3    C7 8768   0.893   1.889  16.457 -0.6548  0.0439 -0.4988
  591TMC3    C8 8769   0.813   1.423  16.355 -0.0731 -0.0243 -0.2852
  591TMC3    O1 8770   0.878   1.974  16.546 -0.4006 -0.1441  0.5211
  591TMC3    O2 8771   0.827   1.305  16.390 -0.3485  0.0994  0.1468
  592MPD2     C 8772   1.266   3.376  11.226 -0.2560 -0.0355 -0.2263
  592MPD2    C1 8773   1.293   3.400  11.359 -0.0526 -0.8467  0.0173
  592MPD2    C2 8774   1.210   3.334  11.444  0.1427 -0.0430  0.6550
  592MPD2    C3 8775   1.110   3.252  11.410 -0.0232  0.5041  0.0609
  592MPD2    C4 8776   1.086   3.232  11.276  0.2253 -0.9453  0.9547
  592MPD2    C5 8777   1.162   3.300  11.185  0.8368 -0.6182 -0.3111
  592MPD2     H 8778   1.240   3.339  11.548  0.9907  0.1713  0.3974
  592MPD2    H1 8779   1.014   3.162  11.234  0.0181 -0.1003 -0.0963
  592MPD2    H2 8780   1.317   3.438  11.153 -0.5978  0.6927  0.1474
  592MPD2    H3 8781   1.145   3.292  11.078  0.3848  0.5472 -0.3260
  592MPD2     N 8782   1.054   3.180  11.517  0.7202 -0.0109 -0.4684
  592MPD2    H5 8783   1.074   3.215  11.611 -2.0545  1.7606 -0.5257
  592MPD2    N1 8784   1.399   3.481  11.396 -0.8047 -0.4566  0.2473
  592MPD2    H7 8785   1.450   3.516  11.316 -0.6591 -0.6574  0.2527
  593TMC3    C1 8786   1.578   3.577  11.522 -0.0906 -0.6592 -0.0099
  593TMC3    C2 8787   1.628   3.612  11.645 -0.8136  0.0458 -0.6230
  593TMC3    C3 8788   1.746   3.675  11.649  0.2551  0.5693 -0.1506
  593TMC3    C4 8789   1.645   3.596  11.399 -0.3532 -0.2526 -0.4459
  593TMC3    C5 8790   1.773   3.649  11.409 -0.1006  0.1358  0.0097
  593TMC3    C6 8791   1.808   3.703  11.530  0.2006 -0.2340  0.1254
  593TMC3     C 8792   1.450   3.511  11.521 -0.7327  0.0952 -0.6509
  593TMC3     O 8793   1.410   3.457  11.625 -0.7748  0.8716 -0.2000
  593TMC3     H 8794   1.557   3.617  11.726 -1.5765  3.5930 -1.5291
  593TMC3    H1 8795   1.622   3.529  11.317  1.4458  1.3497 -2.2440
  593TMC3    H2 8796   1.903   3.755  11.538 -0.7621  1.5188  0.0553
  593TMC3    C7 8797   1.847   3.695  11.300 -1.0680 -0.0650 -0.2487
  593TMC3    C8 8798   1.758   3.771  11.750 -0.2988  0.2854 -0.0005
  593TMC3    O1 8799   1.962   3.731  11.311  0.5553 -0.5329  0.6374
  593TMC3    O2 8800   1.784   3.884  11.710 -0.3030  0.3598 -0.6960
  594MPD2     C 8801   4.143   1.942  14.255  0.5175 -0.6264 -0.2500
  594MPD2    C1 8802   4.141   2.017  14.373 -0.0693  0.1391  0.3093
  594MPD2    C2 8803   4.249   2.099  14.408 -0.4849 -0.2775  0.0032
  594MPD2    C3 8804   4.364   2.111  14.322  0.0788  0.3917  0.3035
  594MPD2    C4 8805   4.360   2.043  14.202 -0.5435 -0.1615 -0.3622
  594MPD2    C5 8806   4.248   1.965  14.176 -0.0618 -0.1446 -0.2269
  594MPD2     H 8807   4.234   2.152  14.502 -3.1921  0.7164 -0.9716
  594MPD2    H1 8808   4.444   2.039  14.133  1.2703 -3.1581  2.0389
  594MPD2    H2 8809   4.061   1.880  14.223  0.2590 -0.9137  0.9672
  594MPD2    H3 8810   4.262   1.913  14.082  0.1395  0.2598 -0.4217
  594MPD2     N 8811   4.468   2.196  14.356 -0.3144  0.7490 -0.3801
  594MPD2    H5 8812   4.457   2.234  14.450 -0.9308 -1.0302  0.2859
  594MPD2    N1 8813   4.034   1.994  14.457  0.8625 -0.4460  0.2024
  594MPD2    H7 8814   3.968   1.934  14.408  1.3241 -0.3945 -0.4974
  595TMC3    C1 8815   0.138   2.449  14.340  0.2858  0.0333  0.3328
  595TMC3    C2 8816   0.057   2.346  14.294 -0.1662 -0.6108  0.8273
  595TMC3    C3 8817   4.652   2.337  14.346  0.4834  0.2537 -0.1120
  595TMC3    C4 8818   0.091   2.531  14.436  0.0781 -0.6787 -0.1034
  595TMC3    C5 8819   4.682   2.520  14.473  0.0797  0.0249  0.0767
  595TMC3    C6 8820   4.593   2.434  14.423 -0.0232 -0.0769  0.4285
  595TMC3     C 8821   0.283   2.431  14.348  0.3281  0.1339  0.0678
  595TMC3     O 8822   0.325   2.316  14.345 -0.1465 -0.2001 -0.7036
  595TMC3     H 8823   0.112   2.275  14.234  0.1040  0.9793 -0.8311
  595TMC3    H1 8824   0.156   2.603  14.484 -0.7595 -0.7005  1.0450
  595TMC3    H2 8825   4.489   2.428  14.455  0.1801 -1.0964  0.8959
  595TMC3    C7 8826   4.630   2.595  14.576  0.2878  0.7157 -0.5146
  595TMC3    C8 8827   4.567   2.241  14.269 -0.3804 -0.3470  0.0776
  595TMC3    O1 8828   4.509   2.617  14.581 -0.0214 -0.2259 -0.3605
  595TMC3    O2 8829   4.605   2.207  14.155  0.0826 -0.1503 -0.0645
  596MPD2     C 8830   3.863   0.302  16.985  0.0091  0.4338 -0.0941
  596MPD2    C1 8831   3.832   0.410  16.904  0.4177  0.3115 -0.4726
  596MPD2    C2 8832   3.842   0.388  16.766 -0.0444  0.6068  0.8245
  596MPD2    C3 8833   3.874   0.261  16.713  0.4974 -0.3645 -0.5230
  596MPD2    C4 8834   3.908   0.158  16.797 -0.1068 -0.5098 -0.1000
  596MPD2    C5 8835   3.901   0.181  16.937 -0.4990 -0.1772 -0.0014
  596MPD2     H 8836   3.830   0.476  16.703  0.5537  1.1230  1.4311
  596MPD2    H1 8837   3.928   0.057  16.764 -0.9545 -1.0912  1.1778
  596MPD2    H2 8838   3.866   0.318  17.093 -0.5674 -1.4343  0.2067
  596MPD2    H3 8839   3.930   0.108  17.011 -1.2277  1.0135  1.4506
  596MPD2     N 8840   3.853   0.226  16.578 -0.4664  0.3526  0.2177
  596MPD2    H5 8841   3.886   0.136  16.544 -0.8254 -0.7129  2.6704
  596MPD2    N1 8842   3.806   0.539  16.953  0.2332  0.1428 -0.6450
  596MPD2    H7 8843   3.788   0.605  16.879  0.3810  0.1851 -0.6437
  597TMC3    C1 8844   3.743   0.724  17.082  0.1844  0.5908  0.2819
  597TMC3    C2 8845   3.762   0.808  16.973  1.0572  0.0797  0.0044
  597TMC3    C3 8846   3.669   0.907  16.952 -0.5201 -0.4479  0.0579
  597TMC3    C4 8847   3.648   0.745  17.180 -0.1339  0.0853 -1.0100
  597TMC3    C5 8848   3.566   0.851  17.159  0.2405  0.2038  0.5116
  597TMC3    C6 8849   3.567   0.926  17.047 -0.4405 -0.0209  0.4300
  597TMC3     C 8850   3.806   0.594  17.079 -0.8194 -0.3571 -0.2474
  597TMC3     O 8851   3.820   0.545  17.189 -0.1275  0.0858  0.4062
  597TMC3     H 8852   3.840   0.777  16.904  1.5185  1.5041 -0.1146
  597TMC3    H1 8853   3.653   0.680  17.266 -2.6695  0.7441 -0.3624
  597TMC3    H2 8854   3.492   1.001  17.027  0.9627  0.6154 -2.3843
  597TMC3    C7 8855   3.452   0.871  17.249 -0.0411 -0.3706  0.0238
  597TMC3    C8 8856   3.696   1.006  16.848 -0.4909  0.3030  0.3585
  597TMC3    O1 8857   3.428   0.776  17.321  0.4376 -0.1175 -0.3238
  597TMC3    O2 8858   3.606   1.086  16.831  0.1824 -0.1697  0.0109
  598TMC3    C1 8859   1.749   1.618  15.414 -0.0930 -0.1261 -0.4593
  598TMC3    C2 8860   1.649   1.530  15.393 -0.2835  0.4616  0.3254
  598TMC3    C3 8861   1.628   1.483  15.266  0.3393  0.2392  0.5758
  598TMC3    C4 8862   1.826   1.663  15.309 -0.6000  0.1148 -0.2808
  598TMC3    C5 8863   1.803   1.618  15.187  0.2314 -0.1921 -0.1542
  598TMC3    C6 8864   1.703   1.523  15.160  0.0144  0.3935 -0.0383
  598TMC3     C 8865   1.793   1.652  15.547 -0.3007  0.0514  0.5226
  598TMC3     O 8866   1.890   1.728  15.556  0.0368  0.6475  0.1037
  598TMC3     H 8867   1.574   1.521  15.471 -1.4757  1.7305 -0.6703
  598TMC3    H1 8868   1.906   1.728  15.341  0.2163 -0.6496 -0.7805
  598TMC3    H2 8869   1.698   1.482  15.060 -1.4843  0.4268  0.0240
  598TMC3    C7 8870   1.877   1.668  15.072  0.5440  0.0211  0.1214
  598TMC3    C8 8871   1.528   1.379  15.235  0.2829  0.2410 -0.3640
  598TMC3    O1 8872   1.861   1.606  14.967 -0.3593 -0.1269 -0.3099
  598TMC3    O2 8873   1.507   1.352  15.124  0.1015  0.2481  0.1017
  599MPD2     C 8874   1.970   3.753  15.850  0.5809  0.0821  0.3959
  599MPD2    C1 8875   1.910   3.633  15.838  0.2569  0.7315 -0.5851
  599MPD2    C2 8876   1.787   3.617  15.902 -0.2441 -0.0512  0.0708
  599MPD2    C3 8877   1.737   3.716  15.987 -0.0187 -0.1806 -0.0327
  599MPD2    C4 8878   1.799   3.837  15.993 -0.3245 -0.0825 -0.8200
  599MPD2    C5 8879   1.911   3.854  15.919 -0.3248 -0.4625  0.2798
  599MPD2     H 8880   1.732   3.525  15.888  1.8030 -1.1657 -0.6336
  599MPD2    H1 8881   1.762   3.920  16.052  2.0904 -0.4657  1.2538
  599MPD2    H2 8882   2.067   3.770  15.805  0.4027  0.6147  0.2114
  599MPD2    H3 8883   1.967   3.946  15.934  0.9476 -1.1831 -0.1313
  599MPD2     N 8884   1.629   3.706  16.079 -0.5267 -0.2917  0.0448
  599MPD2    H5 8885   1.610   3.792  16.130  2.9848  0.3991  0.1813
  599MPD2    N1 8886   1.979   3.528  15.773  0.2268  0.0770 -0.4794
  599MPD2    H7 8887   2.071   3.554  15.739 -0.3263  1.1015 -1.1998
  600TMC3    C1 8888   1.434   3.622  16.182 -0.4521 -0.3438  0.5516
  600TMC3    C2 8889   1.313   3.560  16.156  0.9603 -0.0792 -0.2235
  600TMC3    C3 8890   1.206   3.597  16.226 -0.2101  0.2832 -0.2185
  600TMC3    C4 8891   1.448   3.722  16.278 -0.1119 -0.3469  0.4666
  600TMC3    C5 8892   1.332   3.746  16.349  0.1033  0.2323 -1.0910
  600TMC3    C6 8893   1.218   3.674  16.339  0.3530 -0.1007 -0.4210
  600TMC3     C 8894   1.544   3.606  16.092  0.2676  0.4988  0.4902
  600TMC3     O 8895   1.533   3.516  16.010 -0.8908  0.1606 -0.3043
  600TMC3     H 8896   1.298   3.492  16.072  2.2628 -1.3197  0.5516
  600TMC3    H1 8897   1.542   3.767  16.306  0.7309 -1.0766 -1.1923
  600TMC3    H2 8898   1.136   3.694  16.407  1.3224 -1.3364  1.1110
  600TMC3    C7 8899   1.325   3.846  16.451  0.2895 -1.1478 -0.5064
  600TMC3    C8 8900   1.089   3.512  16.223 -0.7670 -0.0230 -0.4360
  600TMC3    O1 8901   1.235   3.849  16.537  0.2511  0.2011  0.0742
  600TMC3    O2 8902   1.110   3.397  16.178 -0.7070 -0.3580  0.3120
  601MPD2     C 8903   3.877   2.912   0.014  0.3393  0.0283 -0.5693
  601MPD2    C1 8904   3.748   2.867  17.697 -0.8990 -0.0834  0.2587
  601MPD2    C2 8905   3.716   2.744   0.055  0.0942  0.4649  0.2091
  601MPD2    C3 8906   3.822   2.666   0.112  0.7688  0.6556 -0.7102
  601MPD2    C4 8907   3.949   2.721   0.130  0.1365  0.3199 -0.0725
  601MPD2    C5 8908   3.975   2.843   0.080  0.4125  0.3874  0.7410
  601MPD2     H 8909   3.618   2.705   0.031  0.6377 -1.3871  1.0217
  601MPD2    H1 8910   4.025   2.668   0.187 -0.1729  1.6660  1.5755
  601MPD2    H2 8911   3.903   3.009  17.669  0.8025  0.6030  0.9967
  601MPD2    H3 8912   4.078   2.877   0.082  0.7907 -0.7717  0.5677
  601MPD2     N 8913   3.805   2.531   0.162  0.2800  0.7635 -0.5940
  601MPD2    H5 8914   3.893   2.484   0.180 -0.7141 -0.7914  0.2394
  601MPD2    N1 8915   3.659   2.934  17.611  0.1939  0.0302  0.1970
  601MPD2    H7 8916   3.573   2.883  17.597  1.0748 -1.4828  0.3406
  602TMC3    C1 8917   3.585   3.067  17.433 -0.6132  0.0422 -0.0964
  602TMC3    C2 8918   3.631   3.114  17.315  0.6909  0.7117  0.6041
  602TMC3    C3 8919   3.538   3.131  17.216 -0.5110  0.0305  0.3573
  602TMC3    C4 8920   3.452   3.049  17.469 -0.1119  0.3624  0.1800
  602TMC3    C5 8921   3.364   3.073  17.372 -0.3954 -1.0589 -0.7990
  602TMC3    C6 8922   3.405   3.105  17.243 -0.2142 -0.7361 -0.0356
  602TMC3     C 8923   3.689   3.047  17.533  0.1156  0.3181 -0.5923
  602TMC3     O 8924   3.789   3.109  17.517 -0.7719 -0.3677 -0.3580
  602TMC3     H 8925   3.737   3.127  17.299  0.3150  1.7959 -1.1221
  602TMC3    H1 8926   3.427   3.013  17.568 -0.9112 -0.8458 -0.4648
  602TMC3    H2 8927   3.331   3.097  17.165 -0.7475  0.6983  0.3152
  602TMC3    C7 8928   3.227   3.038  17.401 -0.4940 -0.2093  0.3937
  602TMC3    C8 8929   3.573   3.181  17.088  0.4448 -0.0841  0.1467
  602TMC3    O1 8930   3.210   2.950  17.489  0.8616 -0.2273  0.1057
  602TMC3    O2 8931   3.689   3.163  17.048  0.0076 -0.0583 -0.3467
  603TMC3    C1 8932   2.476   2.594  10.664 -0.0617  0.0177  0.5914
  603TMC3    C2 8933   2.474   2.583  10.796 -0.1752  0.2922 -0.6811
  603TMC3    C3 8934   2.395   2.675  10.868 -0.0162  0.7878  0.3670
  603TMC3    C4 8935   2.402   2.682  10.593  0.4227  0.1292  0.3180
  603TMC3    C5 8936   2.322   2.766  10.665  0.5024  0.3375 -0.0800
  603TMC3    C6 8937   2.327   2.774  10.806  0.2491  0.4712 -0.2618
  603TMC3     C 8938   2.562   2.497  10.593 -1.0379  0.2936  0.1042
  603TMC3     O 8939   2.626   2.423  10.666  0.1716 -0.3029 -0.6266
  603TMC3     H 8940   2.502   2.491  10.845  1.4832  1.4769  0.6065
  603TMC3    H1 8941   2.416   2.693  10.486 -0.9756 -2.3816 -0.1355
  603TMC3    H2 8942   2.239   2.819  10.849  0.6329 -0.6861  1.6998
  603TMC3    C7 8943   2.264   2.877  10.589 -0.0995 -0.1759 -0.3301
  603TMC3    C8 8944   2.375   2.651  11.004 -0.7323 -0.2589  0.5217
  603TMC3    O1 8945   2.240   2.860  10.465 -0.7896  0.0309 -0.7270
  603TMC3    O2 8946   2.394   2.534  11.035 -0.9053 -0.1646 -0.1513
  604MPD2     C 8947   2.992   1.611  16.488  0.4308  0.5054  0.2359
  604MPD2    C1 8948   2.910   1.505  16.474 -0.3426 -0.0647 -0.0229
  604MPD2    C2 8949   2.919   1.414  16.369  0.3350 -0.6755  0.6641
  604MPD2    C3 8950   3.015   1.425  16.273  0.2554  0.4290  0.7733
  604MPD2    C4 8951   3.107   1.533  16.291  1.1971 -0.4055  0.7327
  604MPD2    C5 8952   3.094   1.615  16.395  0.3089  0.3531 -0.5557
  604MPD2     H 8953   2.845   1.336  16.358  0.7970 -1.1955  1.2343
  604MPD2    H1 8954   3.184   1.568  16.223  0.4868  3.6745  2.0444
  604MPD2    H2 8955   2.973   1.690  16.560  0.8641 -0.4119  1.3600
  604MPD2    H3 8956   3.173   1.690  16.391  0.6861  0.0419  0.8624
  604MPD2     N 8957   3.022   1.337  16.162 -0.4415 -0.1189  0.7978
  604MPD2    H5 8958   2.955   1.260  16.158 -1.7833  1.0476  0.7957
  604MPD2    N1 8959   2.814   1.495  16.575  0.2871  0.0733 -0.5791
  604MPD2    H7 8960   2.821   1.566  16.647 -0.2623 -0.4966  0.0401
  605TMC3    C1 8961   2.645   1.423  16.710  0.1602  0.1413 -0.0796
  605TMC3    C2 8962   2.717   1.498  16.803  0.0038  0.6170  0.5485
  605TMC3    C3 8963   2.669   1.622  16.847 -0.0727  0.5274 -0.3445
  605TMC3    C4 8964   2.511   1.453  16.694  0.3471  0.2500 -0.1193
  605TMC3    C5 8965   2.460   1.563  16.765  0.1233  0.9198 -0.1792
  605TMC3    C6 8966   2.536   1.650  16.840  0.1534 -0.5611 -0.5056
  605TMC3     C 8967   2.711   1.396  16.588 -0.2649  0.0453  1.0650
  605TMC3     O 8968   2.669   1.315  16.507 -0.0047  0.4918 -0.0512
  605TMC3     H 8969   2.823   1.482  16.820 -0.3944 -0.6038  1.9847
  605TMC3    H1 8970   2.455   1.393  16.622  1.0381  0.1677 -0.5819
  605TMC3    H2 8971   2.495   1.743  16.879  0.2764 -0.6902 -0.0623
  605TMC3    C7 8972   2.331   1.612  16.728  0.0185  0.0767  0.4726
  605TMC3    C8 8973   2.770   1.726  16.824 -0.1833  0.6930  0.7490
  605TMC3    O1 8974   2.319   1.729  16.692 -0.1961  0.3187  0.7093
  605TMC3    O2 8975   2.853   1.708  16.733 -0.2415 -0.1089  0.1483
  606TMC3    C1 8976   4.055   4.298  17.458 -1.0454 -0.8228  0.4122
  606TMC3    C2 8977   4.175   4.322  17.521 -0.8454 -0.0683  0.4410
  606TMC3    C3 8978   4.228   4.222  17.598 -0.0702 -0.8773  0.0963
  606TMC3    C4 8979   3.978   4.189  17.487 -0.1177 -0.0531 -0.1724
  606TMC3    C5 8980   4.023   4.108  17.582  0.0321 -0.0563  0.2745
  606TMC3    C6 8981   4.150   4.116  17.637  0.9870 -0.3272  1.1814
  606TMC3     C 8982   3.967   4.404  17.403 -0.8703  0.4098  0.6592
  606TMC3     O 8983   3.876   4.381  17.323  0.2590 -0.1472 -0.5669
  606TMC3     H 8984   4.220   4.415  17.489 -1.0372  0.0595  0.5427
  606TMC3    H1 8985   3.883   4.177  17.436  0.4647 -1.2351 -0.9607
  606TMC3    H2 8986   4.178   4.049   0.020 -1.8186  0.4651  2.8436
  606TMC3    C7 8987   3.945   3.998  17.614  0.1095  0.2038  0.1855
  606TMC3    C8 8988   4.327   4.265  17.692  0.3480 -0.5815 -0.3776
  606TMC3    O1 8989   3.998   3.886  17.618 -0.2997 -0.3807  0.0598
  606TMC3    O2 8990   4.332   4.218   0.111  0.4617  0.0789 -0.2534
  607MPD2     C 8991   1.219   2.820  11.678  0.5136  0.2511 -0.5520
  607MPD2    C1 8992   1.296   2.888  11.771 -0.3775  0.4166  0.3423
  607MPD2    C2 8993   1.297   2.832  11.898 -0.7565  0.4783  0.1049
  607MPD2    C3 8994   1.239   2.718  11.933 -0.0720  0.6567 -0.2287
  607MPD2    C4 8995   1.166   2.643  11.838  0.1505 -0.6613  0.3851
  607MPD2    C5 8996   1.160   2.700  11.709 -0.0221 -0.5091  0.1884
  607MPD2     H 8997   1.347   2.886  11.977 -1.0428 -1.6875  1.7748
  607MPD2    H1 8998   1.112   2.551  11.856 -0.6552  0.0106  1.4556
  607MPD2    H2 8999   1.205   2.861  11.579 -3.7501  2.7122  1.0388
  607MPD2    H3 9000   1.110   2.648  11.628  0.6247 -2.2235  0.8917
  607MPD2     N 9001   1.259   2.675  12.069  0.2533  0.1990  0.0943
  607MPD2    H5 9002   1.306   2.742  12.130  0.8462 -1.0407  1.0011
  607MPD2    N1 9003   1.369   3.011  11.753  0.0190  0.0800 -0.4775
  607MPD2    H7 9004   1.417   3.054  11.831  0.3819  2.2687 -1.9025
  608TMC3    C1 9005   1.518   3.170  11.676 -0.3225  0.2948 -0.2283
  608TMC3    C2 9006   1.563   3.193  11.807 -0.0161  0.4014  1.0871
  608TMC3    C3 9007   1.687   3.250  11.823  0.2758 -0.3531  0.7761
  608TMC3    C4 9008   1.593   3.214  11.567 -0.1279 -0.3618 -0.3393
  608TMC3    C5 9009   1.726   3.258  11.589 -0.4896 -0.1675  1.0734
  608TMC3    C6 9010   1.771   3.285  11.713 -0.0477  0.8179  0.1963
  608TMC3     C 9011   1.409   3.078  11.642  0.3554 -0.4718 -0.6811
  608TMC3     O 9012   1.385   3.044  11.525 -0.3922  0.8146 -0.1655
  608TMC3     H 9013   1.488   3.188  11.884 -1.3106 -1.8462 -0.3009
  608TMC3    H1 9014   1.559   3.198  11.465 -1.4599 -0.5461  0.1351
  608TMC3    H2 9015   1.865   3.334  11.736  0.1277  0.3338  0.5083
  608TMC3    C7 9016   1.806   3.278  11.479  0.3108 -0.4665  0.2083
  608TMC3    C8 9017   1.746   3.258  11.955  0.1384 -0.3954  0.1882
  608TMC3    O1 9018   1.749   3.314  11.379  0.3330 -0.0005  0.1367
  608TMC3    O2 9019   1.797   3.364  11.983  0.6227 -0.4135  0.0404
  609TMC3    C1 9020   0.406   1.254   9.299 -1.1641  0.1272  0.2063
  609TMC3    C2 9021   0.412   1.155   9.207 -0.1640 -0.0544  0.0191
  609TMC3    C3 9022   0.532   1.096   9.185 -0.2116  0.8788  0.1551
  609TMC3    C4 9023   0.525   1.298   9.368 -0.7282  0.1379 -0.0740
  609TMC3    C5 9024   0.641   1.228   9.345  0.0046 -0.0612 -0.1638
  609TMC3    C6 9025   0.646   1.127   9.250 -0.4844  0.1261 -0.7637
  609TMC3     C 9026   0.296   1.347   9.294  0.1231 -0.5085 -0.2316
  609TMC3     O 9027   0.225   1.342   9.194 -0.2476  0.5577 -0.4230
  609TMC3     H 9028   0.323   1.137   9.147  0.2130 -0.8303 -0.3131
  609TMC3    H1 9029   0.526   1.387   9.430 -4.7287 -0.4475  0.8635
  609TMC3    H2 9030   0.740   1.077   9.230 -0.5840 -1.5742  2.9722
  609TMC3    C7 9031   0.755   1.270   9.423 -0.0085  0.8407  0.8824
  609TMC3    C8 9032   0.544   0.987   9.085  0.6543  0.3511 -0.0995
  609TMC3    O1 9033   0.736   1.334   9.524  0.5356 -0.1102  0.4184
  609TMC3    O2 9034   0.649   0.923   9.085 -0.2553 -0.4738 -0.4061
  610TMC3    C1 9035   1.884   2.697  12.527 -0.0855 -0.0348 -0.2378
  610TMC3    C2 9036   1.938   2.767  12.426  0.2366  0.0052 -0.0015
  610TMC3    C3 9037   1.998   2.698  12.317  1.1643 -0.0606  0.1413
  610TMC3    C4 9038   1.902   2.565  12.534  0.7218  0.2831  0.6787
  610TMC3    C5 9039   1.957   2.495  12.431 -1.0811  0.1359  0.5073
  610TMC3    C6 9040   1.999   2.562  12.318  0.3506 -0.9901 -0.2245
  610TMC3     C 9041   1.790   2.757  12.621 -0.3678  0.5398  0.4925
  610TMC3     O 9042   1.678   2.704  12.633  0.2149  0.4968 -0.2035
  610TMC3     H 9043   1.918   2.873  12.431 -2.9832 -0.4728 -3.0370
  610TMC3    H1 9044   1.858   2.516  12.620 -0.8069  2.6005  1.2309
  610TMC3    H2 9045   2.051   2.502  12.245  0.4225  0.3714 -1.2866
  610TMC3    C7 9046   1.978   2.354  12.438  0.2619  0.6253  0.2594
  610TMC3    C8 9047   1.967   2.768  12.193  0.0755  0.5168  0.4090
  610TMC3    O1 9048   2.091   2.313  12.409 -0.1171 -0.0709  0.1082
  610TMC3    O2 9049   2.002   2.886  12.182 -0.1778 -0.1129 -0.0592
  611MPD2     C 9050   1.567   2.696  10.204 -0.0549 -0.5271  0.0455
  611MPD2    C1 9051   1.484   2.804  10.193 -0.2022 -0.0908  0.2818
  611MPD2    C2 9052   1.539   2.931  10.176 -0.2312  0.1599  0.0252
  611MPD2    C3 9053   1.674   2.943  10.157 -0.0425 -0.0208  0.6278
  611MPD2    C4 9054   1.754   2.831  10.162  0.1395  0.6426 -1.1285
  611MPD2    C5 9055   1.697   2.708  10.192 -0.1333 -0.4136 -0.5942
  611MPD2     H 9056   1.475   3.017  10.189  0.2541  0.7820 -1.6765
  611MPD2    H1 9057   1.862   2.838  10.156  0.5510 -1.2633  3.6245
  611MPD2    H2 9058   1.532   2.597  10.233  1.2566  0.2796  4.3218
  611MPD2    H3 9059   1.759   2.622  10.212 -3.3537 -2.7332 -0.6475
  611MPD2     N 9060   1.731   3.068  10.140 -0.5677 -0.2129  0.2662
  611MPD2    H5 9061   1.831   3.078  10.155 -0.5633 -0.0073  0.0949
  611MPD2    N1 9062   1.344   2.780  10.227  0.1999  0.6846 -0.5014
  611MPD2    H7 9063   1.316   2.683  10.241 -1.4846  1.5610  2.0970
  612TMC3    C1 9064   1.729   3.298  10.100  0.6530  0.0467 -0.5027
  612TMC3    C2 9065   1.827   3.302  10.196 -0.4943  0.2845 -0.3128
  612TMC3    C3 9066   1.922   3.397  10.173  0.1110 -0.0468  1.0231
  612TMC3    C4 9067   1.739   3.363   9.982  0.1278  0.2021  0.1426
  612TMC3    C5 9068   1.838   3.450   9.964 -0.2933  0.1042 -0.5969
  612TMC3    C6 9069   1.927   3.473  10.064 -0.5726  0.4623  0.7142
  612TMC3     C 9070   1.652   3.180  10.103 -0.0577 -0.1072 -0.4617
  612TMC3     O 9071   1.551   3.177  10.028 -0.6785  0.2279 -0.3705
  612TMC3     H 9072   1.817   3.254  10.293 -2.2233  0.0590 -0.6090
  612TMC3    H1 9073   1.654   3.355   9.915  1.0893 -1.1576 -0.9231
  612TMC3    H2 9074   2.012   3.540  10.054  0.5704 -0.9944  0.7353
  612TMC3    C7 9075   1.823   3.556   9.876 -0.1192  0.3668  0.0584
  612TMC3    C8 9076   2.022   3.412  10.277  0.3270 -0.3945  0.1853
  612TMC3    O1 9077   1.859   3.667   9.910 -0.0231 -0.3278 -0.3873
  612TMC3    O2 9078   2.070   3.524  10.291 -0.0016  0.8699  0.0034
  613MPD2     C 9079   0.394   0.204  16.595 -0.0349 -0.2438 -0.2938
  613MPD2    C1 9080   0.350   0.252  16.472  0.1643  0.0024 -0.9472
  613MPD2    C2 9081   0.249   0.170  16.415 -0.2707  0.1515  0.3389
  613MPD2    C3 9082   0.214   0.048  16.469  0.5127 -0.3798 -0.0091
  613MPD2    C4 9083   0.260   0.009  16.593  0.7910 -0.2227 -0.4583
  613MPD2    C5 9084   0.352   0.093  16.654  0.7073 -0.2354 -0.3388
  613MPD2     H 9085   0.193   0.190  16.325 -1.5747 -0.6737  0.9653
  613MPD2    H1 9086   0.235   4.641  16.645  2.1049 -0.5738 -0.4225
  613MPD2    H2 9087   0.475   0.253  16.648 -1.5476  0.8378  1.0112
  613MPD2    H3 9088   0.394   0.052  16.745 -0.8328  2.5728  1.6136
  613MPD2     N 9089   0.144   4.676  16.401 -0.4008 -0.2010 -0.1531
  613MPD2    H5 9090   0.139   4.584  16.445  1.8627  0.5165  1.5706
  613MPD2    N1 9091   0.387   0.376  16.426 -0.0914 -0.2394 -0.1173
  613MPD2    H7 9092   0.407   0.438  16.504  0.8659  0.4403 -0.9133
  614TMC3    C1 9093   0.350   0.358  16.178 -0.7023  0.2841 -0.1059
  614TMC3    C2 9094   0.430   0.245  16.160 -0.4004  0.5905 -1.2720
  614TMC3    C3 9095   0.417   0.175  16.040 -0.4291 -0.2982  0.7197
  614TMC3    C4 9096   0.280   0.408  16.073  0.3626 -0.4528 -0.8867
  614TMC3    C5 9097   0.275   0.343  15.949  0.3011  0.4717 -0.1541
  614TMC3    C6 9098   0.342   0.221  15.931  0.2442 -0.2756 -0.7215
  614TMC3     C 9099   0.341   0.434  16.308 -0.1641  0.4461  0.4396
  614TMC3     O 9100   0.308   0.550  16.301 -0.1354 -0.0050  0.4102
  614TMC3     H 9101   0.483   0.200  16.243 -0.4707  1.8197 -0.5629
  614TMC3    H1 9102   0.242   0.509  16.084 -0.1386 -0.4767 -2.3636
  614TMC3    H2 9103   0.334   0.163  15.840  1.5252 -0.1006 -0.9460
  614TMC3    C7 9104   0.157   0.396  15.878 -0.0413 -0.2780 -0.9615
  614TMC3    C8 9105   0.442   0.037  16.047 -0.1917  0.1665 -0.5462
  614TMC3    O1 9106   0.077   0.461  15.942 -0.1877  0.4083 -0.0747
  614TMC3    O2 9107   0.433   4.710  16.158  0.3995 -0.2658  0.0151
  615MPD2     C 9108   4.284   1.185  16.269 -0.1720  0.0911  0.0730
  615MPD2    C1 9109   4.206   1.297  16.259 -0.5315  0.0159  0.2956
  615MPD2    C2 9110   4.129   1.301  16.147  0.3431  0.1722 -0.2246
  615MPD2    C3 9111   4.121   1.206  16.047 -0.0394  0.2771 -0.1262
  615MPD2    C4 9112   4.190   1.090  16.065  0.1122 -0.4826 -0.7660
  615MPD2    C5 9113   4.275   1.084  16.170  0.0506 -0.3871 -0.2096
  615MPD2     H 9114   4.061   1.386  16.137  1.3971  0.9619 -0.6353
  615MPD2    H1 9115   4.170   1.000  16.007 -0.2731 -2.1883  2.0008
  615MPD2    H2 9116   4.361   1.175  16.345  0.0973 -0.4819 -0.2803
  615MPD2    H3 9117   4.341   1.002  16.192  1.7688  0.9042 -0.5235
  615MPD2     N 9118   4.030   1.228  15.941 -0.1809  0.0818 -0.4183
  615MPD2    H5 9119   3.975   1.313  15.940  0.3372  0.3961 -2.1150
  615MPD2    N1 9120   4.227   1.406  16.339 -0.3973 -0.2181 -0.7258
  615MPD2    H7 9121   4.197   1.500  16.311 -0.9272 -0.4736 -1.0197
  616TMC3    C1 9122   4.318   1.534  16.520 -0.7623  0.3236  0.7104
  616TMC3    C2 9123   4.295   1.649  16.452  0.3116  0.0286 -0.7446
  616TMC3    C3 9124   4.334   1.770  16.501 -0.2484 -0.5023  0.4089
  616TMC3    C4 9125   4.358   1.544  16.652 -0.1600 -0.3873  0.9173
  616TMC3    C5 9126   4.362   1.663  16.708  0.0968  0.1343  0.1333
  616TMC3    C6 9127   4.352   1.779  16.638  0.0236 -0.4922  0.3540
  616TMC3     C 9128   4.285   1.401  16.466  0.7295  0.9924  0.7331
  616TMC3     O 9129   4.270   1.305  16.540 -0.2799  0.1096 -0.2654
  616TMC3     H 9130   4.252   1.653  16.353 -2.3866 -2.8393  0.2978
  616TMC3    H1 9131   4.385   1.455  16.708  1.9469 -0.0113  0.4944
  616TMC3    H2 9132   4.345   1.878  16.681  1.0329 -0.4502  0.4434
  616TMC3    C7 9133   4.417   1.675  16.844 -0.1397  0.2487 -0.4826
  616TMC3    C8 9134   4.398   1.861  16.415 -0.2475  0.2117 -0.0072
  616TMC3    O1 9135   4.484   1.582  16.888 -0.3200 -0.5906  0.2899
  616TMC3    O2 9136   4.385   1.853  16.292  0.3883  0.3761  0.1190
  617MPD2     C 9137   2.354   4.340  14.210  0.5646 -0.2828 -0.2888
  617MPD2    C1 9138   2.314   4.392  14.330  0.0584  0.1028 -0.2428
  617MPD2    C2 9139   2.191   4.353  14.390 -0.4913 -0.3503  0.3534
  617MPD2    C3 9140   2.107   4.266  14.320 -0.0974  0.2029 -0.4968
  617MPD2    C4 9141   2.150   4.214  14.204 -1.0781  0.5629 -0.0894
  617MPD2    C5 9142   2.272   4.246  14.152 -0.1335  0.0193  0.4747
  617MPD2     H 9143   2.160   4.390  14.487  0.8966 -0.8131  0.9709
  617MPD2    H1 9144   2.105   4.135  14.144  1.5691 -1.4501  0.5747
  617MPD2    H2 9145   2.441   4.373  14.155  0.5554 -0.5054 -0.4388
  617MPD2    H3 9146   2.298   4.198  14.058 -0.8850  1.0790 -0.2684
  617MPD2     N 9147   1.985   4.209  14.377  0.0717 -0.0543  0.6482
  617MPD2    H5 9148   1.930   4.147  14.318 -0.2664  0.5254  0.3493
  617MPD2    N1 9149   2.419   4.458  14.402 -0.4413  0.3701  1.0201
  617MPD2    H7 9150   2.505   4.479  14.352 -0.4531  0.3323  0.9841
  618TMC3    C1 9151   2.554   4.514  14.585 -0.3863 -0.1343  0.2692
  618TMC3    C2 9152   2.600   4.441  14.691  0.0303  0.1716 -0.1155
  618TMC3    C3 9153   2.737   4.442  14.700 -0.1873  0.7046  0.4301
  618TMC3    C4 9154   2.637   4.578  14.502 -0.5943 -0.6545  0.0465
  618TMC3    C5 9155   2.772   4.586  14.511 -0.0451 -0.7217 -0.3855
  618TMC3    C6 9156   2.823   4.521  14.625 -0.2460 -0.7873  0.8034
  618TMC3     C 9157   2.419   4.489  14.539 -0.6428  0.4291  0.4623
  618TMC3     O 9158   2.336   4.478  14.627  0.6117  0.1968  0.4181
  618TMC3     H 9159   2.528   4.384  14.749 -0.3200 -0.3786 -1.0889
  618TMC3    H1 9160   2.597   4.625  14.412  0.6685  0.2436 -0.0458
  618TMC3    H2 9161   2.930   4.526  14.642 -0.2621 -1.6652  1.1529
  618TMC3    C7 9162   2.841   4.580  14.389  0.1947 -0.6000  0.4039
  618TMC3    C8 9163   2.784   4.362  14.808  0.6951  0.0348 -0.2113
  618TMC3    O1 9164   2.781   4.553  14.288  0.0776  0.0743 -0.1539
  618TMC3    O2 9165   2.740   4.399  14.916 -0.4075 -0.6531  0.7260
  619MPD2     C 9166   4.311   1.327  13.685  0.0137  0.0690 -0.0856
  619MPD2    C1 9167   4.238   1.424  13.614 -0.1643 -0.8841  0.0647
  619MPD2    C2 9168   4.100   1.410  13.591  0.0904 -0.4599 -0.7836
  619MPD2    C3 9169   4.042   1.290  13.634 -0.8595 -0.2078 -0.0074
  619MPD2    C4 9170   4.118   1.203  13.708  0.6248 -0.4936 -0.5836
  619MPD2    C5 9171   4.253   1.217  13.744 -0.1718  0.6088  0.3491
  619MPD2     H 9172   4.049   1.493  13.542 -0.7812 -0.4155  0.1943
  619MPD2    H1 9173   4.075   1.115  13.754  0.3029  0.3382  0.6961
  619MPD2    H2 9174   4.416   1.341  13.708  0.3515 -2.5028 -0.0496
  619MPD2    H3 9175   4.309   1.151  13.809 -0.8798  0.3573  0.7058
  619MPD2     N 9176   3.906   1.259  13.606  0.7056  0.5359  0.9039
  619MPD2    H5 9177   3.872   1.169  13.638 -0.9840  0.2727 -1.6169
  619MPD2    N1 9178   4.283   1.543  13.569  0.6451 -0.6020  0.2171
  619MPD2    H7 9179   4.215   1.609  13.532  1.0717  0.4610  1.3097
  620TMC3    C1 9180   4.414   1.720  13.519  0.4335  0.5865  0.5666
  620TMC3    C2 9181   4.318   1.755  13.430  0.3858  0.3402 -0.0023
  620TMC3    C3 9182   4.246   1.870  13.438 -0.2407  0.9464 -0.2276
  620TMC3    C4 9183   4.453   1.815  13.614 -0.3229 -0.1976 -0.7029
  620TMC3    C5 9184   4.379   1.929  13.620 -0.1677  0.0058 -0.1429
  620TMC3    C6 9185   4.286   1.966  13.530  1.1089 -0.1362 -0.0886
  620TMC3     C 9186   4.415   1.584  13.570  0.0095  0.4308 -0.1920
  620TMC3     O 9187   4.504   1.543  13.641 -0.1112 -0.3064  0.2609
  620TMC3     H 9188   4.275   1.680  13.365 -1.0617  0.1206  1.2095
  620TMC3    H1 9189   4.521   1.806  13.699 -1.0649 -2.9242 -0.4171
  620TMC3    H2 9190   4.216   2.039  13.568  0.4816 -1.0519  0.5279
  620TMC3    C7 9191   4.318   1.964  13.752  0.0227  0.6528  0.4406
  620TMC3    C8 9192   4.103   1.833  13.450  0.3953  0.8369  0.8409
  620TMC3    O1 9193   4.286   2.078  13.768  0.1144  0.0844  0.1499
  620TMC3    O2 9194   4.087   1.722  13.493 -0.1540  0.0306  0.1282
  621MPD2     C 9195   4.520   0.519   9.888 -0.6147 -0.0916 -0.2410
  621MPD2    C1 9196   4.621   0.454   9.958 -0.0920  0.5334  0.1432
  621MPD2    C2 9197   4.709   0.532  10.032  0.0486  0.2388 -0.9103
  621MPD2    C3 9198   4.702   0.667  10.035 -0.3939 -0.0426  0.1441
  621MPD2    C4 9199   4.601   0.730   9.967  0.0534  0.0692 -0.4403
  621MPD2    C5 9200   4.507   0.651   9.899  0.4206 -0.7588 -0.5135
  621MPD2     H 9201   0.050   0.472  10.096  0.0783 -0.0705 -1.2301
  621MPD2    H1 9202   4.576   0.835   9.978 -0.4329 -0.1725  0.8029
  621MPD2    H2 9203   4.440   0.460   9.844 -1.8301  1.0619  0.4250
  621MPD2    H3 9204   4.426   0.703   9.847  0.2731 -1.8849 -1.4058
  621MPD2     N 9205   0.081   0.739  10.102  0.1620 -0.2878 -0.1593
  621MPD2    H5 9206   0.152   0.682  10.146 -2.0017 -2.3679  0.6381
  621MPD2    N1 9207   4.622   0.320   9.970  0.0488  0.5660  0.2543
  621MPD2    H7 9208   4.684   0.283  10.041  1.1520  3.7468  0.9450
  622TMC3    C1 9209   4.535   0.105   9.957  0.0197 -0.1192 -0.0959
  622TMC3    C2 9210   4.466   0.104  10.080 -0.7397 -0.1225  0.1444
  622TMC3    C3 9211   4.394   4.716  10.116  0.8508  0.3143 -0.2801
  622TMC3    C4 9212   4.523   4.722   9.871  0.3333  0.4252 -0.5750
  622TMC3    C5 9213   4.447   4.609   9.908  0.0446  0.5980 -0.9754
  622TMC3    C6 9214   4.394   4.608  10.036  0.0044 -0.1632  0.8317
  622TMC3     C 9215   4.553   0.231   9.893  0.0078 -0.3051 -0.0175
  622TMC3     O 9216   4.521   0.235   9.774  0.6739 -0.8619 -0.2732
  622TMC3     H 9217   4.469   0.191  10.145 -2.1701 -1.4521  2.0114
  622TMC3    H1 9218   4.582   0.003   9.780  0.0988 -1.8634 -0.8595
  622TMC3    H2 9219   4.343   4.516  10.065 -2.1850  0.2003 -1.8132
  622TMC3    C7 9220   4.351   4.566   9.813 -0.4141 -0.0982  0.6361
  622TMC3    C8 9221   4.284   4.713  10.218 -0.5058 -0.1875 -0.5200
  622TMC3    O1 9222   4.283   4.474   9.844 -0.0340 -0.0802 -0.0675
  622TMC3    O2 9223   4.201   4.625  10.208 -0.4360  0.6269 -0.2615
  623MPD2     C 9224   2.982   2.031  15.675  0.1403  0.2518 -0.2471
  623MPD2    C1 9225   2.909   1.965  15.774  0.8114 -0.3134  0.4604
  623MPD2    C2 9226   2.958   1.971  15.899  0.1204  0.0476  0.1012
  623MPD2    C3 9227   3.073   2.041  15.931 -0.1424  0.2438  0.2877
  623MPD2    C4 9228   3.132   2.121  15.832  0.2225 -0.7776 -0.3929
  623MPD2    C5 9229   3.082   2.123  15.703  0.1588 -0.3252 -0.1937
  623MPD2     H 9230   2.908   1.923  15.982 -1.6323 -1.5629 -1.8779
  623MPD2    H1 9231   3.212   2.190  15.855 -0.6887  0.7185 -1.7123
  623MPD2    H2 9232   2.942   2.020  15.575  0.8938 -0.2579 -0.4879
  623MPD2    H3 9233   3.130   2.192  15.634 -1.7810  1.1156 -0.0816
  623MPD2     N 9234   3.122   2.030  16.065  0.0895  0.0205  0.0302
  623MPD2    H5 9235   3.064   1.975  16.127 -1.9655  0.8951 -1.1024
  623MPD2    N1 9236   2.806   1.883  15.730  0.2863 -0.1973  0.0458
  623MPD2    H7 9237   2.781   1.900  15.634 -0.1750 -0.3967  0.1309
  624TMC3    C1 9238   3.384   2.145  16.437 -0.0700  0.2343  0.0514
  624TMC3    C2 9239   3.269   2.165  16.515 -0.8065 -1.0757  0.3885
  624TMC3    C3 9240   3.148   2.143  16.462  0.6058 -0.6304 -0.5862
  624TMC3    C4 9241   3.380   2.102  16.305  0.2088 -0.0462 -0.2245
  624TMC3    C5 9242   3.253   2.096  16.257  0.1903  0.2951 -0.9519
  624TMC3    C6 9243   3.140   2.109  16.332  0.3846  0.4130  0.4198
  624TMC3     C 9244   3.508   2.126  16.519 -0.4326  0.1210 -0.3697
  624TMC3     O 9245   3.498   2.131  16.641 -0.4004 -0.4732  0.3657
  624TMC3     H 9246   3.274   2.192  16.619  0.0168 -3.2481  0.9246
  624TMC3    H1 9247   3.463   2.085  16.238  0.9315  0.1322  0.6232
  624TMC3    H2 9248   3.042   2.111  16.286  0.3614 -1.6909  0.3622
  624TMC3    C7 9249   3.237   2.098  16.109  1.0637 -0.4853 -0.1644
  624TMC3    C8 9250   3.051   2.076  16.547 -0.4818 -0.2174  0.3283
  624TMC3    O1 9251   3.333   2.145  16.055  0.4752 -0.2713  0.9126
  624TMC3    O2 9252   3.010   1.969  16.504  0.1389 -0.3517  0.1466
  625MPD2     C 9253   3.500   2.570   0.873 -0.9826  0.3301  0.1217
  625MPD2    C1 9254   3.550   2.697   0.867  0.5723  0.3026  0.1978
  625MPD2    C2 9255   3.673   2.720   0.936 -0.1869 -0.2520 -0.3635
  625MPD2    C3 9256   3.748   2.618   0.987  0.2309 -0.3395  0.0421
  625MPD2    C4 9257   3.694   2.492   0.981 -0.1556 -0.3458 -0.6096
  625MPD2    C5 9258   3.571   2.467   0.935 -0.5529 -0.5169  0.7517
  625MPD2     H 9259   3.708   2.823   0.939 -0.7543 -0.0576 -0.4596
  625MPD2    H1 9260   3.749   2.405   1.014 -0.4689 -0.3601 -0.1308
  625MPD2    H2 9261   3.400   2.560   0.831 -1.2960 -1.0128  1.2088
  625MPD2    H3 9262   3.537   2.365   0.927 -2.5539  0.2266 -0.2558
  625MPD2     N 9263   3.877   2.644   1.034  0.2559  0.4555  0.2823
  625MPD2    H5 9264   3.903   2.741   1.044  3.4001 -0.1529 -1.9915
  625MPD2    N1 9265   3.481   2.807   0.818  0.5776 -0.3738  0.2085
  625MPD2    H7 9266   3.519   2.898   0.844  0.1609 -0.3717  0.7905
  626TMC3    C1 9267   3.333   2.940   0.688  0.2808 -0.6097 -0.3260
  626TMC3    C2 9268   3.278   2.950   0.563  0.2745 -0.0376  0.0657
  626TMC3    C3 9269   3.203   3.067   0.542 -0.4183  0.2257 -0.3262
  626TMC3    C4 9270   3.317   3.036   0.789  0.7354 -0.0659  0.8296
  626TMC3    C5 9271   3.241   3.147   0.764  0.2606  0.4114  0.2659
  626TMC3    C6 9272   3.196   3.160   0.636  0.0156  0.4046  0.0130
  626TMC3     C 9273   3.384   2.805   0.721 -0.3242  0.9705  0.2167
  626TMC3     O 9274   3.356   2.712   0.648  0.2234  0.4485 -0.0174
  626TMC3     H 9275   3.292   2.883   0.478 -0.4829 -2.2078  1.6598
  626TMC3    H1 9276   3.344   3.017   0.892  0.0586  1.5017  1.3049
  626TMC3    H2 9277   3.147   3.255   0.618 -0.7506  0.1507  0.7785
  626TMC3    C7 9278   3.164   3.209   0.869  0.1281  0.4986 -0.2513
  626TMC3    C8 9279   3.136   3.097   0.411  0.2143 -0.3217  0.7220
  626TMC3    O1 9280   3.217   3.230   0.976 -0.1780  0.2594  0.3890
  626TMC3    O2 9281   3.112   3.211   0.382 -0.9011  0.1181  0.5974
  627MPD2     C 9282   1.766   3.004  14.673  0.2221 -0.2884  0.8540
  627MPD2    C1 9283   1.804   2.947  14.799 -0.2759 -0.1658  0.0832
  627MPD2    C2 9284   1.759   2.821  14.832  0.2697  0.3851  0.5325
  627MPD2    C3 9285   1.662   2.766  14.749 -0.0681  0.2990  0.1907
  627MPD2    C4 9286   1.618   2.820  14.631  0.1338 -0.4762 -0.5411
  627MPD2    C5 9287   1.675   2.941  14.591 -0.8160 -0.2433  0.1830
  627MPD2     H 9288   1.782   2.768  14.924 -1.9572  0.0058  0.8672
  627MPD2    H1 9289   1.537   2.781  14.572 -0.3750  1.5025 -1.1565
  627MPD2    H2 9290   1.790   3.104  14.640 -0.3488 -0.5634 -0.4013
  627MPD2    H3 9291   1.641   2.990  14.500 -0.8930 -0.9531 -0.1688
  627MPD2     N 9292   1.603   2.641  14.794  0.2725 -0.6029 -0.4752
  627MPD2    H5 9293   1.668   2.591  14.853 -0.2722 -0.6795  0.0595
  627MPD2    N1 9294   1.892   3.006  14.889  0.2623 -0.0304  0.0298
  627MPD2    H7 9295   1.941   2.953  14.960  1.4336  0.5290 -0.3574
  628TMC3    C1 9296   2.054   3.174  14.940 -0.0553 -0.5053  0.2823
  628TMC3    C2 9297   2.148   3.083  14.995  0.2152 -0.1972  0.2160
  628TMC3    C3 9298   2.259   3.137  15.063  0.5043  0.5091  0.4321
  628TMC3    C4 9299   2.074   3.308  14.950 -0.0851  0.8960  0.3408
  628TMC3    C5 9300   2.185   3.360  15.014 -0.5347 -0.3377  0.1634
  628TMC3    C6 9301   2.282   3.277  15.064  0.7688  0.0712 -0.4328
  628TMC3     C 9302   1.928   3.136  14.881 -0.3569  0.1688 -0.4609
  628TMC3     O 9303   1.880   3.224  14.807 -0.5817  0.2138 -0.3349
  628TMC3     H 9304   2.124   2.978  14.985  0.1069  0.1069 -2.6508
  628TMC3    H1 9305   1.997   3.373  14.910 -1.5923 -0.3452  1.2359
  628TMC3    H2 9306   2.357   3.319  15.130 -1.5827  1.0771  1.5852
  628TMC3    C7 9307   2.201   3.499  15.049  0.2985  0.3036  0.0080
  628TMC3    C8 9308   2.365   3.044  15.102 -0.6732  0.1182  0.1930
  628TMC3    O1 9309   2.315   3.544  15.075 -0.5931 -0.5361  0.1287
  628TMC3    O2 9310   2.475   3.087  15.131 -0.3693 -0.0285  0.3301
  629MPD2     C 9311   0.074   2.182  16.346 -0.0004  0.0660 -0.3663
  629MPD2    C1 9312   0.067   2.137  16.476  0.2258  0.0609  0.1461
  629MPD2    C2 9313   4.685   2.061  16.520  0.4228 -0.0980 -0.8958
  629MPD2    C3 9314   4.587   2.015  16.438  0.0564  0.3835 -0.0590
  629MPD2    C4 9315   4.594   2.059  16.306 -0.5398 -0.4901  0.2730
  629MPD2    C5 9316   4.695   2.142  16.258 -0.2766 -0.3524 -0.6342
  629MPD2     H 9317   4.681   2.020  16.620 -0.4326 -0.0862 -0.9270
  629MPD2    H1 9318   4.514   2.030  16.240 -0.1927  0.2699 -0.4696
  629MPD2    H2 9319   0.150   2.248  16.307  1.4710  0.4272  3.1980
  629MPD2    H3 9320   4.692   2.186  16.159  2.0192  2.0398  0.3718
  629MPD2     N 9321   4.498   1.925  16.487 -0.2425 -0.2383  0.4996
  629MPD2    H5 9322   4.512   1.901  16.585 -0.3955 -3.0803 -0.1666
  629MPD2    N1 9323   0.176   2.174  16.556  0.1215  0.0747 -0.0876
  629MPD2    H7 9324   0.249   2.228  16.511 -2.3476  2.6607 -0.9511
  630TMC3    C1 9325   0.327   2.178  16.738  0.1813  0.6106  0.3046
  630TMC3    C2 9326   0.402   2.283  16.685 -0.2514  0.4028 -1.1469
  630TMC3    C3 9327   0.529   2.299  16.743 -0.0185  0.7568 -0.5184
  630TMC3    C4 9328   0.357   2.124  16.860  0.7267 -0.2688  0.3093
  630TMC3    C5 9329   0.481   2.148  16.918 -0.0490 -0.4627  0.0825
  630TMC3    C6 9330   0.568   2.233  16.859  0.2754  0.0111 -0.4004
  630TMC3     C 9331   0.196   2.134  16.686  0.1884 -1.1171  0.6346
  630TMC3     O 9332   0.119   2.077  16.763  0.0197 -0.0023  0.2957
  630TMC3     H 9333   0.356   2.355  16.619  1.5964  1.4115 -1.3338
  630TMC3    H1 9334   0.312   2.032  16.896  0.1445 -0.4246 -0.8304
  630TMC3    H2 9335   0.655   2.266  16.915 -1.3569  0.2686  1.9833
  630TMC3    C7 9336   0.527   2.044  17.016  0.2745 -0.2177 -0.1616
  630TMC3    C8 9337   0.634   2.373  16.663  0.0454 -0.3510 -0.8638
  630TMC3    O1 9338   0.440   1.967  17.064  0.2889  0.1137 -0.1667
  630TMC3    O2 9339   0.749   2.374  16.707  0.0217 -0.5952 -0.5379
  631MPD2     C 9340   3.372   1.820  15.842  0.3505  0.3779  0.1457
  631MPD2    C1 9341   3.437   1.835  15.723  0.5591  0.1025  0.4605
  631MPD2    C2 9342   3.511   1.722  15.672 -0.4336 -0.3860 -0.2560
  631MPD2    C3 9343   3.515   1.598  15.739  0.2742  0.7587  0.3748
  631MPD2    C4 9344   3.432   1.585  15.848 -0.1567  0.6895 -0.1509
  631MPD2    C5 9345   3.370   1.699  15.897  0.0286 -0.5865 -0.4543
  631MPD2     H 9346   3.573   1.740  15.584 -0.7170 -0.7256 -0.5246
  631MPD2    H1 9347   3.415   1.489  15.896  1.0301  0.1486 -0.8104
  631MPD2    H2 9348   3.311   1.900  15.882  0.9000  0.9255 -0.1223
  631MPD2    H3 9349   3.305   1.678  15.982 -0.6741 -1.2463 -1.1530
  631MPD2     N 9350   3.594   1.491  15.695  0.1182 -0.3088 -0.4176
  631MPD2    H5 9351   3.658   1.505  15.617 -1.2167  0.5279 -1.3591
  631MPD2    N1 9352   3.412   1.956  15.651 -0.0506 -0.5559 -0.8952
  631MPD2    H7 9353   3.349   2.020  15.697  1.0613 -0.2236  0.1737
  632TMC3    C1 9354   3.467   2.127  15.505 -0.1236 -0.0587 -0.5716
  632TMC3    C2 9355   3.424   2.211  15.597 -1.0098  0.3906  0.0855
  632TMC3    C3 9356   3.378   2.341  15.556  0.2513 -0.6942 -0.1302
  632TMC3    C4 9357   3.459   2.154  15.371 -0.8302 -0.5020 -0.3960
  632TMC3    C5 9358   3.411   2.274  15.333 -0.0991  0.5073  0.7776
  632TMC3    C6 9359   3.368   2.374  15.423  0.5337  0.4040  0.7709
  632TMC3     C 9360   3.475   1.988  15.535  0.4382 -0.5739  0.7967
  632TMC3     O 9361   3.533   1.916  15.453  0.0259 -0.1023  0.2576
  632TMC3     H 9362   3.440   2.192  15.703  2.4251 -0.0073 -0.5136
  632TMC3    H1 9363   3.511   2.078  15.314 -3.1271 -0.9637 -1.8800
  632TMC3    H2 9364   3.337   2.471  15.386  0.6581 -0.1079 -0.7036
  632TMC3    C7 9365   3.436   2.303  15.196 -0.0673  0.2642  0.2402
  632TMC3    C8 9366   3.332   2.429  15.667 -0.2028 -0.3930 -0.7084
  632TMC3    O1 9367   3.347   2.369  15.144  0.0043 -0.5736  0.2831
  632TMC3    O2 9368   3.313   2.379  15.778 -0.2947 -0.0071  0.3345
  633MPD2     C 9369   3.286   0.220  17.570  0.0237  0.0548  0.3531
  633MPD2    C1 9370   3.291   0.150  17.452  0.1133  0.2205  1.0073
  633MPD2    C2 9371   3.261   0.020  17.441  0.9507 -0.0404  0.0576
  633MPD2    C3 9372   3.202   4.680  17.551 -0.2926  0.1214 -0.0140
  633MPD2    C4 9373   3.204   0.020  17.672 -0.4716 -0.1725  0.2600
  633MPD2    C5 9374   3.239   0.153  17.678 -0.7549 -0.3485 -0.0948
  633MPD2     H 9375   3.266   4.696  17.344 -1.3024  2.5082 -1.3139
  633MPD2    H1 9376   3.159   4.693   0.059 -0.4283 -1.0678 -0.2600
  633MPD2    H2 9377   3.307   0.326  17.580 -0.1287  0.2902 -1.8847
  633MPD2    H3 9378   3.228   0.205   0.075  1.8685  1.6465 -0.8906
  633MPD2     N 9379   3.157   4.542  17.543  0.7837  0.7596 -0.0093
  633MPD2    H5 9380   3.170   4.494  17.454  1.8188  1.2535 -0.1285
  633MPD2    N1 9381   3.338   0.203  17.335 -0.5066  0.0622 -0.3825
  633MPD2    H7 9382   3.338   0.135  17.260 -0.4468 -0.3169 -0.0363
  634TMC3    C1 9383   3.432   0.346  17.169 -0.0735  0.5363 -0.0984
  634TMC3    C2 9384   3.475   0.237  17.094  0.2059  0.5041  0.0205
  634TMC3    C3 9385   3.502   0.261  16.963 -0.0138  0.1557 -0.7013
  634TMC3    C4 9386   3.420   0.472  17.113 -0.0598  0.2873  0.1526
  634TMC3    C5 9387   3.445   0.487  16.979 -0.7404 -0.5995 -0.3882
  634TMC3    C6 9388   3.492   0.384  16.899  0.4277  0.1572 -0.2911
  634TMC3     C 9389   3.385   0.331  17.308  0.1696 -0.0097 -0.4759
  634TMC3     O 9390   3.372   0.437  17.373  0.2831 -0.0258  0.1464
  634TMC3     H 9391   3.494   0.140  17.138 -2.1729  1.2870  2.7826
  634TMC3    H1 9392   3.369   0.547  17.172 -0.9585 -0.1094 -0.1323
  634TMC3    H2 9393   3.508   0.393  16.792  0.3785  2.5184 -0.0921
  634TMC3    C7 9394   3.392   0.601  16.912 -0.3349  0.0069  0.6345
  634TMC3    C8 9395   3.561   0.149  16.885 -0.2550 -0.1252 -0.7177
  634TMC3    O1 9396   3.427   0.629  16.798  0.0318 -0.5297  0.0546
  634TMC3    O2 9397   3.578   0.043  16.946  0.3966  0.0277 -0.1507
  635TMC3    C1 9398   3.367   1.400  17.672  0.9153  0.6771 -0.1391
  635TMC3    C2 9399   3.398   1.349  17.546 -0.7681  0.1836 -0.2942
  635TMC3    C3 9400   3.439   1.220  17.549  0.3181 -0.6768 -0.3959
  635TMC3    C4 9401   3.351   1.331   0.084 -0.3505 -0.1223  0.1981
  635TMC3    C5 9402   3.385   1.202   0.078  0.0909 -0.1300 -0.2346
  635TMC3    C6 9403   3.434   1.147  17.661  0.4684  0.3725  0.0419
  635TMC3     C 9404   3.375   1.544  17.687 -0.4836 -0.9808 -0.0302
  635TMC3     O 9405   3.372   1.589   0.103 -0.3458  0.7295  0.0429
  635TMC3     H 9406   3.405   1.406  17.453 -1.6053  0.9887  0.1341
  635TMC3    H1 9407   3.308   1.373   0.174 -0.6065  0.8455 -0.3653
  635TMC3    H2 9408   3.470   1.045  17.668 -0.3739  0.0715 -0.0011
  635TMC3    C7 9409   3.345   1.118   0.189  0.2419 -0.3290  0.1538
  635TMC3    C8 9410   3.549   1.192  17.464  0.0072  0.0655  0.3055
  635TMC3    O1 9411   3.338   1.169   0.298  0.5253  0.7359  0.2590
  635TMC3    O2 9412   3.574   1.272  17.378 -0.4586 -0.0898 -0.5811
  636MPD2     C 9413   4.548   4.604  15.419 -0.3261  0.2615 -0.4208
  636MPD2    C1 9414   4.547   4.709  15.507 -0.3139 -0.0863 -0.1911
  636MPD2    C2 9415   4.593   4.690  15.636  0.1276 -0.0139  0.2774
  636MPD2    C3 9416   4.645   4.567  15.673 -0.4448 -0.7028  0.1828
  636MPD2    C4 9417   4.637   4.462  15.584 -0.6869 -0.0602 -0.6322
  636MPD2    C5 9418   4.600   4.487  15.455  0.7183  0.5227  0.0895
  636MPD2     H 9419   4.584   0.047  15.707 -1.6580  0.6251 -0.6722
  636MPD2    H1 9420   4.651   4.356  15.603  0.5742  0.7429  2.7679
  636MPD2    H2 9421   4.517   4.612  15.315  0.4684  1.4102 -0.5815
  636MPD2    H3 9422   4.620   4.418  15.375  0.0262 -2.0666  2.1322
  636MPD2     N 9423   4.691   4.552  15.803  0.6176  0.2614  0.2339
  636MPD2    H5 9424   4.706   4.640  15.852  0.5726  0.8205 -0.7622
  636MPD2    N1 9425   4.484   0.106  15.472  0.4038 -0.0512  0.1073
  636MPD2    H7 9426   4.484   0.183  15.539 -0.4817 -0.3328  0.4318
  637TMC3    C1 9427   0.064   4.445  15.999 -0.0329 -0.6563 -0.0756
  637TMC3    C2 9428   0.044   4.559  16.077 -0.0179  0.3449 -0.5564
  637TMC3    C3 9429   0.101   4.547  16.206  0.5363 -0.0766  1.4796
  637TMC3    C4 9430   0.167   4.350  16.027 -0.3181 -0.0157  0.1571
  637TMC3    C5 9431   0.226   4.353  16.150 -0.2258  0.7304  0.2506
  637TMC3    C6 9432   0.185   4.445  16.248 -0.0466 -0.4019 -0.1977
  637TMC3     C 9433   0.017   4.432  15.861  0.0747  0.4093  0.8500
  637TMC3     O 9434   0.034   4.322  15.804  0.7469  0.3092 -1.0970
  637TMC3     H 9435   4.692   4.636  16.069 -0.1394  0.2618 -0.1891
  637TMC3    H1 9436   0.189   4.264  15.965 -1.3504  0.0784 -0.3375
  637TMC3    H2 9437   0.254   4.469  16.328 -2.0797 -0.1138  1.4587
  637TMC3    C7 9438   0.339   4.260  16.178 -0.3538 -0.1176  0.8421
  637TMC3    C8 9439   0.114   4.676  16.265  0.4470  0.0668 -0.7577
  637TMC3    O1 9440   0.328   4.196  16.285  0.1361  0.0835 -0.2252
  637TMC3    O2 9441   0.101   0.051  16.191 -0.7851  0.2508 -0.0848
  638MPD2     C 9442   4.120   4.048  15.095 -0.4129  1.0550 -0.0173
  638MPD2    C1 9443   4.180   3.923  15.091  0.5952  0.0219  0.0745
  638MPD2    C2 9444   4.144   3.825  15.181  0.0080  0.3235  0.6484
  638MPD2    C3 9445   4.060   3.854  15.288 -0.0898  0.3029  0.4463
  638MPD2    C4 9446   3.996   3.976  15.278  1.1307 -0.1989 -0.5976
  638MPD2    C5 9447   4.020   4.074  15.191  0.3388 -0.8982  0.6394
  638MPD2     H 9448   4.192   3.727  15.186 -0.0205  0.1870 -1.8387
  638MPD2    H1 9449   3.921   4.012  15.347  2.5955 -2.5785  2.2275
  638MPD2    H2 9450   4.130   4.118  15.013  0.9512  2.1525  1.0854
  638MPD2    H3 9451   3.970   4.171  15.187 -1.8364 -2.1244 -2.1337
  638MPD2     N 9452   4.034   3.750  15.378  0.4123  0.3164 -0.1692
  638MPD2    H5 9453   4.095   3.669  15.366 -0.7844 -0.5629 -0.3479
  638MPD2    N1 9454   4.265   3.895  14.973  0.3249 -0.3092  0.4530
  638MPD2    H7 9455   4.291   3.978  14.921  0.5057 -1.2826 -0.9998
  639TMC3    C1 9456   3.925   3.626  15.537 -1.1060  0.6599 -0.4412
  639TMC3    C2 9457   3.801   3.566  15.518 -0.2056  0.9023  0.3141
  639TMC3    C3 9458   3.793   3.429  15.513 -0.2090 -0.2353 -0.4093
  639TMC3    C4 9459   4.036   3.546  15.556 -0.5024  0.3722  0.2875
  639TMC3    C5 9460   4.020   3.409  15.550 -0.4447  1.1175 -0.6914
  639TMC3    C6 9461   3.903   3.353  15.531 -0.4987 -0.5054  0.2087
  639TMC3     C 9462   3.933   3.751  15.470  0.2395 -0.4771  0.3099
  639TMC3     O 9463   3.845   3.835  15.484  0.8385 -0.0768 -0.6241
  639TMC3     H 9464   3.716   3.626  15.487  0.0069  1.6157  1.1088
  639TMC3    H1 9465   4.134   3.580  15.587 -0.4739 -1.4023  2.1838
  639TMC3    H2 9466   3.901   3.245  15.521  0.1770 -0.4409 -0.6092
  639TMC3    C7 9467   4.127   3.319  15.579  0.2094  0.0156  0.0125
  639TMC3    C8 9468   3.677   3.372  15.458 -0.5748  0.1323 -0.1313
  639TMC3    O1 9469   4.094   3.224  15.645 -0.4832 -0.3102  0.5872
  639TMC3    O2 9470   3.578   3.423  15.504 -0.0332 -0.3947 -1.0048
  640MPD2     C 9471   0.305   2.476   9.873  0.9999 -0.1761 -0.9696
  640MPD2    C1 9472   0.267   2.428   9.751  0.5175  0.1604 -0.1058
  640MPD2    C2 9473   0.178   2.503   9.682 -0.4299 -0.7016  0.5267
  640MPD2    C3 9474   0.125   2.617   9.741  0.0195 -0.4584 -0.1021
  640MPD2    C4 9475   0.159   2.657   9.867  0.5991 -0.0044  0.1032
  640MPD2    C5 9476   0.247   2.580   9.940 -0.3144 -0.5018  1.2092
  640MPD2     H 9477   0.156   2.480   9.579  0.0767  0.4013  0.1675
  640MPD2    H1 9478   0.112   2.742   9.915 -0.1907 -0.6909  0.5480
  640MPD2    H2 9479   0.380   2.429   9.936 -0.2084  1.2725  1.5751
  640MPD2    H3 9480   0.268   2.602  10.044  2.0154 -0.4830  0.7300
  640MPD2     N 9481   0.039   2.720   9.683 -0.5840 -0.0925 -0.5550
  640MPD2    H5 9482   0.045   2.812   9.725  1.1128 -1.2625  1.7692
  640MPD2    N1 9483   0.340   2.316   9.704  0.1621  0.4794 -0.0063
  640MPD2    H7 9484   0.402   2.267   9.768  0.6848  1.1004 -0.0413
  641TMC3    C1 9485   0.424   2.149   9.550  0.1334 -0.4193 -0.3765
  641TMC3    C2 9486   0.488   2.083   9.654  0.7404  1.3310 -0.4875
  641TMC3    C3 9487   0.518   1.948   9.637  0.1258 -0.0113 -0.1348
  641TMC3    C4 9488   0.382   2.074   9.443  0.2463  0.3137 -0.2956
  641TMC3    C5 9489   0.412   1.944   9.424 -0.0691 -0.2194 -0.2549
  641TMC3    C6 9490   0.488   1.879   9.521 -0.0486  0.0378  0.7404
  641TMC3     C 9491   0.337   2.267   9.575 -0.2172  0.3150 -0.6530
  641TMC3     O 9492   0.270   2.300   9.479  0.1066 -0.2054  0.2935
  641TMC3     H 9493   0.533   2.140   9.734 -0.9555  1.9357  0.0401
  641TMC3    H1 9494   0.335   2.120   9.357 -3.0474 -1.5039  0.5185
  641TMC3    H2 9495   0.499   1.771   9.515 -0.4306 -0.0850  2.0985
  641TMC3    C7 9496   0.347   1.870   9.316  0.1665  0.5938 -0.5738
  641TMC3    C8 9497   0.607   1.886   9.732 -0.6909  0.2603  0.1097
  641TMC3    O1 9498   0.262   1.933   9.254  0.4586 -0.8312 -0.6940
  641TMC3    O2 9499   0.683   1.802   9.694 -0.0916 -0.6422  0.4494
  642TMC3    C1 9500   1.498   3.758  12.156  0.5230 -0.3638  0.8694
  642TMC3    C2 9501   1.563   3.773  12.282  0.7976  0.2992  0.0972
  642TMC3    C3 9502   1.599   3.654  12.335 -0.0595  1.2593  0.6350
  642TMC3    C4 9503   1.487   3.646  12.082 -0.5263 -0.3975  0.2724
  642TMC3    C5 9504   1.518   3.530  12.150 -0.0883  0.0364  0.2097
  642TMC3    C6 9505   1.560   3.532  12.276 -0.3514 -0.3061 -0.1780
  642TMC3     C 9506   1.424   3.875  12.112  0.3535 -0.6986 -0.3547
  642TMC3     O 9507   1.439   3.901  11.992 -0.0657  0.6339  0.4147
  642TMC3     H 9508   1.591   3.874  12.310 -0.8432  0.9161 -0.4649
  642TMC3    H1 9509   1.439   3.645  11.985  1.6347  1.5380 -0.8180
  642TMC3    H2 9510   1.588   3.440  12.326 -0.6104  0.3146  1.1129
  642TMC3    C7 9511   1.423   3.421  12.115 -0.1136 -0.0100  0.6267
  642TMC3    C8 9512   1.683   3.649  12.445 -0.0086  0.2362  0.2677
  642TMC3    O1 9513   1.363   3.434  12.007  1.1223 -0.6499 -0.4507
  642TMC3    O2 9514   1.721   3.536  12.479  0.3436  0.2761  0.1456
  643TMC3    C1 9515   0.344   2.925   0.967 -0.8608  0.1443  0.3943
  643TMC3    C2 9516   0.212   2.947   0.995 -0.2495  0.7247 -0.7951
  643TMC3    C3 9517   0.121   2.943   0.884 -0.3831 -0.7669  0.0723
  643TMC3    C4 9518   0.398   2.903   0.845 -0.4383  0.2848 -0.4306
  643TMC3    C5 9519   0.306   2.898   0.744 -0.4145  0.1133  1.8329
  643TMC3    C6 9520   0.175   2.930   0.756 -0.5714  0.0082 -0.4643
  643TMC3     C 9521   0.426   3.009   1.049 -0.3662 -0.2796  0.2441
  643TMC3     O 9522   0.367   3.094   1.110  0.2786  0.1209  0.2707
  643TMC3     H 9523   0.176   2.952   1.098 -0.7396  0.5524 -0.9561
  643TMC3    H1 9524   0.504   2.898   0.826 -0.5099 -0.6683 -0.5476
  643TMC3    H2 9525   0.114   2.928   0.667  2.3176 -2.4892 -2.3636
  643TMC3    C7 9526   0.367   2.861   0.616  0.0655  0.0042 -0.6370
  643TMC3    C8 9527   0.029   3.055   0.894 -0.1822 -0.8256 -0.0974
  643TMC3    O1 9528   0.479   2.908   0.600 -0.7779  0.2876 -0.0407
  643TMC3    O2 9529   4.683   3.063   0.990  0.3349 -0.0006  0.3599
  644MPD2     C 9530   0.164   3.194   9.549 -0.0134 -0.2634  0.0697
  644MPD2    C1 9531   0.139   3.114   9.437  0.0642  0.2959  0.1133
  644MPD2    C2 9532   0.060   3.173   9.340  0.0553 -0.0078  0.1615
  644MPD2    C3 9533   4.716   3.294   9.354 -0.2720 -0.0163 -0.8850
  644MPD2    C4 9534   0.024   3.371   9.465 -0.0763  0.6504 -0.5161
  644MPD2    C5 9535   0.109   3.318   9.561  0.0976  0.2549 -0.7417
  644MPD2     H 9536   0.030   3.110   9.257 -1.2827 -0.1370  0.7397
  644MPD2    H1 9537   4.691   3.462   9.480 -2.8910 -1.3767  1.2577
  644MPD2    H2 9538   0.222   3.159   9.634  0.5536  2.0395  0.6215
  644MPD2    H3 9539   0.122   3.379   9.650  0.5040 -2.1174  0.8201
  644MPD2     N 9540   4.616   3.320   9.263 -0.1286 -0.3623 -0.1068
  644MPD2    H5 9541   4.580   3.247   9.202  0.4337 -1.1765  0.5431
  644MPD2    N1 9542   0.213   2.990   9.417  0.1049  0.3506 -0.4579
  644MPD2    H7 9543   0.255   2.955   9.503  1.1512 -2.5410 -2.1398
  645TMC3    C1 9544   4.470   3.462   9.133  0.3191 -0.0431  0.1394
  645TMC3    C2 9545   4.374   3.362   9.128 -0.2212  0.3942  0.0249
  645TMC3    C3 9546   4.293   3.372   9.019  0.2622 -0.3452 -0.1214
  645TMC3    C4 9547   4.473   3.566   9.046 -0.3653  0.1462 -0.0634
  645TMC3    C5 9548   4.386   3.571   8.944 -0.3785  0.7001  0.4470
  645TMC3    C6 9549   4.289   3.477   8.929 -0.5389  0.1085  0.0268
  645TMC3     C 9550   4.555   3.450   9.251 -0.0530 -0.0804 -0.5233
  645TMC3     O 9551   4.590   3.554   9.300  0.0066 -0.1257 -0.7255
  645TMC3     H 9552   4.391   3.277   9.192  0.2966  1.0059  0.6953
  645TMC3    H1 9553   4.557   3.635   9.048 -0.5307  0.3480 -0.1113
  645TMC3    H2 9554   4.216   3.490   8.850 -0.1958 -0.8154 -0.4551
  645TMC3    C7 9555   4.414   3.676   8.847  0.2961 -0.0478  0.3776
  645TMC3    C8 9556   4.189   3.269   8.985 -0.3957  0.7548  0.4956
  645TMC3    O1 9557   4.458   3.775   8.904  0.2427  0.1755  0.1503
  645TMC3    O2 9558   4.106   3.297   8.897  0.4832  0.2548 -0.2542
  646MPD2     C 9559   4.245   2.457  14.951 -0.5955 -0.7554 -0.0960
  646MPD2    C1 9560   4.134   2.470  15.029  0.4928  0.0485  0.1783
  646MPD2    C2 9561   4.030   2.553  14.992 -0.0878  0.3995 -0.2817
  646MPD2    C3 9562   4.036   2.615  14.867 -0.1885 -0.0931 -0.0704
  646MPD2    C4 9563   4.144   2.597  14.783  0.0478 -0.1985  0.0062
  646MPD2    C5 9564   4.249   2.523  14.830 -0.5566  0.7528  0.1440
  646MPD2     H 9565   3.946   2.562  15.059 -0.1635 -2.4559 -0.0254
  646MPD2    H1 9566   4.154   2.642  14.684  0.5122  1.5726  0.8609
  646MPD2    H2 9567   4.331   2.396  14.978  0.3206 -0.2222 -1.7765
  646MPD2    H3 9568   4.329   2.519  14.757 -0.5735  0.8021  0.1227
  646MPD2     N 9569   3.928   2.703  14.826 -0.6514 -0.1725  0.0313
  646MPD2    H5 9570   3.861   2.721  14.899 -0.4002  2.0212 -0.2737
  646MPD2    N1 9571   4.141   2.399  15.151  0.3530 -0.0055 -0.3657
  646MPD2    H7 9572   4.220   2.337  15.164 -0.2272 -0.8769 -0.9219
  647TMC3    C1 9573   4.122   2.392  15.383  0.3828 -0.0811 -0.6585
  647TMC3    C2 9574   4.086   2.293  15.465 -1.2842  0.3714  0.0946
  647TMC3    C3 9575   4.163   2.262  15.571 -0.4766 -0.4679  0.1720
  647TMC3    C4 9576   4.257   2.432  15.387  0.0475 -0.3373 -0.1011
  647TMC3    C5 9577   4.337   2.396  15.498 -0.1174  0.8747  0.1756
  647TMC3    C6 9578   4.288   2.316  15.593 -0.4033  0.2648 -0.4653
  647TMC3     C 9579   4.051   2.407  15.255 -0.8655  0.6732 -0.0146
  647TMC3     O 9580   3.933   2.443  15.259 -0.3721 -0.2251 -0.4282
  647TMC3     H 9581   3.991   2.241  15.454  0.5529 -2.6392 -1.4858
  647TMC3    H1 9582   4.288   2.510  15.319  1.1192 -1.3164 -0.7269
  647TMC3    H2 9583   4.341   2.289  15.684 -0.4204  0.6976 -0.3276
  647TMC3    C7 9584   4.475   2.423  15.496  0.2110 -0.2779 -0.1222
  647TMC3    C8 9585   4.132   2.137  15.633  0.3029  1.1364  0.5307
  647TMC3    O1 9586   4.533   2.366  15.588 -0.0121 -0.7552  0.3654
  647TMC3    O2 9587   4.083   2.048  15.567  0.2579  0.7996  0.1474
  648TMC3    C1 9588   3.799   0.257  16.347  0.1450 -0.7113 -0.5320
  648TMC3    C2 9589   3.899   0.177  16.303 -0.0757 -0.0127 -0.5072
  648TMC3    C3 9590   3.892   0.137  16.173  0.0138  0.8680  0.3982
  648TMC3    C4 9591   3.693   0.295  16.266  0.5317 -0.2081 -0.0649
  648TMC3    C5 9592   3.700   0.263  16.132 -0.6712 -0.6300 -0.0349
  648TMC3    C6 9593   3.798   0.183  16.084  0.3451  0.6194  0.7299
  648TMC3     C 9594   3.801   0.312  16.486 -0.6006  0.2598  0.4198
  648TMC3     O 9595   3.733   0.407  16.516 -0.0202 -0.3204  0.1975
  648TMC3     H 9596   3.967   0.140  16.380 -1.2344 -1.6538 -0.2793
  648TMC3    H1 9597   3.623   0.365  16.308  0.4964 -1.3810  1.8033
  648TMC3    H2 9598   3.797   0.160  15.978  0.2155  0.1861  0.8282
  648TMC3    C7 9599   3.625   0.327  16.020 -0.3503 -0.2465 -0.0322
  648TMC3    C8 9600   3.975   0.032  16.117  0.5131 -0.6665  0.4780
  648TMC3    O1 9601   3.656   0.296  15.907  0.3351  0.0536 -0.1353
  648TMC3    O2 9602   3.932   4.702  16.017 -0.0570  0.4769  0.4697
  649TMC3    C1 9603   3.149   1.089  12.568  0.1691  0.3845 -0.1144
  649TMC3    C2 9604   3.284   1.089  12.547  0.0985  0.6045 -0.5978
  649TMC3    C3 9605   3.358   1.029  12.642 -0.2083 -0.2843  0.5006
  649TMC3    C4 9606   3.089   1.041  12.679  0.1992  0.4129 -0.1406
  649TMC3    C5 9607   3.174   0.982  12.771  0.4908 -0.0252  0.9601
  649TMC3    C6 9608   3.307   0.966  12.750 -0.3486 -0.4601  0.0321
  649TMC3     C 9609   3.058   1.112  12.452  1.2515 -0.7333 -0.2681
  649TMC3     O 9610   2.948   1.162  12.478  0.1115 -0.6556 -0.0579
  649TMC3     H 9611   3.332   1.136  12.462  3.0646 -0.9008  0.2345
  649TMC3    H1 9612   2.982   1.027  12.674  0.7814 -4.8893  2.0986
  649TMC3    H2 9613   3.370   0.929  12.830 -0.0861 -0.5921 -0.2357
  649TMC3    C7 9614   3.112   0.881  12.850 -0.0674  0.2231  0.6335
  649TMC3    C8 9615   3.506   1.044  12.645  0.5165  0.1130  0.1193
  649TMC3    O1 9616   3.003   0.903  12.901  0.8572 -0.6569 -0.3789
  649TMC3    O2 9617   3.571   0.974  12.722  0.8912  0.3032 -0.1980
  650TMC3    C1 9618   0.652   2.946  12.794 -0.8289 -0.4969  0.1624
  650TMC3    C2 9619   0.692   3.073  12.825  0.1523  0.8565  0.5051
  650TMC3    C3 9620   0.685   3.165  12.722  0.0645  0.1339  0.4474
  650TMC3    C4 9621   0.613   2.905  12.667 -0.0585  0.1101  0.2216
  650TMC3    C5 9622   0.598   3.009  12.574  0.0048  0.2742  0.2365
  650TMC3    C6 9623   0.633   3.137  12.600 -0.8369  0.8581  0.2000
  650TMC3     C 9624   0.668   2.854  12.905  0.7022 -0.4827 -0.3404
  650TMC3     O 9625   0.611   2.890  13.004  0.4723 -0.2835 -0.2401
  650TMC3     H 9626   0.731   3.094  12.924  0.0645  0.2771  0.6616
  650TMC3    H1 9627   0.584   2.802  12.649  0.4314 -0.1089  0.6846
  650TMC3    H2 9628   0.650   3.197  12.512 -0.6271  1.6574  0.7887
  650TMC3    C7 9629   0.537   2.987  12.447 -0.2833 -0.2682 -0.3967
  650TMC3    C8 9630   0.691   3.303  12.750 -0.4949  0.3919 -0.6024
  650TMC3    O1 9631   0.537   2.873  12.408  0.3461 -0.1851  0.2155
  650TMC3    O2 9632   0.731   3.380  12.662 -0.2221  0.2572 -0.2218
  651MPD2     C 9633   4.353   4.552  10.549  0.8445  0.7051  0.0644
  651MPD2    C1 9634   4.361   4.672  10.619  0.0664  0.6223 -0.3297
  651MPD2    C2 9635   4.484   0.000  10.623 -0.2059  0.1364 -0.4027
  651MPD2    C3 9636   4.593   4.670  10.564  0.2613  0.7677 -0.0275
  651MPD2    C4 9637   4.577   4.560  10.488 -0.5108  1.3739  0.3635
  651MPD2    C5 9638   4.457   4.491  10.487  0.7521  0.1488  0.1796
  651MPD2     H 9639   4.488   0.080  10.696  1.0453 -1.3944  1.2011
  651MPD2    H1 9640   4.663   4.518  10.438 -1.3446  0.5054 -0.3572
  651MPD2    H2 9641   4.258   4.503  10.531  0.2889  1.6180  0.5019
  651MPD2    H3 9642   4.446   4.394  10.439  0.1195 -0.3721  1.3680
  651MPD2     N 9643   4.717   0.012  10.585 -0.6916  0.4671  0.2813
  651MPD2    H5 9644   0.015   0.069  10.665  0.4272  0.8420 -0.2901
  651MPD2    N1 9645   4.256   0.009  10.691 -0.0156  0.2313  0.5534
  651MPD2    H7 9646   4.277   0.092  10.746 -1.4371  0.5277  0.6532
  652TMC3    C1 9647   0.437   0.058  10.561  0.0856  0.2914 -0.0597
  652TMC3    C2 9648   0.311   0.055  10.496  0.1539 -0.0638 -0.2955
  652TMC3    C3 9649   0.209   4.714  10.559  0.2921  0.3812 -0.4898
  652TMC3    C4 9650   0.443   4.715  10.687  0.1456  0.0447 -0.3621
  652TMC3    C5 9651   0.340   4.651  10.746  0.0460 -0.3125  0.2120
  652TMC3    C6 9652   0.222   4.657  10.685 -0.0831  0.2253  0.2759
  652TMC3     C 9653   0.557   0.098  10.501 -0.3598  0.2219  1.2570
  652TMC3     O 9654   0.656   0.044  10.547  0.3287  0.1379  0.1640
  652TMC3     H 9655   0.301   0.093  10.395  2.1742  0.8122 -0.1698
  652TMC3    H1 9656   0.535   4.709  10.745 -0.5175 -0.1906  0.6583
  652TMC3    H2 9657   0.136   4.607  10.729 -0.4568 -0.1820 -0.9040
  652TMC3    C7 9658   0.328   4.661  10.886  0.2279 -0.5664 -0.3093
  652TMC3    C8 9659   0.090   4.714  10.487  0.5395  0.0993  0.2166
  652TMC3    O1 9660   0.300   4.557  10.952  0.5840  0.0608  0.0951
  652TMC3    O2 9661   0.086   4.707  10.367  0.3452  0.2334  0.0372
  653MPD2     C 9662   2.938   0.192   0.138  0.6712 -0.1417  0.2700
  653MPD2    C1 9663   2.886   0.273   0.039 -0.0824 -0.1489  0.2214
  653MPD2    C2 9664   2.812   0.211  17.635 -0.3123  0.4783  0.2237
  653MPD2    C3 9665   2.793   0.077  17.634 -0.1915  0.4302  0.0345
  653MPD2    C4 9666   2.836   0.003   0.043  0.3126 -0.4131  0.3036
  653MPD2    C5 9667   2.906   0.063   0.144 -0.3907 -0.5890  0.3089
  653MPD2     H 9668   2.770   0.265  17.551 -1.1532 -0.7706 -0.1571
  653MPD2    H1 9669   2.839   4.618   0.043 -1.1426 -0.4544  2.2569
  653MPD2    H2 9670   3.000   0.231   0.218 -0.4235  0.7419  0.7039
  653MPD2    H3 9671   2.930   0.014   0.238  0.3227  2.2192  1.5683
  653MPD2     N 9672   2.740   0.022  17.512  0.6534 -0.0116  0.2265
  653MPD2    H5 9673   2.725   0.081  17.431 -1.2271  0.8074  1.1798
  653MPD2    N1 9674   2.907   0.414   0.034  0.0763  0.1229 -0.3993
  653MPD2    H7 9675   2.845   0.461  17.667  1.2222  2.1034 -0.0597
  654TMC3    C1 9676   2.645   4.591  17.363  0.4394  0.2230  0.6777
  654TMC3    C2 9677   2.580   4.690  17.297  0.2287 -0.0327 -0.2360
  654TMC3    C3 9678   2.511   4.660  17.181  0.0796  0.1259 -0.2945
  654TMC3    C4 9679   2.628   4.456  17.325  0.6024  0.2027  0.2871
  654TMC3    C5 9680   2.560   4.431  17.211  0.6285  0.4677 -0.0041
  654TMC3    C6 9681   2.505   4.532  17.136  0.2515 -0.2988 -0.4216
  654TMC3     C 9682   2.717   4.611  17.489  0.2829 -0.0231  0.2466
  654TMC3     O 9683   2.723   4.518  17.565  0.2838 -0.2321 -0.1658
  654TMC3     H 9684   2.579   0.073  17.316 -1.7255 -0.2692  1.1181
  654TMC3    H1 9685   2.686   4.381  17.377 -0.6941 -0.0754  1.3297
  654TMC3    H2 9686   2.453   4.512  17.043  1.3323  1.4710 -1.4033
  654TMC3    C7 9687   2.536   4.294  17.161 -0.0306 -0.0189 -0.3843
  654TMC3    C8 9688   2.421   0.035  17.138 -0.1434 -0.1089  0.5261
  654TMC3    O1 9689   2.459   4.285  17.069  0.6065 -0.0079  0.4616
  654TMC3    O2 9690   2.381   0.126  17.212 -0.1479 -0.3122 -0.5090
  655MPD2     C 9691   4.187   0.154  15.832  0.6910  0.4686 -0.7823
  655MPD2    C1 9692   4.092   0.226  15.754  0.7065 -0.8341 -0.2370
  655MPD2    C2 9693   4.061   0.172  15.632 -0.4262 -0.8176  0.5630
  655MPD2    C3 9694   4.119   0.053  15.595  1.1839  0.3436 -0.1264
  655MPD2    C4 9695   4.212   4.714  15.671 -0.0078  0.3914 -0.0952
  655MPD2    C5 9696   4.254   0.045  15.788 -0.7300  0.7609  0.6015
  655MPD2     H 9697   3.990   0.230  15.573  0.8794  0.5890  0.3792
  655MPD2    H1 9698   4.253   4.621  15.635  1.8408  0.6774  1.3067
  655MPD2    H2 9699   4.214   0.187  15.932 -1.6320  0.5682 -0.1674
  655MPD2    H3 9700   4.329   0.002  15.853  0.8731  0.0871 -1.7080
  655MPD2     N 9701   4.081   4.713  15.476  0.4214  0.1920 -0.0709
  655MPD2    H5 9702   4.135   4.634  15.443 -0.6869 -1.9683  3.3214
  655MPD2    N1 9703   4.034   0.343  15.800 -0.0723  0.3820  0.4442
  655MPD2    H7 9704   3.957   0.383  15.747  1.1427 -0.2071 -1.7503
  656TMC3    C1 9705   3.974   0.523  15.926 -0.2706  0.4831 -0.0601
  656TMC3    C2 9706   3.939   0.549  16.055 -0.2132  0.7186  0.2829
  656TMC3    C3 9707   3.891   0.676  16.077  0.0518 -0.1247 -0.1814
  656TMC3    C4 9708   3.968   0.612  15.824 -0.3610 -0.1764 -0.7317
  656TMC3    C5 9709   3.903   0.733  15.853  0.4344  0.5085 -0.5823
  656TMC3    C6 9710   3.871   0.771  15.983 -0.1626 -0.5249  0.0759
  656TMC3     C 9711   4.065   0.407  15.915  0.3334  0.6136 -1.0696
  656TMC3     O 9712   4.134   0.373  16.013  0.2811  0.0954  0.2581
  656TMC3     H 9713   3.965   0.481  16.135  1.6350  1.4439  0.2964
  656TMC3    H1 9714   4.004   0.584  15.726 -0.5709  1.1091 -1.1739
  656TMC3    H2 9715   3.833   0.870  16.006  2.8787  0.4213  0.9887
  656TMC3    C7 9716   3.847   0.802  15.732 -1.0126  0.1829  0.9855
  656TMC3    C8 9717   3.812   0.683  16.201 -0.0266 -0.0942  0.2461
  656TMC3    O1 9718   3.897   0.766  15.629  0.2856 -0.5164  0.2966
  656TMC3    O2 9719   3.808   0.582  16.274 -0.2494 -0.4019 -0.1289
  657TMC3    C1 9720   2.720   4.247  15.288  0.0573  0.4485 -0.5714
  657TMC3    C2 9721   2.722   4.248  15.425 -0.2602 -0.4093 -0.5597
  657TMC3    C3 9722   2.663   4.353  15.490  0.6217 -0.1504  0.3671
  657TMC3    C4 9723   2.646   4.334  15.216  0.8405 -0.2324  0.2936
  657TMC3    C5 9724   2.588   4.439  15.282  0.5034  0.1320  0.1601
  657TMC3    C6 9725   2.599   4.449  15.422  0.3212  0.0187 -0.7184
  657TMC3     C 9726   2.766   4.131  15.222 -0.2890 -0.1423  0.5923
  657TMC3     O 9727   2.696   4.081  15.133  0.0501  0.5164  0.2821
  657TMC3     H 9728   2.771   4.168  15.478  0.1340  1.4674  1.9023
  657TMC3    H1 9729   2.629   4.312  15.111 -1.2042  0.1301  0.5385
  657TMC3    H2 9730   2.564   4.536  15.477 -0.4190  0.1356 -1.3878
  657TMC3    C7 9731   2.540   4.559  15.214 -0.0599 -0.9551 -0.0347
  657TMC3    C8 9732   2.707   4.388  15.626 -0.2169  1.1153  0.2798
  657TMC3    O1 9733   2.477   4.642  15.275 -0.3487 -0.1594 -0.5081
  657TMC3    O2 9734   2.812   4.344  15.664  0.2852  0.3120 -0.1397
  658MPD2     C 9735   4.149   4.349  14.693  0.2449  0.7308 -0.0295
  658MPD2    C1 9736   4.175   4.462  14.773  0.0518  0.4023  0.6029
  658MPD2    C2 9737   4.248   4.568  14.729  0.3430  0.0261  0.1379
  658MPD2    C3 9738   4.303   4.575  14.602  0.1121 -0.4539 -0.2302
  658MPD2    C4 9739   4.280   4.463  14.521  0.2791  0.6557  0.3104
  658MPD2    C5 9740   4.204   4.354  14.566  0.2982  0.5575 -0.4381
  658MPD2     H 9741   4.251   4.657  14.791 -1.0232 -0.6919  1.2496
  658MPD2    H1 9742   4.308   4.466  14.416 -0.1491  1.7354  0.2309
  658MPD2    H2 9743   4.083   4.270  14.725 -0.3422  0.2067 -2.5065
  658MPD2    H3 9744   4.184   4.277  14.493 -3.8456  2.1263 -0.9138
  658MPD2     N 9745   4.352   4.700  14.554 -0.4018 -0.0362 -0.0070
  658MPD2    H5 9746   4.329   0.066  14.595  0.6331 -0.3216  1.1969
  658MPD2    N1 9747   4.095   4.470  14.899  0.0339  0.1499  0.2630
  658MPD2    H7 9748   4.021   4.403  14.916  0.3760  0.0804  1.4736
  659TMC3    C1 9749   4.019   4.565  15.090 -0.7814 -0.1785 -0.0025
  659TMC3    C2 9750   4.048   4.612  15.212 -0.8369 -0.3240 -0.9542
  659TMC3    C3 9751   3.947   4.678  15.281  1.0842 -0.0088  0.6593
  659TMC3    C4 9752   3.897   4.570  15.037  0.1420 -0.3430 -0.0177
  659TMC3    C5 9753   3.792   4.618  15.114 -0.6540  0.3903 -0.7005
  659TMC3    C6 9754   3.822   4.671  15.235  0.1631 -0.1671  0.0474
  659TMC3     C 9755   4.127   4.554  14.999 -0.2264 -0.2919  0.6421
  659TMC3     O 9756   4.227   4.618  15.012 -0.3913 -0.6362  0.5356
  659TMC3     H 9757   4.147   4.626  15.254 -0.4023 -2.4284 -1.2878
  659TMC3    H1 9758   3.876   4.543  14.934  2.0183  1.5522 -0.9095
  659TMC3    H2 9759   3.743   4.712  15.298  1.3881  0.8534  0.9272
  659TMC3    C7 9760   3.653   4.572  15.089 -0.3697  0.2426 -0.0675
  659TMC3    C8 9761   3.964   0.015  15.413  0.1285  0.5549  0.7268
  659TMC3    O1 9762   3.581   4.578  15.191  0.2080  0.3103  0.5531
  659TMC3    O2 9763   3.874   0.093  15.446 -0.2968  0.1358 -0.2819
  660MPD2     C 9764   2.138   3.718  13.058 -0.0220  0.6782 -0.6472
  660MPD2    C1 9765   2.185   3.622  12.976  0.2877 -0.0919  0.2398
  660MPD2    C2 9766   2.183   3.490  13.012  0.1850 -0.4026 -0.4782
  660MPD2    C3 9767   2.126   3.447  13.130 -0.1583  0.1101 -0.7158
  660MPD2    C4 9768   2.066   3.540  13.207  0.1648 -0.1442  0.5979
  660MPD2    C5 9769   2.071   3.678  13.172 -0.8855 -0.3878 -0.1779
  660MPD2     H 9770   2.209   3.413  12.940  3.2226 -1.4529  1.7352
  660MPD2    H1 9771   2.022   3.506  13.301  0.1793 -1.5051  0.1075
  660MPD2    H2 9772   2.136   3.823  13.028  0.0149  0.5125 -1.2331
  660MPD2    H3 9773   2.024   3.748  13.239 -2.7136  0.0990 -1.9847
  660MPD2     N 9774   2.110   3.309  13.173 -0.0014 -0.4205  0.6331
  660MPD2    H5 9775   2.054   3.302  13.257 -1.8924  0.5738 -0.5293
  660MPD2    N1 9776   2.238   3.667  12.853  0.1430  0.4579 -0.5797
  660MPD2    H7 9777   2.229   3.767  12.835 -1.5843  0.4543  0.2612
  661TMC3    C1 9778   2.306   3.637  12.638  0.1791  0.7652 -0.2460
  661TMC3    C2 9779   2.391   3.585  12.550 -0.6232 -0.3972 -0.1645
  661TMC3    C3 9780   2.358   3.594  12.417  0.4933 -0.0075  0.5853
  661TMC3    C4 9781   2.192   3.700  12.597  0.9312  0.2896 -0.8614
  661TMC3    C5 9782   2.167   3.711  12.457 -0.0525  0.3008  0.2423
  661TMC3    C6 9783   2.249   3.659  12.361  0.2048  0.2569 -0.4791
  661TMC3     C 9784   2.315   3.594  12.770 -0.6727 -0.0546  0.0785
  661TMC3     O 9785   2.375   3.489  12.795 -0.1213 -0.3214 -0.4026
  661TMC3     H 9786   2.483   3.532  12.572  0.1954  0.6984 -0.9453
  661TMC3    H1 9787   2.127   3.750  12.668  2.0845  0.8127 -0.1782
  661TMC3    H2 9788   2.238   3.676  12.255 -3.0527 -0.1267 -0.2023
  661TMC3    C7 9789   2.046   3.773  12.417 -0.2717 -0.1482  0.6816
  661TMC3    C8 9790   2.458   3.566  12.316  0.3378  0.1031  0.1188
  661TMC3    O1 9791   2.012   3.876  12.476 -0.0309 -0.0427  0.1782
  661TMC3    O2 9792   2.414   3.540  12.207  0.0707 -0.0677  0.7630
  662MPD2     C 9793   2.243   3.562  17.063 -0.2897  0.6381 -0.2140
  662MPD2    C1 9794   2.216   3.517  17.191 -0.7023  0.7722  0.1000
  662MPD2    C2 9795   2.135   3.601  17.270 -0.6043  0.2380  0.2269
  662MPD2    C3 9796   2.079   3.720  17.223 -0.3636 -0.2550  0.0445
  662MPD2    C4 9797   2.093   3.754  17.093 -0.4478 -0.5234 -0.2943
  662MPD2    C5 9798   2.173   3.670  17.017 -0.3366  0.2585  0.0781
  662MPD2     H 9799   2.138   3.571  17.375 -1.1274 -2.0900 -0.4135
  662MPD2    H1 9800   2.060   3.846  17.046  1.4749 -1.0026 -2.6037
  662MPD2    H2 9801   2.304   3.512  16.988 -0.6341 -1.5762  0.9963
  662MPD2    H3 9802   2.192   3.692  16.912 -0.7145 -1.2790 -0.3174
  662MPD2     N 9803   2.001   3.790  17.315 -0.2304  0.4133 -0.5586
  662MPD2    H5 9804   1.981   3.746  17.404  0.5398  1.1967  0.0042
  662MPD2    N1 9805   2.293   3.414  17.244 -1.0882  0.6036  0.0546
  662MPD2    H7 9806   2.293   3.404  17.345 -2.8491 -0.5034 -0.0684
  663TMC3    C1 9807   2.433   3.228  17.254  0.2018  0.1492  0.6846
  663TMC3    C2 9808   2.443   3.263  17.384 -0.0968 -0.3185  0.4385
  663TMC3    C3 9809   2.471   3.171  17.478 -0.1236 -0.0548  0.1583
  663TMC3    C4 9810   2.438   3.095  17.211  0.0925  0.2181 -0.5566
  663TMC3    C5 9811   2.462   3.004  17.306 -0.6136  0.7368  0.0466
  663TMC3    C6 9812   2.465   3.036  17.441 -0.4692 -0.6784  0.7641
  663TMC3     C 9813   2.360   3.318  17.171 -0.0492  0.0152  0.3704
  663TMC3     O 9814   2.359   3.292  17.049  0.0545 -0.1587 -0.0729
  663TMC3     H 9815   2.478   3.364  17.401 -1.4385  0.0151  1.2406
  663TMC3    H1 9816   2.428   3.070  17.106  3.6214 -0.4689 -0.7390
  663TMC3    H2 9817   2.506   2.965  17.513  0.2968 -0.8940  0.1137
  663TMC3    C7 9818   2.453   2.862  17.279 -0.5027 -0.0535  0.1564
  663TMC3    C8 9819   2.471   3.219  17.608  0.0402  0.3125 -0.3800
  663TMC3    O1 9820   2.487   2.790  17.370  0.4436  0.0636 -0.1567
  663TMC3    O2 9821   2.490   3.338  17.622 -0.6746  0.0044 -0.3290
  664MPD2     C 9822   0.067   1.532   0.332  0.8906 -0.0074  0.3762
  664MPD2    C1 9823   0.196   1.585   0.338 -0.6036 -0.9579  0.4847
  664MPD2    C2 9824   0.269   1.592   0.453 -0.1110 -0.3026 -0.6506
  664MPD2    C3 9825   0.225   1.528   0.566  0.2751  0.2494  0.4545
  664MPD2    C4 9826   0.099   1.473   0.566  0.5825 -0.9075 -0.0335
  664MPD2    C5 9827   0.025   1.475   0.448  0.2526  0.4971  0.5181
  664MPD2     H 9828   0.367   1.638   0.453 -1.0098  1.5896 -0.3432
  664MPD2    H1 9829   0.053   1.435   0.656  1.1223  1.5214  1.2740
  664MPD2    H2 9830   0.004   1.553   0.246  2.7302  1.2444 -0.6641
  664MPD2    H3 9831   4.658   1.415   0.447  0.5225  0.0848  0.5753
  664MPD2     N 9832   0.296   1.558   0.680 -0.8166 -0.0915  0.4736
  664MPD2    H5 9833   0.374   1.623   0.677 -0.7907 -0.1423 -0.1428
  664MPD2    N1 9834   0.253   1.652   0.228 -0.5619 -0.0334 -0.1565
  664MPD2    H7 9835   0.342   1.698   0.244 -1.1272  0.0419  2.7281
  665TMC3    C1 9836   0.340   1.576   0.902  0.3385 -0.5015 -0.2145
  665TMC3    C2 9837   0.353   1.515   1.023 -0.5729  0.6954  0.2484
  665TMC3    C3 9838   0.448   1.563   1.106 -0.5482 -0.5073  0.3425
  665TMC3    C4 9839   0.407   1.690   0.867 -0.2657 -0.0810  0.7501
  665TMC3    C5 9840   0.502   1.735   0.957  0.1980  0.0671  0.4518
  665TMC3    C6 9841   0.526   1.669   1.074 -0.2546  0.5935 -0.0493
  665TMC3     C 9842   0.263   1.514   0.806 -0.1109 -0.3898  0.4042
  665TMC3     O 9843   0.193   1.416   0.834 -0.0005  0.4107  0.0625
  665TMC3     H 9844   0.297   1.427   1.052  0.2953  0.0916  0.1166
  665TMC3    H1 9845   0.393   1.746   0.775 -0.0712 -0.9722  0.1834
  665TMC3    H2 9846   0.602   1.704   1.143  0.4819 -2.1509  0.5603
  665TMC3    C7 9847   0.507   1.883   0.969  0.1789 -0.1669 -0.9667
  665TMC3    C8 9848   0.433   1.546   1.249  0.6880 -0.1523 -0.1892
  665TMC3    O1 9849   0.419   1.946   0.914  0.5497 -0.2215  0.2642
  665TMC3    O2 9850   0.473   1.641   1.311 -0.0154 -0.2388 -0.4841
  666TMC3    C1 9851   0.217   0.931  10.124 -0.0755 -0.9682 -0.3294
  666TMC3    C2 9852   0.235   0.934  10.260 -0.0492  0.0326 -0.1091
  666TMC3    C3 9853   0.337   1.020  10.298  0.5106 -0.7361  0.1441
  666TMC3    C4 9854   0.278   1.022  10.042  1.1059 -0.4243  0.3844
  666TMC3    C5 9855   0.357   1.122  10.089 -0.0087  0.1072  0.0914
  666TMC3    C6 9856   0.396   1.114  10.216 -0.0146 -0.1272  0.5471
  666TMC3     C 9857   0.088   0.879  10.083  0.1356 -0.3120  0.5233
  666TMC3     O 9858   0.027   0.949  10.005 -0.6486 -0.3103 -0.1604
  666TMC3     H 9859   0.162   0.883  10.322  0.0498 -1.4387 -1.1891
  666TMC3    H1 9860   0.241   1.035   9.941 -2.6708 -1.8037  1.6107
  666TMC3    H2 9861   0.453   1.194  10.263 -2.4502  1.5699  0.5840
  666TMC3    C7 9862   0.361   1.249  10.029 -0.0130  0.0649  0.1071
  666TMC3    C8 9863   0.396   1.011  10.433  0.8919 -0.2223  0.3509
  666TMC3    O1 9864   0.355   1.247   9.909  0.0793  0.4436  0.0520
  666TMC3    O2 9865   0.335   0.934  10.502  0.5210 -0.3637  0.5618
  667MPD2     C 9866   0.833   1.044  14.950  0.2287  0.3708  0.3481
  667MPD2    C1 9867   0.776   1.088  15.067 -0.3102 -0.9463  0.3032
  667MPD2    C2 9868   0.689   1.007  15.134 -0.7317  0.2121  0.4461
  667MPD2    C3 9869   0.656   0.880  15.085 -0.4528  0.5103  0.3744
  667MPD2    C4 9870   0.713   0.843  14.965 -0.2482  0.4061 -0.1949
  667MPD2    C5 9871   0.797   0.927  14.895 -0.3599 -0.2722 -0.2753
  667MPD2     H 9872   0.645   1.051  15.222 -1.4288  2.4826 -1.0492
  667MPD2    H1 9873   0.688   0.749  14.918 -2.6863 -0.6971  3.2793
  667MPD2    H2 9874   0.908   1.099  14.894 -0.1841 -1.3230 -1.8735
  667MPD2    H3 9875   0.838   0.876  14.809  0.4046 -2.6424  1.4939
  667MPD2     N 9876   0.572   0.790  15.155  0.5265 -0.4468 -0.1350
  667MPD2    H5 9877   0.535   0.713  15.100 -0.1447 -0.8564  0.8929
  667MPD2    N1 9878   0.806   1.201  15.133 -0.1069  0.9396 -1.0465
  667MPD2    H7 9879   0.765   1.219  15.225  2.9736 -1.2244  0.7424
  668TMC3    C1 9880   0.904   1.403  15.176 -0.4541  0.3944  0.1624
  668TMC3    C2 9881   1.033   1.439  15.200 -0.3264 -0.7777  0.3567
  668TMC3    C3 9882   1.069   1.487  15.328  0.3805 -0.5251 -0.0553
  668TMC3    C4 9883   0.814   1.417  15.277  0.2411  0.4466 -0.2504
  668TMC3    C5 9884   0.848   1.449  15.404 -0.6792 -0.4911  0.2858
  668TMC3    C6 9885   0.978   1.470  15.436 -0.2780  0.5247 -0.5046
  668TMC3     C 9886   0.883   1.298  15.079  0.1006  0.0406  0.7548
  668TMC3     O 9887   0.966   1.298  14.989  0.2302 -0.7876 -0.2208
  668TMC3     H 9888   1.099   1.458  15.115  1.5669 -0.2162  1.9552
  668TMC3    H1 9889   0.707   1.413  15.256  0.1834  1.4940 -0.1321
  668TMC3    H2 9890   1.008   1.489  15.539 -0.1224 -3.3367  0.1441
  668TMC3    C7 9891   0.738   1.481  15.494  0.0519  0.5100 -0.1092
  668TMC3    C8 9892   1.193   1.547  15.351  0.2092 -0.1803 -0.5162
  668TMC3    O1 9893   0.625   1.436  15.472 -0.3611  0.3391 -0.0333
  668TMC3    O2 9894   1.231   1.536  15.464  0.0551 -0.3689  0.0681
  669TMC3    C1 9895   3.732   1.964  14.798  0.5881  0.1436 -0.0105
  669TMC3    C2 9896   3.623   1.991  14.715  0.2166 -0.4495  0.1212
  669TMC3    C3 9897   3.644   2.014  14.584 -0.1219 -0.6419  0.8230
  669TMC3    C4 9898   3.861   1.985  14.753  0.0822 -0.0441  0.8884
  669TMC3    C5 9899   3.876   2.011  14.622  0.3619 -0.2508 -0.9781
  669TMC3    C6 9900   3.766   2.027  14.534 -0.4250  0.2939 -0.4903
  669TMC3     C 9901   3.714   1.849  14.883 -0.8683  0.4459  1.0660
  669TMC3     O 9902   3.599   1.809  14.896  0.1497 -0.1253  0.1900
  669TMC3     H 9903   3.524   1.960  14.746 -0.1092  0.0050 -0.4807
  669TMC3    H1 9904   3.950   1.969  14.813  1.0010 -2.9517 -1.2626
  669TMC3    H2 9905   3.784   2.055  14.431 -0.2519 -0.5779 -0.7046
  669TMC3    C7 9906   4.008   2.047  14.580  0.0826 -0.7188  0.1607
  669TMC3    C8 9907   3.556   1.942  14.499 -0.0111 -0.3991 -0.3523
  669TMC3    O1 9908   4.079   2.102  14.659 -0.5294 -0.0895 -0.2844
  669TMC3    O2 9909   3.607   1.848  14.442 -0.4740  0.2106 -0.0811
  670MPD2     C 9910   2.422   3.700  13.951 -0.0558  0.0799  0.3230
  670MPD2    C1 9911   2.484   3.750  14.066 -0.0696  1.0098 -0.0985
  670MPD2    C2 9912   2.407   3.793  14.176  0.4232  0.2344 -0.0734
  670MPD2    C3 9913   2.271   3.784  14.168  0.2613 -0.5645 -0.2367
  670MPD2    C4 9914   2.217   3.744  14.057  0.1997 -0.2471  0.2052
  670MPD2    C5 9915   2.288   3.700  13.951  0.0335  0.1694 -0.3951
  670MPD2     H 9916   2.451   3.825  14.269  3.2206  0.4371 -1.4662
  670MPD2    H1 9917   2.109   3.731  14.051  0.1328 -0.1404  1.2523
  670MPD2    H2 9918   2.479   3.674  13.862 -0.0219 -1.7278  0.8665
  670MPD2    H3 9919   2.230   3.668  13.865 -0.9713  0.7231  0.0752
  670MPD2     N 9920   2.197   3.826  14.283 -0.4140  0.2518  0.1340
  670MPD2    H5 9921   2.257   3.817  14.364  0.8017  2.6234 -0.5044
  670MPD2    N1 9922   2.628   3.763  14.079 -0.4416 -0.3418 -0.1466
  670MPD2    H7 9923   2.660   3.798  14.168  0.4492  0.0486 -0.6170
  671TMC3    C1 9924   2.037   3.881  14.447  0.0868  0.6431  0.4989
  671TMC3    C2 9925   2.148   3.918  14.523  0.2365 -0.0829 -0.0366
  671TMC3    C3 9926   2.181   3.852  14.637 -0.1774  0.1790  0.0838
  671TMC3    C4 9927   1.949   3.795  14.498 -0.6976 -0.2685  0.0010
  671TMC3    C5 9928   1.983   3.729  14.608 -0.8648  0.1040 -0.8193
  671TMC3    C6 9929   2.094   3.756  14.682  0.0107  0.6467 -0.6800
  671TMC3     C 9930   2.059   3.853  14.301  0.2318 -0.2942  0.2702
  671TMC3     O 9931   1.971   3.857  14.222  1.1237  0.1449  0.7463
  671TMC3     H 9932   2.217   3.992  14.484  0.9413 -0.1788  1.0254
  671TMC3    H1 9933   1.864   3.763  14.439 -1.0669 -1.4759  1.1755
  671TMC3    H2 9934   2.132   3.688  14.757  0.4423  0.4071 -1.1089
  671TMC3    C7 9935   1.941   3.591  14.605 -0.8230  0.0089  0.1384
  671TMC3    C8 9936   2.323   3.832  14.630  0.3514 -0.1922 -0.1216
  671TMC3    O1 9937   2.024   3.507  14.577  0.0663  0.0047 -0.5030
  671TMC3    O2 9938   2.376   3.844  14.519 -0.1239 -0.0864 -0.5534
  672MPD2     C 9939   2.725   0.134   1.236  0.4419 -0.7880 -0.1712
  672MPD2    C1 9940   2.790   0.030   1.170 -0.3349 -0.0197 -0.8950
  672MPD2    C2 9941   2.926   0.010   1.185 -0.1395  0.6512  0.2779
  672MPD2    C3 9942   3.001   0.096   1.269  0.2398  0.0691  0.3181
  672MPD2    C4 9943   2.930   0.199   1.345 -0.4576 -0.4548 -0.9692
  672MPD2    C5 9944   2.794   0.212   1.323  0.1484 -0.3977  0.4302
  672MPD2     H 9945   2.983   4.667   1.122 -2.4072  0.2660 -1.3407
  672MPD2    H1 9946   2.987   0.272   1.400 -0.3731 -0.9675 -0.3724
  672MPD2    H2 9947   2.620   0.159   1.221  0.1296 -0.6498  2.2691
  672MPD2    H3 9948   2.753   0.300   1.370  1.6400  1.0988 -1.0563
  672MPD2     N 9949   3.139   0.100   1.277  0.1116 -0.2110  0.0188
  672MPD2    H5 9950   3.183   0.176   1.329 -0.3987  0.6139 -0.7496
  672MPD2    N1 9951   2.720   4.662   1.083  0.3144 -0.2342 -0.3718
  672MPD2    H7 9952   2.775   4.584   1.047 -1.2802 -1.2877 -0.4862
  673TMC3    C1 9953   2.563   4.586   0.931 -0.4351 -0.5983 -0.1390
  673TMC3    C2 9954   2.629   4.467   0.919 -0.8185  0.1675  0.2143
  673TMC3    C3 9955   2.594   4.398   0.804  0.5162  0.6197  0.1574
  673TMC3    C4 9956   2.482   4.639   0.830 -0.3779 -0.4629 -0.2682
  673TMC3    C5 9957   2.465   4.569   0.714  0.2620 -0.1098  0.3525
  673TMC3    C6 9958   2.515   4.442   0.702  0.1652  0.0437 -0.1081
  673TMC3     C 9959   2.593   4.684   1.036  0.6973 -0.5305  0.0968
  673TMC3     O 9960   2.522   0.057   1.029  0.5019  0.6377  0.0666
  673TMC3     H 9961   2.681   4.416   0.999 -1.0903 -1.2036 -0.4805
  673TMC3    H1 9962   2.433   0.011   0.844  1.5849  0.3695  0.8863
  673TMC3    H2 9963   2.499   4.389   0.609 -1.3620  1.9064 -0.9010
  673TMC3    C7 9964   2.475   4.647   0.588  0.0398 -0.1065  0.0122
  673TMC3    C8 9965   2.636   4.261   0.782  0.6979  0.2336 -0.6416
  673TMC3    O1 9966   2.460   4.581   0.484 -0.0627  0.1425 -0.1039
  673TMC3    O2 9967   2.568   4.194   0.703 -0.2435 -0.1728  0.3273
  674MPD2     C 9968   2.202   4.268  17.277  0.3238 -0.2467  0.0747
  674MPD2    C1 9969   2.275   4.228  17.381  0.4311  0.2347 -0.1140
  674MPD2    C2 9970   2.323   4.321  17.470  0.2456  0.3549  0.3635
  674MPD2    C3 9971   2.301   4.462  17.449  0.3308  0.1085  0.0091
  674MPD2    C4 9972   2.220   4.498  17.339 -0.4280  0.0235 -0.3595
  674MPD2    C5 9973   2.169   4.399  17.257 -0.5254 -0.4371 -0.7319
  674MPD2     H 9974   2.364   4.280  17.561  1.2046  1.9480  0.6529
  674MPD2    H1 9975   2.192   4.602  17.323 -0.5085 -0.0563 -0.7303
  674MPD2    H2 9976   2.172   4.199  17.199  1.2785  0.8063 -1.2234
  674MPD2    H3 9977   2.093   4.417  17.181  0.2476 -1.0440 -1.6495
  674MPD2     N 9978   2.353   4.551  17.537  0.3668  0.6089  0.8337
  674MPD2    H5 9979   2.407   4.509  17.612  0.7752  2.4450  1.5854
  674MPD2    N1 9980   2.305   4.091  17.395 -0.1386 -0.5883  0.1985
  674MPD2    H7 9981   2.253   4.032  17.331  1.2273 -1.0321 -0.5140
  675TMC3    C1 9982   2.405   3.902  17.495 -0.1201  0.0677  0.3791
  675TMC3    C2 9983   2.287   3.836  17.507  0.6594 -0.3379  0.4734
  675TMC3    C3 9984   2.290   3.719  17.578  0.1399 -0.1375  0.0852
  675TMC3    C4 9985   2.516   3.854  17.552 -0.7438  0.0190 -0.0176
  675TMC3    C5 9986   2.513   3.733  17.622 -0.1574  0.0043 -0.0470
  675TMC3    C6 9987   2.401   3.658  17.635 -0.4715 -0.1631 -0.0302
  675TMC3     C 9988   2.402   4.047  17.476 -0.4804  0.0093  0.0361
  675TMC3     O 9989   2.503   4.103  17.517  0.0781 -0.0062 -0.3977
  675TMC3     H 9990   2.191   3.872  17.469  0.2622 -1.0396  0.8176
  675TMC3    H1 9991   2.615   3.898  17.547 -1.0210  0.4536 -1.4384
  675TMC3    H2 9992   2.393   3.568  17.696  1.8510 -0.2113  0.1877
  675TMC3    C7 9993   2.635   3.687  17.691 -0.2882 -0.2055 -0.8043
  675TMC3    C8 9994   2.161   3.690  17.633 -0.2950 -0.9329  0.3977
  675TMC3    O1 9995   2.719   3.777   0.014 -0.1736  0.8159 -0.0390
  675TMC3    O2 9996   2.068   3.711  17.559  0.3346  0.5891  0.2642
  676MPD2     C 9997   0.594   2.803  10.970  0.2858  0.3356 -0.3734
  676MPD2    C1 9998   0.531   2.724  11.065  0.0706 -0.6156  0.3783
  676MPD2    C2 9999   0.508   2.591  11.028 -1.1198  0.0298  1.0009
  676MPD2    C310000   0.564   2.531  10.918 -0.0695  0.2542 -0.0371
  676MPD2    C410001   0.632   2.613  10.831  0.0232  0.1463  0.3748
  676MPD2    C510002   0.645   2.747  10.856 -0.3312  0.0027  0.1634
  676MPD2     H10003   0.465   2.529  11.105 -2.1118 -0.7138 -0.1428
  676MPD2    H110004   0.678   2.579  10.739 -1.3791  0.0683 -0.3082
  676MPD2    H210005   0.603   2.911  10.982 -2.4633  0.4863  0.4233
  676MPD2    H310006   0.694   2.819  10.791  1.8648 -2.2896 -0.7496
  676MPD2     N10007   0.545   2.391  10.896  0.0538  0.0808 -0.0494
  676MPD2    H510008   0.584   2.348  10.813 -0.3802  0.5408 -0.4873
  676MPD2    N110009   0.470   2.773  11.180  0.3339 -0.3865 -0.2740
  676MPD2    H710010   0.422   2.701  11.232  2.1356 -0.8888  0.7002
  677TMC3    C110011   0.408   2.934  11.347  0.3771  0.6027 -0.3779
  677TMC3    C210012   0.299   2.854  11.361  0.8967 -0.3328  0.3942
  677TMC3    C310013   0.232   2.878  11.484  0.7059 -0.2927 -0.0391
  677TMC3    C410014   0.440   3.029  11.437  0.0928  0.0309  0.1154
  677TMC3    C510015   0.361   3.060  11.542 -0.0310  0.2928 -0.7205
  677TMC3    C610016   0.253   2.987  11.566 -0.1366  0.3637  0.2683
  677TMC3     C10017   0.494   2.902  11.227 -0.0934 -0.1850 -0.0145
  677TMC3     O10018   0.556   3.000  11.184 -0.1924 -0.1513 -0.4084
  677TMC3     H10019   0.274   2.768  11.301 -1.7586 -1.4331  3.0328
  677TMC3    H110020   0.526   3.092  11.418  0.8043 -1.5551 -1.9276
  677TMC3    H210021   0.185   3.014  11.646 -0.4359 -0.7462  0.3931
  677TMC3    C710022   0.416   3.121  11.662  0.3672 -0.2148 -0.5216
  677TMC3    C810023   0.129   2.790  11.532  0.3101 -0.1643  0.8516
  677TMC3    O110024   0.348   3.121  11.765  0.0937  0.1546  0.2732
  677TMC3    O210025   0.053   2.754  11.446  0.3965  0.3776  0.0322
  678MPD2     C10026   1.897   2.399   1.656 -0.1679 -0.5177  0.6904
  678MPD2    C110027   1.848   2.378   1.526 -0.5464  0.3559 -0.1154
  678MPD2    C210028   1.733   2.446   1.493 -0.0636  1.1796  1.0911
  678MPD2    C310029   1.670   2.536   1.572  0.2815  0.2100 -0.2965
  678MPD2    C410030   1.723   2.556   1.698  0.1843 -0.4866  0.3867
  678MPD2    C510031   1.831   2.485   1.736  0.5769 -0.1882 -0.3078
  678MPD2     H10032   1.701   2.435   1.390 -0.3581  1.5363  1.1437
  678MPD2    H110033   1.678   2.634   1.758 -1.2651 -0.3293 -0.9173
  678MPD2    H210034   1.984   2.357   1.703 -0.9142  1.1641  3.5707
  678MPD2    H310035   1.869   2.514   1.834 -0.7648 -0.9740  0.4515
  678MPD2     N10036   1.566   2.614   1.516 -0.5362 -0.4847 -0.3402
  678MPD2    H510037   1.540   2.583   1.422  1.0824 -0.5765 -0.7529
  678MPD2    N110038   1.902   2.285   1.434 -0.2048  0.4196  0.3308
  678MPD2    H710039   1.847   2.274   1.349 -0.3220 -0.4515  0.5240
  679TMC3    C110040   2.103   1.904   1.266 -0.1117  0.5640  0.6527
  679TMC3    C210041   2.085   2.003   1.363  0.8641 -0.2179  0.1928
  679TMC3    C310042   2.023   2.117   1.335  0.3451  0.1765  0.1141
  679TMC3    C410043   2.068   1.936   1.137  0.7365  0.1190 -1.6878
  679TMC3    C510044   2.016   2.060   1.108  0.2922  0.6804 -0.0425
  679TMC3    C610045   1.992   2.151   1.204 -0.0825 -0.6962 -0.2503
  679TMC3     C10046   2.234   1.836   1.265  0.0366 -0.4543 -0.0366
  679TMC3     O10047   2.275   1.795   1.156 -0.5578  0.0067 -0.0576
  679TMC3     H10048   2.116   1.981   1.465  1.5194 -0.7009 -0.1119
  679TMC3    H110049   2.065   1.863   1.056  0.4768 -1.4041 -0.3088
  679TMC3    H210050   1.944   2.247   1.188  0.3535 -0.7578 -1.9687
  679TMC3    C710051   2.026   2.120   0.975 -0.1179  0.1273  0.1125
  679TMC3    C810052   2.015   2.208   1.452  0.1133 -0.5152  0.0457
  679TMC3    O110053   1.937   2.198   0.944 -0.2070  0.1084 -0.1757
  679TMC3    O210054   2.092   2.196   1.547 -0.2269  0.4706  0.0504
  680MPD2     C10055   3.124   1.034  13.748  0.5653 -0.1973  0.0448
  680MPD2    C110056   2.995   1.018  13.700  0.1757  1.3081  0.3113
  680MPD2    C210057   2.919   1.134  13.681  0.6293  0.1279 -0.2981
  680MPD2    C310058   2.959   1.255  13.733 -1.4943  0.2652 -0.6821
  680MPD2    C410059   3.084   1.262  13.792 -0.8687 -0.3640 -0.2496
  680MPD2    C510060   3.169   1.157  13.788 -0.0134  0.9601  0.0971
  680MPD2     H10061   2.816   1.120  13.651  1.2061 -1.0952 -1.6826
  680MPD2    H110062   3.115   1.352  13.843  2.7341 -2.4240  1.1987
  680MPD2    H210063   3.195   0.952  13.745 -1.1357 -1.6093 -1.6565
  680MPD2    H310064   3.269   1.169  13.827 -0.7399 -0.6367  2.4775
  680MPD2     N10065   2.876   1.364  13.752  0.0880 -0.4196  0.8763
  680MPD2    H510066   2.891   1.432  13.826 -1.3515  2.2758 -1.2926
  680MPD2    N110067   2.942   0.893  13.662 -0.2377 -0.3615  0.0477
  680MPD2    H710068   3.014   0.821  13.667 -0.6251 -0.7835 -0.4264
  681TMC3    C110069   2.785   0.715  13.613  0.2845  0.2452  0.2621
  681TMC3    C210070   2.657   0.667  13.638  0.2512  1.1140 -0.1680
  681TMC3    C310071   2.616   0.567  13.552 -0.5904 -1.0970 -1.1898
  681TMC3    C410072   2.868   0.667  13.519  0.0770  0.0650 -0.1683
  681TMC3    C510073   2.822   0.568  13.440 -0.1459 -0.1060  0.1821
  681TMC3    C610074   2.704   0.514  13.460 -0.2929 -0.1479  0.0030
  681TMC3     C10075   2.812   0.852  13.660 -0.6290  0.1224 -0.7498
  681TMC3     O10076   2.713   0.925  13.655  0.8391  0.3353 -0.2848
  681TMC3     H10077   2.600   0.727  13.707 -0.5435 -1.2212  1.2117
  681TMC3    H110078   2.969   0.704  13.515 -0.6950  2.2227  0.1807
  681TMC3    H210079   2.676   0.430  13.397 -1.8801 -0.6123  1.3327
  681TMC3    C710080   2.902   0.505  13.331  0.0329 -0.2266 -0.2089
  681TMC3    C810081   2.474   0.534  13.554 -0.1599  0.7143  0.6883
  681TMC3    O110082   2.864   0.394  13.289 -0.1036  0.0154  0.0447
  681TMC3    O210083   2.419   0.519  13.443  0.1161  0.1253  0.1921
  682MPD2     C10084   0.001   2.565  10.596  0.0079  0.6723  1.3401
  682MPD2    C110085   4.638   2.457  10.615 -0.3220 -0.6404 -0.4674
  682MPD2    C210086   4.534   2.472  10.708  0.7174  0.2566  0.0769
  682MPD2    C310087   4.518   2.585  10.787  0.2520 -0.0813 -0.3215
  682MPD2    C410088   4.607   2.691  10.766  0.0508 -0.5737  0.3782
  682MPD2    C510089   4.706   2.683  10.672  0.2222  0.0655 -0.1293
  682MPD2     H10090   4.458   2.396  10.718  2.1316 -1.0509  0.8834
  682MPD2    H110091   4.610   2.775  10.835  0.2180  1.4473 -2.0988
  682MPD2    H210092   0.081   2.557  10.523 -1.5076  2.0510 -0.4461
  682MPD2    H310093   0.052   2.764  10.656 -1.4738  1.7285  0.8953
  682MPD2     N10094   4.414   2.600  10.886  0.1289 -0.3392 -0.3556
  682MPD2    H510095   4.412   2.681  10.947 -1.2396 -1.0678  0.5614
  682MPD2    N110096   4.637   2.335  10.541  0.7424 -0.5942  0.1803
  682MPD2    H710097   4.556   2.273  10.541 -1.3035  2.0908 -0.6086
  683TMC3    C110098   4.388   2.531  11.253  0.3394 -0.4243  0.1930
  683TMC3    C210099   4.375   2.395  11.280  0.3062 -0.0874  0.1329
  683TMC3    C310100   4.294   2.316  11.197  0.3010  0.2474  0.5192
  683TMC3    C410101   4.340   2.592  11.144  0.1735 -0.0990  0.0947
  683TMC3    C510102   4.267   2.511  11.054  0.4244 -0.2124 -0.4225
  683TMC3    C610103   4.234   2.379  11.096  0.7896 -0.5414  0.2898
  683TMC3     C10104   4.427   2.618  11.361  0.1951  0.0599  0.5571
  683TMC3     O10105   4.452   2.738  11.332 -0.4994 -0.2197 -0.0890
  683TMC3     H10106   4.430   2.347  11.360 -1.9680 -3.3384 -0.2293
  683TMC3    H110107   4.372   2.693  11.126 -0.3176  0.0181 -0.1266
  683TMC3    H210108   4.176   2.321  11.024  2.5495 -1.5350 -0.3131
  683TMC3    C710109   4.323   2.506  10.917 -0.1182  0.5066 -0.3338
  683TMC3    C810110   4.328   2.177  11.170 -0.7454  0.7219  0.3076
  683TMC3    O110111   4.294   2.403  10.859 -0.7397  0.3429  0.3878
  683TMC3    O210112   4.278   2.131  11.070  0.4594 -0.6528  0.3309
  684MPD2     C10113   2.596   1.654  16.298 -0.0168 -0.2727  0.4787
  684MPD2    C110114   2.500   1.691  16.207  0.0506 -0.2125 -0.5484
  684MPD2    C210115   2.410   1.795  16.240  0.3274  0.0436  0.4977
  684MPD2    C310116   2.429   1.873  16.353  0.2843 -0.3384  0.1637
  684MPD2    C410117   2.520   1.830  16.453 -0.0547  0.0067 -0.0398
  684MPD2    C510118   2.603   1.720  16.419  0.3336  0.2183 -0.2943
  684MPD2     H10119   2.349   1.827  16.156  0.7705  1.1278  0.5892
  684MPD2    H110120   2.524   1.878  16.550  1.6089 -1.0914  0.4345
  684MPD2    H210121   2.655   1.567  16.274 -1.8391 -1.7443  1.3461
  684MPD2    H310122   2.678   1.682  16.487  0.2469  2.1928  0.8813
  684MPD2     N10123   2.370   2.004  16.371 -0.5924 -0.0268  0.0728
  684MPD2    H510124   2.379   2.042  16.464  0.6594 -2.2158  0.8403
  684MPD2    N110125   2.503   1.616  16.083 -0.1887  0.5248  0.3101
  684MPD2    H710126   2.576   1.547  16.074  0.9804  1.7031  0.7306
  685TMC3    C110127   2.456   1.588  15.854 -0.2561  0.3303  0.4450
  685TMC3    C210128   2.367   1.656  15.770  0.0963 -0.1976  0.1403
  685TMC3    C310129   2.415   1.756  15.696 -0.0677 -0.3342 -0.3882
  685TMC3    C410130   2.592   1.614  15.847  0.0830  0.7986 -0.1501
  685TMC3    C510131   2.635   1.717  15.764  0.1839 -0.5330  0.1560
  685TMC3    C610132   2.547   1.796  15.693 -0.2246 -0.1261  0.6712
  685TMC3     C10133   2.408   1.626  15.984 -0.4578 -0.7875  0.5522
  685TMC3     O10134   2.297   1.679  15.984 -0.4746 -0.3102 -0.0181
  685TMC3     H10135   2.264   1.624  15.760  0.3744 -1.0620  0.0035
  685TMC3    H110136   2.670   1.560  15.899 -0.1197  3.1871  2.6276
  685TMC3    H210137   2.581   1.889  15.650 -2.2563  0.5195  0.4606
  685TMC3    C710138   2.757   1.786  15.811 -0.0163  0.5186 -0.2292
  685TMC3    C810139   2.325   1.871  15.674  0.2425  0.1675  0.6915
  685TMC3    O110140   2.794   1.729  15.913 -0.1616 -0.2388  0.9298
  685TMC3    O210141   2.327   1.946  15.580 -0.6547 -0.8768  0.4580
  686MPD2     C10142   4.171   1.736  15.427 -0.2006 -0.3216  0.7269
  686MPD2    C110143   4.055   1.698  15.492  0.6946 -0.8784  0.3806
  686MPD2    C210144   4.002   1.577  15.463  1.1996  0.4883  0.0555
  686MPD2    C310145   4.080   1.491  15.385 -0.0178  0.6028 -0.1497
  686MPD2    C410146   4.196   1.522  15.329  0.2906 -0.4684 -0.4446
  686MPD2    C510147   4.242   1.648  15.352  0.6034  0.1499 -0.1710
  686MPD2     H10148   3.899   1.553  15.490  1.7134  0.9447  2.4889
  686MPD2    H110149   4.256   1.453  15.271  1.2331 -1.4406  1.6992
  686MPD2    H210150   4.209   1.831  15.461  0.0999 -0.2094  0.0935
  686MPD2    H310151   4.331   1.678  15.298  1.1363 -0.1274  0.5499
  686MPD2     N10152   4.025   1.378  15.341  0.5374  0.1919 -0.0556
  686MPD2    H510153   4.075   1.332  15.265  0.5309 -2.6797  1.6633
  686MPD2    N110154   3.984   1.792  15.566 -0.0132  0.2004 -0.2860
  686MPD2    H710155   4.012   1.889  15.566 -0.6444  0.3810 -1.1189
  687TMC3    C110156   3.886   1.312  15.524 -0.1389  1.0607  1.0094
  687TMC3    C210157   3.757   1.340  15.566  0.5682 -0.0414 -0.3210
  687TMC3    C310158   3.722   1.299  15.691  0.0553 -0.2704  0.5152
  687TMC3    C410159   3.984   1.258  15.599  0.8807  0.3909  0.3280
  687TMC3    C510160   3.945   1.223  15.726 -0.3703 -0.9885 -0.4458
  687TMC3    C610161   3.817   1.241  15.775  0.3543 -0.3674 -0.6631
  687TMC3     C10162   3.910   1.312  15.382 -0.5849  0.4568  0.2961
  687TMC3     O10163   3.849   1.225  15.318 -0.3122 -0.0948  0.2110
  687TMC3     H10164   3.677   1.341  15.493  1.1895  2.0673 -0.9833
  687TMC3    H110165   4.086   1.238  15.567 -0.2579 -2.3325 -1.6276
  687TMC3    H210166   3.781   1.217  15.875 -0.6396 -0.5863 -1.0719
  687TMC3    C710167   4.033   1.165  15.818 -0.2861  0.6491 -0.4541
  687TMC3    C810168   3.624   1.377  15.768  0.5306  0.6939  0.3963
  687TMC3    O110169   4.098   1.069  15.780  0.0207  0.0617  0.1084
  687TMC3    O210170   3.584   1.339  15.881 -0.0293 -0.0712  0.1188
  688MPD2     C10171   3.041   1.130  17.419  0.4598 -0.3709 -0.6772
  688MPD2    C110172   3.085   1.002  17.450 -0.5419  0.4733  0.1201
  688MPD2    C210173   3.202   0.951  17.392  0.3280 -0.0902 -0.0632
  688MPD2    C310174   3.268   1.029  17.302 -0.1589 -0.6041  0.2437
  688MPD2    C410175   3.234   1.160  17.275  0.2403  0.5150 -0.1352
  688MPD2    C510176   3.115   1.202  17.327  0.5665 -0.0373 -0.5489
  688MPD2     H10177   3.237   0.849  17.405 -0.2111 -0.0907  1.3440
  688MPD2    H110178   3.280   1.215  17.194  2.5985 -1.6196 -0.2488
  688MPD2    H210179   2.945   1.169  17.451 -0.6867 -2.5422 -1.4327
  688MPD2    H310180   3.087   1.304  17.305  0.6803 -0.1210 -1.0744
  688MPD2     N10181   3.386   0.990  17.240 -0.0459  0.0874 -0.7714
  688MPD2    H510182   3.434   1.066  17.192 -0.9878  1.1536 -0.0286
  688MPD2    N110183   3.019   0.907  17.534 -0.1069  0.1460 -0.6674
  688MPD2    H710184   3.053   0.812  17.549 -0.5871 -0.1642 -1.5650
  689TMC3    C110185   2.898   0.841   0.032 -0.0216  0.0787  0.0751
  689TMC3    C210186   2.855   0.897   0.149  0.4505 -0.0066 -0.6010
  689TMC3    C310187   2.878   0.821   0.264  0.4787  1.1753  0.0613
  689TMC3    C410188   2.935   0.711   0.015 -0.4558 -0.0109  0.5306
  689TMC3    C510189   2.925   0.636   0.127  0.1117 -0.4994 -0.0378
  689TMC3    C610190   2.912   0.687   0.251  0.1884 -0.8313 -0.1324
  689TMC3     C10191   2.924   0.943  17.629 -0.3072 -1.3324  0.3607
  689TMC3     O10192   2.882   1.057  17.647 -0.7123  0.4585 -0.1261
  689TMC3     H10193   2.812   0.996   0.154  1.0058  0.2609 -1.1369
  689TMC3    H110194   2.927   0.676  17.611  1.3727 -0.3646  0.5143
  689TMC3    H210195   2.905   0.623   0.338 -1.0395 -2.4718 -1.4601
  689TMC3    C710196   2.954   0.493   0.136 -0.5109 -0.0923 -0.3218
  689TMC3    C810197   2.887   0.882   0.398  0.6909 -0.0028 -0.5865
  689TMC3    O110198   3.018   0.457   0.234 -0.1110  0.4005  0.2732
  689TMC3    O210199   2.877   0.801   0.493  0.0357 -0.6794 -0.0359
  690MPD2     C10200   4.661   2.748  15.549  0.4898 -0.5362  0.5208
  690MPD2    C110201   0.030   2.659  15.609 -0.0182  0.7606 -0.8862
  690MPD2    C210202   0.153   2.645  15.548 -0.0479 -0.1285 -0.0693
  690MPD2    C310203   0.185   2.717  15.434  0.0766 -0.7545  1.0150
  690MPD2    C410204   0.096   2.800  15.375 -0.6208  0.0520 -1.3233
  690MPD2    C510205   4.692   2.819  15.432 -0.0113 -0.0778 -0.0554
  690MPD2     H10206   0.235   2.589  15.592 -0.0072 -0.4371 -0.5374
  690MPD2    H110207   0.115   2.865  15.290  1.6843  2.7568  1.2546
  690MPD2    H210208   4.566   2.763  15.600  1.4962 -0.7381  2.4597
  690MPD2    H310209   4.628   2.891  15.383 -0.2665 -1.4681 -1.7395
  690MPD2     N10210   0.316   2.699  15.372  0.2850  0.8438 -0.3121
  690MPD2    H510211   0.366   2.617  15.405  1.3092  0.3816 -3.0318
  690MPD2    N110212   0.001   2.575  15.715 -0.4747 -0.2021  0.1508
  690MPD2    H710213   0.068   2.503  15.739  0.1626  0.2762 -0.2076
  691TMC3    C110214   4.610   2.480  15.901 -0.0110 -0.1098 -0.7427
  691TMC3    C210215   4.530   2.495  16.010  0.8353 -0.1962  0.0062
  691TMC3    C310216   4.476   2.386  16.073 -0.3794 -0.6046  0.2486
  691TMC3    C410217   4.651   2.353  15.862  1.0612  1.1078 -0.0251
  691TMC3    C510218   4.581   2.250  15.922 -0.4101  0.0127  0.1064
  691TMC3    C610219   4.485   2.259  16.020  0.1676  0.2545  0.0869
  691TMC3     C10220   4.625   2.594  15.806  0.9942  0.2055  0.9323
  691TMC3     O10221   4.552   2.687  15.829 -0.0116  0.0481  0.1100
  691TMC3     H10222   4.526   2.594  16.053 -0.0257  0.0345 -0.6102
  691TMC3    H110223   4.723   2.334  15.783  1.0164 -1.7269  0.5877
  691TMC3    H210224   4.444   2.174  16.073  0.0430  0.5090  0.4016
  691TMC3    C710225   4.595   2.114  15.867  0.3001  0.2827  0.2277
  691TMC3    C810226   4.364   2.400  16.168  0.5339  0.3891  0.1601
  691TMC3    O110227   4.587   2.016  15.947  0.1863  0.5680 -0.4933
  691TMC3    O210228   4.326   2.304  16.232  0.5286 -0.3561  0.1420
  692TMC3    C110229   2.038   3.294  15.721  0.2154 -0.3782  0.2074
  692TMC3    C210230   2.159   3.298  15.777 -0.2166  0.0459  0.4077
  692TMC3    C310231   2.193   3.193  15.861 -0.6653  0.2160 -0.0753
  692TMC3    C410232   1.980   3.171  15.696  0.6515 -0.8386  0.2262
  692TMC3    C510233   2.035   3.056  15.755  0.4842  0.0618 -0.3960
  692TMC3    C610234   2.128   3.067  15.856 -0.4900 -0.2357  1.0411
  692TMC3     C10235   1.936   3.398  15.747  0.3309  0.1000  0.1498
  692TMC3     O10236   1.820   3.357  15.755  0.5389  0.4721  0.1829
  692TMC3     H10237   2.196   3.397  15.802  2.0575 -0.1768 -2.0645
  692TMC3    H110238   1.884   3.162  15.646  0.2607  2.5869  0.3153
  692TMC3    H210239   2.171   2.983  15.908 -0.5197 -1.7588 -1.3656
  692TMC3    C710240   1.984   2.926  15.726  0.0598  0.5479  0.7507
  692TMC3    C810241   2.188   3.240  15.994 -0.8779 -0.8015 -0.3651
  692TMC3    O110242   1.942   2.920  15.610 -0.3796 -0.8732 -0.2055
  692TMC3    O210243   2.107   3.186  16.069 -0.0751 -0.1585  0.1526
  693MPD2     C10244   1.714   2.156  10.940  0.6533 -0.1831 -0.1140
  693MPD2    C110245   1.734   2.028  10.908  1.0644  0.6018 -0.3700
  693MPD2    C210246   1.863   1.976  10.892  1.0189  0.2607  0.0754
  693MPD2    C310247   1.970   2.060  10.909 -0.2131  0.3968  0.7015
  693MPD2    C410248   1.944   2.187  10.945 -0.7851  0.0690  0.0565
  693MPD2    C510249   1.820   2.236  10.946 -0.3175 -0.1978  0.0064
  693MPD2     H10250   1.873   1.870  10.874 -0.4894 -0.1306  1.5596
  693MPD2    H110251   2.020   2.259  10.972 -1.1751  0.3354  0.4317
  693MPD2    H210252   1.615   2.201  10.947  1.3629  1.2244  0.8273
  693MPD2    H310253   1.797   2.335  10.986 -2.4575 -1.9638  3.1969
  693MPD2     N10254   2.106   2.022  10.919  0.0680  0.4214  0.2438
  693MPD2    H510255   2.163   2.089  10.969 -0.1314 -2.3256  4.1487
  693MPD2    N110256   1.619   1.947  10.903 -0.2392 -0.5516  0.0299
  693MPD2    H710257   1.532   1.980  10.941  0.3198  1.6171 -0.5930
  694TMC3    C110258   1.513   1.748  10.891 -0.8870  0.3148  0.1410
  694TMC3    C210259   1.455   1.650  10.816 -0.5667  0.3252 -0.5899
  694TMC3    C310260   1.380   1.561  10.883  0.3631 -0.0396 -0.6898
  694TMC3    C410261   1.508   1.744  11.025  0.0422  0.0361  0.3555
  694TMC3    C510262   1.439   1.645  11.088 -0.2623 -0.2618  0.6412
  694TMC3    C610263   1.365   1.557  11.015  0.5196 -0.1366  0.0337
  694TMC3     C10264   1.616   1.830  10.836  1.1378  0.4532  0.5771
  694TMC3     O10265   1.683   1.798  10.741 -0.2057  0.0303 -0.0410
  694TMC3     H10266   1.438   1.660  10.709  0.5523 -3.0988 -1.1033
  694TMC3    H110267   1.573   1.806  11.085  2.2183 -0.6080 -1.3323
  694TMC3    H210268   1.280   1.509  11.061  0.7618 -0.9052 -0.3220
  694TMC3    C710269   1.408   1.660  11.228 -0.6599  0.3746 -0.2570
  694TMC3    C810270   1.337   1.442  10.813 -0.9826 -0.2320  0.2249
  694TMC3    O110271   1.446   1.764  11.280 -0.8072 -0.8514  0.5619
  694TMC3    O210272   1.260   1.374  10.882 -0.3368  0.5075  0.1198
  695MPD2     C10273   2.487   3.333  13.752  0.2837  0.2134  0.3230
  695MPD2    C110274   2.458   3.333  13.883 -0.6870  0.8840 -0.1685
  695MPD2    C210275   2.330   3.325  13.927  0.1881  0.9434  0.5599
  695MPD2    C310276   2.229   3.312  13.826  0.4222 -0.5050  0.7571
  695MPD2    C410277   2.257   3.324  13.696  0.7050 -0.3875 -0.1287
  695MPD2    C510278   2.384   3.331  13.657  0.0655  0.8500  0.8624
  695MPD2     H10279   2.314   3.333  14.034  0.6662  0.2896  0.6728
  695MPD2    H110280   2.184   3.303  13.619  0.0107  0.8465  0.1982
  695MPD2    H210281   2.589   3.319  13.718 -0.4790  0.3841 -2.0554
  695MPD2    H310282   2.407   3.327  13.551 -0.4430 -0.9786  0.8142
  695MPD2     N10283   2.100   3.303  13.881  0.2955 -0.2555 -0.1917
  695MPD2    H510284   2.088   3.321  13.980  2.6823  0.3639 -0.0107
  695MPD2    N110285   2.562   3.353  13.984 -0.3888  0.3231  0.0600
  695MPD2    H710286   2.530   3.362  14.080  0.0016  0.8574  0.1382
  696TMC3    C110287   1.871   3.300  13.892  0.0179  0.4903 -0.0518
  696TMC3    C210288   1.883   3.236  14.014 -0.4050  0.6793  0.9577
  696TMC3    C310289   1.769   3.233  14.093 -0.0121  0.7991  0.1403
  696TMC3    C410290   1.758   3.370  13.852 -0.3283  0.0216  0.0043
  696TMC3    C510291   1.646   3.373  13.937 -0.3670  0.1168  0.2702
  696TMC3    C610292   1.651   3.303  14.058  0.3658  0.0844 -0.4913
  696TMC3     C10293   1.987   3.304  13.803  0.4523 -0.2322  0.0823
  696TMC3     O10294   1.974   3.317  13.686  0.2205 -0.0995 -0.5180
  696TMC3     H10295   1.970   3.177  14.039  0.8840  2.9140  1.6935
  696TMC3    H110296   1.758   3.428  13.760  3.3617 -1.0909 -0.7099
  696TMC3    H210297   1.571   3.304  14.130  0.5708  0.2879 -0.2656
  696TMC3    C710298   1.571   3.490  13.912 -0.4464 -0.2439  0.1393
  696TMC3    C810299   1.804   3.242  14.236  0.5926  0.3735  0.3298
  696TMC3    O110300   1.534   3.514  13.795 -0.2476  0.5216  0.1937
  696TMC3    O210301   1.921   3.256  14.270 -0.7471  0.1723 -0.2099
  697MPD2     C10302   1.424   0.522  15.842 -0.7520 -0.3411  0.4356
  697MPD2    C110303   1.489   0.468  15.729  0.4716 -0.1121  0.8304
  697MPD2    C210304   1.532   0.549  15.624  0.8748 -0.0932  0.4443
  697MPD2    C310305   1.506   0.685  15.624  1.1016  0.6833 -0.1373
  697MPD2    C410306   1.439   0.740  15.735 -0.7650  0.4650 -0.1996
  697MPD2    C510307   1.408   0.656  15.840 -0.4295  0.3698  0.3936
  697MPD2     H10308   1.583   0.497  15.544  0.4205 -1.8014  1.2666
  697MPD2    H110309   1.414   0.846  15.744  1.6402  1.2542 -2.9426
  697MPD2    H210310   1.382   0.472  15.928 -0.9854  1.8411  1.5733
  697MPD2    H310311   1.356   0.706  15.921 -0.7690 -3.5887  2.6147
  697MPD2     N10312   1.553   0.755  15.512 -0.0994 -0.0551  0.5387
  697MPD2    H510313   1.617   0.716  15.442 -1.0155 -2.2124  0.8978
  697MPD2    N110314   1.513   0.328  15.716  0.7937  0.2355  0.4544
  697MPD2    H710315   1.570   0.291  15.640  1.2267  0.7694  0.5233
  698TMC3    C110316   1.601   0.931  15.383 -0.0888  0.6066  0.8854
  698TMC3    C210317   1.652   1.057  15.403  0.2802  0.4883  0.6639
  698TMC3    C310318   1.751   1.103  15.317  0.0894 -0.1385 -0.5127
  698TMC3    C410319   1.623   0.859  15.272 -0.0990 -0.9747  0.2366
  698TMC3    C510320   1.721   0.913  15.182  0.0116 -0.6175  0.0654
  698TMC3    C610321   1.790   1.031  15.207  0.5012 -1.2657 -0.8499
  698TMC3     C10322   1.520   0.884  15.487 -0.2745  0.1927  0.4289
  698TMC3     O10323   1.475   0.971  15.562  0.3660  0.2752  0.1761
  698TMC3     H10324   1.633   1.110  15.496 -1.4076 -1.4801  1.4656
  698TMC3    H110325   1.584   0.758  15.276 -1.0895 -0.6052 -0.1852
  698TMC3    H210326   1.857   1.063  15.128 -0.8335  0.9200 -1.1089
  698TMC3    C710327   1.759   0.818  15.079 -0.0071  0.4868 -0.7093
  698TMC3    C810328   1.831   1.218  15.365 -0.8398 -0.4629  0.2151
  698TMC3    O110329   1.669   0.737  15.055 -0.5499  0.4701 -0.5865
  698TMC3    O210330   1.787   1.273  15.463  0.8069 -0.1327  0.3948
  699TMC3    C110331   2.116   3.064  13.156 -0.5828 -0.4679  0.4587
  699TMC3    C210332   2.126   3.034  13.289  0.3585  0.2647 -0.9449
  699TMC3    C310333   2.113   2.904  13.318 -0.3206  0.3410 -0.1243
  699TMC3    C410334   2.101   2.972  13.059  0.3555  0.4550 -0.2213
  699TMC3    C510335   2.099   2.836  13.101  0.9261 -0.1390 -0.5181
  699TMC3    C610336   2.112   2.800  13.230 -0.2378  0.2036 -0.1250
  699TMC3     C10337   2.167   3.195  13.116 -0.9395  0.8038  0.1880
  699TMC3     O10338   2.250   3.192  13.021 -0.8470 -0.1966 -0.0233
  699TMC3     H10339   2.130   3.105  13.370 -0.2966  0.2032 -0.8608
  699TMC3    H110340   2.083   3.003  12.957 -2.5561  1.5408  0.6268
  699TMC3    H210341   2.099   2.699  13.266  0.7205  0.3505  0.6506
  699TMC3    C710342   2.003   2.754  13.025 -0.1921  0.2078 -0.3809
  699TMC3    C810343   2.076   2.866  13.449 -1.0814 -0.3041  0.3200
  699TMC3    O110344   1.921   2.818  12.967 -0.2624  0.6875  0.3539
  699TMC3    O210345   1.998   2.772  13.462 -0.3546 -0.1685  0.2940
  700TMC3    C110346   0.888   0.987  17.597 -0.8285 -0.2134  0.3471
  700TMC3    C210347   0.940   0.859  17.585  0.2808  0.9687  0.3521
  700TMC3    C310348   1.042   0.820  17.668  0.7229 -0.8015 -0.7767
  700TMC3    C410349   0.922   1.065   0.007 -0.1188  0.6728  0.9170
  700TMC3    C510350   1.019   1.016   0.092  0.3364  0.1715 -0.8180
  700TMC3    C610351   1.086   0.899   0.071  0.1546 -0.6254  0.3505
  700TMC3     C10352   0.831   1.045  17.474  0.1668  0.3016 -1.2235
  700TMC3     O10353   0.771   0.969  17.399 -0.1362 -0.7708  0.1741
  700TMC3     H10354   0.914   0.798  17.500 -1.7700  0.7074  1.1849
  700TMC3    H110355   0.869   1.160   0.014 -1.0976  0.2676 -0.7358
  700TMC3    H210356   1.178   0.877   0.122  0.5860  0.3560  0.0038
  700TMC3    C710357   1.065   1.117   0.187  0.4560  0.0240 -0.0480
  700TMC3    C810358   1.123   0.702  17.623 -0.0168 -0.4793 -0.0545
  700TMC3    O110359   1.025   1.234   0.180  0.1811 -0.2919  0.3516
  700TMC3    O210360   1.114   0.677  17.505  0.0464  0.2100  0.7396
  701TMC3    C110361   0.756   4.311  16.281 -0.1035  0.2213 -0.0519
  701TMC3    C210362   0.797   4.239  16.174  0.3338  0.6714  0.2654
  701TMC3    C310363   0.834   4.299  16.060  0.1624 -0.2878 -0.1271
  701TMC3    C410364   0.742   4.448  16.275 -0.1638 -0.2462 -0.5671
  701TMC3    C510365   0.784   4.508  16.152  0.7508 -0.0650  0.0715
  701TMC3    C610366   0.830   4.434  16.042  0.0717  0.0423 -0.5610
  701TMC3     C10367   0.702   4.254  16.402 -0.4181 -0.4893  0.0532
  701TMC3     O10368   0.711   4.322  16.502  0.1208 -0.5535 -0.0864
  701TMC3     H10369   0.818   4.133  16.190 -1.7279  0.0316 -1.3321
  701TMC3    H110370   0.690   4.494  16.359  1.0316 -0.6985  0.4204
  701TMC3    H210371   0.855   4.481  15.948 -0.1286 -0.8200 -1.0490
  701TMC3    C710372   0.767   4.646  16.130 -0.2906 -0.4635  0.1685
  701TMC3    C810373   0.866   4.212  15.955  0.1488  0.1497 -0.4705
  701TMC3    O110374   0.786   4.702  16.021 -0.0123 -0.0104  0.0649
  701TMC3    O210375   0.875   4.096  15.983 -0.0325 -0.4702  0.1606
  702MPD2     C10376   0.981   2.078  10.474 -0.2317  0.2752 -0.2713
  702MPD2    C110377   0.908   2.166  10.551  0.7636  0.2265 -0.2579
  702MPD2    C210378   0.937   2.301  10.547  0.2853 -0.3715 -0.0954
  702MPD2    C310379   1.047   2.351  10.479 -0.8997  0.7746 -0.2502
  702MPD2    C410380   1.118   2.257  10.399 -0.0191 -0.9936 -0.2912
  702MPD2    C510381   1.080   2.127  10.392  0.0043  0.3099 -0.2680
  702MPD2     H10382   0.868   2.369  10.595 -0.0439 -0.7830  0.0238
  702MPD2    H110383   1.204   2.284  10.338 -0.1401 -1.4200 -0.6476
  702MPD2    H210384   0.968   1.971  10.470  0.3574  0.2537 -1.6495
  702MPD2    H310385   1.123   2.052  10.327  0.0003  0.0192  0.0634
  702MPD2     N10386   1.067   2.487  10.457 -0.6821  0.4316  0.1926
  702MPD2    H510387   1.137   2.515  10.389  0.6345 -0.5918  1.1294
  702MPD2    N110388   0.795   2.129  10.637  0.4023 -0.0883 -1.1828
  702MPD2    H710389   0.729   2.204  10.652 -1.6008 -1.6360 -2.2824
  703TMC3    C110390   1.017   2.718  10.464 -0.6620  0.1096  0.6999
  703TMC3    C210391   0.912   2.802  10.476  0.4655  0.9428 -0.1692
  703TMC3    C310392   0.910   2.903  10.387 -0.1730 -0.1788  0.5137
  703TMC3    C410393   1.126   2.734  10.380 -0.2386  0.1755 -0.9268
  703TMC3    C510394   1.124   2.831  10.290  0.7832 -0.6426 -0.1653
  703TMC3    C610395   1.013   2.922  10.290  0.1792  0.1955 -0.7989
  703TMC3     C10396   1.007   2.589  10.524  0.0991 -0.0029  0.5075
  703TMC3     O10397   0.943   2.578  10.626 -0.5458 -0.2831  0.2885
  703TMC3     H10398   0.839   2.773  10.551 -1.1315  0.7083 -1.7889
  703TMC3    H110399   1.214   2.673  10.394 -0.8288 -0.2935  0.7392
  703TMC3    H210400   1.002   2.990  10.206  0.2580  0.5874 -0.4915
  703TMC3    C710401   1.242   2.877  10.228 -0.1625  0.0298 -0.8312
  703TMC3    C810402   0.798   3.000  10.402  0.0413 -0.5867 -0.2018
  703TMC3    O110403   1.247   2.996  10.191  0.6900 -0.5063  0.6351
  703TMC3    O210404   0.817   3.104  10.342  0.3637  0.3813 -0.2530
  704TMC3    C110405   3.124   0.535  11.694  0.2908  0.5922  0.5205
  704TMC3    C210406   3.239   0.499  11.634 -0.0618  0.3455 -0.0618
  704TMC3    C310407   3.255   0.366  11.614 -0.4898 -0.1444 -0.0762
  704TMC3    C410408   3.024   0.453  11.744  0.6012  0.3532 -0.2974
  704TMC3    C510409   3.053   0.321  11.730  0.0301 -0.1725 -0.0359
  704TMC3    C610410   3.162   0.278  11.656  0.2072  0.4835 -0.4108
  704TMC3     C10411   3.087   0.674  11.702 -0.1699 -0.2626 -0.3577
  704TMC3     O10412   2.977   0.703  11.662  0.2254  0.0800  0.8450
  704TMC3     H10413   3.319   0.566  11.605  1.8535 -1.2907  1.4344
  704TMC3    H110414   2.928   0.488  11.781  1.0028  0.3536  0.7451
  704TMC3    H210415   3.182   0.178  11.621 -2.2612  0.1346 -0.8144
  704TMC3    C710416   3.013   0.227  11.830  0.8008 -0.6947  0.0944
  704TMC3    C810417   3.385   0.309  11.578 -0.1614  0.6298 -0.4155
  704TMC3    O110418   3.052   0.114  11.804 -0.1094  0.3396 -0.2777
  704TMC3    O210419   3.401   0.192  11.615 -0.3468 -0.2742 -0.3253
  705MPD2     C10420   2.156   2.944  16.476 -0.1191 -1.2251 -0.3791
  705MPD2    C110421   2.212   3.064  16.498  0.0681  0.5036  0.1635
  705MPD2    C210422   2.161   3.143  16.604 -0.4687 -0.1948 -0.7963
  705MPD2    C310423   2.052   3.099  16.683 -0.4990  0.6310 -0.1432
  705MPD2    C410424   1.995   2.979  16.660  0.1657  0.0102 -0.1834
  705MPD2    C510425   2.050   2.903  16.554 -0.1083 -0.6439 -0.1525
  705MPD2     H10426   2.215   3.235  16.623 -1.9124  0.8569 -1.7662
  705MPD2    H110427   1.919   2.933  16.722  0.8082 -1.0797 -0.2002
  705MPD2    H210428   2.199   2.875  16.403  1.6744  1.7771 -2.1620
  705MPD2    H310429   2.010   2.804  16.539 -0.0712 -0.9295  1.5621
  705MPD2     N10430   2.002   3.179  16.792  0.3342 -0.2786  0.8050
  705MPD2    H510431   1.938   3.136  16.858  1.8609 -1.7327  1.3215
  705MPD2    N110432   2.311   3.113  16.407 -0.4615  0.1305 -0.4707
  705MPD2    H710433   2.363   3.198  16.427 -0.7416  0.4152 -0.9521
  706TMC3    C110434   2.662   3.059  16.076  0.0396 -0.5624  0.4667
  706TMC3    C210435   2.685   3.193  16.072 -0.3093 -0.1594  0.1778
  706TMC3    C310436   2.612   3.271  16.156  0.0120 -0.5442 -0.7412
  706TMC3    C410437   2.569   3.000  16.158  0.2110 -0.3022 -0.0162
  706TMC3    C510438   2.486   3.093  16.235 -0.1938 -0.1317 -0.3365
  706TMC3    C610439   2.514   3.227  16.235  0.3276 -0.0040 -0.0259
  706TMC3     C10440   2.750   2.981  15.986 -0.2135  0.0726  0.2722
  706TMC3     O10441   2.852   3.030  15.932 -0.1453  0.6660  0.1994
  706TMC3     H10442   2.762   3.230  16.005 -0.7741 -1.8219 -1.2650
  706TMC3    H110443   2.557   2.893  16.169 -0.4731 -0.1108  1.0684
  706TMC3    H210444   2.454   3.300  16.288  1.1204  0.8889 -0.3743
  706TMC3    C710445   2.355   3.043  16.292  0.5619  0.0763 -0.3266
  706TMC3    C810446   2.650   3.412  16.163  0.1237 -0.1029  0.8297
  706TMC3    O110447   2.302   2.959  16.222 -0.0379  0.6736  0.4721
  706TMC3    O210448   2.698   3.461  16.066 -0.1306 -0.3404 -0.4830
  707TMC3    C110449   0.067   2.918   1.712 -0.1241 -1.0136 -0.0312
  707TMC3    C210450   0.039   2.805   1.786 -0.0805 -0.0950 -0.0175
  707TMC3    C310451   4.688   2.812   1.895  0.6610  0.0856  0.2079
  707TMC3    C410452   0.016   3.043   1.744 -0.3913 -0.2501  0.7725
  707TMC3    C510453   4.667   3.047   1.852 -0.2634 -0.1661  0.2122
  707TMC3    C610454   4.631   2.933   1.930 -0.2175  0.3971 -0.7605
  707TMC3     C10455   0.131   2.889   1.589  0.7709  0.3738 -0.0526
  707TMC3     O10456   0.245   2.849   1.595 -0.6156  0.4686  0.0053
  707TMC3     H10457   0.091   2.715   1.754  2.6028  1.8337 -1.0954
  707TMC3    H110458   0.035   3.124   1.674  0.3016 -2.1401 -1.2559
  707TMC3    H210459   4.579   2.946   2.024 -1.3572 -0.6985 -1.2488
  707TMC3    C710460   4.632   3.177   1.910  0.1015 -0.1380 -0.5419
  707TMC3    C810461   4.649   2.694   1.970  0.0190  0.0353 -0.1743
  707TMC3    O110462   4.543   3.185   1.992  0.0135  0.4425 -0.0027
  707TMC3    O210463   4.568   2.704   2.057  0.0966  0.2138 -0.6583
  708MPD2     C10464   1.483   1.218  13.917  0.2814  0.1319 -0.3667
  708MPD2    C110465   1.376   1.205  13.833  0.0933 -0.2079  0.0996
  708MPD2    C210466   1.251   1.168  13.877 -0.5537  0.9843  0.0704
  708MPD2    C310467   1.232   1.160  14.015 -0.0943 -0.0121 -0.9863
  708MPD2    C410468   1.341   1.172  14.100 -0.1008  0.3404  0.4317
  708MPD2    C510469   1.463   1.200  14.048  0.2500  0.7716  0.0096
  708MPD2     H10470   1.168   1.181  13.809 -0.9838 -0.8936  0.2255
  708MPD2    H110471   1.333   1.158  14.207 -0.7082 -1.8919  0.0950
  708MPD2    H210472   1.575   1.259  13.878  1.0514 -1.2645 -0.0401
  708MPD2    H310473   1.538   1.233  14.118  2.2087 -1.9717 -0.7799
  708MPD2     N10474   1.102   1.119  14.070  0.3755 -0.3195 -0.9074
  708MPD2    H510475   1.111   1.105  14.170 -1.6837 -0.1270 -0.7004
  708MPD2    N110476   1.373   1.232  13.696 -0.6337  0.4156  0.0918
  708MPD2    H710477   1.292   1.205  13.640 -1.3270  0.4117  1.1035
  709TMC3    C110478   1.422   1.336  13.501 -0.2477  0.5996 -0.9556
  709TMC3    C210479   1.444   1.461  13.458 -0.3170 -0.0564  0.1337
  709TMC3    C310480   1.349   1.506  13.368  0.5174  0.4031  0.2043
  709TMC3    C410481   1.315   1.260  13.456  0.0329  0.4139  0.9733
  709TMC3    C510482   1.218   1.321  13.382  1.3655 -0.6100  0.5777
  709TMC3    C610483   1.235   1.446  13.327 -0.0750 -0.0648  0.0977
  709TMC3     C10484   1.471   1.307  13.631  0.4969  0.2612 -0.4076
  709TMC3     O10485   1.557   1.383  13.680  0.7514  0.7282  0.5615
  709TMC3     H10486   1.534   1.513  13.488 -1.1322  0.7604  1.1372
  709TMC3    H110487   1.312   1.153  13.475 -1.5482  0.3693  0.4934
  709TMC3    H210488   1.154   1.503  13.283  0.9365  1.0206 -0.3538
  709TMC3    C710489   1.099   1.302  13.460 -0.1718  0.5072  0.1840
  709TMC3    C810490   1.401   1.624  13.290 -0.1724  0.1235  0.4806
  709TMC3    O110491   1.107   1.205  13.531  0.0802 -0.2829  0.3040
  709TMC3    O210492   1.485   1.694  13.344 -0.4809  0.1051  0.1029
  710TMC3    C110493   1.831   2.769   0.493  0.3339 -0.3308  0.3717
  710TMC3    C210494   1.935   2.846   0.456  0.3508 -0.0542 -0.0857
  710TMC3    C310495   2.053   2.781   0.430 -0.5722  0.1346 -0.0372
  710TMC3    C410496   1.842   2.635   0.503  0.0178  0.2450  0.7103
  710TMC3    C510497   1.962   2.570   0.482 -0.7916 -0.0199 -0.2482
  710TMC3    C610498   2.074   2.649   0.452  0.6628  0.1374 -0.5364
  710TMC3     C10499   1.720   2.831   0.556  0.2062 -0.3147 -0.9615
  710TMC3     O10500   1.643   2.755   0.612  0.0628  0.2308 -0.1188
  710TMC3     H10501   1.920   2.952   0.437  1.4874 -0.2143 -1.8314
  710TMC3    H110502   1.761   2.569   0.530  0.1667 -0.2438 -0.0175
  710TMC3    H210503   2.171   2.606   0.428  0.4313  0.5458 -2.2279
  710TMC3    C710504   1.985   2.446   0.556 -0.2394 -0.4925 -0.1479
  710TMC3    C810505   2.130   2.851   0.326  0.9629 -0.2947 -0.4183
  710TMC3    O110506   1.897   2.403   0.630  0.4682  0.0864  0.1719
  710TMC3    O210507   2.180   2.790   0.234 -0.2912  0.0994 -0.0025
  711TMC3    C110508   1.636   3.902  15.275 -0.3021  0.1603 -0.4046
  711TMC3    C210509   1.666   3.996  15.370  0.1293  0.7565  0.7716
  711TMC3    C310510   1.746   3.955  15.476  0.3164 -0.1879 -0.4918
  711TMC3    C410511   1.693   3.782  15.270 -0.3809  0.2790  0.0943
  711TMC3    C510512   1.769   3.744  15.378 -0.1007 -0.2298  0.3580
  711TMC3    C610513   1.791   3.829  15.484  0.9263  0.4009  0.4112
  711TMC3     C10514   1.515   3.908  15.201 -0.1820  0.0740 -0.4605
  711TMC3     O10515   1.495   3.833  15.108  0.1001 -0.5302  0.1208
  711TMC3     H10516   1.627   4.097  15.374 -0.4422  0.5379  0.7436
  711TMC3    H110517   1.664   3.705  15.199  1.6126  0.4919 -0.9469
  711TMC3    H210518   1.827   3.797  15.581 -2.9257 -0.2195  1.6414
  711TMC3    C710519   1.841   3.614  15.380  0.2787 -0.1787 -0.6923
  711TMC3    C810520   1.768   4.044  15.585  0.3727  0.1597 -0.1704
  711TMC3    O110521   1.938   3.615  15.461  0.3007  0.5543 -0.5553
  711TMC3    O210522   1.669   4.121  15.604  0.3003 -0.3867 -0.3685
  712MPD2     C10523   3.404   0.780  14.051 -0.0298 -0.3325 -0.0985
  712MPD2    C110524   3.376   0.722  13.925 -1.0372 -0.3091 -0.4063
  712MPD2    C210525   3.421   0.796  13.812 -0.7128  0.2576 -0.2577
  712MPD2    C310526   3.463   0.926  13.829  0.3185  0.0731  0.0574
  712MPD2    C410527   3.497   0.968  13.951 -0.0601 -0.0099 -0.1243
  712MPD2    C510528   3.464   0.901  14.067 -0.0252  0.0230 -0.3655
  712MPD2     H10529   3.418   0.753  13.713  2.2606  1.0972 -0.7020
  712MPD2    H110530   3.538   1.067  13.965 -1.7046  0.6710 -0.1320
  712MPD2    H210531   3.377   0.735  14.146 -1.0222  0.5969  0.0569
  712MPD2    H310532   3.488   0.952  14.160  0.3333  1.5303 -1.2911
  712MPD2     N10533   3.502   1.020  13.728 -0.0175 -0.1927 -0.0880
  712MPD2    H510534   3.524   1.113  13.765 -0.3595 -1.2991  2.9504
  712MPD2    N110535   3.326   0.592  13.911 -0.5082  0.4156  0.1440
  712MPD2    H710536   3.321   0.560  13.816  0.5731 -1.4413  0.7148
  713TMC3    C110537   3.525   1.125  13.527  0.2732  0.3631  0.5475
  713TMC3    C210538   3.645   1.177  13.565  0.4217 -0.4608 -0.1991
  713TMC3    C310539   3.697   1.286  13.497  0.2233  0.3149  0.1232
  713TMC3    C410540   3.445   1.180  13.431  0.1638  0.0564  0.6417
  713TMC3    C510541   3.490   1.298  13.372  0.0329 -0.1739 -0.4920
  713TMC3    C610542   3.615   1.350  13.405  0.3271 -1.2711  0.0904
  713TMC3     C10543   3.469   1.011  13.595 -0.5369  0.3541  0.0799
  713TMC3     O10544   3.430   0.916  13.526  0.6014 -0.2716 -0.1708
  713TMC3     H10545   3.699   1.137  13.650 -0.5560 -1.9873 -0.3031
  713TMC3    H110546   3.354   1.124  13.412  0.6525 -0.2348 -0.8962
  713TMC3    H210547   3.651   1.437  13.351 -1.3260 -0.1933  0.7322
  713TMC3    C710548   3.430   1.349  13.252  0.0466  1.1469  0.4678
  713TMC3    C810549   3.816   1.351  13.541  0.3471  0.2074 -0.5556
  713TMC3    O110550   3.499   1.405  13.176 -0.1408 -0.3151  0.0401
  713TMC3    O210551   3.825   1.470  13.516  0.0538  0.2355 -0.4116
  714MPD2     C10552   1.003   4.328   1.614  0.0067 -0.2072  0.1898
  714MPD2    C110553   0.985   4.222   1.536 -0.1927 -0.2661 -0.5286
  714MPD2    C210554   0.858   4.188   1.491  0.2517 -0.5399  0.1242
  714MPD2    C310555   0.746   4.249   1.535  0.2508 -0.1105 -0.0181
  714MPD2    C410556   0.768   4.358   1.623 -0.4745 -0.0512  0.2476
  714MPD2    C510557   0.896   4.394   1.655 -0.2209  0.5997  0.3957
  714MPD2     H10558   0.840   4.108   1.420 -1.3250  0.0150 -0.0941
  714MPD2    H110559   0.688   4.421   1.660 -0.0785  1.0105 -0.7116
  714MPD2    H210560   1.104   4.354   1.642 -0.4752  1.7293  0.1849
  714MPD2    H310561   0.909   4.483   1.716  0.0376  0.4074  0.6220
  714MPD2     N10562   0.624   4.197   1.508  0.0902 -0.0234 -0.6264
  714MPD2    H510563   0.625   4.116   1.447  0.0985 -0.9097  0.5526
  714MPD2    N110564   1.105   4.167   1.487 -0.6836  0.1754  0.1183
  714MPD2    H710565   1.190   4.208   1.524  0.6084 -0.1658 -2.5093
  715TMC3    C110566   1.258   4.009   1.386 -0.0534  0.7068 -0.2850
  715TMC3    C210567   1.275   3.875   1.356  0.3950 -0.4238  1.1778
  715TMC3    C310568   1.394   3.832   1.312 -0.1762  0.3028 -0.7173
  715TMC3    C410569   1.359   4.096   1.373  0.0979  0.1460 -0.5320
  715TMC3    C510570   1.477   4.054   1.329  0.4024 -0.2168 -0.1415
  715TMC3    C610571   1.496   3.925   1.301 -0.0205  0.5792  0.2166
  715TMC3     C10572   1.119   4.053   1.408 -0.3175  0.7592  0.1562
  715TMC3     O10573   1.034   3.970   1.381  0.2303 -0.3268  0.2944
  715TMC3     H10574   1.199   3.799   1.367  0.5144 -0.4601  1.7908
  715TMC3    H110575   1.338   4.203   1.372  0.1064  0.1776  2.7782
  715TMC3    H210576   1.595   3.894   1.269  0.2292  1.1788  0.4050
  715TMC3    C710577   1.590   4.145   1.337 -0.5969 -0.5608 -0.0465
  715TMC3    C810578   1.417   3.686   1.280  0.3626  0.6968  0.9447
  715TMC3    O110579   1.691   4.110   1.275  0.0067 -0.2696  0.3342
  715TMC3    O210580   1.323   3.617   1.237  0.3129 -0.6429  0.0325
  716MPD2     C10581   0.672   2.030  10.055 -0.4269  0.4032 -0.2018
  716MPD2    C110582   0.692   1.954   9.947 -0.2219 -0.5279  0.1416
  716MPD2    C210583   0.809   1.878   9.946 -0.3212 -0.0303  0.2672
  716MPD2    C310584   0.897   1.870  10.054 -0.4920  0.2579  0.1910
  716MPD2    C410585   0.873   1.944  10.166  0.0464  0.3339 -0.0817
  716MPD2    C510586   0.765   2.029  10.158  0.1783  0.6095 -0.4147
  716MPD2     H10587   0.836   1.822   9.857 -1.9388  0.9981 -0.8825
  716MPD2    H110588   0.934   1.936  10.255 -3.0664  0.3390  2.0735
  716MPD2    H210589   0.577   2.082  10.066  0.9260  2.4892  1.5317
  716MPD2    H310590   0.753   2.095  10.243  0.3787 -0.1282  0.1940
  716MPD2     N10591   1.001   1.773  10.038 -0.7840 -0.4817  0.2393
  716MPD2    H510592   1.016   1.720   9.953  0.7499  0.1108  0.1404
  716MPD2    N110593   0.598   1.953   9.842 -0.0366 -0.0977 -0.2174
  716MPD2    H710594   0.512   2.004   9.860  1.1093  1.1777  1.6545
  717TMC3    C110595   1.177   1.653  10.072 -0.2796 -0.1204 -0.1257
  717TMC3    C210596   1.123   1.569   9.976  0.3307 -0.3184 -0.3601
  717TMC3    C310597   1.200   1.497   9.893 -0.1590 -0.0530  0.1601
  717TMC3    C410598   1.312   1.663  10.087 -0.5779 -0.4827 -0.0652
  717TMC3    C510599   1.383   1.575  10.010  0.5405 -0.2891 -0.1412
  717TMC3    C610600   1.336   1.494   9.914  0.8156  0.8297 -0.2366
  717TMC3     C10601   1.099   1.757  10.129 -0.2946  0.2750  0.4578
  717TMC3     O10602   1.136   1.831  10.215 -0.4899  0.0873  1.0269
  717TMC3     H10603   1.019   1.539   9.977  0.2720 -0.1017  0.9341
  717TMC3    H110604   1.349   1.723  10.169 -1.2164 -1.0449  0.6324
  717TMC3    H210605   1.403   1.429   9.859  0.9523  0.8337 -0.0743
  717TMC3    C710606   1.508   1.517  10.062 -0.0854  0.5365 -0.0312
  717TMC3    C810607   1.138   1.456   9.766  1.1701 -0.0027 -0.2379
  717TMC3    O110608   1.537   1.407  10.023  0.1751  0.0555  0.3677
  717TMC3    O210609   1.024   1.495   9.757  0.2316 -0.3264  0.0873
  718MPD2     C10610   0.531   0.609  12.909 -0.3500 -0.3603 -0.7220
  718MPD2    C110611   0.410   0.667  12.916  0.0169 -0.2908  0.9398
  718MPD2    C210612   0.299   0.595  12.869  0.4977  0.2984 -0.0349
  718MPD2    C310613   0.309   0.467  12.821 -0.7418  0.0118  0.2461
  718MPD2    C410614   0.441   0.415  12.811 -0.2388  0.4034  0.0689
  718MPD2    C510615   0.546   0.492  12.853  0.6782 -0.0250 -0.2531
  718MPD2     H10616   0.201   0.642  12.869  1.5415  2.5128  2.4852
  718MPD2    H110617   0.462   0.322  12.760  0.7815 -0.0265  1.2546
  718MPD2    H210618   0.622   0.653  12.947 -0.9029 -0.5312  0.8257
  718MPD2    H310619   0.651   0.466  12.841  0.1457 -2.4847  0.4650
  718MPD2     N10620   0.195   0.407  12.764 -0.6392  0.3883  0.2756
  718MPD2    H510621   0.110   0.464  12.763 -0.9518 -0.1066 -1.3971
  718MPD2    N110622   0.389   0.790  12.977  0.8572  0.1742 -0.6926
  718MPD2    H710623   0.293   0.822  12.987  1.0206  0.4718 -0.0152
  719TMC3    C110624   0.421   1.020  13.015 -0.1423  1.1251  0.9897
  719TMC3    C210625   0.285   1.002  13.051  0.2973 -0.1128  0.6103
  719TMC3    C310626   0.182   1.070  12.988 -0.7292  0.6549 -0.1705
  719TMC3    C410627   0.447   1.117  12.927  0.1870 -0.4870 -0.2099
  719TMC3    C510628   0.344   1.195  12.874  0.0283 -0.3307 -0.7577
  719TMC3    C610629   0.209   1.175  12.903  0.1469  0.3696 -0.0544
  719TMC3     C10630   0.485   0.891  12.991 -0.5931 -0.6936  0.1968
  719TMC3     O10631   0.603   0.883  12.953  0.2867  0.6006  0.1484
  719TMC3     H10632   0.260   0.927  13.125 -1.4678 -2.1561 -2.0623
  719TMC3    H110633   0.552   1.136  12.906  0.2752  1.3617  1.9831
  719TMC3    H210634   0.136   1.229  12.845 -0.0074 -1.1541 -1.2678
  719TMC3    C710635   0.375   1.319  12.808 -0.0680  0.1317  0.3434
  719TMC3    C810636   0.084   0.976  12.949 -0.3500 -0.0132 -0.8898
  719TMC3    O110637   0.289   1.407  12.794  0.3171  0.4469  0.1942
  719TMC3    O210638   0.119   0.859  12.958 -0.4792  0.0104  1.2559
  720MPD2     C10639   2.664   2.698  14.131  0.0815  0.1062 -0.1219
  720MPD2    C110640   2.752   2.652  14.035 -0.2899  0.0227  0.5177
  720MPD2    C210641   2.846   2.556  14.066 -0.4694  1.0262 -0.2387
  720MPD2    C310642   2.866   2.511  14.196 -0.2891 -0.1856  1.0289
  720MPD2    C410643   2.771   2.547  14.291 -0.2331 -0.4093 -0.0689
  720MPD2    C510644   2.677   2.636  14.256  0.0870  0.2120  0.5806
  720MPD2     H10645   2.917   2.517  13.995  0.0714  0.0577  0.8462
  720MPD2    H110646   2.771   2.518  14.395  2.6230 -0.9549 -0.2420
  720MPD2    H210647   2.575   2.756  14.114  0.5060  0.5920 -0.7053
  720MPD2    H310648   2.607   2.664  14.334  0.4783 -0.6900  1.2545
  720MPD2     N10649   2.977   2.430  14.227  0.2504 -0.8451 -0.4756
  720MPD2    H510650   3.031   2.388  14.152  0.1568  0.3301 -1.2134
  720MPD2    N110651   2.737   2.684  13.895 -0.4811 -0.0177  0.4989
  720MPD2    H710652   2.786   2.624  13.829  1.0759  0.1312  1.5331
  721TMC3    C110653   3.150   2.346  14.365 -0.4464  0.5082  0.0283
  721TMC3    C210654   3.196   2.327  14.489 -0.4684 -0.3339  0.1196
  721TMC3    C310655   3.332   2.328  14.515 -0.0791  0.0512  0.3015
  721TMC3    C410656   3.243   2.356  14.265 -0.2930  0.4632  0.8385
  721TMC3    C510657   3.380   2.342  14.285  0.3281 -1.0021  0.4036
  721TMC3    C610658   3.423   2.319  14.412 -0.1304 -0.2659  0.3708
  721TMC3     C10659   3.017   2.413  14.357  0.5195 -0.6173  0.7141
  721TMC3     O10660   2.977   2.451  14.467 -0.4426  0.3745  0.2005
  721TMC3     H10661   3.123   2.319  14.569  0.8544 -1.7958  1.1964
  721TMC3    H110662   3.207   2.371  14.164  1.4434 -0.2057  0.1154
  721TMC3    H210663   3.530   2.322  14.431 -0.1493  2.3486  0.1340
  721TMC3    C710664   3.479   2.391  14.189  0.7391 -0.2041 -0.0843
  721TMC3    C810665   3.366   2.333  14.658  0.4424 -0.1599  0.4960
  721TMC3    O110666   3.595   2.354  14.210  0.0185  0.2977 -0.0987
  721TMC3    O210667   3.285   2.299  14.743 -0.9277 -0.3669 -0.0610
  722MPD2     C10668   2.317   0.967  13.433 -0.6059  0.1162  0.8738
  722MPD2    C110669   2.251   1.052  13.346  0.1707  0.4774 -0.8695
  722MPD2    C210670   2.113   1.036  13.338 -0.0113  0.0832 -0.3664
  722MPD2    C310671   2.047   0.934  13.396  0.3589 -0.1982  0.2845
  722MPD2    C410672   2.114   0.855  13.484  0.5260  0.4889  0.5755
  722MPD2    C510673   2.248   0.874  13.508 -0.5934 -0.6096  0.8627
  722MPD2     H10674   2.063   1.098  13.265 -0.7579 -0.9318 -0.7149
  722MPD2    H110675   2.066   0.766  13.523  0.8525 -0.0522 -0.2555
  722MPD2    H210676   2.426   0.963  13.435 -0.7852 -4.4562  1.0381
  722MPD2    H310677   2.299   0.804  13.573  2.2072  1.0409  0.4351
  722MPD2     N10678   1.907   0.929  13.377 -0.0039  0.2945 -0.1742
  722MPD2    H510679   1.877   0.994  13.305 -1.3335  0.6189  0.6702
  722MPD2    N110680   2.311   1.144  13.258  0.2175 -1.2475 -0.1608
  722MPD2    H710681   2.252   1.197  13.195  0.1064 -3.2384 -1.7181
  723TMC3    C110682   1.677   0.863  13.369  0.1159 -0.0383 -0.1838
  723TMC3    C210683   1.582   0.763  13.357 -0.0050  0.2191 -0.7892
  723TMC3    C310684   1.461   0.792  13.301  0.2471 -0.1708 -0.6609
  723TMC3    C410685   1.647   0.999  13.338 -0.7879 -0.2455 -1.1472
  723TMC3    C510686   1.520   1.019  13.283 -0.6053  0.1466  0.4074
  723TMC3    C610687   1.426   0.921  13.260  0.3595  0.0562 -0.0479
  723TMC3     C10688   1.811   0.837  13.423 -0.1595  0.0298 -0.1839
  723TMC3     O10689   1.831   0.736  13.494  0.0250  0.0243 -0.3258
  723TMC3     H10690   1.601   0.666  13.401 -0.4945  0.3751 -0.2368
  723TMC3    H110691   1.715   1.081  13.359 -2.2694  0.4810  0.8886
  723TMC3    H210692   1.336   0.939  13.203  0.1638 -0.7557  0.0103
  723TMC3    C710693   1.517   1.135  13.187 -0.4796  0.1132 -0.3325
  723TMC3    C810694   1.360   0.688  13.288 -0.1355  0.2383  0.6561
  723TMC3    O110695   1.455   1.123  13.079  0.0266 -0.5815  0.3986
  723TMC3    O210696   1.243   0.721  13.288 -0.1434  0.1770 -0.1326
  724TMC3    C110697   2.175   4.455   9.671 -0.0147  1.1039  0.2648
  724TMC3    C210698   2.217   4.363   9.763 -0.7639 -0.2607  0.7306
  724TMC3    C310699   2.332   4.300   9.743  0.6349 -0.6144  0.1358
  724TMC3    C410700   2.250   4.469   9.555 -0.4383  0.3598 -0.0610
  724TMC3    C510701   2.364   4.397   9.537 -0.3842  0.1857  0.6923
  724TMC3    C610702   2.402   4.301   9.625 -0.5859 -0.0077  0.4159
  724TMC3     C10703   2.046   4.527   9.684  0.8276 -0.0750  0.0577
  724TMC3     O10704   2.037   4.637   9.633 -0.3156  0.4713  0.1699
  724TMC3     H10705   2.203   4.389   9.867  1.5884  0.0001  0.9661
  724TMC3    H110706   2.234   4.553   9.487 -0.0278  1.0548  0.6984
  724TMC3    H210707   2.491   4.242   9.604  0.3310  1.8904 -1.0568
  724TMC3    C710708   2.483   4.480   9.502 -0.1118  0.0162 -0.0243
  724TMC3    C810709   2.413   4.304   9.865 -0.4884  0.8668  0.3191
  724TMC3    O110710   2.568   4.460   9.585  0.2287 -0.1741 -0.3858
  724TMC3    O210711   2.370   4.256   9.972  0.1762 -0.2536  0.3867
  725TMC3    C110712   3.690   2.790  13.278  0.2299 -0.7375  0.3233
  725TMC3    C210713   3.590   2.762  13.192 -0.5746 -0.1096 -0.0671
  725TMC3    C310714   3.617   2.740  13.058 -0.2541  0.1621 -0.3616
  725TMC3    C410715   3.818   2.769  13.238 -0.6960 -0.2338  0.7147
  725TMC3    C510716   3.847   2.736  13.109 -0.4051  0.0579  0.3532
  725TMC3    C610717   3.745   2.726  13.014  0.6580 -0.8779  0.2081
  725TMC3     C10718   3.679   2.839  13.419  0.3614 -0.0824  0.5154
  725TMC3     O10719   3.586   2.803  13.488 -0.1078  0.0106  0.2922
  725TMC3     H10720   3.485   2.755  13.219 -0.8195 -0.4452 -1.0677
  725TMC3    H110721   3.899   2.799  13.303 -1.2887  0.3476  1.1904
  725TMC3    H210722   3.770   2.689  12.915  2.5232  0.3214  0.2238
  725TMC3    C710723   3.982   2.706  13.067  0.2997 -0.6859  0.5659
  725TMC3    C810724   3.501   2.737  12.969  0.1983 -0.0634 -1.1134
  725TMC3    O110725   3.996   2.715  12.946 -0.2837  0.2062 -0.6459
  725TMC3    O210726   3.388   2.695  12.997  0.2151  0.5803 -0.0621
  726MPD2     C10727   1.756   4.630  10.662  0.0051  0.8702 -0.7551
  726MPD2    C110728   1.663   4.593  10.563  0.1751  0.7114  0.0963
  726MPD2    C210729   1.555   4.525  10.600 -0.0466  0.6808  0.2329
  726MPD2    C310730   1.541   4.490  10.732  0.6094 -0.1985  0.9272
  726MPD2    C410731   1.625   4.539  10.830  0.5648  0.1506 -0.7270
  726MPD2    C510732   1.738   4.601  10.793 -0.4010 -0.8292  0.2619
  726MPD2     H10733   1.485   4.491  10.524 -0.4864  3.3678 -0.5955
  726MPD2    H110734   1.623   4.501  10.932 -2.2907 -2.0983 -1.6010
  726MPD2    H210735   1.847   4.685  10.640 -0.3683  1.3188 -1.1763
  726MPD2    H310736   1.815   4.615  10.868  0.6105  1.0350 -1.1276
  726MPD2     N10737   1.441   4.399  10.766  0.1185 -0.1011 -0.3253
  726MPD2    H510738   1.435   4.377  10.865 -0.3314 -0.9087 -0.5320
  726MPD2    N110739   1.680   4.636  10.429 -0.2258  0.3003 -0.0094
  726MPD2    H710740   1.595   4.637  10.372  0.0216 -2.8587 -0.4273
  727TMC3    C110741   1.785   0.026  10.234 -0.0952  0.1929  0.3958
  727TMC3    C210742   1.891   0.106  10.199  0.5152 -0.4174 -0.4217
  727TMC3    C310743   1.877   0.222  10.130 -0.2178 -0.0260  0.1787
  727TMC3    C410744   1.664   0.062  10.187  0.5286  0.4726 -0.4435
  727TMC3    C510745   1.651   0.176  10.114 -0.3002  0.1379  0.3146
  727TMC3    C610746   1.753   0.253  10.082 -0.1131 -0.2665  0.2099
  727TMC3     C10747   1.799   4.676  10.370  0.0535 -0.1706  0.3376
  727TMC3     O10748   1.913   4.649  10.411 -0.0267  0.1363 -0.2491
  727TMC3     H10749   1.987   0.078  10.240 -0.2773  0.2145  1.9210
  727TMC3    H110750   1.573   0.012  10.218  0.7175 -0.8055 -1.9778
  727TMC3    H210751   1.731   0.349  10.036 -0.2803 -1.1146 -1.4934
  727TMC3    C710752   1.520   0.234  10.112 -0.7514 -0.0058 -0.0037
  727TMC3    C810753   1.993   0.321  10.147  0.5455 -0.3392  0.3065
  727TMC3    O110754   1.436   0.191  10.186 -0.1670  0.0404 -0.5361
  727TMC3    O210755   2.055   0.306  10.253 -0.0068  0.4598 -0.0030
  728TMC3    C110756   0.513   2.740  15.229  0.2391 -0.2680 -0.4177
  728TMC3    C210757   0.590   2.757  15.338  0.2412 -0.5235  0.1952
  728TMC3    C310758   0.721   2.790  15.303  0.5381  0.2242  0.5812
  728TMC3    C410759   0.548   2.773  15.104 -0.1929  0.1405  0.1104
  728TMC3    C510760   0.672   2.818  15.078  0.4878  0.1244 -0.2340
  728TMC3    C610761   0.762   2.827  15.180  0.4996 -0.7221 -0.3332
  728TMC3     C10762   0.374   2.769  15.264 -0.2724 -0.1530  0.6670
  728TMC3     O10763   0.330   2.861  15.196 -0.2858 -0.5556  0.0067
  728TMC3     H10764   0.554   2.734  15.438  0.9653  3.4993  1.3749
  728TMC3    H110765   0.478   2.760  15.023  0.5832  0.0767 -0.5453
  728TMC3    H210766   0.862   2.856  15.151  0.7410 -0.2649  0.9671
  728TMC3    C710767   0.695   2.863  14.938 -0.5887  0.0031  0.5509
  728TMC3    C810768   0.814   2.781  15.409  0.1281 -0.1723 -0.2521
  728TMC3    O110769   0.616   2.822  14.853 -0.4996 -0.0016 -0.0245
  728TMC3    O210770   0.761   2.748  15.515 -0.4614  0.8460  0.0977
  729MPD2     C10771   3.114   4.119  16.791 -0.3965 -0.9538 -0.0308
  729MPD2    C110772   3.228   4.092  16.873  0.6263  0.2272 -0.0328
  729MPD2    C210773   3.211   4.104  17.011  0.3869  0.1684 -0.2545
  729MPD2    C310774   3.086   4.130  17.070 -0.5736  0.1743 -0.2189
  729MPD2    C410775   2.977   4.143  16.984 -0.0845  0.2154  0.4422
  729MPD2    C510776   2.992   4.131  16.850 -0.5016 -0.7833  0.4329
  729MPD2     H10777   3.291   4.084  17.082  1.5763  0.4705 -1.5074
  729MPD2    H110778   2.875   4.146  17.021  0.0811 -2.6809  1.1599
  729MPD2    H210779   3.124   4.106  16.684  1.2287 -1.4081  0.1712
  729MPD2    H310780   2.903   4.130  16.789  0.5896 -0.8029 -1.1355
  729MPD2     N10781   3.076   4.144  17.208 -0.5902  0.3670  0.0922
  729MPD2    H510782   3.165   4.128  17.254 -0.2829 -1.2246 -1.0759
  729MPD2    N110783   3.351   4.070  16.814 -0.1494  0.3280 -0.3266
  729MPD2    H710784   3.358   4.090  16.714 -1.0125  0.1591 -0.4275
  730TMC3    C110785   3.022   4.211  17.424 -0.3863  0.6222 -0.5405
  730TMC3    C210786   3.082   4.099  17.468 -0.1149 -0.2436 -0.0661
  730TMC3    C310787   3.142   4.106  17.591  0.3799  0.5490  0.4842
  730TMC3    C410788   3.011   4.327  17.490  0.5513  0.8268  0.6833
  730TMC3    C510789   3.074   4.333  17.606 -0.3119 -0.1657 -0.5066
  730TMC3    C610790   3.148   4.228  17.655  0.1211 -0.1361  0.3539
  730TMC3     C10791   2.983   4.212  17.280  0.4230 -0.3750 -0.3306
  730TMC3     O10792   2.889   4.281  17.237  0.0027  0.2096 -0.3726
  730TMC3     H10793   3.088   4.008  17.411  2.2226 -0.5852  0.7168
  730TMC3    H110794   2.962   4.415  17.450  0.3828  0.5673  0.3171
  730TMC3    H210795   3.202   4.243   0.050  2.6974 -1.5153 -0.9324
  730TMC3    C710796   3.120   4.462  17.646 -0.7776  0.0426 -0.0950
  730TMC3    C810797   3.231   3.997  17.625 -0.2442  0.7513  0.8514
  730TMC3    O110798   3.105   4.486   0.067  0.4419  0.3685 -0.1889
  730TMC3    O210799   3.227   3.887  17.570  0.5902 -0.0647 -0.3077
  731MPD2     C10800   3.400   2.548  12.089 -0.0820 -0.1867  0.2124
  731MPD2    C110801   3.490   2.451  12.124 -0.5843 -0.1565  0.5095
  731MPD2    C210802   3.480   2.386  12.253  0.1605 -0.0737  0.7838
  731MPD2    C310803   3.381   2.423  12.340 -0.6252  0.2984 -0.4213
  731MPD2    C410804   3.288   2.520  12.297  0.5159 -0.0526  0.0929
  731MPD2    C510805   3.303   2.588  12.177 -0.4004 -0.3521  0.4269
  731MPD2     H10806   3.557   2.322  12.295 -0.8289 -0.6673  1.6903
  731MPD2    H110807   3.204   2.560  12.354  0.4459  0.4425 -0.3549
  731MPD2    H210808   3.404   2.595  11.991  0.0459  2.6628  1.5883
  731MPD2    H310809   3.226   2.663  12.161 -1.8258 -1.9966 -0.4195
  731MPD2     N10810   3.375   2.364  12.468  0.6988  0.2709  0.2403
  731MPD2    H510811   3.463   2.319  12.492 -0.9601 -3.0723 -0.0476
  731MPD2    N110812   3.588   2.413  12.028  0.3382  0.5291 -0.0948
  731MPD2    H710813   3.577   2.457  11.937  1.1760 -0.9495 -0.8997
  732TMC3    C110814   3.761   2.283  11.923  0.0974 -0.8700 -0.3369
  732TMC3    C210815   3.688   2.239  11.816 -0.1626 -0.5255  0.3185
  732TMC3    C310816   3.768   2.190  11.714 -0.2958 -0.0102 -0.4674
  732TMC3    C410817   3.900   2.278  11.938  0.3096  0.1032  0.2886
  732TMC3    C510818   3.973   2.248  11.829  0.1673  0.1678 -0.1891
  732TMC3    C610819   3.903   2.193  11.724 -0.5231  0.2538 -0.0634
  732TMC3     C10820   3.682   2.316  12.045 -0.2475 -0.5357 -0.5710
  732TMC3     O10821   3.734   2.295  12.153 -0.0159 -0.1571  0.4445
  732TMC3     H10822   3.580   2.242  11.826 -0.3172  2.2533 -1.9369
  732TMC3    H110823   3.943   2.297  12.035 -1.1034  1.3378  0.6737
  732TMC3    H210824   3.952   2.135  11.646  0.9954  0.8903  0.4114
  732TMC3    C710825   4.113   2.208  11.834  0.2542  0.3051  1.1462
  732TMC3    C810826   3.705   2.100  11.613 -0.4777 -0.4422  1.1596
  732TMC3    O110827   4.148   2.115  11.759 -0.2995 -0.7513 -0.3633
  732TMC3    O210828   3.777   2.042  11.536 -0.4428 -0.8750  0.0291
  733TMC3    C110829   4.555   0.188  12.684 -0.1700 -0.0403 -0.6413
  733TMC3    C210830   4.688   0.168  12.711 -0.3339 -0.6517  0.2282
  733TMC3    C310831   0.047   0.254  12.649  0.2067  0.4925 -0.3880
  733TMC3    C410832   4.503   0.294  12.603 -0.3316  0.3312 -0.1499
  733TMC3    C510833   4.589   0.387  12.562  0.6012 -0.2870 -0.2124
  733TMC3    C610834   4.723   0.374  12.592 -0.1808  0.6085  0.1097
  733TMC3     C10835   4.467   0.149  12.799  0.2864  0.0255 -0.3470
  733TMC3     O10836   4.347   0.142  12.775  0.4254 -0.1919  0.5348
  733TMC3     H10837   0.000   0.083  12.768 -1.5362 -0.3179  1.4748
  733TMC3    H110838   4.397   0.310  12.583  0.0289  1.4125 -1.2286
  733TMC3    H210839   0.069   0.443  12.546 -0.9053  2.7304  2.2172
  733TMC3    C710840   4.524   0.519  12.562 -0.5799 -0.4201 -0.3507
  733TMC3    C810841   0.182   0.286  12.713  0.1921 -0.9622  0.5138
  733TMC3    O110842   4.405   0.529  12.532  0.1899 -0.1496 -0.0219
  733TMC3    O210843   0.257   0.186  12.730  0.9869 -0.3080 -0.0486
  734MPD2     C10844   1.683   3.099  12.440  0.1544  0.7329 -0.5834
  734MPD2    C110845   1.640   2.995  12.356  0.1410  0.3132  0.2864
  734MPD2    C210846   1.666   3.010  12.220 -0.0260  0.4926  0.6437
  734MPD2    C310847   1.719   3.129  12.164 -0.1662  0.2316 -0.1899
  734MPD2    C410848   1.781   3.214  12.256 -0.2047 -0.3614 -0.1858
  734MPD2    C510849   1.759   3.203  12.390 -0.0055 -0.0899  0.2741
  734MPD2     H10850   1.635   2.940  12.144  0.5702 -0.0467  0.9014
  734MPD2    H110851   1.831   3.305  12.224  0.7812 -0.6942  0.4323
  734MPD2    H210852   1.660   3.091  12.546  0.8399 -0.2265 -0.5146
  734MPD2    H310853   1.805   3.285  12.443 -0.8034 -0.2189  1.1645
  734MPD2     N10854   1.714   3.143  12.026  0.2391 -0.1424 -0.6322
  734MPD2    H510855   1.671   3.070  11.971 -0.4748 -0.1269 -0.1057
  734MPD2    N110856   1.565   2.884  12.408 -0.7626  0.3642  0.1296
  734MPD2    H710857   1.564   2.862  12.507  0.5655 -0.7839 -0.1131
  735TMC3    C110858   1.436   2.692  12.385  0.3785 -0.0997 -0.0682
  735TMC3    C210859   1.314   2.673  12.323  0.0825  0.6954 -0.0738
  735TMC3    C310860   1.290   2.550  12.258  0.1019 -0.6099 -0.0790
  735TMC3    C410861   1.520   2.585  12.412 -0.9921 -0.7206 -0.4596
  735TMC3    C510862   1.494   2.467  12.351 -0.3716 -0.3196 -0.1982
  735TMC3    C610863   1.381   2.450  12.278 -0.6138 -0.0714 -0.1554
  735TMC3     C10864   1.505   2.798  12.317  0.2025 -0.2597  0.2123
  735TMC3     O10865   1.460   2.815  12.204  0.5118  0.5846  0.1740
  735TMC3     H10866   1.240   2.749  12.303  1.1436  1.5517 -0.7113
  735TMC3    H110867   1.624   2.608  12.430 -1.4687 -0.4667  1.9521
  735TMC3    H210868   1.377   2.368  12.208  1.1819  0.5454 -0.9965
  735TMC3    C710869   1.605   2.402  12.297  0.6436 -0.6450 -1.1609
  735TMC3    C810870   1.236   2.553  12.122 -0.4693 -0.9418 -0.3742
  735TMC3    O110871   1.700   2.474  12.270 -0.5566 -0.2921 -0.0018
  735TMC3    O210872   1.199   2.452  12.065 -0.8808 -0.0309  0.2262
  736MPD2     C10873   1.654   2.035  12.234  0.2594  0.8536 -0.4688
  736MPD2    C110874   1.674   2.174  12.225 -0.5670 -0.3761  0.3979
  736MPD2    C210875   1.779   2.219  12.157 -0.0066  0.8939  0.3642
  736MPD2    C310876   1.880   2.134  12.112  0.4269 -1.4204  0.2910
  736MPD2    C410877   1.855   1.996  12.123  0.5805  0.1982  0.2932
  736MPD2    C510878   1.744   1.946  12.188  0.4220  0.0848  0.0708
  736MPD2     H10879   1.802   2.323  12.140  1.3254  0.6916  0.9369
  736MPD2    H110880   1.933   1.927  12.092  1.0375  0.9575 -0.2585
  736MPD2    H210881   1.579   1.981  12.291 -0.5364  0.5530 -1.8115
  736MPD2    H310882   1.723   1.839  12.186 -1.8458  0.5603 -0.5015
  736MPD2     N10883   1.975   2.181  12.018  0.1409  0.0380 -0.7429
  736MPD2    H510884   2.022   2.114  11.959  0.9992 -1.3402  1.4892
  736MPD2    N110885   1.589   2.271  12.278  0.0481  0.2013  0.3945
  736MPD2    H710886   1.504   2.228  12.311  0.6775 -1.0582  0.3699
  737TMC3    C110887   2.095   2.314  11.872 -0.1288  0.5120 -0.1494
  737TMC3    C210888   2.096   2.430  11.803 -0.5632 -0.3665  0.2078
  737TMC3    C310889   2.188   2.430  11.692 -0.1629 -0.4879 -0.1594
  737TMC3    C410890   2.185   2.210  11.837 -0.3416 -0.2245 -0.4683
  737TMC3    C510891   2.280   2.229  11.744 -0.2276  0.4391 -0.7802
  737TMC3    C610892   2.285   2.343  11.674 -0.2026 -0.7382  0.4662
  737TMC3     C10893   2.014   2.307  11.988  0.1108  0.1159 -0.6596
  737TMC3     O10894   1.992   2.416  12.032  0.4360  0.2476  0.4657
  737TMC3     H10895   2.021   2.507  11.819 -0.2890 -0.1118  0.2871
  737TMC3    H110896   2.181   2.120  11.898 -0.3664 -0.0735 -0.2467
  737TMC3    H210897   2.358   2.358  11.595 -1.7732 -2.6572 -1.3720
  737TMC3    C710898   2.365   2.119  11.700  0.4848  0.4096 -0.2576
  737TMC3    C810899   2.211   2.563  11.639  0.0998  0.3037  0.3650
  737TMC3    O110900   2.355   2.014  11.763  0.3467 -0.2383  0.0663
  737TMC3    O210901   2.141   2.658  11.680 -0.0040 -0.2447  0.2365
  738MPD2     C10902   2.027   1.417  15.434 -0.1295  0.7451  0.1320
  738MPD2    C110903   2.022   1.353  15.316  0.2341  0.3175 -0.2364
  738MPD2    C210904   2.112   1.386  15.218 -1.0101 -0.0802 -0.5552
  738MPD2    C310905   2.194   1.500  15.233  0.4832 -0.0743  0.0647
  738MPD2    C410906   2.188   1.579  15.350 -0.1820  0.1183 -0.1130
  738MPD2    C510907   2.113   1.525  15.454 -0.6095 -0.0685 -0.5659
  738MPD2     H10908   2.097   1.325  15.130  1.3964 -0.9778 -0.3319
  738MPD2    H110909   2.245   1.671  15.355 -2.5999  1.5598  0.6343
  738MPD2    H210910   1.981   1.380  15.526 -0.9145  0.5842 -0.3248
  738MPD2    H310911   2.116   1.578  15.549 -0.8248  0.0064 -0.6015
  738MPD2     N10912   2.257   1.555  15.119 -0.0902  0.2521  0.2802
  738MPD2    H510913   2.297   1.648  15.130 -1.6128  0.4241  4.2434
  738MPD2    N110914   1.937   1.249  15.288 -0.2693  0.5476  0.0275
  738MPD2    H710915   1.943   1.206  15.197 -0.2728 -0.2560  0.4046
  739TMC3    C110916   2.343   1.577  14.908 -1.0389 -0.6441 -0.1374
  739TMC3    C210917   2.384   1.509  14.796 -0.4631  0.4628  0.3029
  739TMC3    C310918   2.425   1.587  14.698  0.5458 -0.0692 -0.7147
  739TMC3    C410919   2.372   1.709  14.930 -0.2364 -0.1103 -0.1139
  739TMC3    C510920   2.435   1.779  14.831 -0.6385 -0.4655 -0.2656
  739TMC3    C610921   2.461   1.721  14.712 -0.2378  0.6736 -0.1385
  739TMC3     C10922   2.276   1.489  15.003 -0.3055  0.2516  1.1899
  739TMC3     O10923   2.243   1.373  14.975 -0.1687  0.2150 -0.1096
  739TMC3     H10924   2.352   1.407  14.783  0.0856  0.1593  1.3256
  739TMC3    H110925   2.335   1.760  15.018  1.9377 -1.0187  1.3374
  739TMC3    H210926   2.503   1.768  14.623  0.6589  0.4184  0.1445
  739TMC3    C710927   2.519   1.888  14.879  0.1801  0.2342  0.2946
  739TMC3    C810928   2.472   1.525  14.577 -0.2830  0.0876 -0.2121
  739TMC3    O110929   2.492   1.949  14.981  0.2754 -0.1573  0.0995
  739TMC3    O210930   2.494   1.595  14.478  0.2177  0.4476  0.0734
  740TMC3    C110931   2.989   2.898  14.337 -0.1004  0.0961  0.2897
  740TMC3    C210932   3.064   2.860  14.450 -0.8506  0.1222  0.4837
  740TMC3    C310933   3.171   2.783  14.430  0.2264  0.2680  0.1368
  740TMC3    C410934   3.016   2.855  14.214 -0.4667  0.2558  0.3266
  740TMC3    C510935   3.113   2.761  14.198 -0.2885  0.7931  0.3996
  740TMC3    C610936   3.196   2.730  14.304  0.0056 -0.2868 -0.5392
  740TMC3     C10937   2.854   2.963  14.370  0.2721  0.0919 -0.8173
  740TMC3     O10938   2.796   3.028  14.287  0.0123  0.0700  0.1296
  740TMC3     H10939   3.031   2.894  14.547 -2.5261  1.4488 -0.5368
  740TMC3    H110940   2.938   2.864  14.139 -0.6471 -0.8124  0.3824
  740TMC3    H210941   3.278   2.663  14.282 -0.4960 -0.3443 -2.2726
  740TMC3    C710942   3.131   2.695  14.067  0.5389  0.1658 -0.8601
  740TMC3    C810943   3.258   2.729  14.533 -0.1099  0.4269  0.7735
  740TMC3    O110944   3.195   2.591  14.071 -0.0840  0.5574  0.0441
  740TMC3    O210945   3.353   2.652  14.511 -0.3272 -0.3303 -0.0096
  741TMC3    C110946   2.247   1.726  14.096 -0.1282  0.6271 -0.7516
  741TMC3    C210947   2.206   1.612  14.155 -0.4234  0.4629 -0.1949
  741TMC3    C310948   2.212   1.600  14.296 -0.2770  0.2537  0.3094
  741TMC3    C410949   2.276   1.838  14.171  0.7849 -0.5513  0.3585
  741TMC3    C510950   2.271   1.824  14.304  0.4898 -0.3714 -0.0864
  741TMC3    C610951   2.231   1.715  14.371  0.0371  1.0353 -0.3433
  741TMC3     C10952   2.244   1.730  13.954 -0.5504 -0.0043 -0.6380
  741TMC3     O10953   2.158   1.657  13.898 -0.1672  0.0353 -0.0058
  741TMC3     H10954   2.176   1.529  14.092 -2.9149 -0.0658  1.6435
  741TMC3    H110955   2.293   1.933  14.121  1.0857 -1.6741 -1.6690
  741TMC3    H210956   2.208   1.720  14.477 -0.0596 -1.6774 -0.2347
  741TMC3    C710957   2.329   1.925  14.393 -0.4779 -0.3362 -0.1503
  741TMC3    C810958   2.150   1.486  14.361  0.6486 -0.7885  0.0391
  741TMC3    O110959   2.274   1.937  14.504 -0.0485 -0.6556 -0.9176
  741TMC3    O210960   2.124   1.493  14.479 -0.1606  0.0474 -0.2148
  742TMC3    C110961   1.922   0.544  15.278  0.1614 -0.2200 -0.3871
  742TMC3    C210962   1.828   0.487  15.194  0.3436 -0.0910  0.9420
  742TMC3    C310963   1.868   0.397  15.102 -0.0701  0.5242  0.2403
  742TMC3    C410964   2.052   0.505  15.275  0.6555 -0.2575  0.3353
  742TMC3    C510965   2.089   0.402  15.189  0.0653  0.4154 -0.0109
  742TMC3    C610966   1.994   0.351  15.099 -0.7233 -0.2184  0.0009
  742TMC3     C10967   1.876   0.621  15.392  0.0712  0.0285 -0.5700
  742TMC3     O10968   1.762   0.598  15.429  0.4929 -0.0166 -0.0925
  742TMC3     H10969   1.726   0.522  15.204 -0.0756 -0.9382 -0.3454
  742TMC3    H110970   2.106   0.525  15.367 -1.7691  1.3049  1.4250
  742TMC3    H210971   2.036   0.276  15.033  0.8518  1.0517 -0.4283
  742TMC3    C710972   2.221   0.348  15.201 -0.2574  0.1214 -0.0452
  742TMC3    C810973   1.775   0.357  14.996 -0.2948  0.1730 -0.3412
  742TMC3    O110974   2.252   0.252  15.137 -0.8215 -0.3736 -0.2281
  742TMC3    O210975   1.799   0.266  14.924  0.0617 -0.3059  0.3689
  743MPD2     C10976   0.821   2.021   2.317  1.1023  0.5829  0.2726
  743MPD2    C110977   0.821   1.962   2.198  0.4471  0.0585 -0.0284
  743MPD2    C210978   0.930   1.916   2.138  0.0992 -0.6309 -0.2368
  743MPD2    C310979   1.049   1.941   2.198 -0.0575  0.6742 -0.5432
  743MPD2    C410980   1.053   2.007   2.321  0.4051  0.6402 -0.7774
  743MPD2    C510981   0.943   2.043   2.382  0.3727 -0.4932  0.0867
  743MPD2     H10982   0.928   1.874   2.039  0.9353 -1.1829 -0.0146
  743MPD2    H110983   1.147   2.037   2.366  0.0738 -0.2312  0.5001
  743MPD2    H210984   0.730   2.067   2.353 -0.2336 -2.3401  0.6567
  743MPD2    H310985   0.946   2.107   2.469  1.1612 -0.9157  0.3650
  743MPD2     N10986   1.161   1.898   2.131  0.0105  0.4520  0.1496
  743MPD2    H510987   1.148   1.873   2.034  0.4627 -0.3100  0.2848
  743MPD2    N110988   0.697   1.960   2.134 -0.0213  0.3761 -0.3248
  743MPD2    H710989   0.623   2.018   2.171  0.2428 -0.1380  1.0174
  744TMC3    C110990   0.536   1.901   1.972 -0.1197 -0.6282  0.8551
  744TMC3    C210991   0.470   2.016   1.987 -0.0005 -0.2000 -0.1384
  744TMC3    C310992   0.347   2.024   1.927 -0.2748 -0.1977 -0.0701
  744TMC3    C410993   0.485   1.791   1.905  0.1153  0.4842  0.2764
  744TMC3    C510994   0.367   1.810   1.837 -0.1964  0.1556  0.0725
  744TMC3    C610995   0.282   1.917   1.862  0.7863 -0.5414 -0.0132
  744TMC3     C10996   0.663   1.878   2.028 -0.0440  0.0694  0.0319
  744TMC3     O10997   0.720   1.774   1.998  0.3736 -0.2301 -0.4193
  744TMC3     H10998   0.516   2.107   2.025 -0.2602  0.4809 -1.4654
  744TMC3    H110999   0.545   1.702   1.890  0.5225  0.7239  0.4834
  744TMC3    H211000   0.198   1.934   1.795  0.9540  1.5840  0.2972
  744TMC3    C711001   0.341   1.719   1.725 -0.0318 -0.3824 -0.2593
  744TMC3    C811002   0.281   2.157   1.936 -0.0325 -0.8508 -0.1603
  744TMC3    O111003   0.308   1.764   1.615 -0.0982  0.0424  0.8716
  744TMC3    O211004   0.345   2.259   1.970 -0.3125  0.6366  0.5642
  745TMC3    C111005   3.215   0.385  13.975 -0.1653 -0.0221  0.5938
  745TMC3    C211006   3.137   0.318  14.067 -0.7894  0.4104  0.3716
  745TMC3    C311007   3.077   0.199  14.035  0.8398  0.4189 -0.2907
  745TMC3    C411008   3.223   0.342  13.849 -0.1552  0.3043 -0.6697
  745TMC3    C511009   3.175   0.214  13.820 -0.1525  0.0849  0.4971
  745TMC3    C611010   3.092   0.148  13.909 -0.3404 -0.3584 -0.2113
  745TMC3     C11011   3.260   0.524  14.011  0.0330 -0.2346 -0.3572
  745TMC3     O11012   3.247   0.553  14.128 -0.9884  1.2685  0.0401
  745TMC3     H11013   3.123   0.364  14.164 -0.6427 -0.5593  0.8596
  745TMC3    H111014   3.271   0.405  13.776 -1.1274 -1.6182 -2.9476
  745TMC3    H211015   3.043   0.058  13.873 -0.5395 -0.0977 -0.5993
  745TMC3    C711016   3.216   0.147  13.702  0.7491 -0.2761  0.1821
  745TMC3    C811017   2.977   0.142  14.125  0.4140 -0.1336 -0.5070
  745TMC3    O111018   3.153   0.057  13.649  0.1773 -0.0018 -0.3973
  745TMC3    O211019   2.868   0.115  14.076  0.1078 -0.2263  0.8974
  746TMC3    C111020   0.533   2.164  10.934 -0.5347  0.8333  0.8681
  746TMC3    C211021   0.640   2.143  10.844 -0.0663  0.0718 -0.4375
  746TMC3    C311022   0.655   2.025  10.782 -0.2151  0.3485  0.2788
  746TMC3    C411023   0.433   2.062  10.951 -0.9362  0.5044 -0.9518
  746TMC3    C511024   0.462   1.944  10.888 -0.0763 -0.2068  0.3338
  746TMC3    C611025   0.571   1.924  10.806  0.0026 -0.1684  0.3730
  746TMC3     C11026   0.503   2.299  10.984 -0.2809 -0.0014 -0.4291
  746TMC3     O11027   0.420   2.314  11.079 -0.4139 -0.0679  0.0784
  746TMC3     H11028   0.722   2.213  10.843  0.0562 -0.0701 -0.1633
  746TMC3    H111029   0.351   2.076  11.021 -0.1703 -0.0466  0.0658
  746TMC3    H211030   0.582   1.833  10.748 -2.2875  0.0042 -0.3290
  746TMC3    C711031   0.391   1.826  10.932  0.1159  0.1463 -0.5883
  746TMC3    C811032   0.763   2.007  10.681  0.0400  0.5776  0.0230
  746TMC3    O111033   0.349   1.741  10.857  1.1686 -0.0498  0.6297
  746TMC3    O211034   0.807   1.899  10.642 -0.1206 -0.2018  0.7947
  747TMC3    C111035   3.164   2.159  11.012 -0.9467  1.3471  0.5079
  747TMC3    C211036   3.050   2.107  11.053 -0.2250 -0.6554 -0.2627
  747TMC3    C311037   3.031   2.101  11.189  0.1739  0.3262  1.0152
  747TMC3    C411038   3.262   2.196  11.102 -0.7017 -0.2373  0.0571
  747TMC3    C511039   3.246   2.177  11.234 -0.1251 -0.4380  0.3956
  747TMC3    C611040   3.122   2.141  11.287 -0.7912 -0.1097 -0.4585
  747TMC3     C11041   3.188   2.159  10.876  0.1551 -0.0056 -0.4266
  747TMC3     O11042   3.267   2.239  10.824  0.2412 -0.1274 -0.4020
  747TMC3     H11043   2.967   2.082  10.989  1.0029  0.2581 -2.2380
  747TMC3    H111044   3.360   2.227  11.067  0.3011 -0.5807  2.5504
  747TMC3    H211045   3.108   2.125  11.393 -0.3365  2.3610 -0.0291
  747TMC3    C711046   3.340   2.242  11.320 -0.2262  0.4458  0.0270
  747TMC3    C811047   2.914   2.023  11.232  0.6009 -0.5911  0.7145
  747TMC3    O111048   3.299   2.287  11.428 -0.3290  0.1779  0.0860
  747TMC3    O211049   2.876   1.944  11.148  0.4791 -0.5490 -0.0841
  748MPD2     C11050   0.108   2.934   2.232 -0.2720  0.3058 -0.3416
  748MPD2    C111051   0.177   2.828   2.171 -0.1523  0.4996  0.4335
  748MPD2    C211052   0.263   2.863   2.067 -0.0476  0.1977  0.3847
  748MPD2    C311053   0.270   2.992   2.010  0.9072 -0.7343  0.1592
  748MPD2    C411054   0.206   3.096   2.081  0.2298  1.0045 -0.0097
  748MPD2    C511055   0.121   3.062   2.182 -0.1705 -0.4809 -0.0945
  748MPD2     H11056   0.327   2.789   2.021  0.1009 -0.1066  1.0930
  748MPD2    H111057   0.216   3.201   2.056 -0.0166  1.0650  0.1435
  748MPD2    H211058   0.046   2.916   2.319 -0.4345 -1.2951 -0.8001
  748MPD2    H311059   0.068   3.145   2.227  1.5866  0.6539 -0.1013
  748MPD2     N11060   0.355   3.006   1.903  0.1590  0.0104 -0.6908
  748MPD2    H511061   0.416   2.926   1.887 -0.6713 -0.1744 -2.9098
  748MPD2    N111062   0.173   2.701   2.227 -0.3725 -0.8420  0.2410
  748MPD2    H711063   0.113   2.676   2.305  0.0447 -0.9296  0.5377
  749TMC3    C111064   0.457   3.120   1.729 -0.4650  0.3556  0.2658
  749TMC3    C211065   0.582   3.092   1.776  0.5271 -0.3540  0.0265
  749TMC3    C311066   0.683   3.167   1.727 -0.5742 -0.1680 -0.7252
  749TMC3    C411067   0.438   3.193   1.610  0.1306 -0.2651  0.1202
  749TMC3    C511068   0.551   3.245   1.559  0.6357 -0.4280  0.7261
  749TMC3    C611069   0.668   3.247   1.622  0.0619  0.3028 -0.1463
  749TMC3     C11070   0.349   3.120   1.820  0.0534 -0.5737 -0.3128
  749TMC3     O11071   0.269   3.210   1.812 -0.1504  0.0492  0.2713
  749TMC3     H11072   0.601   3.045   1.872 -0.7647  2.0483  1.4456
  749TMC3    H111073   0.337   3.216   1.577  0.6861 -1.6423 -2.5558
  749TMC3    H211074   0.748   3.305   1.580 -1.8750  1.3338 -2.4297
  749TMC3    C711075   0.533   3.346   1.451  0.5944  0.4271 -1.3446
  749TMC3    C811076   0.814   3.137   1.787  0.6610 -0.0429 -0.1744
  749TMC3    O111077   0.606   3.443   1.454 -0.0422 -0.3973 -0.0362
  749TMC3    O211078   0.891   3.234   1.798 -0.4186  0.1057  0.1446
  750MPD2     C11079   1.012   4.302  11.392 -0.5193 -0.0640  0.1912
  750MPD2    C111080   0.874   4.286  11.400  0.0153  0.3760 -0.4487
  750MPD2    C211081   0.818   4.160  11.382  0.3468 -0.7350 -0.5257
  750MPD2    C311082   0.904   4.056  11.351 -0.1174  0.2116  0.4861
  750MPD2    C411083   1.039   4.076  11.355 -0.3093 -0.4069  0.3147
  750MPD2    C511084   1.094   4.191  11.391  0.6171  0.0273  0.4813
  750MPD2     H11085   0.711   4.144  11.382  0.0987  0.9414  0.1587
  750MPD2    H111086   1.102   3.989  11.338 -0.4123 -0.4502  0.1539
  750MPD2    H211087   1.059   4.396  11.418  1.9087 -0.7130 -1.8573
  750MPD2    H311088   1.201   4.195  11.409  0.4822  1.0909  1.0227
  750MPD2     N11089   0.862   3.925  11.321  0.7391 -0.4059 -0.4911
  750MPD2    H511090   0.938   3.862  11.299  0.5796 -0.5037 -0.7667
  750MPD2    N111091   0.790   4.399  11.432 -0.1962 -0.3748 -0.8661
  750MPD2    H711092   0.852   4.477  11.448 -0.5444 -0.1706 -0.5017
  751TMC3    C111093   0.727   3.733  11.292 -0.1492 -0.3837 -0.0845
  751TMC3    C211094   0.635   3.665  11.365 -0.0264 -0.3672  0.3804
  751TMC3    C311095   0.652   3.528  11.366 -0.3059  1.1040  0.3601
  751TMC3    C411096   0.825   3.670  11.223  0.5239  0.4664 -0.0929
  751TMC3    C511097   0.837   3.536  11.231 -0.8947 -0.1549 -0.0234
  751TMC3    C611098   0.755   3.457  11.303 -0.0292  0.5359  0.0680
  751TMC3     C11099   0.733   3.875  11.325  0.2051  0.3101  0.5414
  751TMC3     O11100   0.632   3.926  11.367  0.1583 -0.2837  0.2441
  751TMC3     H11101   0.557   3.717  11.419  0.6362  0.3104  0.6676
  751TMC3    H111102   0.894   3.726  11.162  1.0424  2.4979  2.3839
  751TMC3    H211103   0.759   3.350  11.313  1.6969  0.1192 -4.8492
  751TMC3    C711104   0.882   3.469  11.107 -0.7657 -0.0737 -0.6038
  751TMC3    C811105   0.554   3.440  11.426  1.2537  0.1221  0.4744
  751TMC3    O111106   0.928   3.541  11.019 -0.3606  0.3328  0.1037
  751TMC3    O211107   0.579   3.316  11.412 -0.0236  0.5595 -0.0976
  752TMC3    C111108   4.263   3.380  17.320 -0.7391 -0.2216 -0.2126
  752TMC3    C211109   4.357   3.286  17.344 -0.3439  0.1248 -0.0182
  752TMC3    C311110   4.375   3.231  17.468 -0.1291  0.5141 -0.1333
  752TMC3    C411111   4.169   3.412  17.413 -0.4442 -0.3286 -0.7421
  752TMC3    C511112   4.184   3.346  17.534  0.0079 -0.3400  0.5764
  752TMC3    C611113   4.287   3.260  17.573 -0.2253  0.9386 -0.2410
  752TMC3     C11114   4.264   3.441  17.190 -0.1990 -1.1145  0.0948
  752TMC3     O11115   4.353   3.407  17.115 -0.1877 -0.7951 -0.2508
  752TMC3     H11116   4.428   3.267  17.265 -0.9317  1.8289 -0.9738
  752TMC3    H111117   4.084   3.474  17.389 -0.0369  0.2464 -0.6962
  752TMC3    H211118   4.298   3.216  17.671 -0.8713  2.0834  0.3542
  752TMC3    C711119   4.083   3.374  17.631 -0.3760  0.6698  0.2037
  752TMC3    C811120   4.495   3.144  17.480  0.6618  0.4740 -0.7548
  752TMC3    O111121   4.014   3.477  17.615  0.4242  0.3147 -0.4722
  752TMC3    O211122   4.571   3.138  17.380 -0.1923 -0.0419  0.9473
  753TMC3    C111123   1.374   0.243  13.611  0.7903 -0.1942 -0.0153
  753TMC3    C211124   1.500   0.237  13.558  0.3447 -0.1287 -0.0543
  753TMC3    C311125   1.542   0.118  13.493 -0.0070  0.8708 -0.1838
  753TMC3    C411126   1.293   0.133  13.622 -0.6323  0.4771 -0.6690
  753TMC3    C511127   1.335   0.025  13.555 -0.9570  0.3148 -0.3755
  753TMC3    C611128   1.460   0.005  13.505 -0.4015  0.0210 -0.3199
  753TMC3     C11129   1.316   0.366  13.658 -0.4147 -0.3002 -0.3281
  753TMC3     O11130   1.205   0.360  13.711 -0.5690  0.4027  0.1445
  753TMC3     H11131   1.565   0.324  13.547 -0.6184  0.4885 -0.9128
  753TMC3    H111132   1.187   0.150  13.640 -1.1865 -2.2054 -1.3954
  753TMC3    H211133   1.484   4.637  13.454  1.8547  0.1347  0.5542
  753TMC3    C711134   1.252   4.625  13.579  1.0506  0.0882  0.4166
  753TMC3    C811135   1.684   0.101  13.524 -0.1593  0.6640 -0.9252
  753TMC3    O111136   1.312   4.520  13.546 -0.3276 -0.1509  0.1445
  753TMC3    O211137   1.760   0.054  13.445  0.2471 -0.3332  0.2249
  754MPD2     C11138   4.417   3.729  12.901  0.5216 -0.3777 -0.3406
  754MPD2    C111139   4.460   3.774  13.023 -0.4886 -0.5573  0.0965
  754MPD2    C211140   4.368   3.792  13.123 -0.7123  0.1739  0.1934
  754MPD2    C311141   4.243   3.733  13.120 -0.8031  0.0747  0.2294
  754MPD2    C411142   4.210   3.669  13.004  0.3552  0.3089  0.8554
  754MPD2    C511143   4.295   3.669  12.898  0.3051 -0.1301 -0.7573
  754MPD2     H11144   4.397   3.840  13.215  1.4182  1.1648 -0.9937
  754MPD2    H111145   4.108   3.637  12.990  0.9223 -1.8993  1.8077
  754MPD2    H211146   4.482   3.715  12.816  1.9147  0.1798  0.6274
  754MPD2    H311147   4.260   3.621  12.808 -0.1822 -1.5330  0.1876
  754MPD2     N11148   4.139   3.738  13.221 -0.2198  0.0278  0.2789
  754MPD2    H511149   4.065   3.670  13.204 -0.0100 -0.2436  0.4524
  754MPD2    N111150   4.595   3.820  13.031  0.9207  0.0531 -0.2019
  754MPD2    H711151   4.655   3.833  12.950  2.1591 -0.4947  0.6308
  755MPD2     C11152   3.655   4.229  13.921 -0.0467  0.5695  0.2321
  755MPD2    C111153   3.706   4.125  13.994 -0.2129 -0.9424 -0.7440
  755MPD2    C211154   3.773   4.022  13.934  0.0751  0.3639  0.0763
  755MPD2    C311155   3.773   4.020  13.800 -0.2511  0.1975  0.3223
  755MPD2    C411156   3.717   4.123  13.726 -0.3698 -0.3209 -0.1007
  755MPD2    C511157   3.662   4.230  13.789 -1.1935 -0.8491 -0.1196
  755MPD2     H11158   3.819   3.945  13.995 -2.0789 -1.7565 -1.0028
  755MPD2    H111159   3.709   4.111  13.618  0.6261 -1.7064 -0.0189
  755MPD2    H211160   3.599   4.313  13.961 -0.0992  0.0664  1.2337
  755MPD2    H311161   3.623   4.311  13.729  1.1283 -0.1644 -0.7243
  755MPD2     N11162   3.848   3.928  13.722 -0.0250 -0.0072 -0.7016
  755MPD2    H511163   3.841   3.945  13.623 -1.2834 -1.5616 -0.8690
  755MPD2    N111164   3.695   4.135  14.135  0.6429  1.1310  0.0417
  755MPD2    H711165   3.744   4.066  14.190 -0.7649 -0.9799 -1.3711
  756MPD2     C11166   0.508   0.391   9.648 -0.4312 -0.8179 -0.1164
  756MPD2    C111167   0.512   0.257   9.676  0.9185 -0.3729 -0.2225
  756MPD2    C211168   0.457   0.171   9.586  0.0631  0.3892 -0.0310
  756MPD2    C311169   0.388   0.215   9.476 -0.0559 -0.2286  0.3211
  756MPD2    C411170   0.377   0.349   9.453  0.6135 -0.7741 -0.4661
  756MPD2    C511171   0.443   0.433   9.533  0.5832 -0.6565  0.0596
  756MPD2     H11172   0.446   0.063   9.596 -0.8857  0.3375 -1.5196
  756MPD2    H111173   0.320   0.385   9.368  0.3132 -1.5947 -0.6160
  756MPD2    H211174   0.526   0.459   9.730 -0.7061 -1.8616  0.8047
  756MPD2    H311175   0.430   0.538   9.509  0.1731 -0.8594 -0.6047
  756MPD2     N11176   0.350   0.106   9.390 -0.0933 -0.4789 -0.0176
  756MPD2    H511177   0.379   0.015   9.423  1.7513  0.3500  0.6243
  756MPD2    N111178   0.554   0.205   9.799 -0.2395  0.4770 -1.0753
  756MPD2    H711179   0.550   0.104   9.809  2.1108  0.2987 -1.8758
  757MPD2     C11180   4.433   4.284   8.908  0.6278  0.5405 -0.4274
  757MPD2    C111181   4.528   4.216   8.982 -0.4099 -0.3015 -0.4653
  757MPD2    C211182   4.660   4.265   8.991 -0.8420 -0.3634 -0.5782
  757MPD2    C311183   4.700   4.388   8.936 -0.2924  0.0929  0.1377
  757MPD2    C411184   4.606   4.453   8.859 -0.3937 -0.6915  0.4709
  757MPD2    C511185   4.477   4.406   8.846 -0.9499 -0.2023  0.5429
  757MPD2     H11186   0.000   4.226   9.068  0.5495  0.2845 -1.4110
  757MPD2    H111187   4.627   4.549   8.812  0.7055  0.8601  4.1151
  757MPD2    H211188   4.327   4.266   8.896  0.5635  1.1664 -0.8378
  757MPD2    H311189   4.399   4.462   8.796  0.6720  1.3450 -0.2626
  757MPD2     N11190   0.106   4.441   8.972 -0.3744 -0.0906  0.0703
  757MPD2    H511191   0.160   4.399   9.046  1.5607 -0.2876 -1.4417
  757MPD2    N111192   4.480   4.106   9.053  0.8060 -0.2284  0.1291
  757MPD2    H711193   4.381   4.081   9.056 -0.1161  2.9182 -3.6256
  758MPD2     C11194   4.688   3.495  16.283  0.1293  0.4063  0.1345
  758MPD2    C111195   0.006   3.376  16.343 -0.6809 -0.5644  0.3684
  758MPD2    C211196   4.713   3.359  16.481 -0.8100  0.5663  0.7883
  758MPD2    C311197   4.664   3.461  16.554 -0.0790 -0.1423 -0.0058
  758MPD2    C411198   4.621   3.571  16.495 -0.1896  0.0031 -0.3680
  758MPD2    C511199   4.621   3.587  16.362  0.2151 -0.3936 -0.0846
  758MPD2     H11200   0.013   3.267  16.533 -3.3571 -0.5594 -0.0145
  758MPD2    H111201   4.583   3.649  16.561  0.5542 -1.6166  1.9792
  758MPD2    H211202   4.703   3.518  16.178  0.1351  0.4070  0.1355
  758MPD2    H311203   4.589   3.681  16.318  1.1588 -1.0848 -2.2137
  758MPD2     N11204   4.661   3.459  16.701  0.9243 -0.3917 -0.0779
  758MPD2    H511205   4.653   3.548  16.748  0.6135 -2.4112  3.6795
  758MPD2    N111206   0.084   3.289  16.267  0.1077  0.1578  0.1018
  758MPD2    H711207   0.115   3.330  16.180 -0.8338 -1.0656 -0.8213
  759MPD2     C11208   4.599   1.048  10.486  0.4901  0.7164  0.3054
  759MPD2    C111209   4.472   1.106  10.486 -0.3538  0.2865  0.0201
  759MPD2    C211210   4.461   1.220  10.412 -0.5444 -0.2053 -0.5339
  759MPD2    C311211   4.558   1.274  10.335  0.4603  0.9049 -0.0004
  759MPD2    C411212   4.675   1.208  10.317 -0.6111 -0.1197  0.6092
  759MPD2    C511213   4.696   1.099  10.399  0.1800  0.1879 -0.1723
  759MPD2     H11214   4.373   1.281  10.429  1.8723  2.7321  1.5749
  759MPD2    H111215   0.025   1.243  10.247 -0.3693 -1.8751 -0.0152
  759MPD2    H211216   4.621   0.969  10.557 -0.5023 -1.6061 -1.9787
  759MPD2    H311217   0.073   1.063  10.415  0.0608 -0.1654 -0.2358
  759MPD2     N11218   4.527   1.387  10.260 -0.0150  0.4551  0.1683
  759MPD2    H511219   4.437   1.431  10.280  0.5537  2.4522 -1.6430
  759MPD2    N111220   4.358   1.059  10.553 -0.0767  0.0517 -0.2368
  759MPD2    H711221   4.273   1.109  10.532  2.8936  4.1237 -2.4747
  760MPD2     C11222   3.267   3.578  11.637  0.3104  0.4263  0.0401
  760MPD2    C111223   3.404   3.555  11.637 -0.4034 -0.4320 -0.2501
  760MPD2    C211224   3.462   3.469  11.723  0.0575 -0.2751 -1.0627
  760MPD2    C311225   3.385   3.421  11.830 -0.2310 -0.3060  0.1021
  760MPD2    C411226   3.250   3.439  11.828 -0.0206  0.8480 -1.0596
  760MPD2    C511227   3.193   3.513  11.727  0.2442  0.0906  0.3012
  760MPD2     H11228   3.568   3.450  11.712 -0.0171 -1.2909 -0.0066
  760MPD2    H111229   3.194   3.410  11.915  1.6789 -1.5813 -0.7812
  760MPD2    H211230   3.218   3.639  11.563 -0.6437 -1.1260 -0.6061
  760MPD2    H311231   3.086   3.531  11.735 -0.1675 -2.4235  0.3189
  760MPD2     N11232   3.441   3.345  11.937  0.2472 -0.2834 -0.1558
  760MPD2    H511233   3.394   3.339  12.027  0.5678  1.3446  0.1222
  760MPD2    N111234   3.492   3.625  11.554  0.4433 -0.8070 -0.1949
  760MPD2    H711235   3.589   3.602  11.571  0.5864 -0.3803 -0.4420
  761MPD2     C11236   0.064   3.333  11.378 -0.1855 -0.0514 -0.3771
  761MPD2    C111237   0.171   3.280  11.321  0.0877  0.4988 -0.2938
  761MPD2    C211238   0.290   3.343  11.334 -0.0225  0.0828 -0.3592
  761MPD2    C311239   0.305   3.451  11.422  0.4827  0.3134 -0.4431
  761MPD2    C411240   0.194   3.509  11.479  0.1977 -0.7812  0.2732
  761MPD2    C511241   0.068   3.448  11.452 -0.3050  0.2421  0.2639
  761MPD2     H11242   0.381   3.300  11.293  1.0753  1.7545  0.3567
  761MPD2    H111243   0.202   3.606  11.528 -1.6497  0.4193 -1.7511
  761MPD2    H211244   4.690   3.294  11.353 -0.2939 -0.7752  1.1733
  761MPD2    H311245   4.701   3.489  11.494  0.4718  1.0637  1.1893
  761MPD2     N11246   0.432   3.506  11.449  0.5944  0.4201 -0.0933
  761MPD2    H511247   0.429   3.605  11.472 -1.6300  0.5455 -0.8787
  761MPD2    N111248   0.179   3.160  11.248  0.2416  0.0831 -0.2208
  761MPD2    H711249   0.263   3.139  11.196  0.9161 -0.1431  0.9647
  762MPD2     C11250   0.525   3.204  10.762 -0.2272 -0.1476  0.3064
  762MPD2    C111251   0.467   3.077  10.742  0.0109  0.3467 -0.1884
  762MPD2    C211252   0.527   3.001  10.645  0.3248 -0.0377  0.2686
  762MPD2    C311253   0.631   3.053  10.564 -0.5743 -0.9044  0.4523
  762MPD2    C411254   0.682   3.177  10.587 -0.6289  0.3249  0.2248
  762MPD2    C511255   0.626   3.254  10.688  0.7563  0.0126  0.9387
  762MPD2     H11256   0.503   2.897  10.625  0.4570 -0.1970  0.9327
  762MPD2    H111257   0.772   3.212  10.536 -0.0725  0.4161  1.2687
  762MPD2    H211258   0.486   3.270  10.839 -0.7571  1.9860 -1.7943
  762MPD2    H311259   0.679   3.341  10.725  1.2878  0.6514 -1.3153
  762MPD2     N11260   0.698   2.958  10.482  0.5122  0.3926 -0.3191
  762MPD2    H511261   0.675   2.860  10.489  1.1169  0.3751  1.5868
  762MPD2    N111262   0.364   3.044  10.826 -0.2913  0.7757  0.0244
  762MPD2    H711263   0.356   3.108  10.904  0.2347  1.4209 -0.4492
  763MPD2     C11264   1.797   3.141  16.225 -0.2961  0.1304 -1.1905
  763MPD2    C111265   1.788   3.231  16.118  0.3107  0.4923  0.0651
  763MPD2    C211266   1.839   3.356  16.136 -0.3581  0.2900 -0.5449
  763MPD2    C311267   1.872   3.415  16.253 -0.3221 -0.4800 -0.1988
  763MPD2    C411268   1.844   3.334  16.359  0.2844 -0.1169 -0.7492
  763MPD2    C511269   1.832   3.192  16.350  0.4095  0.4512 -0.3750
  763MPD2     H11270   1.847   3.417  16.046  0.4725 -0.1179 -0.7499
  763MPD2    H111271   1.842   3.371  16.461  1.6474  1.8849 -1.4480
  763MPD2    H211272   1.773   3.035  16.222  0.5058 -0.0849 -0.1846
  763MPD2    H311273   1.814   3.134  16.440  1.9605  0.1799 -0.2386
  763MPD2     N11274   1.896   3.555  16.255  0.2713  0.1942  0.3493
  763MPD2    H511275   1.897   3.602  16.165 -0.7857  0.7009  0.6091
  763MPD2    N111276   1.742   3.185  15.994  0.2526 -0.7099  0.3375
  763MPD2    H711277   1.746   3.248  15.915 -3.1623 -0.7816  0.0834
  764MPD2     C11278   4.323   0.451   0.191 -0.0164 -0.3088 -0.0978
  764MPD2    C111279   4.347   0.328   0.132 -0.6561 -0.0768  0.1363
  764MPD2    C211280   4.413   0.230   0.204 -0.2851 -0.1995  0.0366
  764MPD2    C311281   4.459   0.260   0.329 -0.2517 -0.2088  0.1963
  764MPD2    C411282   4.436   0.386   0.384  0.2353 -0.0204 -0.3707
  764MPD2    C511283   4.360   0.475   0.319 -0.6326 -0.7068 -0.2034
  764MPD2     H11284   4.442   0.136   0.158  2.2222  0.7606 -0.3319
  764MPD2    H111285   4.480   0.407   0.480  1.0220  1.5268 -1.0825
  764MPD2    H211286   4.258   0.525   0.145 -0.5689 -1.0897 -0.5641
  764MPD2    H311287   4.330   0.565   0.371  0.4373 -0.1340 -0.5776
  764MPD2     N11288   4.526   0.157   0.396  0.5858 -0.3929  0.2659
  764MPD2    H511289   4.546   0.068   0.350 -0.6859 -0.8545  0.6058
  764MPD2    N111290   4.307   0.297   0.002  0.2937 -0.0826 -0.0103
  764MPD2    H711291   4.349   0.211  17.667 -1.5836 -2.1515  3.0570
  765MPD2     C11292   4.032   2.714  16.409 -0.8412 -0.5706  0.6504
  765MPD2    C111293   4.064   2.768  16.285 -0.5176  0.2339 -0.2598
  765MPD2    C211294   4.166   2.705  16.209  0.1219 -0.1076 -0.7884
  765MPD2    C311295   4.221   2.583  16.249  0.2337  0.0198  0.2613
  765MPD2    C411296   4.177   2.532  16.369  0.1703 -0.0719  0.1882
  765MPD2    C511297   4.085   2.596  16.443 -0.4836 -0.0833 -0.1233
  765MPD2     H11298   4.206   2.746  16.117  2.3517 -1.6221 -0.4859
  765MPD2    H111299   4.232   2.444  16.400  0.6941  0.2802  0.2609
  765MPD2    H211300   3.954   2.759  16.470  0.4374 -0.0030  1.8765
  765MPD2    H311301   4.062   2.548  16.538 -1.9921 -0.6457 -0.7698
  765MPD2     N11302   4.317   2.525  16.164 -0.1559  0.3068 -0.0277
  765MPD2    H511303   4.345   2.576  16.081 -0.7149 -0.2017 -0.5304
  765MPD2    N111304   4.015   2.899  16.258  0.1108  0.0002 -0.7967
  765MPD2    H711305   3.939   2.933  16.316  0.6355  1.6387 -1.0736
  766MPD2     C11306   3.605   3.052  15.686  0.0210 -0.1915 -0.1663
  766MPD2    C111307   3.740   3.050  15.716 -0.0279 -0.4245 -0.6666
  766MPD2    C211308   3.826   2.993  15.619  0.4132 -0.0600  0.0023
  766MPD2    C311309   3.779   2.940  15.497 -0.4191  0.1495  0.2021
  766MPD2    C411310   3.646   2.947  15.472 -0.0869 -0.9828  0.1211
  766MPD2    C511311   3.561   3.001  15.568 -0.6300  0.2013  0.0346
  766MPD2     H11312   3.933   3.010  15.624  0.6998 -1.2504 -2.4064
  766MPD2    H111313   3.601   2.921  15.376 -1.0326 -0.6946  0.4806
  766MPD2    H211314   3.529   3.099  15.747 -0.3061  0.8959 -1.4098
  766MPD2    H311315   3.457   3.002  15.537 -0.9826 -0.9209  1.1573
  766MPD2     N11316   3.856   2.891  15.395  0.4372  0.6268  0.0064
  766MPD2    H511317   3.804   2.887  15.308 -0.6947 -0.2514  0.7231
  766MPD2    N111318   3.793   3.088  15.843  0.5350  0.1858  0.5068
  766MPD2    H711319   3.893   3.078  15.857  0.5982 -0.1564 -0.1739
  767MPD2     C11320   3.475   3.227  15.303  0.8041  0.1770  0.7545
  767MPD2    C111321   3.601   3.245  15.260 -0.7714  0.7274 -0.4134
  767MPD2    C211322   3.640   3.188  15.143 -0.0800 -0.2457 -0.6867
  767MPD2    C311323   3.550   3.115  15.066 -0.0086  0.4630 -1.0033
  767MPD2    C411324   3.418   3.095  15.108  0.5239  0.1966 -0.3607
  767MPD2    C511325   3.393   3.145  15.231  0.1002  0.1943 -0.5929
  767MPD2     H11326   3.739   3.195  15.100  0.2978  0.4343  0.3220
  767MPD2    H111327   3.344   3.030  15.064  1.0297 -0.0854 -0.7888
  767MPD2    H211328   3.438   3.264  15.399  0.5324  0.0481  0.7002
  767MPD2    H311329   3.299   3.120  15.280  0.2230  1.1875  0.1421
  767MPD2     N11330   3.600   3.059  14.954  0.2088  0.0052  0.0062
  767MPD2    H511331   3.700   3.065  14.943  0.1521  0.1679 -0.4241
  767MPD2    N111332   3.701   3.303  15.338 -0.3660 -0.0263  0.1694
  767MPD2    H711333   3.797   3.317  15.307 -0.6330 -2.0143 -1.6058
  768MPD2     C11334   0.265   1.285  10.778  0.3522 -0.4826 -0.9284
  768MPD2    C111335   0.214   1.270  10.907  0.0440  0.2787  0.6463
  768MPD2    C211336   0.280   1.323  11.011 -0.4214  0.2379 -0.4790
  768MPD2    C311337   0.403   1.387  10.998  0.8548  0.5037 -0.0892
  768MPD2    C411338   0.454   1.406  10.875  0.3905 -0.6953 -0.3851
  768MPD2    C511339   0.380   1.362  10.762  0.6759 -0.3226  0.5560
  768MPD2     H11340   0.239   1.309  11.110 -1.0650 -0.1257 -0.7970
  768MPD2    H111341   0.539   1.469  10.850 -0.8555  0.3530 -1.9819
  768MPD2    H211342   0.211   1.248  10.693 -0.7206 -0.2837 -0.3379
  768MPD2    H311343   0.427   1.378  10.665  1.4641  0.4589  1.0749
  768MPD2     N11344   0.473   1.423  11.112 -0.1546 -0.1807 -0.0252
  768MPD2    H511345   0.551   1.487  11.100 -0.6346 -0.2684 -3.4344
  768MPD2    N111346   0.101   1.189  10.938  0.0562 -0.3274  0.4427
  768MPD2    H711347   0.079   1.183  11.036 -0.3040 -1.1149  0.3157
  769MPD2     C11348   0.829   4.035  15.482 -0.0450  0.1783  0.4828
  769MPD2    C111349   0.791   4.167  15.476 -0.0926  0.4406  0.1696
  769MPD2    C211350   0.797   4.241  15.599  0.0114 -0.7257  0.3009
  769MPD2    C311351   0.849   4.189  15.718  0.1732 -0.2470  0.2103
  769MPD2    C411352   0.890   4.057  15.714 -0.7444 -0.0665 -0.2666
  769MPD2    C511353   0.878   3.979  15.601  0.2332 -0.4043  0.2005
  769MPD2     H11354   0.764   4.343  15.612  0.3438 -0.2761 -2.3639
  769MPD2    H111355   0.950   4.016  15.794  1.3526  2.0406 -0.7527
  769MPD2    H211356   0.819   3.975  15.392 -0.5714  1.8095 -0.5541
  769MPD2    H311357   0.906   3.875  15.607 -1.9372 -1.0582 -0.9747
  769MPD2     N11358   0.841   4.259  15.833  0.2259 -0.3614 -0.1668
  769MPD2    H511359   0.806   4.355  15.831  0.5675 -0.2289  0.2482
  769MPD2    N111360   0.725   4.211  15.363 -1.1480 -0.1710  1.0880
  769MPD2    H711361   0.703   4.141  15.293 -0.3550  1.2538 -0.5852
  770MPD2     C11362   0.008   3.891  15.400 -0.2659  0.0095  0.4439
  770MPD2    C111363   0.127   3.852  15.337  0.0600  0.2749 -0.2528
  770MPD2    C211364   0.202   3.950  15.268  0.3845 -0.9764  0.0273
  770MPD2    C311365   0.169   4.082  15.279 -0.1956 -0.0612 -0.0075
  770MPD2    C411366   0.059   4.121  15.353  0.7288  0.6022 -0.4057
  770MPD2    C511367   4.704   4.024  15.423 -0.0215  0.6158 -0.3725
  770MPD2     H11368   0.283   3.909  15.208 -0.2676  2.0796 -2.9325
  770MPD2    H111369   0.024   4.223  15.361 -1.2700 -0.0985 -0.1839
  770MPD2    H211370   4.663   3.821  15.445 -2.0958  1.7617  0.3750
  770MPD2    H311371   4.619   4.051  15.485  0.4289  0.2264  0.4209
  770MPD2     N11372   0.254   4.175  15.223 -1.0440 -0.2150 -0.3351
  770MPD2    H511373   0.328   4.137  15.165 -1.7857 -0.0614 -1.4004
  770MPD2    N111374   0.157   3.718  15.332  0.2216 -0.1681  0.1028
  770MPD2    H711375   0.083   3.652  15.355  0.2666  0.3046  1.5853
  771MPD2     C11376   1.610   2.172  14.009  0.3136 -0.3490 -0.1477
  771MPD2    C111377   1.673   2.274  13.939 -0.2516 -0.1790  0.3689
  771MPD2    C211378   1.740   2.238  13.821 -0.5521 -0.7590 -0.0384
  771MPD2    C311379   1.758   2.105  13.779  0.2553  0.7335 -0.0133
  771MPD2    C411380   1.717   2.009  13.869  0.5502 -0.0433  0.2275
  771MPD2    C511381   1.631   2.045  13.971 -0.3710  0.1458 -0.6033
  771MPD2     H11382   1.788   2.318  13.766 -3.0107 -0.3432 -1.5814
  771MPD2    H111383   1.739   1.905  13.853 -0.8016 -0.3151  0.1260
  771MPD2    H211384   1.560   2.194  14.103 -1.5193  0.1399 -1.2542
  771MPD2    H311385   1.590   1.964  14.030 -0.2387  1.2155  0.9616
  771MPD2     N11386   1.824   2.082  13.655  0.0591  0.5706 -0.7015
  771MPD2    H511387   1.842   2.158  13.590 -0.8701 -0.6540 -2.3819
  771MPD2    N111388   1.665   2.416  13.966  0.3465 -0.0813 -0.4745
  771MPD2    H711389   1.706   2.483  13.901  0.4770  0.1949 -0.1104
  772MPD2     C11390   1.223   3.110  14.229  0.5729  0.2952  0.0179
  772MPD2    C111391   1.226   2.977  14.195 -0.1779 -0.1090  0.8372
  772MPD2    C211392   1.101   2.918  14.169  0.1342  0.5738  0.2286
  772MPD2    C311393   0.983   2.998  14.161  0.0517  0.3780 -0.2788
  772MPD2    C411394   0.995   3.133  14.169 -0.1416  0.6905 -0.3720
  772MPD2    C511395   1.115   3.188  14.212 -0.0009 -0.3043 -0.8637
  772MPD2     H11396   1.096   2.810  14.157  3.6972  0.2216  2.0327
  772MPD2    H111397   0.906   3.194  14.174 -0.6297 -0.0600  0.0341
  772MPD2    H211398   1.313   3.160  14.264  1.3184 -0.3193 -0.9923
  772MPD2    H311399   1.137   3.294  14.223  0.2349 -0.4660  0.2527
  772MPD2     N11400   0.860   2.940  14.125  0.8172  0.5193 -0.4014
  772MPD2    H511401   0.781   3.002  14.110  1.3851  1.6448  1.3210
  772MPD2    N111402   1.335   2.890  14.199  0.1487 -0.1585 -0.1001
  772MPD2    H711403   1.314   2.790  14.199 -2.5643  0.4254 -3.8044
  773MPD2     C11404   0.814   3.649   0.906  0.2605 -0.9155  0.1378
  773MPD2    C111405   0.717   3.599   0.819 -0.1557  0.2824 -0.2159
  773MPD2    C211406   0.728   3.469   0.769 -0.1609  0.1330  0.0557
  773MPD2    C311407   0.841   3.392   0.800 -0.2389  0.4024  0.5444
  773MPD2    C411408   0.944   3.445   0.873 -0.1661 -0.4556 -0.2282
  773MPD2    C511409   0.928   3.570   0.922  0.7044  0.2298 -0.4337
  773MPD2     H11410   0.643   3.435   0.711  0.0305 -2.2234  1.1842
  773MPD2    H111411   1.028   3.385   0.907  0.6546  0.2636 -0.9751
  773MPD2    H211412   0.804   3.744   0.957 -1.0566 -0.5881 -0.7193
  773MPD2    H311413   1.013   3.613   0.975 -0.0831 -1.5014  2.1929
  773MPD2     N11414   0.857   3.260   0.757  0.0766 -0.2790  0.2346
  773MPD2    H511415   0.782   3.212   0.709  0.8831 -0.1612 -1.1470
  773MPD2    N111416   0.604   3.673   0.771 -0.4378  0.0113  0.0827
  773MPD2    H711417   0.545   3.619   0.708 -1.3186  0.3420  0.6150
  774MPD2     C11418   4.199   3.029  13.448 -0.2080 -0.5480 -0.3679
  774MPD2    C111419   4.271   3.062  13.565  0.8057 -0.2996  0.3150
  774MPD2    C211420   4.351   3.178  13.566 -0.1667 -0.4453  0.0142
  774MPD2    C311421   4.361   3.266  13.456  0.1598  0.5494  1.0422
  774MPD2    C411422   4.277   3.241  13.346 -0.4786 -0.0933  0.3946
  774MPD2    C511423   4.198   3.124  13.348 -0.6440  0.6848 -0.1706
  774MPD2     H11424   4.414   3.193  13.652  1.4714  0.2903 -1.3046
  774MPD2    H111425   4.282   3.306  13.260 -0.5866 -0.6946 -0.0688
  774MPD2    H211426   4.130   2.946  13.447  0.0983 -0.8013 -0.3134
  774MPD2    H311427   4.132   3.107  13.264 -0.0293 -1.3885 -0.2482
  774MPD2     N11428   4.440   3.391  13.462  0.0805  0.2349 -0.2130
  774MPD2    H511429   4.473   3.425  13.551  2.6159  1.2716 -1.5345
  774MPD2    N111430   4.237   2.974  13.674 -0.3483 -0.0182  0.1059
  774MPD2    H711431   4.170   2.899  13.660  0.9338 -0.6931 -2.4790
  775MPD2     C11432   1.279   4.028  15.991 -0.3222 -0.5870  0.0287
  775MPD2    C111433   1.256   4.139  16.067  0.1113  0.2747 -0.6397
  775MPD2    C211434   1.317   4.260  16.028  0.0039  0.5605  0.7283
  775MPD2    C311435   1.403   4.271  15.922 -0.2217  0.0589  0.2938
  775MPD2    C411436   1.434   4.153  15.860 -0.2351 -1.0395 -0.0213
  775MPD2    C511437   1.374   4.035  15.891  0.1121 -0.6877 -0.5195
  775MPD2     H11438   1.291   4.350  16.083  1.8716  3.1136 -2.5558
  775MPD2    H111439   1.507   4.156  15.780  0.3348  0.1063  0.5376
  775MPD2    H211440   1.230   3.935  16.016 -0.9306  0.4045  2.5910
  775MPD2    H311441   1.401   3.943  15.840 -0.2631 -0.6631 -0.7598
  775MPD2     N11442   1.471   4.391  15.878 -0.2446  0.3551 -0.2608
  775MPD2    H511443   1.528   4.389  15.794 -0.9904  0.6167 -0.7712
  775MPD2    N111444   1.169   4.128  16.174 -0.3368  0.0298 -0.2198
  775MPD2    H711445   1.135   4.033  16.186  0.4177 -0.2496 -0.3153
  776MPD2     C11446   0.833   0.225  11.290  0.1555  0.0950  0.3912
  776MPD2    C111447   0.868   0.223  11.423  0.3833 -0.0252  0.5651
  776MPD2    C211448   0.984   0.286  11.462  0.0521  0.6800 -0.3958
  776MPD2    C311449   1.057   0.358  11.372 -0.1706 -0.0473  0.1487
  776MPD2    C411450   1.008   0.373  11.244 -0.4299  0.2677  0.1590
  776MPD2    C511451   0.906   0.295  11.197 -0.0274 -0.1033  0.3942
  776MPD2     H11452   1.012   0.272  11.566  1.6159  1.0205 -0.7747
  776MPD2    H111453   1.054   0.441  11.173  0.8081  0.6850  1.3710
  776MPD2    H211454   0.747   0.168  11.256  0.8124 -0.2771 -0.6538
  776MPD2    H311455   0.868   0.309  11.097  1.2006  1.9640  0.2173
  776MPD2     N11456   1.167   0.441  11.397 -0.0136  1.0318  0.3228
  776MPD2    H511457   1.201   0.491  11.315  0.7803  0.0331  0.0467
  776MPD2    N111458   0.802   0.128  11.503 -0.1299  0.4751  0.5063
  776MPD2    H711459   0.711   0.093  11.474  0.1929  0.6422 -0.7012
  777MPD2     C11460   0.616   2.323   1.214 -0.4737  0.2411  0.0836
  777MPD2    C111461   0.705   2.228   1.253  0.8502  0.0126  0.1735
  777MPD2    C211462   0.684   2.098   1.209 -0.8121  0.2908 -1.0452
  777MPD2    C311463   0.587   2.069   1.119 -0.6263 -0.1608 -0.2713
  777MPD2    C411464   0.500   2.166   1.076  0.3116 -0.5516 -0.0294
  777MPD2    C511465   0.519   2.288   1.132  0.6105 -0.3857 -0.3823
  777MPD2     H11466   0.752   2.015   1.226 -2.8963 -1.1857  0.1678
  777MPD2    H111467   0.404   2.146   1.028  0.8823 -0.2177 -1.3192
  777MPD2    H211468   0.618   2.420   1.263 -0.4180  0.7887 -0.9981
  777MPD2    H311469   0.438   2.357   1.109  0.5255 -0.9182 -1.7010
  777MPD2     N11470   0.587   1.935   1.071  0.4692  0.3327 -0.5156
  777MPD2    H511471   0.630   1.863   1.127 -1.9927 -0.3892  0.4367
  777MPD2    N111472   0.811   2.264   1.343  0.3609 -0.3935  0.6201
  777MPD2    H711473   0.831   2.360   1.367 -0.3246  0.0886 -0.7153
  778MPD2     C11474   1.393   1.761  15.382  0.3981  0.2043 -0.2472
  778MPD2    C111475   1.354   1.716  15.255  0.0293 -0.3069 -0.4218
  778MPD2    C211476   1.424   1.762  15.147  0.9100 -0.0674  0.0029
  778MPD2    C311477   1.521   1.866  15.159  0.6583  0.4608  0.0469
  778MPD2    C411478   1.547   1.910  15.283 -0.6479  0.4785 -0.0113
  778MPD2    C511479   1.490   1.860  15.396 -0.0790 -0.4503 -0.2511
  778MPD2     H11480   1.404   1.726  15.046  1.3889 -1.0123  0.2486
  778MPD2    H111481   1.615   1.992  15.297  0.0911 -0.1580  0.1265
  778MPD2    H211482   1.342   1.730  15.473 -2.2696  0.2716 -1.7301
  778MPD2    H311483   1.511   1.906  15.492  2.2666 -1.9964 -0.0335
  778MPD2     N11484   1.595   1.908  15.044 -0.3179  0.3282  0.2181
  778MPD2    H511485   1.578   1.859  14.957  0.1646  1.1767 -0.3550
  778MPD2    N111486   1.255   1.615  15.240  0.6096  0.2408  0.0871
  778MPD2    H711487   1.215   1.604  15.147 -0.7829  2.7641  0.4176
  779MPD2     C11488   1.287   0.563  14.292  0.2425 -0.9210 -0.4772
  779MPD2    C111489   1.392   0.600  14.368  0.0686 -0.5987  0.3285
  779MPD2    C211490   1.383   0.717  14.442  0.6110 -0.0620 -0.5685
  779MPD2    C311491   1.284   0.813  14.417  0.0398  0.8037  0.3108
  779MPD2    C411492   1.183   0.780  14.329 -0.5166 -0.4933 -0.4603
  779MPD2    C511493   1.182   0.655  14.279 -0.3387 -0.7671 -0.4233
  779MPD2     H11494   1.471   0.735  14.502 -2.3741  1.5957  3.3329
  779MPD2    H111495   1.092   0.837  14.313 -2.2968 -3.3259 -0.2594
  779MPD2    H211496   1.272   0.464  14.251 -1.2546 -0.7076 -0.4477
  779MPD2    H311497   1.103   0.627  14.211 -0.3997 -0.3738 -0.5165
  779MPD2     N11498   1.289   0.945  14.479  0.3111  0.0978 -0.4022
  779MPD2    H511499   1.370   0.961  14.539  0.3237 -0.0128 -0.3906
  779MPD2    N111500   1.505   0.520  14.398 -0.2937  0.3712  0.0939
  779MPD2    H711501   1.573   0.567  14.457 -2.1269  1.0075  1.6705
  780MPD2     C11502   1.120   1.223   1.320 -0.5806  0.1965 -0.1402
  780MPD2    C111503   1.009   1.153   1.279  0.4224 -0.1682 -0.0536
  780MPD2    C211504   0.973   1.139   1.142  0.3397 -0.1351  0.5318
  780MPD2    C311505   1.051   1.216   1.050  0.6288  0.6332  0.3620
  780MPD2    C411506   1.163   1.290   1.099  0.3700 -0.0944  0.1279
  780MPD2    C511507   1.192   1.296   1.234  0.5695  0.2252 -0.3197
  780MPD2     H11508   0.889   1.077   1.113  1.0773 -0.8174 -0.1691
  780MPD2    H111509   1.241   1.326   1.034  0.4349  0.0112  0.2644
  780MPD2    H211510   1.144   1.230   1.425 -0.6961 -0.9861 -0.0281
  780MPD2    H311511   1.285   1.345   1.262 -0.7995  0.9308  2.9592
  780MPD2     N11512   1.015   1.213   0.911  0.0566  0.5732  0.1938
  780MPD2    H511513   0.930   1.166   0.880  0.4609  0.9530 -1.5271
  780MPD2    N111514   0.934   1.096   1.377 -0.1284  0.0684 -0.4102
  780MPD2    H711515   0.969   1.078   1.471 -0.8601 -1.6935 -0.4821
  781MPD2     C11516   3.166   3.029  11.782  0.2549  0.1071 -0.5428
  781MPD2    C111517   3.205   2.979  11.907 -0.0159 -0.0464 -0.4510
  781MPD2    C211518   3.337   2.952  11.932  0.2660  0.3812  0.3293
  781MPD2    C311519   3.427   2.963  11.823 -0.0656  0.3397 -0.1330
  781MPD2    C411520   3.393   3.022  11.706 -0.1082  0.5939 -0.5904
  781MPD2    C511521   3.264   3.052  11.685 -0.3650  0.0486  0.0883
  781MPD2     H11522   3.366   2.903  12.025 -0.1498 -0.8879 -0.2144
  781MPD2    H111523   3.464   3.035  11.625 -0.0169  1.6821 -0.3228
  781MPD2    H211524   3.062   3.054  11.764 -0.2609 -2.1203 -0.6864
  781MPD2    H311525   3.236   3.099  11.592 -0.0075 -3.1414 -1.6392
  781MPD2     N11526   3.558   2.907  11.820  0.2393  0.4377  0.6409
  781MPD2    H511527   3.612   2.894  11.735  0.2184  1.3843  0.4920
  781MPD2    N111528   3.114   2.944  12.011  0.1002 -0.5649  0.0482
  781MPD2    H711529   3.154   2.917  12.100  0.7494 -1.4993 -0.5225
  782MPD2     C11530   0.711   3.772  10.405  0.3705  0.1064  0.3008
  782MPD2    C111531   0.838   3.735  10.415  0.3723  0.4683 -0.2031
  782MPD2    C211532   0.917   3.814  10.503  0.2088 -0.2959  0.6085
  782MPD2    C311533   0.869   3.929  10.568  0.5919  0.2499  0.4447
  782MPD2    C411534   0.739   3.967  10.537  0.0355 -0.5420 -0.0666
  782MPD2    C511535   0.661   3.882  10.466  0.3659  0.2992 -0.9748
  782MPD2     H11536   1.017   3.784  10.533  0.7848 -0.0840 -1.1141
  782MPD2    H111537   0.701   4.063  10.570  0.2348 -0.8131  0.9465
  782MPD2    H211538   0.639   3.711  10.352 -0.7932 -0.4087  2.4934
  782MPD2    H311539   0.555   3.897  10.449  0.1384 -0.9312 -0.6427
  782MPD2     N11540   0.959   3.992  10.662 -0.4593  0.0298  0.3841
  782MPD2    H511541   1.055   3.958  10.661 -1.1448 -1.8902  0.0928
  782MPD2    N111542   0.891   3.615  10.360  0.2525 -0.1500 -0.0102
  782MPD2    H711543   0.826   3.540  10.338  1.4751 -1.4971  0.9617
  783MPD2     C11544   0.841   3.121  10.998 -0.0563 -0.0516 -0.1854
  783MPD2    C111545   0.870   3.254  10.983 -0.3890  0.0822  0.4286
  783MPD2    C211546   0.938   3.293  10.873  0.2409 -0.0900  0.4887
  783MPD2    C311547   0.972   3.205  10.776  0.4944 -0.0003  0.5619
  783MPD2    C411548   0.948   3.068  10.791 -0.2985  0.1539 -0.1437
  783MPD2    C511549   0.881   3.031  10.905  0.0326 -0.5533 -0.0228
  783MPD2     H11550   0.952   3.399  10.855  2.9151 -0.7244 -1.2755
  783MPD2    H111551   0.965   2.988  10.719 -0.7116 -1.9178  2.0390
  783MPD2    H211552   0.796   3.087  11.091  1.5156 -3.3220 -0.6292
  783MPD2    H311553   0.864   2.924  10.914  1.0654 -0.6286  1.0742
  783MPD2     N11554   1.026   3.257  10.656  0.7004 -0.2044 -0.3926
  783MPD2    H511555   1.023   3.358  10.650  0.0077 -0.1106  1.4584
  783MPD2    N111556   0.850   3.335  11.096  0.7525  0.7716  0.2350
  783MPD2    H711557   0.806   3.282  11.171  0.8385  0.4998  0.0953
  784MPD2     C11558   2.886   3.840   0.904 -0.1865 -0.5993 -0.1633
  784MPD2    C111559   2.958   3.947   0.948 -0.0902 -0.8850  0.2955
  784MPD2    C211560   2.912   4.075   0.927  0.1932  0.6115 -0.2282
  784MPD2    C311561   2.786   4.092   0.871 -0.0348  0.0409 -0.4973
  784MPD2    C411562   2.722   3.981   0.817 -0.6457 -0.4500 -0.2873
  784MPD2    C511563   2.768   3.856   0.837  0.1217  0.0137 -0.5146
  784MPD2     H11564   2.972   4.159   0.960  2.6994 -1.1210 -0.3623
  784MPD2    H111565   2.622   3.986   0.776 -0.3876  0.8762 -0.7731
  784MPD2    H211566   2.920   3.738   0.913  0.8151 -0.2626 -0.1252
  784MPD2    H311567   2.721   3.770   0.790  0.5662 -1.4421  1.7285
  784MPD2     N11568   2.740   4.225   0.862  0.6628 -0.5157 -0.5698
  784MPD2    H511569   2.787   4.294   0.919  0.0197  0.0527 -0.7177
  784MPD2    N111570   3.082   3.927   1.010  0.4301  0.4131 -0.0717
  784MPD2    H711571   3.127   4.012   1.043  1.0264  0.6141 -1.4174
  785MPD2     C11572   4.638   2.598  10.246 -0.1125 -0.4470  0.0102
  785MPD2    C111573   4.517   2.551  10.299 -0.0485  0.7194  0.6328
  785MPD2    C211574   4.482   2.425  10.256 -0.4063  0.4584 -0.0144
  785MPD2    C311575   4.549   2.342  10.169 -0.4733  0.4054  0.2805
  785MPD2    C411576   4.671   2.389  10.128  0.5672 -0.2669 -0.4619
  785MPD2    C511577   4.708   2.521  10.160  0.0337  0.1653 -0.5600
  785MPD2     H11578   4.396   2.382  10.305  0.0226 -0.4176 -0.0263
  785MPD2    H111579   0.005   2.329  10.059  0.5650  0.0528 -0.7396
  785MPD2    H211580   4.689   2.684  10.289  0.8064 -0.0267 -1.9490
  785MPD2    H311581   0.080   2.555  10.123 -0.5047  2.1184 -0.1639
  785MPD2     N11582   4.496   2.213  10.146  0.0183 -0.3771  0.3767
  785MPD2    H511583   4.406   2.201  10.192  0.3242 -0.6247  0.9109
  785MPD2    N111584   4.436   2.616  10.400  0.0346  0.4523  0.0500
  785MPD2    H711585   4.371   2.553  10.445 -0.3448 -0.1958 -1.3851
  786MPD2     C11586   1.358   0.425  14.696 -0.0609 -0.2658 -0.1600
  786MPD2    C111587   1.451   0.321  14.711  0.7126  0.0981 -0.0300
  786MPD2    C211588   1.554   0.319  14.800 -0.1035 -0.4378  0.5541
  786MPD2    C311589   1.569   0.434  14.875 -0.0390  0.5125 -0.1600
  786MPD2    C411590   1.475   0.531  14.871  0.3965  0.0740  0.1945
  786MPD2    C511591   1.367   0.522  14.784  0.6728 -0.0430 -0.1852
  786MPD2     H11592   1.617   0.231  14.796  0.9364  0.2840  0.6848
  786MPD2    H111593   1.473   0.623  14.929  0.0736 -0.6264  1.3011
  786MPD2    H211594   1.273   0.426  14.629  1.5649  2.5795 -2.1530
  786MPD2    H311595   1.291   0.599  14.790 -1.7541 -2.7417  3.1067
  786MPD2     N11596   1.674   0.447  14.970 -0.0074 -0.2241  0.2571
  786MPD2    H511597   1.678   0.539  15.014 -0.2334  0.9737 -2.2201
  786MPD2    N111598   1.436   0.206  14.636  0.2662  0.1517 -1.0172
  786MPD2    H711599   1.510   0.137  14.635 -1.5907 -1.8525 -0.1833
  787MPD2     C11600   1.499   4.698  15.040  0.2997 -1.1140  0.2402
  787MPD2    C111601   1.572   4.645  14.936  0.0032  0.1817  0.4812
  787MPD2    C211602   1.708   4.613  14.956 -0.0209  0.0682  0.0082
  787MPD2    C311603   1.778   4.657  15.064 -0.0332 -0.4926 -0.2442
  787MPD2    C411604   1.712   0.017  15.153  0.1634  0.3926  0.0558
  787MPD2    C511605   1.574   0.023  15.146  0.1828  0.0424  0.0557
  787MPD2     H11606   1.747   4.543  14.883 -2.0319 -1.6508  0.5875
  787MPD2    H111607   1.775   0.049  15.236 -1.6119 -3.3230  2.8198
  787MPD2    H211608   1.391   4.704  15.041  0.2866 -0.8483 -1.5698
  787MPD2    H311609   1.532   0.073  15.232 -2.5461 -0.6326 -0.8772
  787MPD2     N11610   1.902   4.604  15.098  1.1695 -0.1247  0.4315
  787MPD2    H511611   1.933   4.515  15.059  2.6825  1.1612 -1.3137
  787MPD2    N111612   1.500   4.618  14.815 -0.7792 -0.0785  0.1423
  787MPD2    H711613   1.408   4.660  14.807 -1.4413 -1.7379 -0.7844
  788MPD2     C11614   4.256   3.192   1.322 -0.1812 -0.5227  0.5010
  788MPD2    C111615   4.150   3.121   1.277 -0.7175 -0.1064  0.2534
  788MPD2    C211616   4.036   3.197   1.251 -0.4761 -0.1412 -0.0198
  788MPD2    C311617   4.029   3.329   1.277 -0.4316 -0.5659 -0.7673
  788MPD2    C411618   4.135   3.389   1.333  0.6708 -0.1359  0.0755
  788MPD2    C511619   4.247   3.317   1.355 -0.5872 -0.1066  0.3811
  788MPD2     H11620   3.952   3.141   1.213  2.0427 -4.3309  0.5399
  788MPD2    H111621   4.137   3.492   1.366  0.3737 -0.5158  1.2895
  788MPD2    H211622   4.352   3.145   1.339  1.3574  3.0359  1.5116
  788MPD2    H311623   4.334   3.358   1.405 -2.0837  1.3587  1.8196
  788MPD2     N11624   3.914   3.408   1.241  0.2779  0.0982 -0.0059
  788MPD2    H511625   3.931   3.508   1.245  0.6328  0.1082 -1.8125
  788MPD2    N111626   4.150   2.984   1.236 -0.5037 -0.1420 -0.4358
  788MPD2    H711627   4.063   2.947   1.199 -0.9407 -0.1361  0.5881
  789MPD2     C11628   4.321   3.484  16.275  0.0136  0.7010  0.2383
  789MPD2    C111629   4.330   3.381  16.368 -1.0270 -0.8571  0.7654
  789MPD2    C211630   4.260   3.400  16.493  0.0438 -1.0587 -0.3460
  789MPD2    C311631   4.188   3.514  16.510  0.2553 -0.1468 -0.3666
  789MPD2    C411632   4.189   3.613  16.411  0.1232 -0.3585 -0.3133
  789MPD2    C511633   4.258   3.600  16.298  0.6089  0.6183  0.0391
  789MPD2     H11634   4.248   3.321  16.566 -0.7363 -1.4734 -0.9263
  789MPD2    H111635   4.135   3.707  16.421 -0.1104 -0.7254  1.7283
  789MPD2    H211636   4.378   3.484  16.182 -2.2472 -1.0107 -1.1354
  789MPD2    H311637   4.255   3.679  16.224 -1.3334 -1.5932 -2.2210
  789MPD2     N11638   4.086   3.532  16.607  0.1262  0.3338  0.4289
  789MPD2    H511639   4.025   3.613  16.597  1.7635  1.4098 -0.8752
  789MPD2    N111640   4.404   3.263  16.344  0.3546  0.1784  0.0265
  789MPD2    H711641   4.438   3.202  16.417 -0.8229  0.8930  1.1600
  790MPD2     C11642   0.589   3.956  13.752  0.4264 -0.3601  0.0992
  790MPD2    C111643   0.548   4.088  13.738  0.3808 -0.0463  0.0849
  790MPD2    C211644   0.519   4.137  13.611  0.1225 -0.1450 -0.9435
  790MPD2    C311645   0.560   4.075  13.499  0.4101  0.3079  0.9231
  790MPD2    C411646   0.593   3.943  13.514  0.1208 -0.1113 -0.5103
  790MPD2    C511647   0.600   3.885  13.637 -0.0243 -0.0798  0.7040
  790MPD2     H11648   0.479   4.237  13.599  0.0528 -0.0060  0.4307
  790MPD2    H111649   0.618   3.876  13.433  1.2515  1.9924 -1.8930
  790MPD2    H211650   0.589   3.913  13.852  1.0454  2.1616  1.1890
  790MPD2    H311651   0.623   3.779  13.649 -2.8592 -0.8289 -0.4583
  790MPD2     N11652   0.548   4.141  13.379 -0.0909 -0.1777  0.8648
  790MPD2    H511653   0.494   4.227  13.375  0.1029 -0.1929 -2.1288
  790MPD2    N111654   0.555   4.165  13.855 -0.0203  0.0511  0.2040
  790MPD2    H711655   0.603   4.127  13.936 -0.6621  0.9302  1.0017
  791MPD2     C11656   4.666   4.209  13.248 -0.0714  0.1253 -0.2008
  791MPD2    C111657   0.006   4.229  13.124  1.1670  0.3014  0.7547
  791MPD2    C211658   4.655   4.208  13.009  0.5730  0.3384  0.0792
  791MPD2    C311659   4.521   4.176  13.011 -0.4963 -0.2202  0.5197
  791MPD2    C411660   4.459   4.177  13.135 -0.0591  0.5719  0.1015
  791MPD2    C511661   4.529   4.198  13.252 -0.4754 -0.3476 -0.2342
  791MPD2     H11662   4.709   4.216  12.916 -1.3385 -0.6265 -1.1036
  791MPD2    H111663   4.359   4.137  13.148 -0.1045  0.0497 -1.7936
  791MPD2    H211664   4.720   4.216  13.342 -0.4340 -1.3156  0.1253
  791MPD2    H311665   4.488   4.179  13.351 -0.0001 -0.7271 -0.1071
  791MPD2     N11666   4.452   4.125  12.899 -0.0692 -0.0669 -0.0107
  791MPD2    H511667   4.356   4.096  12.914  0.0290  0.4601  1.6604
  791MPD2    N111668   0.146   4.260  13.125  0.2099 -0.1937  0.1485
  791MPD2    H711669   0.202   4.260  13.210 -2.2524  1.8583  1.7699
  792MPD2     C11670   1.280   4.542  11.106 -0.6609  0.5867 -0.1255
  792MPD2    C111671   1.178   4.613  11.048 -0.8987 -0.2975  0.2177
  792MPD2    C211672   1.058   4.547  11.031 -0.0995 -0.3593 -0.4741
  792MPD2    C311673   1.041   4.413  11.071  0.2035 -0.5980 -0.4964
  792MPD2    C411674   1.145   4.342  11.122  0.3378 -0.4117 -0.4932
  792MPD2    C511675   1.265   4.408  11.139  0.1128  0.3762  0.0920
  792MPD2     H11676   0.971   4.600  10.994  0.2879  0.1923 -0.5855
  792MPD2    H111677   1.134   4.236  11.143 -1.6106  0.5379  3.3125
  792MPD2    H211678   1.372   4.597  11.122 -0.4615  0.1642  0.1871
  792MPD2    H311679   1.347   4.348  11.177  0.6631  1.7622  1.0840
  792MPD2     N11680   0.915   4.348  11.062  0.0180  0.1583  0.5050
  792MPD2    H511681   0.915   4.255  11.104  1.0575  0.9395  2.2660
  792MPD2    N111682   1.202   0.024  11.017 -0.7095 -0.3085  0.8547
  792MPD2    H711683   1.298   0.057  11.017 -0.5393 -0.8148  1.7176
  793MPD2     C11684   0.312   4.456  10.320 -0.4331 -0.0894  0.0350
  793MPD2    C111685   0.445   4.487  10.351  0.3980 -0.1653 -0.2025
  793MPD2    C211686   0.492   4.441  10.474 -0.7414  0.2238 -0.0385
  793MPD2    C311687   0.418   4.363  10.559 -0.1528 -0.0162 -0.5662
  793MPD2    C411688   0.286   4.334  10.524  0.3119  0.6229  0.0577
  793MPD2    C511689   0.238   4.375  10.403  0.4014 -0.3781  1.0162
  793MPD2     H11690   0.593   4.459  10.509 -0.8286 -0.7803  0.7395
  793MPD2    H111691   0.218   4.275  10.585  1.2921 -0.3952  0.1744
  793MPD2    H211692   0.274   4.483  10.222  1.1884  1.7248 -0.0906
  793MPD2    H311693   0.137   4.342  10.383  0.0949  0.6318  0.8701
  793MPD2     N11694   0.473   4.336  10.684 -0.3769 -0.0630  0.4986
  793MPD2    H511695   0.559   4.385  10.704 -1.4688  1.8637  0.4255
  793MPD2    N111696   0.539   4.556  10.269  0.1340 -0.1882 -0.7603
  793MPD2    H711697   0.634   4.566  10.305 -0.1597  2.1868 -0.7085
  794MPD2     C11698   0.450   4.189   0.176 -0.3099 -0.0687 -0.5183
  794MPD2    C111699   0.326   4.134   0.205  0.4275  0.6040 -0.1953
  794MPD2    C211700   0.228   4.137   0.110  0.2200  0.0057 -0.2087
  794MPD2    C311701   0.260   4.175  17.675  1.0025  0.1638 -0.0697
  794MPD2    C411702   0.387   4.220  17.649 -0.0590  0.3547 -0.2720
  794MPD2    C511703   0.473   4.242   0.051  0.0582  0.0401  1.0218
  794MPD2     H11704   0.137   4.080   0.128 -1.1462  1.6656 -1.9720
  794MPD2    H111705   0.421   4.250  17.551  0.8813 -0.8104 -0.2908
  794MPD2    H211706   0.530   4.191   0.249 -0.8919 -1.1178  0.1443
  794MPD2    H311707   0.572   4.284   0.034 -0.2184  0.4150  0.3540
  794MPD2     N11708   0.177   4.169  17.558  0.2995  0.1554 -0.4253
  794MPD2    H511709   0.217   4.208  17.473  1.7645 -0.4136  0.0107
  794MPD2    N111710   0.298   4.069   0.328  0.2560 -0.0854 -0.0815
  794MPD2    H711711   0.209   4.024   0.345 -0.9648  2.2083 -0.3861
  795MPD2     C11712   3.070   1.289  12.893 -0.6252  0.0543 -1.0423
  795MPD2    C111713   3.011   1.272  13.012 -0.3444 -0.1573 -0.4558
  795MPD2    C211714   3.083   1.294  13.125 -0.4940 -0.3084 -0.5811
  795MPD2    C311715   3.218   1.326  13.123  0.3683 -0.9654  0.5568
  795MPD2    C411716   3.282   1.335  13.004 -0.6120  0.0561 -0.2982
  795MPD2    C511717   3.212   1.305  12.888 -0.2501 -0.0816 -0.0095
  795MPD2     H11718   3.042   1.270  13.223 -1.2093 -0.5170 -0.9353
  795MPD2    H111719   3.385   1.368  12.992  0.2841 -2.7305 -0.1538
  795MPD2    H211720   3.019   1.283  12.798 -1.7534 -2.8960 -0.2452
  795MPD2    H311721   3.257   1.319  12.791  0.8786  0.5224  0.6074
  795MPD2     N11722   3.297   1.327  13.244  0.2307  0.8630  0.3456
  795MPD2    H511723   3.256   1.286  13.328  2.6442 -0.6975  0.7544
  795MPD2    N111724   2.874   1.267  13.027 -0.1592  0.2365  0.2075
  795MPD2    H711725   2.834   1.289  13.117 -0.0053 -0.8309  0.5381
  796MPD2     C11726   1.947   2.433  15.857  0.5262  0.2919 -0.2382
  796MPD2    C111727   1.983   2.504  15.970 -0.1490  0.4243  0.2521
  796MPD2    C211728   1.977   2.639  15.970 -0.3946 -0.3926 -0.0777
  796MPD2    C311729   1.954   2.703  15.852 -0.5603 -0.0457 -0.1042
  796MPD2    C411730   1.916   2.635  15.740  0.0917  0.3881  0.5300
  796MPD2    C511731   1.906   2.499  15.745 -1.0233  0.3907 -0.4168
  796MPD2     H11732   2.015   2.695  16.056  1.2537  1.5964 -2.0978
  796MPD2    H111733   1.902   2.687  15.646 -1.8267 -1.1527 -0.0371
  796MPD2    H211734   1.952   2.325  15.857  1.7137  0.3539 -2.3770
  796MPD2    H311735   1.864   2.448  15.659  0.0711 -1.0967 -0.0678
  796MPD2     N11736   1.979   2.845  15.841  0.5674 -0.7548 -0.0078
  796MPD2    H511737   1.999   2.894  15.928  0.2923  0.4658 -0.6386
  796MPD2    N111738   2.024   2.425  16.081 -0.2976  0.2475 -0.1473
  796MPD2    H711739   2.038   2.328  16.052  2.6589  1.2692 -2.0904
  797MPD2     C11740   2.947   2.934  17.315  0.2315  0.5353 -0.1241
  797MPD2    C111741   3.024   3.034  17.253 -0.3944 -0.1702 -0.2420
  797MPD2    C211742   2.973   3.083  17.131 -0.0026  0.2202 -0.1092
  797MPD2    C311743   2.852   3.039  17.078  0.0175 -0.1126  0.5437
  797MPD2    C411744   2.776   2.949  17.150 -0.4656 -0.0516 -0.0759
  797MPD2    C511745   2.828   2.897  17.261  0.3395  0.3977 -0.1239
  797MPD2     H11746   3.025   3.162  17.078 -1.9622  0.6666 -1.3512
  797MPD2    H111747   2.678   2.917  17.116  0.2224 -0.8063 -1.3647
  797MPD2    H211748   2.983   2.898  17.410  2.1451 -0.4110 -1.2074
  797MPD2    H311749   2.750   2.841  17.311  0.2337  1.2657  0.6843
  797MPD2     N11750   2.807   3.099  16.960 -0.6757 -0.5163  0.3755
  797MPD2    H511751   2.875   3.164  16.921 -1.3293 -0.8536 -1.3116
  797MPD2    N111752   3.147   3.087  17.302  0.0531  0.5997  0.3254
  797MPD2    H711753   3.179   3.169  17.251  2.2264 -0.1485  0.4532
  798MPD2     C11754   3.387   3.271  16.618  0.6232  0.1192 -0.1208
  798MPD2    C111755   3.282   3.268  16.702  1.3712  0.0337 -0.0888
  798MPD2    C211756   3.320   3.253  16.832  0.8289  0.5327 -0.0540
  798MPD2    C311757   3.450   3.243  16.882 -0.5361  0.2864 -0.3457
  798MPD2    C411758   3.554   3.256  16.792 -0.1601  0.1443  0.1990
  798MPD2    C511759   3.519   3.267  16.654 -0.0738 -0.5525  0.7973
  798MPD2     H11760   3.238   3.218  16.894  1.3518 -0.5412  0.0363
  798MPD2    H111761   3.655   3.236  16.826 -0.2048 -2.1257 -1.0093
  798MPD2    H211762   3.379   3.276  16.510  0.2057  2.1790  0.0130
  798MPD2    H311763   3.600   3.276  16.583  0.6879 -0.4849  1.6649
  798MPD2     N11764   3.468   3.227  17.025  0.2786 -0.2040  0.2683
  798MPD2    H511765   3.385   3.243  17.081  1.3766  0.4592  1.6942
  798MPD2    N111766   3.147   3.262  16.661  0.5506  0.4338  0.1087
  798MPD2    H711767   3.132   3.278  16.562  0.9690 -1.6018 -0.2835
  799MPD2     C11768   2.161   3.781  15.114  1.1089  0.2415 -0.7483
  799MPD2    C111769   2.073   3.717  15.038 -0.0444 -0.0568 -0.2918
  799MPD2    C211770   1.960   3.784  14.978 -0.0325 -0.4132 -0.0268
  799MPD2    C311771   1.954   3.920  14.990  0.2380  0.3914 -0.0126
  799MPD2    C411772   2.049   3.985  15.066  0.0995 -0.0034  0.6768
  799MPD2    C511773   2.143   3.915  15.132 -0.2838  0.4840 -0.0006
  799MPD2     H11774   1.892   3.725  14.918 -1.0085  1.2673 -0.5677
  799MPD2    H111775   2.037   4.092  15.073 -3.0200 -0.2747 -0.0958
  799MPD2    H211776   2.252   3.739  15.155 -1.7685 -3.5036  1.8112
  799MPD2    H311777   2.204   3.980  15.194  0.9119 -0.9615  0.3365
  799MPD2     N11778   1.866   3.992  14.911 -0.8268  0.4587  0.5197
  799MPD2    H511779   1.878   4.093  14.911  1.0784  0.2298  1.9924
  799MPD2    N111780   2.091   3.571  15.024  0.0027  0.5261  0.7815
  799MPD2    H711781   2.009   3.525  14.986  1.0055 -1.5065  1.0705
  800MPD2     C11782   2.721   0.309  14.529 -0.4775  0.0306  0.3544
  800MPD2    C111783   2.850   0.349  14.544 -0.3373 -0.6435 -0.7795
  800MPD2    C211784   2.940   0.289  14.458  0.1228  0.5605 -0.6786
  800MPD2    C311785   2.902   0.207  14.358  0.1687  0.3743  0.0097
  800MPD2    C411786   2.770   0.166  14.345  0.1921  0.2641  0.4150
  800MPD2    C511787   2.689   0.213  14.439  0.1892 -1.0859 -0.2943
  800MPD2     H11788   3.044   0.321  14.460 -0.1377  1.3041  1.3033
  800MPD2    H111789   2.736   0.103  14.264  0.3413 -0.6489  1.0658
  800MPD2    H211790   2.635   0.357  14.574  0.6002  1.0232  1.3569
  800MPD2    H311791   2.587   0.178  14.423  0.2173 -1.6257  0.7134
  800MPD2     N11792   3.003   0.189  14.255 -0.0818 -0.1517  0.3442
  800MPD2    H511793   3.101   0.206  14.279  0.0847 -1.2459  0.4292
  800MPD2    N111794   2.889   0.430  14.654  0.2011  0.0483 -0.7244
  800MPD2    H711795   2.813   0.491  14.682 -0.3662 -1.5950  1.3393
  801MPD2     C11796   2.535   1.016  14.897  0.0466 -0.2420 -0.7866
  801MPD2    C111797   2.569   0.905  14.817  0.0421 -0.1022 -0.5498
  801MPD2    C211798   2.480   0.856  14.718 -1.0055 -0.0500 -0.0881
  801MPD2    C311799   2.358   0.918  14.701 -0.2385 -0.4142 -0.2343
  801MPD2    C411800   2.329   1.023  14.785 -0.1330 -0.5908 -0.4226
  801MPD2    C511801   2.415   1.070  14.882 -0.4133  0.2397  0.6709
  801MPD2     H11802   2.510   0.767  14.663 -0.6681  0.2477 -0.3879
  801MPD2    H111803   2.231   1.068  14.773  0.6102  1.0403 -0.3451
  801MPD2    H211804   2.601   1.057  14.972  1.4538 -0.2755 -2.0153
  801MPD2    H311805   2.379   1.148  14.948 -3.0425 -0.6879  0.3257
  801MPD2     N11806   2.261   0.870  14.613  0.0745 -0.9550  0.2904
  801MPD2    H511807   2.178   0.926  14.598 -0.3818 -1.8215 -0.4640
  801MPD2    N111808   2.694   0.831  14.817  0.0679  0.4852 -0.0199
  801MPD2    H711809   2.710   0.759  14.747 -2.5337  1.0423 -1.1774
  802MPD2     C11810   2.070   1.731   0.757 -0.3445  0.1288  0.1337
  802MPD2    C111811   2.011   1.755   0.635  0.4398 -0.7695  0.2551
  802MPD2    C211812   2.051   1.681   0.527  0.1002  0.0364  0.1532
  802MPD2    C311813   2.136   1.574   0.550 -0.1244 -0.2231  0.0041
  802MPD2    C411814   2.189   1.548   0.674  0.2958  0.0568 -0.0437
  802MPD2    C511815   2.160   1.631   0.781  0.1130  0.3750  0.3732
  802MPD2     H11816   2.005   1.698   0.431 -1.2158 -1.0246  0.6002
  802MPD2    H111817   2.271   1.479   0.691 -0.0313 -0.7639 -1.7505
  802MPD2    H211818   2.032   1.786   0.842 -1.0198 -1.1673  0.6734
  802MPD2    H311819   2.203   1.628   0.880 -0.4204 -1.4763  0.5361
  802MPD2     N11820   2.162   1.489   0.437  0.0693  0.1947 -0.2141
  802MPD2    H511821   2.120   1.518   0.349  0.2509 -0.3876 -0.4932
  802MPD2    N111822   1.913   1.852   0.618  0.4380  0.4127  0.3824
  802MPD2    H711823   1.878   1.868   0.524  1.3143 -0.7030 -0.1270
  803MPD2     C11824   3.603   4.109  11.635 -0.5973  0.1829  0.6861
  803MPD2    C111825   3.592   4.247  11.637 -0.4766  0.3135 -0.1400
  803MPD2    C211826   3.541   4.315  11.743  0.5050  0.0838  0.0532
  803MPD2    C311827   3.497   4.246  11.856 -0.2085 -0.1813 -0.7347
  803MPD2    C411828   3.488   4.106  11.845  0.0431  0.5432  0.8466
  803MPD2    C511829   3.546   4.044  11.738 -0.1108 -0.0871 -0.8980
  803MPD2     H11830   3.543   4.423  11.745  1.6203  0.0752 -0.5402
  803MPD2    H111831   3.446   4.047  11.925 -0.4323  0.8283  0.8074
  803MPD2    H211832   3.633   4.049  11.550  1.0412  0.4264  1.0961
  803MPD2    H311833   3.539   3.936  11.741 -2.1480  0.0627  0.3731
  803MPD2     N11834   3.444   4.313  11.970  0.0163 -0.7588 -0.5338
  803MPD2    H511835   3.428   4.413  11.973 -0.0758 -0.7812 -0.2592
  803MPD2    N111836   3.653   4.327  11.535  0.0406 -0.6019  0.1703
  803MPD2    H711837   3.667   4.426  11.554  0.7414 -0.7831  0.6284
  804MPD2     C11838   2.974   1.449  17.040 -0.5753  0.3378 -0.9575
  804MPD2    C111839   2.889   1.468  17.146 -0.0808 -0.5992 -0.2214
  804MPD2    C211840   2.893   1.592  17.202  0.1662 -0.6150 -0.7210
  804MPD2    C311841   2.968   1.699  17.158 -0.5381  0.5009 -0.1450
  804MPD2    C411842   3.058   1.668  17.054 -0.3876 -0.0622  0.1538
  804MPD2    C511843   3.057   1.546  16.995  0.0534 -0.6139  0.1184
  804MPD2     H11844   2.832   1.616  17.289 -0.1897  0.5802 -1.2998
  804MPD2    H111845   3.119   1.746  17.011  0.1783 -0.8548 -0.4868
  804MPD2    H211846   2.972   1.352  16.991 -0.5728  0.4090 -1.0968
  804MPD2    H311847   3.107   1.524  16.902 -1.3333  1.8177 -1.2094
  804MPD2     N11848   2.951   1.831  17.211 -0.2631 -0.2287  0.5196
  804MPD2    H511849   2.874   1.848  17.274  0.0509 -1.6937  1.2809
  804MPD2    N111850   2.810   1.365  17.202  0.1568 -0.1343  0.3834
  804MPD2    H711851   2.789   1.379  17.300  2.1024  1.3159  0.5988
  805MPD2     C11852   1.872   4.208  15.813 -0.3111 -0.4219  0.4845
  805MPD2    C111853   1.948   4.131  15.729  0.3459 -0.3076  0.7691
  805MPD2    C211854   2.086   4.138  15.742 -0.1761  0.4407 -0.1292
  805MPD2    C311855   2.144   4.217  15.840  0.2787  0.5891  0.4625
  805MPD2    C411856   2.066   4.308  15.906  0.0541  0.0169  0.1455
  805MPD2    C511857   1.927   4.299  15.897  0.0273 -0.0065 -0.2910
  805MPD2     H11858   2.151   4.079  15.677 -2.0370 -0.4036 -1.2277
  805MPD2    H111859   2.100   4.372  15.986 -1.2615  0.3941  0.4054
  805MPD2    H211860   1.767   4.207  15.788  0.4787  2.0734 -2.8120
  805MPD2    H311861   1.861   4.361  15.957 -1.3505 -3.3233  1.5948
  805MPD2     N11862   2.280   4.202  15.872 -0.1656 -0.3382  0.2539
  805MPD2    H511863   2.334   4.142  15.810 -0.5316 -0.9973  0.5646
  805MPD2    N111864   1.894   4.038  15.637 -0.1670  0.5450 -0.7145
  805MPD2    H711865   1.966   3.979  15.596 -0.3885 -0.8530  0.8951
  806MPD2     C11866   1.860   3.491   0.308  0.5898  0.1317  0.4826
  806MPD2    C111867   1.985   3.523   0.371 -0.1437 -0.5800  0.6310
  806MPD2    C211868   2.081   3.581   0.286  0.2235 -0.6772 -0.1613
  806MPD2    C311869   2.057   3.612   0.152  0.1236  0.4642 -0.6924
  806MPD2    C411870   1.930   3.588   0.101 -0.1781  0.2976  0.0474
  806MPD2    C511871   1.829   3.540   0.181  0.1787 -0.6330 -0.5746
  806MPD2     H11872   2.179   3.610   0.322  0.0436 -2.5716  1.9211
  806MPD2    H111873   1.915   3.595  17.692  2.1578 -0.5505 -0.3522
  806MPD2    H211874   1.780   3.453   0.372  0.1942 -2.2419 -1.4234
  806MPD2    H311875   1.733   3.514   0.137 -0.0991 -1.7035  0.6520
  806MPD2     N11876   2.160   3.662   0.070 -0.7668  0.0881 -0.1914
  806MPD2    H511877   2.244   3.682   0.123  0.2693 -0.8393 -1.4716
  806MPD2    N111878   2.002   3.489   0.506 -0.0531  0.7306 -0.2204
  806MPD2    H711879   1.922   3.448   0.554  0.4695 -0.6476 -0.5162
  807MPD2     C11880   2.082   2.787   0.801  0.3051 -0.1045 -0.1811
  807MPD2    C111881   2.209   2.836   0.792 -0.1636  0.2729 -0.1026
  807MPD2    C211882   2.314   2.750   0.825  0.1571  0.3204  0.2303
  807MPD2    C311883   2.292   2.615   0.857 -0.5812 -0.6387  0.3339
  807MPD2    C411884   2.167   2.565   0.847 -0.1862 -0.6799  0.5448
  807MPD2    C511885   2.063   2.651   0.818 -0.0422 -1.1589  0.0683
  807MPD2     H11886   2.417   2.786   0.827  1.0854 -2.1742 -1.5655
  807MPD2    H111887   2.150   2.460   0.862  2.2774 -1.3491 -1.2738
  807MPD2    H211888   1.994   2.850   0.787  0.3325 -0.6713 -2.7881
  807MPD2    H311889   1.965   2.606   0.806 -0.3799  0.4134 -3.3156
  807MPD2     N11890   2.402   2.542   0.894  0.5022 -0.1677  0.4915
  807MPD2    H511891   2.493   2.585   0.886 -0.0593  1.7540  4.1142
  807MPD2    N111892   2.244   2.970   0.760  0.1236  0.1078 -0.6702
  807MPD2    H711893   2.340   3.004   0.766 -0.4975  1.3652  1.9270
  808MPD2     C11894   3.070   0.545   9.508 -0.3277 -0.3613 -0.1721
  808MPD2    C111895   3.181   0.523   9.589  0.3948 -0.1266 -0.1772
  808MPD2    C211896   3.276   0.616   9.605  0.3277 -0.7619 -0.0505
  808MPD2    C311897   3.257   0.737   9.538  0.3654  0.7830  0.5556
  808MPD2    C411898   3.157   0.756   9.447 -0.6554 -0.6484 -0.0685
  808MPD2    C511899   3.062   0.661   9.439 -0.2105 -0.2474  0.3214
  808MPD2     H11900   3.366   0.602   9.663  0.1372 -2.1084 -0.0822
  808MPD2    H111901   3.161   0.848   9.390  1.3746  0.5055  1.9466
  808MPD2    H211902   2.988   0.476   9.489 -1.5187  0.6065  1.4227
  808MPD2    H311903   2.979   0.683   9.373 -1.8145  0.9980  2.7632
  808MPD2     N11904   3.360   0.838   9.547 -0.4859  0.1900 -0.2612
  808MPD2    H511905   3.365   0.905   9.471 -1.6983 -0.8652 -1.2749
  808MPD2    N111906   3.198   0.402   9.651  1.0495  0.2959 -0.0308
  808MPD2    H711907   3.279   0.387   9.711 -0.1713 -0.7050  1.3716
  809MPD2     C11908   4.205   0.923   9.111 -0.7188  0.0290 -0.1043
  809MPD2    C111909   4.118   0.832   9.173 -0.7286  0.1226  0.1529
  809MPD2    C211910   4.021   0.880   9.261  0.7940  0.3907  0.5113
  809MPD2    C311911   4.003   1.014   9.293 -0.4334 -0.0272 -0.2935
  809MPD2    C411912   4.093   1.103   9.228 -0.1451  0.0860 -0.3421
  809MPD2    C511913   4.196   1.059   9.145 -0.4519 -0.3432  0.3620
  809MPD2     H11914   3.961   0.817   9.325  0.8589 -1.1148 -0.8933
  809MPD2    H111915   4.098   1.206   9.260 -1.4879 -0.8733  2.9549
  809MPD2    H211916   4.269   0.892   9.029 -0.4585 -3.2555  1.3516
  809MPD2    H311917   4.271   1.131   9.115 -0.4252 -0.1818  0.8230
  809MPD2     N11918   3.906   1.072   9.377 -0.3879  0.1004  0.3468
  809MPD2    H511919   3.917   1.169   9.406 -0.2426 -0.2857  1.5910
  809MPD2    N111920   4.125   0.691   9.140  0.1856 -0.1522 -0.1438
  809MPD2    H711921   4.085   0.637   9.216  2.5334 -0.5776  0.7881
  810MPD2     C11922   3.011   0.066  10.605  0.6825  0.0262 -0.8755
  810MPD2    C111923   2.891   0.068  10.527  0.1739 -0.5885  0.4515
  810MPD2    C211924   2.845   0.199  10.492  0.1562  0.7983 -0.1647
  810MPD2    C311925   2.915   0.311  10.529 -0.0685  0.0146  0.5482
  810MPD2    C411926   3.034   0.306  10.600  0.9851  0.0573 -0.7691
  810MPD2    C511927   3.069   0.185  10.649 -0.0800 -0.2553  0.1398
  810MPD2     H11928   2.758   0.209  10.428  0.0447 -1.4998 -0.3525
  810MPD2    H111929   3.089   0.398  10.614  2.1720 -0.7394 -0.1752
  810MPD2    H211930   3.069   4.700  10.622 -0.9230 -0.7185  0.6025
  810MPD2    H311931   3.162   0.159  10.698 -1.9904 -2.2049  2.8096
  810MPD2     N11932   2.867   0.442  10.502  1.6242 -0.2644 -0.0764
  810MPD2    H511933   2.916   0.521  10.543  0.0472  0.0929  1.1278
  810MPD2    N111934   2.818   4.680  10.485 -0.7557  0.2676 -0.3109
  810MPD2    H711935   2.739   4.693  10.424  0.1433  1.0628 -1.3051
  811MPD2     C11936   2.188   4.616  10.091 -0.0656  0.1892 -0.0581
  811MPD2    C111937   2.298   4.661  10.153 -0.2672 -0.2538 -0.1674
  811MPD2    C211938   2.343   0.065  10.124  0.1079  0.0968 -0.5860
  811MPD2    C311939   2.281   0.143  10.035 -0.1960  0.0935 -0.1114
  811MPD2    C411940   2.168   0.100   9.979  0.1316  0.2005 -0.2787
  811MPD2    C511941   2.123   4.705  10.007  0.8520  0.1739  0.7542
  811MPD2     H11942   2.446   0.089  10.148 -0.1567  0.6246 -0.0001
  811MPD2    H111943   2.111   0.158   9.907  3.4597  2.1606 -1.3228
  811MPD2    H211944   2.142   4.520  10.113 -1.6510  0.8832 -0.2932
  811MPD2    H311945   2.034   4.673   9.953  0.5006  1.6781  0.4641
  811MPD2     N11946   2.347   0.268  10.005 -0.4574  0.1260  0.0706
  811MPD2    H511947   2.426   0.297  10.061 -0.8985  0.2780  0.6118
  811MPD2    N111948   2.373   4.573  10.233 -0.5542 -0.2655 -0.2450
  811MPD2    H711949   2.344   4.477  10.244 -2.8089  0.3232 -1.0924
  812MPD2     C11950   1.538   4.435  12.233  0.1898  1.0158  1.1206
  812MPD2    C111951   1.443   4.479  12.315 -0.1283  0.2208 -0.3447
  812MPD2    C211952   1.398   4.390  12.414  0.6485  0.1759 -0.3407
  812MPD2    C311953   1.446   4.266  12.440  0.0476  0.6123 -1.0380
  812MPD2    C411954   1.555   4.233  12.368  0.3030 -0.4408 -0.9869
  812MPD2    C511955   1.597   4.317  12.265 -0.2812 -0.4713  0.2915
  812MPD2     H11956   1.333   4.422  12.494  0.8152  1.3905 -0.6782
  812MPD2    H111957   1.611   4.141  12.376  0.2521 -0.2986  1.1485
  812MPD2    H211958   1.570   4.498  12.150 -0.2634 -0.7225 -0.3748
  812MPD2    H311959   1.681   4.293  12.200 -0.2671  0.4179 -0.0247
  812MPD2     N11960   1.384   4.188  12.537 -0.2305  0.3873  0.6013
  812MPD2    H511961   1.319   4.238  12.596 -0.8603  0.9719 -0.5875
  812MPD2    N111962   1.408   4.617  12.308  0.2136  0.6877 -0.1819
  812MPD2    H711963   1.462   4.684  12.254  0.3083  0.4207 -0.4157
  813MPD2     C11964   0.569   1.473  13.072 -0.4669  0.7005  0.8126
  813MPD2    C111965   0.523   1.599  13.027  0.3902  0.0455 -0.4652
  813MPD2    C211966   0.420   1.660  13.093  0.6141 -0.6917  0.0974
  813MPD2    C311967   0.358   1.605  13.208 -0.1365  0.4079  0.2816
  813MPD2    C411968   0.402   1.474  13.249  0.7597 -0.2568  0.3709
  813MPD2    C511969   0.505   1.416  13.175  0.3785  0.0466  0.6696
  813MPD2     H11970   0.390   1.761  13.068  0.0807 -1.0404 -0.6581
  813MPD2    H111971   0.369   1.416  13.334 -0.1861  0.9899  0.8553
  813MPD2    H211972   0.644   1.417  13.017 -1.3213 -1.7941  2.2075
  813MPD2    H311973   0.539   1.319  13.212  0.4321  0.6964  2.3182
  813MPD2     N11974   0.266   1.677  13.284 -0.3938  0.3477  0.5262
  813MPD2    H511975   0.258   1.774  13.254  2.6977  0.0760 -1.1159
  813MPD2    N111976   0.610   1.663  12.939 -0.1008  0.5296  0.3011
  813MPD2    H711977   0.696   1.615  12.916 -1.0011 -0.6999 -0.5032
  814MPD2     C11978   1.163   3.004  12.217  0.0681 -0.1569 -0.5104
  814MPD2    C111979   1.163   3.081  12.104  0.5713  0.8391 -0.1025
  814MPD2    C211980   1.254   3.186  12.100 -0.0709  0.8476 -0.3970
  814MPD2    C311981   1.340   3.213  12.206  0.3955  0.2892 -0.0941
  814MPD2    C411982   1.329   3.143  12.325 -0.1128  0.1492 -0.4072
  814MPD2    C511983   1.246   3.034  12.329 -0.0255 -0.2388  0.5900
  814MPD2     H11984   1.252   3.244  12.009 -0.1008  0.0813 -0.8851
  814MPD2    H111985   1.383   3.174  12.414  0.8778 -1.3443 -0.4884
  814MPD2    H211986   1.095   2.919  12.225  1.5239 -1.2795 -0.0762
  814MPD2    H311987   1.237   2.974  12.419 -0.9601 -1.4806 -0.3212
  814MPD2     N11988   1.419   3.325  12.209 -0.2320 -0.2905  0.0598
  814MPD2    H511989   1.467   3.342  12.297  0.4454 -1.6495 -0.0454
  814MPD2    N111990   1.078   3.065  11.992  0.1362 -0.0567  0.0505
  814MPD2    H711991   1.091   3.127  11.913  2.2091 -1.9266 -1.0723
  815MPD2     C11992   1.669   1.731  11.837  0.2538  0.0638 -0.5571
  815MPD2    C111993   1.648   1.597  11.811 -0.1076 -0.0692 -0.0538
  815MPD2    C211994   1.551   1.531  11.887  1.0653  0.0079 -0.1126
  815MPD2    C311995   1.480   1.595  11.985 -0.3249  0.6108  0.8785
  815MPD2    C411996   1.508   1.729  12.008 -0.4050  0.9683 -0.1797
  815MPD2    C511997   1.600   1.798  11.927 -0.6987  0.1754  0.1467
  815MPD2     H11998   1.529   1.429  11.858 -0.8242  0.2102  0.6376
  815MPD2    H111999   1.460   1.784  12.088 -1.0079 -0.2481  0.2988
  815MPD2    H212000   1.732   1.791  11.772  1.3032  0.1688  0.5536
  815MPD2    H312001   1.604   1.905  11.939 -0.1714 -0.1227  2.6761
  815MPD2     N12002   1.397   1.523  12.074  0.1554  0.5818  0.0170
  815MPD2    H512003   1.377   1.427  12.048  0.6485  0.4549  0.1062
  815MPD2    N112004   1.726   1.532  11.715 -0.1412  0.1812 -0.6744
  815MPD2    H712005   1.777   1.594  11.653 -0.0356  0.9379  0.1739
  816MPD2     C12006   1.255   0.409   0.092  0.4092  0.0854 -0.7079
  816MPD2    C112007   1.249   0.513   0.002  0.1805  0.5689  0.0835
  816MPD2    C212008   1.326   0.507  17.579  0.4182 -0.2879  0.3656
  816MPD2    C312009   1.411   0.404  17.560  0.0258 -0.6561 -0.2287
  816MPD2    C412010   1.413   0.297  17.646  0.1849  0.3977  0.1399
  816MPD2    C512011   1.328   0.291   0.056 -0.0849  1.0936  0.9534
  816MPD2     H12012   1.328   0.591  17.510 -0.3293 -2.0258 -1.7647
  816MPD2    H112013   1.482   0.214  17.632  0.5334  0.4131  1.7688
  816MPD2    H212014   1.204   0.418   0.187  1.3697  2.6387 -0.4459
  816MPD2    H312015   1.340   0.208   0.124 -1.5828 -0.5273 -0.7671
  816MPD2     N12016   1.492   0.419  17.443  0.2180 -0.4699 -0.4136
  816MPD2    H512017   1.461   0.479  17.368  1.5686  1.1675  0.3427
  816MPD2    N112018   1.166   0.627   0.027 -0.6621 -0.4649  0.4425
  816MPD2    H712019   1.128   0.637   0.121  2.0334  0.1294  1.4485
  817MPD2     C12020   0.795   2.307   9.838 -0.0359 -0.3238 -0.0494
  817MPD2    C112021   0.805   2.252   9.708  0.6951 -0.6792  0.4393
  817MPD2    C212022   0.728   2.311   9.604 -0.2097  0.5308  0.3931
  817MPD2    C312023   0.667   2.432   9.625  0.7187  0.2697  0.1221
  817MPD2    C412024   0.649   2.478   9.755 -0.1784 -0.0399  0.8818
  817MPD2    C512025   0.709   2.417   9.854  0.4569 -0.1442 -0.5164
  817MPD2     H12026   0.729   2.273   9.503  2.3409 -0.4091  0.7854
  817MPD2    H112027   0.593   2.566   9.785 -2.3216 -0.9571 -0.4010
  817MPD2    H212028   0.858   2.286   9.924 -1.9700 -1.4660  1.0979
  817MPD2    H312029   0.701   2.461   9.952  1.8779 -1.3585  0.1367
  817MPD2     N12030   0.607   2.498   9.516  0.8423 -0.1725  0.3127
  817MPD2    H512031   0.626   2.454   9.427  1.7066 -1.2204  1.0256
  817MPD2    N112032   0.895   2.147   9.669  0.7684  0.1072  0.6256
  817MPD2    H712033   0.889   2.114   9.573 -1.0493  1.0290  0.4328
  818MPD2     C12034   0.322   1.749  10.017  0.0814 -0.1340 -0.3197
  818MPD2    C112035   0.255   1.705  10.128  0.4535  0.1479 -0.0056
  818MPD2    C212036   0.247   1.574  10.154 -0.0816 -0.0194  0.2839
  818MPD2    C312037   0.323   1.484  10.074 -0.3625  1.1129  0.3035
  818MPD2    C412038   0.391   1.530   9.965  0.5740 -0.5429  0.3605
  818MPD2    C512039   0.387   1.663   9.939  0.4644  0.0830 -0.7002
  818MPD2     H12040   0.194   1.531  10.238  0.7065  0.0950  0.8323
  818MPD2    H112041   0.448   1.467   9.898  1.3991 -0.7107  1.2204
  818MPD2    H212042   0.315   1.854   9.990  0.2100 -0.0567 -0.0513
  818MPD2    H312043   0.405   1.688   9.835 -0.0591 -1.7879 -1.2536
  818MPD2     N12044   0.321   1.351  10.110 -0.3515  0.2053  0.2607
  818MPD2    H512045   0.282   1.331  10.201  0.3467  3.3149  1.2315
  818MPD2    N112046   0.182   1.789  10.211  0.0981 -0.1677  0.5808
  818MPD2    H712047   0.123   1.739  10.277 -0.8270  0.2095  0.0462
  819MPD2     C12048   2.709   3.761  15.602  0.0362 -0.5510 -0.0734
  819MPD2    C112049   2.725   3.636  15.654  0.9523  0.1972 -0.0228
  819MPD2    C212050   2.771   3.623  15.785  0.0921  1.0840  0.3252
  819MPD2    C312051   2.816   3.734  15.856 -0.1435 -0.0991  0.1217
  819MPD2    C412052   2.818   3.856  15.792  0.2843  0.8259  0.1296
  819MPD2    C512053   2.758   3.868  15.675  0.8912  0.0597 -0.2368
  819MPD2     H12054   2.788   3.531  15.839 -0.2993  0.3958 -0.7115
  819MPD2    H112055   2.849   3.944  15.848  2.6243  0.1666 -0.1302
  819MPD2    H212056   2.662   3.790  15.509 -3.1888 -3.5988  0.5839
  819MPD2    H312057   2.736   3.964  15.631 -0.6921 -0.2626 -0.1494
  819MPD2     N12058   2.858   3.709  15.989  0.6802 -0.2723 -0.0586
  819MPD2    H512059   2.833   3.617  16.023  1.4803 -0.9069 -1.1678
  819MPD2    N112060   2.682   3.522  15.578 -0.0858 -0.5293  0.4445
  819MPD2    H712061   2.619   3.535  15.501 -2.1701 -2.1338  1.8741
  820MPD2     C12062   1.804   3.287  15.211  0.1268  0.5955  0.6164
  820MPD2    C112063   1.870   3.390  15.278 -0.3415 -0.2566  0.3429
  820MPD2    C212064   1.999   3.366  15.328 -0.0072 -0.2543  0.4423
  820MPD2    C312065   2.059   3.238  15.326  0.1318  0.3928  0.1765
  820MPD2    C412066   1.989   3.142  15.261  1.3003  0.3364 -0.7118
  820MPD2    C512067   1.866   3.162  15.202  0.1153 -0.2600  0.3066
  820MPD2     H12068   2.054   3.449  15.372  0.2854  0.2109 -0.8197
  820MPD2    H112069   2.024   3.040  15.269 -2.5275 -0.8921  0.4103
  820MPD2    H212070   1.704   3.303  15.172  0.0007 -2.2999 -0.2368
  820MPD2    H312071   1.805   3.085  15.156  1.4445 -1.6368  0.8390
  820MPD2     N12072   2.184   3.204  15.387  0.2078  0.3423 -0.4849
  820MPD2    H512073   2.211   3.106  15.396 -0.7495  0.1385  0.2096
  820MPD2    N112074   1.803   3.515  15.293 -0.3373 -0.2682  0.2697
  820MPD2    H712075   1.715   3.523  15.243 -0.3811 -0.0195  0.3811
  821MPD2     C12076   3.389   0.032  13.481  0.4284 -0.5322  0.3743
  821MPD2    C112077   3.417   0.143  13.560 -0.1690  0.2456 -0.0516
  821MPD2    C212078   3.537   0.205  13.529 -0.1871  0.3379  0.2723
  821MPD2    C312079   3.601   0.194  13.414 -0.1169  0.2558 -0.7053
  821MPD2    C412080   3.569   0.088  13.329 -0.7467  0.0351 -0.4163
  821MPD2    C512081   3.458   0.010  13.362 -0.4236  0.9564 -0.5441
  821MPD2     H12082   3.573   0.284  13.593  2.9937 -1.7482  1.0337
  821MPD2    H112083   3.608   0.065  13.231 -0.3372  1.6737 -0.6339
  821MPD2    H212084   3.301   4.694  13.489 -0.2675  0.4939  0.5954
  821MPD2    H312085   3.432   4.658  13.290  0.1093 -0.3263  0.6153
  821MPD2     N12086   3.706   0.283  13.369  0.1740 -1.0241  0.1980
  821MPD2    H512087   3.736   0.257  13.276 -0.9228 -1.5266 -0.0139
  821MPD2    N112088   3.340   0.194  13.669 -0.1896  0.0885 -0.0387
  821MPD2    H712089   3.382   0.272  13.717  0.7657  0.4681 -1.4613
  822MPD2     C12090   3.481   0.546  15.855  0.2567 -0.5311  0.4863
  822MPD2    C112091   3.470   0.513  15.990 -0.3444 -0.5530  0.2579
  822MPD2    C212092   3.402   0.604  16.069  0.1694  0.1497 -0.0500
  822MPD2    C312093   3.360   0.725  16.025  0.2003  0.2270 -0.3214
  822MPD2    C412094   3.365   0.750  15.890  0.1789  0.0898  0.4277
  822MPD2    C512095   3.433   0.664  15.809  0.0879 -0.1574 -0.3524
  822MPD2     H12096   3.386   0.584  16.174  0.5407  1.3236  0.2333
  822MPD2    H112097   3.313   0.829  15.837 -0.8751 -0.7548  0.1965
  822MPD2    H212098   3.547   0.500  15.782  0.3266  0.2424  0.0629
  822MPD2    H312099   3.447   0.685  15.703  0.6175  0.4881 -0.1499
  822MPD2     N12100   3.311   0.824  16.114 -0.1620  0.4456 -0.1133
  822MPD2    H512101   3.287   0.797  16.209 -0.6892  2.0906  0.2187
  822MPD2    N112102   3.529   0.410  16.067 -0.4262  0.6478 -0.4437
  822MPD2    H712103   3.520   0.417  16.168  1.6150  1.8325 -0.3328
  823MPD2     C12104   3.075   1.009  16.884 -0.3494  0.2099  0.5134
  823MPD2    C112105   3.144   0.946  16.788  0.5740 -0.0422  0.6519
  823MPD2    C212106   3.212   0.832  16.814  0.0699  0.2708 -0.0710
  823MPD2    C312107   3.229   0.789  16.945 -0.2444  0.1308 -0.6015
  823MPD2    C412108   3.156   0.852  17.044  0.2806 -0.5927 -0.0352
  823MPD2    C512109   3.082   0.962  17.012  0.6291  0.2263  0.4861
  823MPD2     H12110   3.252   0.769  16.735  1.7350 -1.1437  1.8918
  823MPD2    H112111   3.154   0.815  17.146 -1.1062  0.7705  0.4353
  823MPD2    H212112   3.019   1.101  16.868 -1.9040 -1.0291 -1.2045
  823MPD2    H312113   3.028   1.021  17.084  0.0566  0.2908  0.0044
  823MPD2     N12114   3.300   0.671  16.989 -0.2079 -0.5817 -0.1711
  823MPD2    H512115   3.279   0.621  17.075 -1.3494  0.3989  0.1225
  823MPD2    N112116   3.138   1.004  16.658  0.2641 -0.3520  0.9539
  823MPD2    H712117   3.112   1.102  16.659  3.6060  0.5787 -0.7387
  824MPD2     C12118   4.305   4.655  16.233  0.0799  0.6558  0.5724
  824MPD2    C112119   4.191   4.644  16.154  0.4032 -0.2939  0.0876
  824MPD2    C212120   4.189   4.560  16.051  0.7318  0.4904 -0.3068
  824MPD2    C312121   4.289   4.475  16.015 -0.1353  0.0616 -0.6072
  824MPD2    C412122   4.409   4.487  16.085  0.2229 -0.1679 -0.1317
  824MPD2    C512123   4.410   4.582  16.192  0.3180 -0.0053  0.7854
  824MPD2     H12124   4.100   4.552  15.989 -1.0108  1.9682  1.9846
  824MPD2    H112125   4.496   4.431  16.054  0.2934 -1.4637  2.3950
  824MPD2    H212126   4.316   0.006  16.311 -0.2648  0.0051  1.2418
  824MPD2    H312127   4.502   4.600  16.247 -0.6131  1.5348  1.8445
  824MPD2     N12128   4.273   4.394  15.903  0.3060 -0.3268 -0.7300
  824MPD2    H512129   4.191   4.401  15.844  0.7084 -2.1662 -1.5007
  824MPD2    N112130   4.096   0.016  16.186  0.1226 -0.5214  0.5251
  824MPD2    H712131   4.126   0.080  16.258  1.1717  0.9204 -1.1899
  825MPD2     C12132   4.534   4.205  15.156  0.0099  0.1652  0.8126
  825MPD2    C112133   4.426   4.280  15.202 -0.8026 -0.6723 -0.2687
  825MPD2    C212134   4.411   4.406  15.151 -0.4652  0.3776  0.9376
  825MPD2    C312135   4.515   4.465  15.072  0.1659  0.5832 -0.1483
  825MPD2    C412136   4.615   4.382  15.022  0.0706 -0.2978  0.1034
  825MPD2    C512137   4.627   4.255  15.068 -0.5195 -0.3786 -0.1630
  825MPD2     H12138   4.337   4.474  15.192 -1.6196  0.2611 -0.9683
  825MPD2    H112139   4.689   4.426  14.957 -0.5641 -1.8696 -1.7002
  825MPD2    H212140   4.547   4.106  15.196  0.8256  0.0642  0.2999
  825MPD2    H312141   4.711   4.203  15.024  1.9736  1.7835  2.0771
  825MPD2     N12142   4.517   4.604  15.045  0.2485  0.2166  0.3518
  825MPD2    H512143   4.427   4.650  15.057 -0.4424 -1.1492  0.3430
  825MPD2    N112144   4.355   4.230  15.311  0.2001  0.1294 -0.2093
  825MPD2    H712145   4.380   4.137  15.345  3.4744  0.9183 -0.4405
  826MPD2     C12146   3.443   4.667  13.933 -0.2708 -0.1702  0.2495
  826MPD2    C112147   3.551   4.713  13.862 -0.8758  0.1670 -0.5696
  826MPD2    C212148   3.601   0.110  13.886 -0.3013  0.0321  0.0125
  826MPD2    C312149   3.559   0.189  13.992 -0.5535 -0.2519 -0.1220
  826MPD2    C412150   3.448   0.141  14.061  0.9896 -0.2209 -0.4701
  826MPD2    C512151   3.391   0.021  14.028 -0.1767 -0.2001 -0.4686
  826MPD2     H12152   3.686   0.141  13.826  0.5697 -0.6569  0.8991
  826MPD2    H112153   3.391   0.200  14.131  1.7825 -1.0808  0.9017
  826MPD2    H212154   3.400   4.571  13.909  0.3373 -0.7791  1.6087
  826MPD2    H312155   3.303   4.712  14.081  0.4753 -1.3024 -0.0644
  826MPD2     N12156   3.600   0.326  14.024  0.6355  0.6328 -0.0358
  826MPD2    H512157   3.554   0.361  14.107  0.8891  4.0345 -1.2931
  826MPD2    N112158   3.592   4.625  13.755 -0.0616  0.4224  0.5117
  826MPD2    H712159   3.526   4.558  13.717  0.4122  2.2748 -3.4902
  827MPD2     C12160   0.772   0.961  10.068  0.0869  0.3720 -0.3107
  827MPD2    C112161   0.707   0.878  10.151  0.4899 -0.3121  0.0461
  827MPD2    C212162   0.598   0.803  10.106 -0.0633  0.6086  0.8687
  827MPD2    C312163   0.567   0.805   9.975  0.4826 -0.5759 -0.4075
  827MPD2    C412164   0.630   0.896   9.895  0.6158  0.3883  0.1571
  827MPD2    C512165   0.729   0.973   9.939 -0.5064 -0.0617  0.2794
  827MPD2     H12166   0.540   0.738  10.169 -0.7673 -0.9883 -1.4164
  827MPD2    H112167   0.604   0.915   9.791 -0.7168  1.3418  0.6602
  827MPD2    H212168   0.853   1.025  10.100  0.3059 -0.6123  1.0807
  827MPD2    H312169   0.782   1.051   9.885  0.4599 -0.8758  0.0583
  827MPD2     N12170   0.463   0.721   9.927  0.5769  0.2462  0.4976
  827MPD2    H512171   0.415   0.671  10.001  1.1088  0.0276  0.6914
  827MPD2    N112172   0.747   0.883  10.287 -0.2967 -0.2421 -0.0378
  827MPD2    H712173   0.815   0.955  10.311 -0.3677  0.1318 -0.9363
  828MPD2     C12174   3.114   0.305  12.640 -0.2342 -0.2055  0.3648
  828MPD2    C112175   3.120   0.403  12.542 -0.0575  0.1232  0.3786
  828MPD2    C212176   3.203   0.388  12.436 -0.1451  0.2981  0.8350
  828MPD2    C312177   3.282   0.276  12.422 -0.4288  0.2867  0.9768
  828MPD2    C412178   3.281   0.185  12.526  0.2106 -0.1852 -0.3695
  828MPD2    C512179   3.204   0.203  12.633  0.1469 -0.3027 -0.2754
  828MPD2     H12180   3.200   0.462  12.356 -1.9361 -2.0189 -1.2654
  828MPD2    H112181   3.351   0.102  12.527  1.3102  0.7479  0.8403
  828MPD2    H212182   3.048   0.303  12.726  0.8684  0.9802  1.2485
  828MPD2    H312183   3.203   0.133  12.715  0.8861  1.4904  1.2470
  828MPD2     N12184   3.360   0.244  12.309  0.4694  0.1753  1.0144
  828MPD2    H512185   3.400   0.152  12.295 -0.9507 -0.3432  0.2320
  828MPD2    N112186   3.039   0.517  12.551  0.4070  0.0214 -0.0223
  828MPD2    H712187   3.039   0.576  12.468 -1.1341  1.9368  1.3348
  829MPD2     C12188   2.438   0.917  11.881 -0.5903 -0.4473 -0.1824
  829MPD2    C112189   2.390   0.987  11.996 -0.2739 -0.1636 -0.3207
  829MPD2    C212190   2.455   0.969  12.115  0.5229 -0.6407  0.9212
  829MPD2    C312191   2.553   0.875  12.127  0.1157 -0.1342  0.1658
  829MPD2    C412192   2.597   0.810  12.019 -0.3371 -0.2848 -0.0031
  829MPD2    C512193   2.537   0.828  11.898  0.6346  0.0422  0.5741
  829MPD2     H12194   2.419   1.018  12.205 -1.8825 -1.3846  0.3697
  829MPD2    H112195   2.685   0.746  12.021  0.1944  0.3995 -1.6036
  829MPD2    H212196   2.388   0.915  11.785 -1.7305 -0.0351  0.4056
  829MPD2    H312197   2.575   0.770  11.814  1.1803 -1.8118  2.0976
  829MPD2     N12198   2.600   0.855  12.254 -0.4220 -0.9208 -0.5007
  829MPD2    H512199   2.565   0.925  12.318  0.3262 -0.6498 -0.3851
  829MPD2    N112200   2.276   1.073  11.987 -0.1673 -0.9518  0.5961
  829MPD2    H712201   2.238   1.084  11.893  0.5680 -0.1282  0.3951
  830MPD2     C12202   3.402   3.446  16.256 -0.1989  0.3086 -0.3296
  830MPD2    C112203   3.311   3.469  16.154  0.4340 -0.4547 -0.4427
  830MPD2    C212204   3.352   3.518  16.031 -0.1937 -0.1947 -0.0701
  830MPD2    C312205   3.482   3.550  16.007  0.5753 -0.1844 -0.4329
  830MPD2    C412206   3.577   3.530  16.113 -0.1463  0.0555 -0.0786
  830MPD2    C512207   3.535   3.481  16.236 -0.3775  0.0723  0.6257
  830MPD2     H12208   3.278   3.543  15.956 -0.0384  1.7768  0.4468
  830MPD2    H112209   3.683   3.552  16.112 -0.0630 -0.0061  4.5371
  830MPD2    H212210   3.378   3.418  16.358  0.7223  1.0170  0.0854
  830MPD2    H312211   3.609   3.473  16.315  0.4197  0.6944 -0.0596
  830MPD2     N12212   3.524   3.608  15.887  1.2189  0.0379 -0.0126
  830MPD2    H512213   3.616   3.650  15.884  1.8179 -1.1587  1.6309
  830MPD2    N112214   3.173   3.448  16.173 -0.0534  0.3266  0.2852
  830MPD2    H712215   3.115   3.477  16.094 -0.8636 -1.1647  0.3389
  831MPD2     C12216   3.623   0.929  16.380 -0.2173  0.0380 -0.7020
  831MPD2    C112217   3.644   0.808  16.322  0.2675  0.0841  0.3799
  831MPD2    C212218   3.566   0.700  16.363  0.0402  0.1338 -0.0081
  831MPD2    C312219   3.465   0.719  16.448  0.6247  0.2742 -0.5783
  831MPD2    C412220   3.459   0.833  16.512 -0.1647  0.3523 -0.0022
  831MPD2    C512221   3.544   0.940  16.490  0.1840  0.8408  0.0739
  831MPD2     H12222   3.592   0.604  16.319  0.1479 -0.1859  0.7510
  831MPD2    H112223   3.406   0.836  16.607 -0.0516  1.6354  0.0159
  831MPD2    H212224   3.687   1.016  16.366 -0.9560  0.5866 -0.7071
  831MPD2    H312225   3.532   1.034  16.543  0.1380  0.3615  0.9245
  831MPD2     N12226   3.364   0.623  16.482 -0.3661 -0.2002 -0.0265
  831MPD2    H512227   3.300   0.657  16.553  0.0467 -0.3091  0.3934
  831MPD2    N112228   3.735   0.796  16.221 -0.2215 -0.3301 -0.4236
  831MPD2    H712229   3.772   0.880  16.177 -0.4333  0.1217  0.2733
  832MPD2     C12230   1.873   1.685  17.574 -0.6330  0.1802 -0.1921
  832MPD2    C112231   1.894   1.787  17.484  0.9723  1.0807 -0.1295
  832MPD2    C212232   1.794   1.791  17.382 -0.6863 -0.1593  0.2799
  832MPD2    C312233   1.690   1.698  17.373  0.2991  0.0609  0.0221
  832MPD2    C412234   1.677   1.607  17.464  0.3035 -0.6227 -0.5400
  832MPD2    C512235   1.768   1.600  17.565  0.4058  0.4613  0.2443
  832MPD2     H12236   1.807   1.864  17.303 -3.3065  2.9027  2.7003
  832MPD2    H112237   1.599   1.533  17.450  0.5107 -1.4048  2.3506
  832MPD2    H212238   1.949   1.665  17.649 -1.1121  1.0599  0.5426
  832MPD2    H312239   1.767   1.516  17.633 -0.8171  1.4160  1.4091
  832MPD2     N12240   1.586   1.703  17.277  0.5167  0.4158 -0.1080
  832MPD2    H512241   1.503   1.645  17.285 -0.0032  0.8943 -2.0260
  832MPD2    N112242   1.996   1.883  17.511 -0.5233  0.1096 -0.6730
  832MPD2    H712243   2.045   1.866  17.598  0.2930  0.0435 -1.1385
  833MPD2     C12244   4.333   3.393  12.598 -0.1042  0.1154  0.9124
  833MPD2    C112245   4.281   3.443  12.477  0.2921 -1.6386  0.0414
  833MPD2    C212246   4.349   3.420  12.362  0.5962 -0.2212  0.4836
  833MPD2    C312247   4.471   3.355  12.357  0.2617 -0.4454  0.1366
  833MPD2    C412248   4.515   3.294  12.476  0.2435  0.0267 -0.4648
  833MPD2    C512249   4.452   3.327  12.594  0.4318  0.1680  0.0064
  833MPD2     H12250   4.304   3.469  12.276  0.3271 -1.3370 -0.0145
  833MPD2    H112251   4.605   3.236  12.486  1.2410  1.6248 -0.1926
  833MPD2    H212252   4.279   3.398  12.693  0.5435 -1.9803  1.4011
  833MPD2    H312253   4.481   3.272  12.683  2.1824  0.0561 -0.6293
  833MPD2     N12254   4.546   3.336  12.243 -0.4347  0.5462  0.4314
  833MPD2    H512255   4.625   3.274  12.256 -0.3710  0.6731  0.6530
  833MPD2    N112256   4.156   3.507  12.466 -0.1742  0.0983 -0.1426
  833MPD2    H712257   4.115   3.539  12.379 -0.8039 -0.6242 -0.1099
  834MPD2     C12258   4.421   2.537  11.714 -0.3867  0.0606 -0.5245
  834MPD2    C112259   4.442   2.616  11.605 -0.0094 -0.4529  0.3665
  834MPD2    C212260   4.495   2.738  11.629  0.3972 -0.0865 -0.8883
  834MPD2    C312261   4.527   2.789  11.752  0.7633  0.8379  0.1824
  834MPD2    C412262   4.501   2.703  11.862 -0.5330 -1.2596  0.3473
  834MPD2    C512263   4.451   2.581  11.836  0.0354 -0.5702  0.6160
  834MPD2     H12264   4.516   2.790  11.536  0.4593 -0.6938 -1.2167
  834MPD2    H112265   4.505   2.731  11.966 -1.6413  0.0850  0.0395
  834MPD2    H212266   4.388   2.437  11.692  2.9393 -1.2858  0.5821
  834MPD2    H312267   4.439   2.519  11.924 -1.9914  0.8774  1.3507
  834MPD2     N12268   4.553   2.930  11.773  0.2166 -0.0207 -0.3634
  834MPD2    H512269   4.536   2.993  11.695 -3.5930  0.9678  1.2735
  834MPD2    N112270   4.402   2.564  11.481 -0.4205  0.1072  0.2281
  834MPD2    H712271   4.356   2.473  11.483 -2.4909  1.1259 -1.0506
  835MPD2     C12272   4.656   0.945  11.529 -0.3713  0.0813 -0.1312
  835MPD2    C112273   4.550   1.034  11.565 -0.7112  1.0075 -0.3270
  835MPD2    C212274   4.522   1.065  11.696 -0.1791  0.3918 -0.0963
  835MPD2    C312275   4.600   1.009  11.798  0.4070 -0.0760 -0.1017
  835MPD2    C412276   4.703   0.927  11.762  0.1794 -0.5469  0.1154
  835MPD2    C512277   0.012   0.899  11.630  0.2484  0.2361 -0.5223
  835MPD2     H12278   4.453   1.147  11.712  0.2900  0.4970  1.3553
  835MPD2    H112279   0.051   0.904  11.840 -0.0709  0.4178  0.6240
  835MPD2    H212280   4.673   0.919  11.426 -3.3452  0.3208 -0.6777
  835MPD2    H312281   0.102   0.844  11.606 -0.1695 -1.4619  1.8364
  835MPD2     N12282   4.603   1.051  11.933  0.4300  0.4746 -0.7165
  835MPD2    H512283   4.675   1.010  11.991  0.2618 -1.1225 -1.6450
  835MPD2    N112284   4.463   1.085  11.467  0.2880 -0.1525  0.3846
  835MPD2    H712285   4.403   1.163  11.492 -0.3989 -1.2579  2.2415
  836MPD2     C12286   4.139   1.593  12.218 -0.0048 -0.7716 -0.4556
  836MPD2    C112287   4.192   1.516  12.321 -0.0130  0.5186  0.8152
  836MPD2    C212288   4.134   1.534  12.451  0.6027 -0.8487 -0.1121
  836MPD2    C312289   4.023   1.617  12.472  0.2790 -0.1394  0.5269
  836MPD2    C412290   3.982   1.701  12.373  0.1386 -0.7834 -0.5105
  836MPD2    C512291   4.036   1.687  12.244  0.4888  0.5607 -0.0390
  836MPD2     H12292   4.172   1.481  12.538 -0.0960  0.5936  1.0784
  836MPD2    H112293   3.912   1.780  12.397  0.5584 -0.2971 -0.8840
  836MPD2    H212294   4.184   1.590  12.120 -0.0318  1.8368 -0.5644
  836MPD2    H312295   3.998   1.756  12.170  2.1690 -0.4223 -1.8400
  836MPD2     N12296   3.964   1.631  12.602  0.0842  0.2298 -0.2529
  836MPD2    H512297   3.880   1.686  12.616 -0.2331 -0.6035  1.1683
  836MPD2    N112298   4.289   1.415  12.297  0.3986 -0.2221 -0.3387
  836MPD2    H712299   4.312   1.391  12.200  0.4957 -0.5277 -0.2406
  837MPD2     C12300   3.008   0.679   9.914 -1.2050  0.4320  0.5783
  837MPD2    C112301   2.905   0.753   9.972 -0.6799 -0.1745  0.2398
  837MPD2    C212302   2.927   0.890   9.991  0.0268  0.0632 -0.3285
  837MPD2    C312303   3.033   0.953   9.943 -0.1326  0.7147  0.3095
  837MPD2    C412304   3.142   0.888   9.898 -0.5151 -0.4131 -0.2908
  837MPD2    C512305   3.122   0.753   9.877 -0.1703 -0.0143 -0.5849
  837MPD2     H12306   2.841   0.948  10.023 -0.1993 -0.1691 -0.5115
  837MPD2    H112307   3.230   0.936   9.859  0.6569 -0.4910  2.2304
  837MPD2    H212308   2.990   0.574   9.891  0.6139  0.3826 -0.6285
  837MPD2    H312309   3.206   0.698   9.835  0.5542 -0.8778  1.9909
  837MPD2     N12310   3.019   1.090   9.936 -0.1439  0.5726  0.3821
  837MPD2    H512311   2.937   1.123   9.984  0.3426 -2.1760  3.0326
  837MPD2    N112312   2.776   0.702   9.999  0.5015 -0.0198  0.2607
  837MPD2    H712313   2.703   0.771  10.010  0.2605 -0.3467  0.7638
  838MPD2     C12314   0.702   4.020  11.731  0.1679  0.0309 -0.1053
  838MPD2    C112315   0.723   3.904  11.795  0.6741  0.4848  0.1106
  838MPD2    C212316   0.615   3.809  11.810  0.2797  0.2048  0.3400
  838MPD2    C312317   0.488   3.839  11.764  0.8569  1.1250  0.4093
  838MPD2    C412318   0.473   3.968  11.718 -0.6975  0.5030 -0.0037
  838MPD2    C512319   0.571   4.059  11.691  0.2087 -0.0193 -1.0339
  838MPD2     H12320   0.629   3.709  11.849 -0.9035 -0.1982 -0.2788
  838MPD2    H112321   0.371   3.995  11.692 -1.4091 -0.5763  1.6318
  838MPD2    H212322   0.779   4.097  11.722  1.0108 -0.7155  0.6985
  838MPD2    H312323   0.544   4.159  11.661 -1.8472  0.0354  1.0051
  838MPD2     N12324   0.391   3.740  11.780 -0.5370  0.5826 -0.5268
  838MPD2    H512325   0.412   3.660  11.839  1.1098 -0.3052 -2.3385
  838MPD2    N112326   0.845   3.855  11.837 -0.1499 -0.4884  0.5602
  838MPD2    H712327   0.845   3.765  11.885 -0.7754 -2.6368 -3.5183
  839MPD2     C12328   0.610   3.143  11.882  0.6357  0.4250  0.3640
  839MPD2    C112329   0.627   3.199  11.753  0.9811 -0.3127 -0.1516
  839MPD2    C212330   0.733   3.284  11.732 -0.7837  0.0561  0.4560
  839MPD2    C312331   0.809   3.329  11.838 -0.1612 -0.2922 -0.0563
  839MPD2    C412332   0.787   3.283  11.964  0.4434 -0.3787 -0.2590
  839MPD2    C512333   0.684   3.195  11.984  0.0772  0.0392 -0.7572
  839MPD2     H12334   0.749   3.320  11.632 -3.5274  1.3725  0.4917
  839MPD2    H112335   0.848   3.315  12.048  0.8149 -0.7949 -0.3729
  839MPD2    H212336   0.537   3.066  11.906  0.5509  0.1031 -0.9415
  839MPD2    H312337   0.668   3.168  12.088 -0.2434 -2.9269 -1.5960
  839MPD2     N12338   0.913   3.424  11.826 -0.2795  0.6601  0.6096
  839MPD2    H512339   0.960   3.453  11.911 -0.1338  1.9522  0.0902
  839MPD2    N112340   0.546   3.172  11.645 -0.1630 -0.2397 -0.2392
  839MPD2    H712341   0.589   3.209  11.561 -2.4088  1.9216 -0.4318
  840MPD2     C12342   1.339   1.076  10.461  0.7899  0.1470  0.2501
  840MPD2    C112343   1.255   1.085  10.573 -0.1152 -0.0451 -0.3796
  840MPD2    C212344   1.283   1.187  10.659  0.6825  0.5237  0.1185
  840MPD2    C312345   1.384   1.285  10.635  0.2370 -0.2658  0.2658
  840MPD2    C412346   1.462   1.268  10.528  0.1347 -0.5289  1.1110
  840MPD2    C512347   1.456   1.152  10.456 -0.1985  0.1275  0.2337
  840MPD2     H12348   1.219   1.197  10.746 -0.3228 -0.9689 -0.4493
  840MPD2    H112349   1.548   1.332  10.511 -2.2904  3.2305  3.0492
  840MPD2    H212350   1.328   0.996  10.389 -1.2846  0.7028 -0.0331
  840MPD2    H312351   1.522   1.124  10.375 -0.4593  0.1778  0.0032
  840MPD2     N12352   1.407   1.406  10.704 -0.0683 -0.0930  0.6281
  840MPD2    H512353   1.484   1.460  10.667 -0.9604  2.7819  2.9836
  840MPD2    N112354   1.133   1.013  10.571 -0.1905 -0.1010 -0.1417
  840MPD2    H712355   1.114   0.966  10.483  0.4075  0.8102 -0.7523
  841MPD2     C12356   4.532   0.632  14.800 -0.1720 -0.3324 -0.5341
  841MPD2    C112357   4.654   0.567  14.799  0.0825 -0.5723  0.2954
  841MPD2    C212358   0.022   0.588  14.897  0.3250 -0.6786  0.5236
  841MPD2    C312359   4.712   0.686  15.000 -0.3167  0.2095  0.2747
  841MPD2    C412360   4.604   0.761  14.992 -0.2165  0.2109 -0.2042
  841MPD2    C512361   4.515   0.737  14.888  0.2987  0.1895 -0.5041
  841MPD2     H12362   0.107   0.521  14.907  1.9814  1.0456 -1.9767
  841MPD2    H112363   4.575   0.834  15.067  1.5035  1.2849 -0.6001
  841MPD2    H212364   4.454   0.619  14.725  0.1530 -1.3750 -0.6874
  841MPD2    H312365   4.423   0.792  14.878 -1.7481 -2.9668  0.9535
  841MPD2     N12366   0.074   0.696  15.110 -0.0852 -0.3275 -0.5412
  841MPD2    H512367   0.146   0.624  15.116  0.1794  0.0738  0.9482
  841MPD2    N112368   4.692   0.473  14.705  0.8319  0.3279  0.5616
  841MPD2    H712369   0.063   0.436  14.708  0.9051  0.3788 -0.7503
  842MPD2     C12370   0.870   1.953  17.119 -0.0713 -0.4867 -0.9844
  842MPD2    C112371   0.733   1.946  17.117 -0.0348  0.5113  0.2612
  842MPD2    C212372   0.671   1.884  17.223 -0.4697  0.8680 -0.7235
  842MPD2    C312373   0.742   1.817  17.320 -0.3655 -0.3140 -0.8155
  842MPD2    C412374   0.881   1.822  17.313  0.8481 -0.2804  0.6954
  842MPD2    C512375   0.948   1.893  17.211 -0.0070  0.2836  0.0501
  842MPD2     H12376   0.564   1.869  17.214 -0.8024  2.6986  0.1576
  842MPD2    H112377   0.947   1.764  17.377  1.7709  0.4199  0.3936
  842MPD2    H212378   0.925   2.007  17.043  1.0889 -1.1110 -0.5925
  842MPD2    H312379   1.055   1.908  17.209  0.1858 -1.0879  0.2762
  842MPD2     N12380   0.680   1.745  17.427 -0.3693  0.4680 -0.0937
  842MPD2    H512381   0.747   1.718  17.498  0.4824 -3.0423 -2.2381
  842MPD2    N112382   0.664   2.032  17.024 -0.2120  0.0471 -0.6769
  842MPD2    H712383   0.715   2.072  16.946 -0.3772 -1.4183 -1.5319
  843MPD2     C12384   2.879   2.499  17.594 -0.7895  0.2708  0.7615
  843MPD2    C112385   2.918   2.437   0.017 -0.5525  0.7219 -0.5537
  843MPD2    C212386   3.028   2.495   0.089 -0.6756 -0.7680  0.1648
  843MPD2    C312387   3.100   2.599   0.033  0.4986 -0.1742 -1.1050
  843MPD2    C412388   3.065   2.645  17.605  0.3762  0.0602  0.0477
  843MPD2    C512389   2.951   2.602  17.540  0.7121  0.2227 -0.9514
  843MPD2     H12390   3.052   2.453   0.186  0.2932 -1.0492 -0.1878
  843MPD2    H112391   3.127   2.720  17.557  1.5391 -0.3807  0.8717
  843MPD2    H212392   2.799   2.456  17.536 -1.6934  2.2411  0.5668
  843MPD2    H312393   2.925   2.642  17.443  1.2174  0.3457 -1.0383
  843MPD2     N12394   3.211   2.662   0.092  0.2941 -0.2276  0.1504
  843MPD2    H512395   3.250   2.747   0.053 -0.3843  0.2216  0.4470
  843MPD2    N112396   2.857   2.320   0.073 -0.2332 -0.0411 -0.2707
  843MPD2    H712397   2.887   2.285   0.163  2.8672 -0.4308 -1.4742
  844MPD2     C12398   1.232   1.273  17.126 -0.7415 -0.2133  0.5986
  844MPD2    C112399   1.267   1.284  16.995 -0.2603  0.2491 -0.5558
  844MPD2    C212400   1.393   1.344  16.974  0.1803 -1.0808 -0.3737
  844MPD2    C312401   1.481   1.382  17.073 -0.1126 -0.0413 -0.1573
  844MPD2    C412402   1.441   1.359  17.203 -0.3795  0.8833 -0.5465
  844MPD2    C512403   1.314   1.313  17.225  0.4490 -0.2862 -0.5528
  844MPD2     H12404   1.413   1.358  16.869  1.0991  0.2362 -0.0171
  844MPD2    H112405   1.509   1.382  17.284  0.2390  1.2644 -1.1746
  844MPD2    H212406   1.133   1.234  17.144 -1.3083  0.7546 -0.4520
  844MPD2    H312407   1.283   1.313  17.328 -1.5213  1.6695 -1.1596
  844MPD2     N12408   1.609   1.435  17.051 -0.3285  0.3472 -0.1927
  844MPD2    H512409   1.666   1.429  17.134 -0.6219  3.5120  0.2321
  844MPD2    N112410   1.191   1.246  16.888  0.0683 -0.3030 -0.6876
  844MPD2    H712411   1.229   1.261  16.795  3.8859 -0.1602  0.8825
  845MPD2     C12412   2.029   2.388  16.860  0.2048 -0.2418 -0.3714
  845MPD2    C112413   2.007   2.365  16.996 -0.6859  0.1978  0.1818
  845MPD2    C212414   1.971   2.235  17.023  0.5702  0.5353  0.1036
  845MPD2    C312415   1.962   2.129  16.937 -0.1984  0.1889  0.3203
  845MPD2    C412416   1.993   2.156  16.808 -0.3125  0.0865 -0.2377
  845MPD2    C512417   2.024   2.284  16.765 -0.1177  0.0640 -0.3746
  845MPD2     H12418   1.943   2.198  17.120  2.0895  0.0912  0.3681
  845MPD2    H112419   1.969   2.086  16.729  0.5222 -0.9820  0.4575
  845MPD2    H212420   2.069   2.480  16.818  0.8253 -0.8211 -1.0651
  845MPD2    H312421   2.052   2.312  16.664 -1.0051 -0.0727 -0.6581
  845MPD2     N12422   1.925   2.004  16.982  0.4487 -0.0588 -0.3886
  845MPD2    H512423   1.956   1.981  17.076 -0.5900  0.8976  0.1912
  845MPD2    N112424   1.993   2.476  17.084  0.6453  0.2038 -0.4850
  845MPD2    H712425   1.975   2.568  17.045  0.1829 -0.2795 -1.4233
  846MPD2     C12426   3.093   2.632  13.564  0.2000 -0.4738  0.3449
  846MPD2    C112427   3.111   2.769  13.593  1.1948  0.0898 -0.6800
  846MPD2    C212428   3.088   2.801  13.726 -0.1031  0.2810  0.0057
  846MPD2    C312429   3.082   2.714  13.830 -0.1862  0.1189 -0.4369
  846MPD2    C412430   3.091   2.578  13.798  1.1870 -0.5200 -0.1833
  846MPD2    C512431   3.089   2.538  13.662  0.8703 -0.6271 -0.4529
  846MPD2     H12432   3.104   2.904  13.753 -0.1037  0.3515 -0.2589
  846MPD2    H112433   3.089   2.501  13.874  0.1356 -0.6777 -0.3710
  846MPD2    H212434   3.103   2.590  13.464 -1.5985 -2.8506  1.1689
  846MPD2    H312435   3.091   2.438  13.622 -0.4923  0.2422 -2.6690
  846MPD2     N12436   3.085   2.764  13.961 -0.0268  0.1775 -0.2738
  846MPD2    H512437   3.049   2.857  13.976  0.7548  0.4878 -0.3034
  846MPD2    N112438   3.149   2.874  13.505  0.0980  0.3710  0.2709
  846MPD2    H712439   3.185   2.959  13.548 -2.3806  0.9301  1.2574
  847MPD2     C12440   3.419   3.752  14.494 -0.4758  0.4256  0.8222
  847MPD2    C112441   3.389   3.721  14.623 -0.4874 -0.3130 -0.0055
  847MPD2    C212442   3.490   3.690  14.716  0.3492  0.2558 -0.3006
  847MPD2    C312443   3.621   3.692  14.676  0.0546  0.5312 -0.3608
  847MPD2    C412444   3.652   3.706  14.542 -0.0426 -0.5634  0.0142
  847MPD2    C512445   3.546   3.739  14.450 -0.2421 -0.6502  0.2845
  847MPD2     H12446   3.459   3.674  14.819  2.9032 -2.5710  0.0226
  847MPD2    H112447   3.751   3.715  14.500 -0.7322  1.3276 -1.2278
  847MPD2    H212448   3.334   3.765  14.428  0.1233  0.7362  0.1089
  847MPD2    H312449   3.570   3.751  14.345  0.5044 -1.4069  0.3603
  847MPD2     N12450   3.709   3.688  14.785 -0.5479  0.1791  0.6871
  847MPD2    H512451   3.666   3.664  14.873  0.4600 -0.6714  0.9521
  847MPD2    N112452   3.263   3.729  14.682 -0.2879  0.4748 -0.1594
  847MPD2    H712453   3.259   3.729  14.783 -0.9684  0.7791 -0.1900
  848MPD2     C12454   1.272   1.889  16.533  0.3166 -0.3513  0.5664
  848MPD2    C112455   1.333   1.962  16.629  0.6016  0.6698 -0.6085
  848MPD2    C212456   1.376   2.093  16.594 -0.0403 -0.3961  0.4687
  848MPD2    C312457   1.357   2.146  16.467 -0.0611  0.1537  0.5515
  848MPD2    C412458   1.292   2.069  16.375  0.0795 -0.0950  0.5711
  848MPD2    C512459   1.254   1.939  16.403 -0.0926 -0.0687  0.9200
  848MPD2     H12460   1.426   2.147  16.674  0.8391  1.1080 -1.0869
  848MPD2    H112461   1.275   2.102  16.274 -1.1923 -0.3683  0.7031
  848MPD2    H212462   1.238   1.787  16.546  0.3720 -0.3986  0.3400
  848MPD2    H312463   1.221   1.870  16.326 -3.2525  0.6763  1.6057
  848MPD2     N12464   1.370   2.279  16.431 -0.3678  0.2293  0.5910
  848MPD2    H512465   1.346   2.305  16.336  0.2830  0.4699  0.4930
  848MPD2    N112466   1.336   1.920  16.768 -0.0435 -0.4435 -0.4892
  848MPD2    H712467   1.371   1.983  16.839  0.1901 -0.4688 -0.5822
  849MPD2     C12468   0.775   1.468  13.472 -0.5695 -0.1889  0.0235
  849MPD2    C112469   0.883   1.394  13.523 -0.5599  0.3603  0.2219
  849MPD2    C212470   0.861   1.308  13.633 -0.4287 -0.4060  0.3644
  849MPD2    C312471   0.734   1.292  13.686  0.3876  1.1207 -0.6510
  849MPD2    C412472   0.626   1.353  13.624  0.7293  0.3503 -0.4574
  849MPD2    C512473   0.646   1.442  13.515  0.0483  0.3675 -0.0581
  849MPD2     H12474   0.945   1.266  13.686 -0.5777 -0.3609  0.6380
  849MPD2    H112475   0.527   1.336  13.665  0.8973 -1.5885 -0.8457
  849MPD2    H212476   0.781   1.535  13.386 -0.4343  1.8467  1.6036
  849MPD2    H312477   0.561   1.503  13.488  0.0502  0.6818  0.6610
  849MPD2     N12478   0.719   1.227  13.806 -0.3253  0.3836  0.1528
  849MPD2    H512479   0.801   1.174  13.835  0.3889  2.3791  1.7951
  849MPD2    N112480   1.003   1.399  13.456  0.1355  0.0802  0.7483
  849MPD2    H712481   1.019   1.478  13.394 -1.6919 -1.5381 -1.7624
  850MPD2     C12482   3.236   4.500  14.814 -0.2770 -0.2267  0.4290
  850MPD2    C112483   3.254   4.506  14.950 -0.6645  0.2809 -0.1740
  850MPD2    C212484   3.383   4.507  14.992  0.6816 -0.6356 -0.1528
  850MPD2    C312485   3.496   4.513  14.907  0.3699 -0.2013  0.3454
  850MPD2    C412486   3.479   4.504  14.775 -0.1556  0.0997  0.4840
  850MPD2    C512487   3.347   4.490  14.733 -0.3080  0.7126 -0.1982
  850MPD2     H12488   3.391   4.523  15.099  0.4089  0.6267 -0.3227
  850MPD2    H112489   3.556   4.519  14.700  0.6888 -0.6227  1.2088
  850MPD2    H212490   3.142   4.496  14.760  0.8447 -1.5947 -1.4578
  850MPD2    H312491   3.337   4.498  14.626  1.3327  0.1124 -0.3937
  850MPD2     N12492   3.631   4.533  14.955  0.5079  0.2278  0.6535
  850MPD2    H512493   3.704   4.552  14.887 -0.4661  1.2620 -0.0956
  850MPD2    N112494   3.151   4.508  15.043  0.3881 -1.0151 -0.1527
  850MPD2    H712495   3.180   4.509  15.140  1.3267  1.6079 -0.4593
  851MPD2     C12496   3.287   4.511  15.724  0.1750  0.7373  0.0544
  851MPD2    C112497   3.211   4.424  15.647  0.2829  0.4787 -0.1580
  851MPD2    C212498   3.265   4.294  15.613  0.7187  0.3544 -0.1381
  851MPD2    C312499   3.379   4.255  15.680  0.5051  0.0250 -0.7819
  851MPD2    C412500   3.444   4.344  15.769 -0.4480  0.1975  0.4595
  851MPD2    C512501   3.390   4.466  15.797  0.4054 -0.3108 -0.1664
  851MPD2     H12502   3.244   4.241  15.521  1.8329  0.5858 -0.5312
  851MPD2    H112503   3.533   4.310  15.822 -0.2627 -1.2680 -0.7985
  851MPD2    H212504   3.255   4.613  15.740 -0.8859  0.3953  0.1232
  851MPD2    H312505   3.442   4.529  15.869 -0.3548  0.7417 -0.5512
  851MPD2     N12506   3.430   4.128  15.646  0.4361  0.2165  0.3768
  851MPD2    H512507   3.375   4.082  15.574 -1.2971  2.7682  0.0570
  851MPD2    N112508   3.108   4.481  15.568  0.0535  0.0904  0.5669
  851MPD2    H712509   3.095   4.582  15.570  2.9608  0.4766 -0.1348
  852MPD2     C12510   4.111   2.187   9.476 -0.2077 -0.2423  0.0555
  852MPD2    C112511   4.116   2.258   9.599  0.0876  0.1534  0.0830
  852MPD2    C212512   4.061   2.380   9.611  0.3183 -0.0767  0.1846
  852MPD2    C312513   4.005   2.445   9.504 -0.1801 -0.8669  0.7521
  852MPD2    C412514   3.990   2.376   9.385  1.0042  0.4654  0.1827
  852MPD2    C512515   4.052   2.254   9.370 -0.1844 -0.4773  0.3196
  852MPD2     H12516   4.078   2.423   9.709  0.1373 -1.4296  0.8107
  852MPD2    H112517   3.940   2.424   9.302  0.0159  1.0038  1.0873
  852MPD2    H212518   4.149   2.086   9.464 -2.6730 -1.4106  2.3878
  852MPD2    H312519   4.051   2.186   9.286 -0.2350  0.6024 -0.5538
  852MPD2     N12520   3.952   2.573   9.539  0.3798  0.0578 -0.0297
  852MPD2    H512521   3.937   2.591   9.638  1.8807 -0.5202  0.3058
  852MPD2    N112522   4.176   2.200   9.711 -0.7642 -0.7674 -0.1876
  852MPD2    H712523   4.165   2.249   9.799  1.3416  0.2214 -0.4865
  853MPD2     C12524   0.515   2.246  12.564  0.4426 -0.2271  0.6583
  853MPD2    C112525   0.428   2.346  12.528  0.9097  0.1575 -0.9551
  853MPD2    C212526   0.366   2.342  12.403 -0.1904  0.2746  0.2073
  853MPD2    C312527   0.405   2.244  12.314 -0.7569 -0.1383  0.0409
  853MPD2    C412528   0.501   2.149  12.354 -0.1130  0.4742  0.4039
  853MPD2    C512529   0.553   2.153  12.479 -0.0834  0.5274  0.0199
  853MPD2     H12530   0.291   2.416  12.377 -1.8932 -2.3363 -2.3427
  853MPD2    H112531   0.539   2.074  12.285 -2.1187 -1.0412  0.9370
  853MPD2    H212532   0.576   2.261  12.653  0.3166 -0.7792  0.8374
  853MPD2    H312533   0.628   2.076  12.497  0.0767  1.0815  1.6644
  853MPD2     N12534   0.357   2.238  12.181  0.0349  0.6571  0.1617
  853MPD2    H512535   0.390   2.162  12.122 -1.3486  0.6256 -0.5744
  853MPD2    N112536   0.400   2.449  12.627  0.5687 -0.7415  0.1409
  853MPD2    H712537   0.447   2.441  12.717  1.5527  0.2073 -0.2885
  854MPD2     C12538   1.751   2.141  12.613 -0.3996 -0.3673 -0.7351
  854MPD2    C112539   1.873   2.185  12.584  0.4035  0.5889 -0.3993
  854MPD2    C212540   1.978   2.102  12.614  0.7921  0.6645 -0.4318
  854MPD2    C312541   1.958   1.984  12.688 -0.1458 -0.0067 -0.5552
  854MPD2    C412542   1.829   1.957  12.730 -0.4584 -0.4162 -0.8115
  854MPD2    C512543   1.723   2.027  12.684  0.6926  0.3193 -0.6293
  854MPD2     H12544   2.078   2.126  12.579  0.6287  2.2892  0.1975
  854MPD2    H112545   1.813   1.868  12.791  1.0439  0.9954  1.6423
  854MPD2    H212546   1.663   2.199  12.588 -0.7260  0.4302  2.2077
  854MPD2    H312547   1.623   1.995  12.709  0.4488 -0.2904 -2.3756
  854MPD2     N12548   2.067   1.904  12.725 -0.6295 -0.5781 -0.1394
  854MPD2    H512549   2.054   1.849  12.810 -0.1048  1.8810  1.5528
  854MPD2    N112550   1.873   2.301  12.503 -0.1692 -0.1560  0.2600
  854MPD2    H712551   1.786   2.351  12.486  0.3995  0.0461 -2.1103
  855MPD2     C12552   2.138   1.463  13.411  0.8085  0.6384 -0.4651
  855MPD2    C112553   2.256   1.536  13.415  0.1556 -0.2256  0.3986
  855MPD2    C212554   2.301   1.601  13.303  0.5612 -0.8803  0.0621
  855MPD2    C312555   2.216   1.599  13.190  0.8473 -0.4290  0.0676
  855MPD2    C412556   2.100   1.519  13.189 -0.3918 -0.2666 -0.4733
  855MPD2    C512557   2.060   1.445  13.300 -0.4651 -0.0396 -0.3088
  855MPD2     H12558   2.393   1.657  13.307 -0.5049  0.9078 -0.2363
  855MPD2    H112559   2.041   1.508  13.099 -0.5052 -1.0586 -0.3041
  855MPD2    H212560   2.094   1.412  13.496 -1.0000 -1.4007 -2.6402
  855MPD2    H312561   1.984   1.368  13.285 -0.3536  0.3303 -2.7457
  855MPD2     N12562   2.250   1.675  13.078  0.3409  0.5600  0.8512
  855MPD2    H512563   2.176   1.683  13.009  0.1694 -0.1385  0.9579
  855MPD2    N112564   2.332   1.545  13.532 -0.6998  0.2960  0.2902
  855MPD2    H712565   2.422   1.592  13.530 -0.8614  0.5490 -1.0942
  856MPD2     C12566   4.082   2.850  14.237  0.8847  0.0566 -0.4248
  856MPD2    C112567   4.160   2.962  14.219  0.6977 -0.5844 -0.6819
  856MPD2    C212568   4.098   3.086  14.198 -0.0721  0.5262 -0.5979
  856MPD2    C312569   3.964   3.097  14.191 -0.4635 -0.0810  0.5722
  856MPD2    C412570   3.885   2.987  14.202 -0.1357  0.6531 -0.2190
  856MPD2    C512571   3.945   2.870  14.222 -0.7012 -0.2041 -1.0787
  856MPD2     H12572   4.160   3.175  14.205 -0.4418  0.7931 -0.7595
  856MPD2    H112573   3.780   2.984  14.175 -0.2355  1.1111  0.1217
  856MPD2    H212574   4.118   2.749  14.253 -1.7278 -0.9172 -0.5548
  856MPD2    H312575   3.883   2.782  14.217 -1.8732  0.5011  1.2006
  856MPD2     N12576   3.905   3.227  14.178  0.4594 -0.7964 -0.0622
  856MPD2    H512577   3.806   3.225  14.156 -0.0894  4.0882  2.0172
  856MPD2    N112578   4.299   2.962  14.234 -0.3215  0.1848  0.2505
  856MPD2    H712579   4.342   3.053  14.220 -2.6800  0.8035 -2.7998
  857MPD2     C12580   1.238   0.190  13.249 -0.0589 -0.1226 -0.6265
  857MPD2    C112581   1.366   0.203  13.206 -0.1160  0.4379  0.0932
  857MPD2    C212582   1.424   0.331  13.213  0.5692 -0.2044 -0.2895
  857MPD2    C312583   1.354   0.441  13.259 -0.9391 -0.0240  0.4903
  857MPD2    C412584   1.230   0.425  13.310 -0.3317  0.4069  0.2010
  857MPD2    C512585   1.168   0.303  13.293 -0.5788  0.6520 -0.0222
  857MPD2     H12586   1.527   0.348  13.186  0.2020  2.9187  0.2932
  857MPD2    H112587   1.174   0.502  13.360  2.9798  0.4546  3.8616
  857MPD2    H212588   1.191   0.092  13.245  3.7496 -1.8966 -1.8761
  857MPD2    H312589   1.067   0.291  13.330  0.7317 -3.7823  2.0768
  857MPD2     N12590   1.420   0.570  13.260  0.3281  0.5918 -0.1035
  857MPD2    H512591   1.519   0.563  13.240 -0.1256 -1.8617 -1.4960
  857MPD2    N112592   1.437   0.088  13.155  0.3247  0.2786  0.4497
  857MPD2    H712593   1.385   0.003  13.173 -0.2407  0.9710  2.1205
  858MPD2     C12594   1.970   4.435  16.575 -0.0011 -0.0207  0.5992
  858MPD2    C112595   1.928   4.312  16.614 -0.4828 -0.2629  0.1804
  858MPD2    C212596   1.869   4.288  16.740 -0.3115  0.5036  0.3573
  858MPD2    C312597   1.831   4.406  16.805 -0.3996  0.2043 -0.3204
  858MPD2    C412598   1.873   4.531  16.766  0.5841 -0.1256  0.2587
  858MPD2    C512599   1.956   4.545  16.654  0.2576 -0.0517  0.5929
  858MPD2     H12600   1.857   4.186  16.775 -1.6657  0.8814  0.9861
  858MPD2    H112601   1.851   4.625  16.816  0.0129 -0.5315  0.7625
  858MPD2    H212602   2.022   4.449  16.481 -0.5714  0.7936  0.4022
  858MPD2    H312603   2.001   4.640  16.627 -1.9158  0.2735 -1.9705
  858MPD2     N12604   1.754   4.406  16.926  0.3846  0.1268 -0.4363
  858MPD2    H512605   1.748   4.498  16.968  0.0464  1.0978 -2.5996
  858MPD2    N112606   1.953   4.201  16.531 -0.0825  0.1395  0.0282
  858MPD2    H712607   1.982   4.227  16.438 -2.8664  0.8592 -0.6440
  859MPD2     C12608   0.185   1.952  15.905  0.4917 -0.3033  0.0116
  859MPD2    C112609   0.181   1.825  15.840 -0.8762 -0.2593  0.6589
  859MPD2    C212610   0.181   1.711  15.925 -0.2756 -0.7969  0.5942
  859MPD2    C312611   0.200   1.725  16.059  0.8110 -0.0293  0.7853
  859MPD2    C412612   0.218   1.849  16.118 -0.8045 -0.0163  0.2954
  859MPD2    C512613   0.215   1.961  16.039  0.1654 -0.2177  0.7819
  859MPD2     H12614   0.179   1.615  15.877 -0.5725  0.1748 -1.3285
  859MPD2    H112615   0.244   1.861  16.222 -0.6264 -0.6445  0.3279
  859MPD2    H212616   0.188   2.044  15.847  1.4025 -0.0977  0.3928
  859MPD2    H312617   0.219   2.058  16.087  2.0835 -0.6289  1.4286
  859MPD2     N12618   0.194   1.616  16.147  0.3589 -0.0965 -0.0116
  859MPD2    H512619   0.217   1.640  16.243  1.5394  0.9981 -0.5710
  859MPD2    N112620   0.190   1.827  15.701  0.0658 -0.0346 -0.7679
  859MPD2    H712621   0.185   1.917  15.653  4.0806  1.4908  1.6964
  860MPD2     C12622   3.506   1.942  11.447  0.4517 -0.1262  0.1414
  860MPD2    C112623   3.478   2.015  11.558  0.1730  0.2008  0.5322
  860MPD2    C212624   3.358   2.002  11.618  0.4486 -0.9252  0.4671
  860MPD2    C312625   3.254   1.928  11.560  0.4263  0.1561  0.0460
  860MPD2    C412626   3.285   1.874  11.435  0.2534 -0.2015 -0.7410
  860MPD2    C512627   3.405   1.887  11.376 -0.8173 -0.0565 -0.0529
  860MPD2     H12628   3.327   2.050  11.710 -0.3896  2.5667 -1.5767
  860MPD2    H112629   3.208   1.832  11.370 -1.5958  0.7830  0.8035
  860MPD2    H212630   3.603   1.956  11.401 -0.9334  2.1625 -2.0983
  860MPD2    H312631   3.416   1.841  11.279 -0.3894  0.7166 -0.3707
  860MPD2     N12632   3.123   1.921  11.618  0.3466  0.3760 -0.4008
  860MPD2    H512633   3.093   1.994  11.681  1.5074  0.8585 -0.3938
  860MPD2    N112634   3.573   2.085  11.636  0.3960  0.5325 -0.5117
  860MPD2    H712635   3.538   2.133  11.718 -1.5535 -0.8720 -0.5316
  861MPD2     C12636   2.333   0.429  10.723 -0.8740  0.3474  0.6190
  861MPD2    C112637   2.219   0.460  10.798 -0.0568  0.1065  0.1800
  861MPD2    C212638   2.114   0.526  10.741 -0.1781  0.0808 -0.0932
  861MPD2    C312639   2.123   0.576  10.611 -0.1826  0.3441  0.1743
  861MPD2    C412640   2.235   0.537  10.536  0.2807  0.6732  0.4714
  861MPD2    C512641   2.345   0.469  10.593 -0.0554 -0.5286 -0.1701
  861MPD2     H12642   2.026   0.527  10.804 -0.2783  0.8170 -0.2499
  861MPD2    H112643   2.249   0.576  10.436 -3.2699  0.4811 -0.0999
  861MPD2    H212644   2.424   0.393  10.769 -0.3107 -0.0205 -0.7550
  861MPD2    H312645   2.436   0.454  10.536 -0.2576  0.9046 -0.8653
  861MPD2     N12646   2.035   0.656  10.543  0.1037  0.3014 -0.2124
  861MPD2    H512647   2.071   0.705  10.462 -0.4728  0.1125 -0.5809
  861MPD2    N112648   2.206   0.420  10.932  0.2953  0.3122  0.4874
  861MPD2    H712649   2.114   0.413  10.976 -0.7734 -0.3368 -1.8617
  862MPD2     C12650   1.533   0.944  10.090  0.0780 -0.7285  0.3243
  862MPD2    C112651   1.649   0.913  10.156 -0.0055 -0.1024 -0.1111
  862MPD2    C212652   1.676   0.783  10.191 -0.0946 -0.1997  0.3186
  862MPD2    C312653   1.574   0.692  10.210 -0.0795 -0.6121 -0.3654
  862MPD2    C412654   1.451   0.723  10.156  0.6612  0.5216  0.2877
  862MPD2    C512655   1.439   0.847  10.095 -0.4865 -0.0729  0.4648
  862MPD2     H12656   1.780   0.755  10.207 -0.1458 -0.6306 -0.1066
  862MPD2    H112657   1.374   0.647  10.150  1.4162 -0.2072 -0.2923
  862MPD2    H212658   1.502   1.034  10.039  1.3721 -0.4326  0.0486
  862MPD2    H312659   1.347   0.864  10.039  0.9235  0.1323 -1.7855
  862MPD2     N12660   1.589   0.572  10.272  0.6839 -0.3866  0.8068
  862MPD2    H512661   1.501   0.526  10.293  0.1007  0.6711  0.6990
  862MPD2    N112662   1.755   1.009  10.146 -0.1903 -0.1040 -0.4582
  862MPD2    H712663   1.740   1.078  10.074 -0.8345 -0.9677 -1.1518
  863MPD2     C12664   0.159   2.876  17.207  0.0072 -0.2974 -0.2788
  863MPD2    C112665   0.205   3.003  17.235  0.3247 -0.6984 -0.3514
  863MPD2    C212666   0.320   3.012  17.315  0.8338  0.5099 -0.2178
  863MPD2    C312667   0.378   2.896  17.363  0.6207  0.2843  0.8826
  863MPD2    C412668   0.323   2.777  17.334 -0.5945 -0.3868  0.1366
  863MPD2    C512669   0.210   2.769  17.259  0.5885 -0.1631 -0.2362
  863MPD2     H12670   0.364   3.108  17.339 -0.1422  1.2941 -1.5351
  863MPD2    H112671   0.356   2.683  17.376  0.0363  1.3066  3.4547
  863MPD2    H212672   0.076   2.853  17.142  0.0948 -1.8610  0.1554
  863MPD2    H312673   0.159   2.675  17.240 -0.3910  0.5570 -1.2022
  863MPD2     N12674   0.490   2.895  17.444  0.6338  0.1239  0.4110
  863MPD2    H512675   0.522   2.812  17.491  0.1248  0.1468  0.8071
  863MPD2    N112676   0.135   3.111  17.173 -0.2515 -0.3638 -0.0967
  863MPD2    H712677   0.063   3.099  17.103  0.4382 -1.1261 -0.6864
  864MPD2     C12678   0.767   3.884  17.600 -0.4349  0.4581 -0.4992
  864MPD2    C112679   0.837   3.833  17.494 -0.3550 -0.7204 -0.2633
  864MPD2    C212680   0.903   3.914  17.411 -0.3227 -0.5753 -0.1480
  864MPD2    C312681   0.905   4.052  17.431 -0.5697  0.3583  0.5291
  864MPD2    C412682   0.842   4.099  17.544  0.7118 -0.2182  0.9773
  864MPD2    C512683   0.773   4.017  17.632  0.4477  0.1125 -0.4876
  864MPD2     H12684   0.954   3.876  17.323 -0.4545  0.6444 -0.7596
  864MPD2    H112685   0.854   4.203  17.571  1.1765 -0.5217  1.9311
  864MPD2    H212686   0.695   3.820  17.650  0.0152  0.8994  0.7072
  864MPD2    H312687   0.730   4.045   0.030  1.5865 -1.1723  0.4154
  864MPD2     N12688   0.957   4.149  17.338 -0.3323  0.5393  0.1188
  864MPD2    H512689   0.962   4.244  17.373  0.0347  0.4754  0.2390
  864MPD2    N112690   0.837   3.696  17.478 -0.2451 -0.3591  0.1032
  864MPD2    H712691   0.782   3.647  17.548  0.3234 -0.1238  0.7205
  865MPD2     C12692   1.010   4.706  16.654 -0.0302 -0.2918  0.7324
  865MPD2    C112693   1.001   4.589  16.723 -0.1607  0.0221  0.0322
  865MPD2    C212694   1.014   4.594  16.860 -0.5458 -0.0831  0.1565
  865MPD2    C312695   1.044   4.700  16.935  0.1153  1.1303 -0.1521
  865MPD2    C412696   1.065   0.097  16.864 -0.0268  0.3961 -0.3643
  865MPD2    C512697   1.047   0.096  16.726  0.1123  0.2445 -0.0566
  865MPD2     H12698   0.985   4.502  16.912  1.2238 -0.6801  0.0798
  865MPD2    H112699   1.105   0.188  16.907  0.1304  0.6198 -0.9976
  865MPD2    H212700   1.001   4.709  16.546  1.5639  1.3303  0.6364
  865MPD2    H312701   1.064   0.192  16.678 -1.0662 -1.0861 -3.1225
  865MPD2     N12702   1.047   4.704  17.078 -0.2676  0.2220  0.5389
  865MPD2    H512703   1.059   0.073  17.116 -1.1397  0.4896  0.1814
  865MPD2    N112704   0.986   4.465  16.657  0.2704  0.2775  0.2955
  865MPD2    H712705   0.983   4.483  16.557 -1.5060 -1.8884 -0.0481
  866MPD2     C12706   2.760   0.471  11.313 -0.6745 -0.7726  0.1316
  866MPD2    C112707   2.804   0.523  11.189 -0.2704  0.4112 -0.8109
  866MPD2    C212708   2.716   0.603  11.118 -1.1446  0.8110 -0.2168
  866MPD2    C312709   2.588   0.633  11.159  0.8149 -0.7108 -0.1324
  866MPD2    C412710   2.548   0.587  11.281 -0.2723 -0.7588 -0.2545
  866MPD2    C512711   2.640   0.513  11.354 -0.0270 -0.0400  0.6533
  866MPD2     H12712   2.744   0.641  11.021 -1.7237  0.9096 -0.3441
  866MPD2    H112713   2.448   0.588  11.323 -0.1458 -1.0633  0.0562
  866MPD2    H212714   2.827   0.426  11.386  0.1858 -1.1837 -0.9082
  866MPD2    H312715   2.605   0.480  11.451  0.9727 -2.4363  0.1972
  866MPD2     N12716   2.486   0.703  11.090  0.1019 -0.0654 -0.5936
  866MPD2    H512717   2.400   0.714  11.143 -0.1494  1.6586 -1.3521
  866MPD2    N112718   2.925   0.479  11.129  0.9102 -0.3680 -0.5817
  866MPD2    H712719   2.967   0.390  11.151  3.4049  0.5243 -1.6959
  867MPD2     C12720   4.185   4.298  16.998 -0.3067  0.1939 -0.1125
  867MPD2    C112721   4.273   4.326  17.106 -0.3189 -1.0576  0.4081
  867MPD2    C212722   4.268   4.451  17.157 -0.1785  0.4561  0.4172
  867MPD2    C312723   4.191   4.557  17.104  0.9397  0.0712 -0.1232
  867MPD2    C412724   4.110   4.534  16.997  0.0073 -0.4701  0.1980
  867MPD2    C512725   4.107   4.407  16.945  0.8766  0.6048  0.4342
  867MPD2     H12726   4.342   4.482  17.230 -0.6599  0.5794  0.8463
  867MPD2    H112727   4.047   4.615  16.961  1.1231  0.8419  1.2556
  867MPD2    H212728   4.174   4.197  16.960  0.2560  0.6856 -1.5945
  867MPD2    H312729   4.030   4.383  16.872 -1.0419  1.9773  1.9954
  867MPD2     N12730   4.186   4.691  17.158 -0.7138  0.3870 -0.5353
  867MPD2    H512731   4.120   0.030  17.113 -0.3681 -0.2606 -1.9270
  867MPD2    N112732   4.358   4.215  17.150  0.4434  0.8759 -0.7748
  867MPD2    H712733   4.363   4.126  17.101  1.5422  1.3830 -1.5972
  868MPD2     C12734   2.003   2.392  12.970 -0.4111  0.2918  0.3323
  868MPD2    C112735   1.957   2.524  12.967 -0.4076 -0.8568 -0.2105
  868MPD2    C212736   1.831   2.552  12.919  0.0070 -0.1544 -0.1630
  868MPD2    C312737   1.744   2.444  12.883  0.0457 -0.2951 -0.0062
  868MPD2    C412738   1.790   2.318  12.893  0.9252 -0.8013 -0.4338
  868MPD2    C512739   1.922   2.296  12.926 -0.1103 -0.4517 -0.2821
  868MPD2     H12740   1.788   2.651  12.913  2.1762  0.8050  0.0461
  868MPD2    H112741   1.732   2.228  12.877 -0.7895  0.3037 -0.3887
  868MPD2    H212742   2.105   2.368  12.999 -0.0180 -1.3254 -2.3945
  868MPD2    H312743   1.959   2.194  12.931  1.9640  0.4260  2.1584
  868MPD2     N12744   1.609   2.475  12.839 -0.4474  0.0802  0.2178
  868MPD2    H512745   1.591   2.574  12.827 -0.2412  0.1336  0.3372
  868MPD2    N112746   2.038   2.623  13.025  0.4668 -0.3948 -0.7701
  868MPD2    H712747   2.131   2.598  13.058 -0.4608 -0.5371  1.7253
  869MPD2     C12748   3.503   1.614   1.647  0.1335 -0.7003 -0.5191
  869MPD2    C112749   3.549   1.678   1.529 -0.1745  0.8042 -0.0275
  869MPD2    C212750   3.451   1.702   1.433 -0.1209  0.6457 -0.3443
  869MPD2    C312751   3.322   1.665   1.454 -0.0718 -0.4062 -0.2203
  869MPD2    C412752   3.280   1.616   1.576 -0.1010 -0.2142  0.5137
  869MPD2    C512753   3.373   1.579   1.668  0.2896  0.1525  0.1950
  869MPD2     H12754   3.485   1.752   1.343  0.1662  0.5680 -0.2794
  869MPD2    H112755   3.178   1.587   1.597  0.9299 -1.2226  4.2388
  869MPD2    H212756   3.572   1.581   1.723  1.0238  0.5821 -0.7586
  869MPD2    H312757   3.349   1.530   1.762 -2.1702  0.6415 -0.1833
  869MPD2     N12758   3.225   1.667   1.350  0.1479  0.4792  0.0123
  869MPD2    H512759   3.132   1.639   1.381  0.9997 -0.8744  1.3360
  869MPD2    N112760   3.686   1.706   1.516 -0.2559 -0.1739  0.4030
  869MPD2    H712761   3.752   1.687   1.591 -0.7936 -0.3864  0.8171
  870MPD2     C12762   2.638   0.178   1.845 -0.3567  0.3181  0.0579
  870MPD2    C112763   2.754   0.200   1.780  0.8798  0.8226 -0.5094
  870MPD2    C212764   2.781   0.331   1.736 -0.4503  0.2967 -0.1385
  870MPD2    C312765   2.711   0.437   1.784  0.7545 -0.0432  0.4839
  870MPD2    C412766   2.594   0.414   1.854  0.7608 -0.0805  0.5857
  870MPD2    C512767   2.563   0.280   1.882 -0.1643 -0.3539  0.1788
  870MPD2     H12768   2.869   0.347   1.675  0.1984  0.0485  0.7250
  870MPD2    H112769   2.522   0.488   1.884  0.7987 -0.3144  1.2499
  870MPD2    H212770   2.604   0.076   1.863 -1.1362  1.2355  3.7202
  870MPD2    H312771   2.464   0.259   1.921 -0.0626  0.3581  0.8134
  870MPD2     N12772   2.761   0.565   1.747  0.7987  0.5933  0.2520
  870MPD2    H512773   2.834   0.567   1.677 -0.0440 -0.0202 -0.6339
  870MPD2    N112774   2.831   0.088   1.744  0.1671 -0.1551  0.1827
  870MPD2    H712775   2.801   4.720   1.775 -0.3564  0.2590  0.8847
  871MPD2     C12776   3.511   0.094  16.524  0.2185  0.2577 -0.2211
  871MPD2    C112777   3.559   0.064  16.650  0.2192 -0.1120  0.0361
  871MPD2    C212778   3.601   4.659  16.678 -0.1910  0.0946  0.2288
  871MPD2    C312779   3.577   4.567  16.579 -0.0012  0.5057  0.0724
  871MPD2    C412780   3.531   4.604  16.461 -0.8452  0.4337  0.1250
  871MPD2    C512781   3.507   0.004  16.422  0.2127  0.2768 -0.2742
  871MPD2     H12782   3.629   4.634  16.779 -1.7025 -0.6173  0.4591
  871MPD2    H112783   3.517   4.524  16.389  1.4734 -0.7565  1.0148
  871MPD2    H212784   3.474   0.194  16.502  2.1042  0.8063 -0.8551
  871MPD2    H312785   3.474   0.022  16.320  1.4341 -0.0111 -0.7196
  871MPD2     N12786   3.607   4.431  16.592 -0.1877 -0.5764 -0.8185
  871MPD2    H512787   3.569   4.362  16.528 -0.7078 -0.8141 -0.2557
  871MPD2    N112788   3.550   0.167  16.744 -0.2012  0.1390  0.4013
  871MPD2    H712789   3.532   0.261  16.710  0.4219  0.3356  0.6162
  872MPD2     C12790   3.677   2.633  13.782  0.1225  0.7887  0.6562
  872MPD2    C112791   3.736   2.581  13.893 -0.0234  0.0815 -0.3405
  872MPD2    C212792   3.657   2.530  13.991 -0.4883 -0.1882  0.6402
  872MPD2    C312793   3.516   2.526  13.982 -0.4506  0.5103 -0.4455
  872MPD2    C412794   3.463   2.582  13.863  0.2723  0.5764  0.2676
  872MPD2    C512795   3.544   2.631  13.758  0.4932 -0.0395 -0.0804
  872MPD2     H12796   3.705   2.498  14.082 -2.6541 -0.2104  1.7832
  872MPD2    H112797   3.355   2.583  13.853 -0.0362  0.6849  3.5990
  872MPD2    H212798   3.727   2.676  13.696  0.3796 -0.5868  0.1140
  872MPD2    H312799   3.506   2.671  13.665 -0.9082 -0.0874  0.4853
  872MPD2     N12800   3.434   2.468  14.081  0.4098 -0.3091  0.0500
  872MPD2    H512801   3.333   2.482  14.074  0.7655  0.7388 -2.8106
  872MPD2    N112802   3.871   2.586  13.925 -0.7337  0.7764 -0.0738
  872MPD2    H712803   3.906   2.553  14.014 -1.7026  0.7351  0.2906
  873MPD2     C12804   0.856   2.543   1.047  0.3814 -0.0093  0.1663
  873MPD2    C112805   0.973   2.493   1.098  0.4229 -0.5085  0.8294
  873MPD2    C212806   1.014   2.367   1.071 -0.5665  0.5667 -0.0331
  873MPD2    C312807   0.940   2.286   0.980 -0.0547  0.1803  0.0288
  873MPD2    C412808   0.815   2.340   0.933 -0.1374  0.3028 -0.2131
  873MPD2    C512809   0.779   2.469   0.961 -0.7581  0.6452 -0.6972
  873MPD2     H12810   1.104   2.324   1.115 -2.6170 -2.4436  1.2434
  873MPD2    H112811   0.760   2.289   0.855  2.0254  1.0909 -2.2439
  873MPD2    H212812   0.825   2.645   1.065  0.0191  0.1439 -1.3271
  873MPD2    H312813   0.688   2.514   0.924 -1.2511  1.8491  2.0357
  873MPD2     N12814   0.974   2.158   0.937 -0.3963 -0.0904  1.4350
  873MPD2    H512815   0.917   2.119   0.863 -1.2665  2.0892  0.9796
  873MPD2    N112816   1.045   2.580   1.184  0.8915 -0.2673  0.1508
  873MPD2    H712817   1.020   2.678   1.181  1.1607 -0.1769  0.7710
  874MPD2     C12818   0.582   2.548  16.349 -0.3211 -0.8386 -0.1311
  874MPD2    C112819   0.655   2.502  16.453  0.4273  0.1580 -0.4856
  874MPD2    C212820   0.791   2.534  16.466 -0.9965  0.6192 -0.1465
  874MPD2    C312821   0.858   2.595  16.369 -0.2877 -1.2424 -0.2028
  874MPD2    C412822   0.784   2.642  16.264  0.3105 -0.3319  0.1450
  874MPD2    C512823   0.654   2.613  16.255  0.3619 -0.1520 -0.8625
  874MPD2     H12824   0.843   2.510  16.557  0.0242 -1.3131 -1.2404
  874MPD2    H112825   0.834   2.701  16.188  0.4535 -1.0056 -0.2869
  874MPD2    H212826   0.479   2.518  16.333 -1.8754  3.4587  1.6704
  874MPD2    H312827   0.592   2.645  16.171  1.3718  3.0156 -0.3990
  874MPD2     N12828   0.998   2.600  16.385  0.4058 -0.2792 -0.8003
  874MPD2    H512829   1.044   2.559  16.466  1.5350 -0.1658 -1.3862
  874MPD2    N112830   0.581   2.426  16.544  0.0967  0.2493 -0.8714
  874MPD2    H712831   0.483   2.407  16.523  0.5179 -2.7741 -0.0752
  875MPD2     C12832   2.108   0.575  14.786 -0.2574  0.1211  1.2006
  875MPD2    C112833   1.971   0.580  14.774  0.0773  0.2317  0.1199
  875MPD2    C212834   1.895   0.654  14.861  0.2531 -0.8411  0.8239
  875MPD2    C312835   1.958   0.732  14.954  0.2508  0.1848  0.0185
  875MPD2    C412836   2.094   0.733  14.964 -0.1560 -0.5837 -0.7589
  875MPD2    C512837   2.162   0.648  14.883  0.0340  0.3318 -0.5289
  875MPD2     H12838   1.787   0.661  14.856  0.3905 -3.3582 -4.8545
  875MPD2    H112839   2.138   0.793  15.043 -1.9084 -1.7033  1.0689
  875MPD2    H212840   2.177   0.520  14.723 -2.8383 -3.2093  1.2710
  875MPD2    H312841   2.270   0.645  14.892 -0.0926 -1.5827  0.3031
  875MPD2     N12842   1.892   0.809  15.056  0.0489  0.6473 -0.1151
  875MPD2    H512843   1.956   0.879  15.093  0.2587  0.4397 -0.0833
  875MPD2    N112844   1.902   0.514  14.675  0.0374  0.0775 -0.5743
  875MPD2    H712845   1.800   0.515  14.684 -0.0460  1.4112 -1.6914
  876MPD2     C12846   0.955   2.264  16.108  0.1885  0.6609 -0.0461
  876MPD2    C112847   0.987   2.142  16.046 -0.1418 -0.4200 -0.4166
  876MPD2    C212848   0.964   2.026  16.118  0.2063  0.4500 -0.7193
  876MPD2    C312849   0.912   2.033  16.251 -0.7407  0.6876 -0.2045
  876MPD2    C412850   0.901   2.153  16.313  0.3663 -0.1012 -0.0640
  876MPD2    C512851   0.923   2.265  16.240  0.0659 -0.1690  0.6966
  876MPD2     H12852   0.991   1.928  16.081 -0.3560 -0.0209  0.1042
  876MPD2    H112853   0.872   2.158  16.417 -1.8459 -1.3383 -0.6086
  876MPD2    H212854   0.975   2.362  16.069 -1.2733  0.9247 -0.1136
  876MPD2    H312855   0.921   2.364  16.285  2.0603 -0.2278  0.9449
  876MPD2     N12856   0.915   1.911  16.321 -0.5927 -0.6620  0.0743
  876MPD2    H512857   0.942   1.826  16.272  0.6870 -1.1562  1.6528
  876MPD2    N112858   1.034   2.138  15.912 -0.1996 -0.0938  0.0802
  876MPD2    H712859   1.011   2.223  15.860  1.0146 -0.3198 -0.8356
  877MPD2     C12860   0.864   2.410  15.250  0.2618  0.1223 -0.0213
  877MPD2    C112861   0.974   2.331  15.220 -0.1757 -0.1279  0.9981
  877MPD2    C212862   0.998   2.287  15.089  0.8551 -0.0238  0.1399
  877MPD2    C312863   0.905   2.313  14.984  1.0680 -0.7441  0.1001
  877MPD2    C412864   0.795   2.394  15.016 -0.2547  0.0047  0.1356
  877MPD2    C512865   0.780   2.445  15.144  0.6516 -0.3512  0.7073
  877MPD2     H12866   1.091   2.239  15.062 -0.2311 -1.0627 -1.7537
  877MPD2    H112867   0.727   2.428  14.938  0.5742  0.5687 -0.3363
  877MPD2    H212868   0.834   2.443  15.349  0.3855 -3.9330  1.3827
  877MPD2    H312869   0.708   2.523  15.165  0.4956  0.3627 -2.4764
  877MPD2     N12870   0.918   2.255  14.858 -0.1577 -0.3887 -0.4349
  877MPD2    H512871   0.846   2.296  14.798 -0.9138  0.4406  1.0605
  877MPD2    N112872   1.062   2.278  15.314  0.4499  0.1012 -0.4091
  877MPD2    H712873   1.144   2.229  15.279  1.1289 -0.9259  2.6414
  878MPD2     C12874   1.369   1.916  12.866 -0.3451 -0.2277 -0.3009
  878MPD2    C112875   1.262   1.827  12.868  0.7436  0.2464 -0.1595
  878MPD2    C212876   1.254   1.730  12.971  0.4913  0.3891 -0.7412
  878MPD2    C312877   1.352   1.725  13.067  0.1456  0.1136 -0.2247
  878MPD2    C412878   1.464   1.811  13.063 -0.3582 -0.7199  0.7991
  878MPD2    C512879   1.465   1.902  12.957  0.4331  0.8404  0.2874
  878MPD2     H12880   1.168   1.665  12.978 -1.2980  2.6474 -1.6789
  878MPD2    H112881   1.553   1.795  13.123 -0.8946  1.3885  2.1308
  878MPD2    H212882   1.365   2.002  12.799  0.5080 -0.2660 -0.3952
  878MPD2    H312883   1.558   1.956  12.944 -0.1589  1.9039  0.4906
  878MPD2     N12884   1.335   1.630  13.169 -0.7317  0.3645 -0.1286
  878MPD2    H512885   1.258   1.564  13.160  0.3100 -0.6575 -1.5640
  878MPD2    N112886   1.154   1.857  12.777 -0.0919  0.3165  0.0187
  878MPD2    H712887   1.159   1.943  12.724  0.2823  0.5074  0.3601
  879MPD2     C12888   1.010   2.563   0.063  0.0026  0.6400  0.4096
  879MPD2    C112889   1.042   2.670  17.675  0.1812  0.1342 -0.1018
  879MPD2    C212890   0.993   2.675  17.549  0.0543 -0.1091 -0.7271
  879MPD2    C312891   0.912   2.563  17.504  0.0704 -0.1963 -0.1960
  879MPD2    C412892   0.886   2.461  17.588 -0.0092 -0.1949  0.5075
  879MPD2    C512893   0.938   2.462   0.018 -0.3235 -1.2063  0.2172
  879MPD2     H12894   1.011   2.762  17.487  2.2722  1.2028  1.7571
  879MPD2    H112895   0.817   2.383  17.560  0.6568 -0.9792  1.0506
  879MPD2    H212896   1.051   2.541   0.161  1.1812 -0.5497 -0.3594
  879MPD2    H312897   0.916   2.382   0.088  0.1296 -1.0337  0.5604
  879MPD2     N12898   0.852   2.554  17.378  0.0213 -0.1608  0.4264
  879MPD2    H512899   0.788   2.477  17.362  1.3500 -0.9088 -1.2471
  879MPD2    N112900   1.134   2.764   0.025 -0.4183 -0.1764 -0.0523
  879MPD2    H712901   1.169   2.740   0.117 -0.9575 -1.3036 -0.1407
  880MPD2     C12902   2.581   0.374   0.336  0.0970  0.1499 -0.3606
  880MPD2    C112903   2.542   0.404   0.461 -0.4362  0.7230 -0.2143
  880MPD2    C212904   2.530   0.294   0.546  0.3396  0.0727 -0.6612
  880MPD2    C312905   2.526   0.161   0.508  0.2036  0.0714 -0.2080
  880MPD2    C412906   2.558   0.139   0.377  0.2173  0.4569 -0.1558
  880MPD2    C512907   2.581   0.245   0.294  0.0108  0.1271  0.1430
  880MPD2     H12908   2.508   0.312   0.650 -0.7000 -0.0356 -0.8637
  880MPD2    H112909   2.570   0.040   0.334  0.2997 -0.5815  2.2654
  880MPD2    H212910   2.613   0.448   0.263  0.2494 -0.0588 -0.5087
  880MPD2    H312911   2.622   0.232   0.195  0.3693  1.1845  0.1496
  880MPD2     N12912   2.507   0.058   0.611 -0.0739  0.0855 -0.2981
  880MPD2    H512913   2.507   0.089   0.707  0.0954 -0.3327 -0.1650
  880MPD2    N112914   2.537   0.545   0.499 -0.1860  0.2451  0.2776
  880MPD2    H712915   2.551   0.606   0.419 -1.0334 -1.3335 -1.0769
  881MPD2     C12916   2.631   1.418   0.086  0.6569 -0.3311  0.5148
  881MPD2    C112917   2.591   1.286   0.060 -0.3001  0.0290  0.8819
  881MPD2    C212918   2.583   1.192   0.166 -0.4761 -0.0853  0.0657
  881MPD2    C312919   2.605   1.237   0.300 -0.1124 -0.1351 -0.2151
  881MPD2    C412920   2.624   1.369   0.317  0.1810 -0.0280 -0.0206
  881MPD2    C512921   2.640   1.458   0.213  0.3026 -0.1882  0.1861
  881MPD2     H12922   2.555   1.089   0.143 -0.6042 -0.2952  1.1524
  881MPD2    H112923   2.624   1.410   0.417 -1.2113  2.4141 -1.0235
  881MPD2    H212924   2.643   1.488   0.004  1.1797 -0.6349  0.3282
  881MPD2    H312925   2.647   1.564   0.237 -1.1042  0.3161 -1.6304
  881MPD2     N12926   2.593   1.153   0.416 -0.0930 -0.1594  0.0953
  881MPD2    H512927   2.609   1.192   0.508 -2.3772  0.2596  0.3070
  881MPD2    N112928   2.593   1.242  17.617 -0.7107  0.1621 -0.1707
  881MPD2    H712929   2.617   1.316  17.552  0.4884 -0.3937 -0.3560
  882MPD2     C12930   0.750   2.620  14.448 -0.3924  0.3704  0.7730
  882MPD2    C112931   0.708   2.492  14.417  0.1686 -0.4385 -0.0317
  882MPD2    C212932   0.574   2.468  14.388 -0.3617  1.3318 -0.0366
  882MPD2    C312933   0.478   2.575  14.391 -0.5646  0.2156 -0.0859
  882MPD2    C412934   0.528   2.707  14.407  0.2841  0.1806 -0.0531
  882MPD2    C512935   0.662   2.721  14.435 -0.9591  0.2461  0.8355
  882MPD2     H12936   0.540   2.367  14.365  0.1739  1.0332  0.4698
  882MPD2    H112937   0.466   2.795  14.413 -0.4611 -0.2957 -0.7053
  882MPD2    H212938   0.848   2.627  14.494 -0.9547 -1.3008  2.2129
  882MPD2    H312939   0.685   2.825  14.454  1.4019  0.1364 -1.4302
  882MPD2     N12940   0.344   2.556  14.366 -0.0431  0.0008 -0.3614
  882MPD2    H512941   0.287   2.640  14.369 -2.0506 -1.3429 -0.4151
  882MPD2    N112942   0.806   2.388  14.432  0.2447  0.1282 -0.0915
  882MPD2    H712943   0.896   2.422  14.464  0.5590 -0.2183 -0.6231
  883MPD2     C12944   3.229   2.864  16.878 -0.0217 -0.3328  0.1772
  883MPD2    C112945   3.318   2.858  16.776  0.5643 -0.5079  0.0118
  883MPD2    C212946   3.450   2.839  16.814 -0.2762 -0.2583 -0.7471
  883MPD2    C312947   3.499   2.841  16.940  0.1586 -0.7702  0.5001
  883MPD2    C412948   3.400   2.840  17.038  0.7826  0.4015  0.1195
  883MPD2    C512949   3.269   2.861  17.009  0.3188 -0.3517  0.1329
  883MPD2     H12950   3.519   2.831  16.731 -1.1918 -0.3744 -1.5025
  883MPD2    H112951   3.431   2.832  17.141 -0.2244  1.2637  0.4845
  883MPD2    H212952   3.123   2.879  16.862  0.1345  0.7519  0.1616
  883MPD2    H312953   3.194   2.872  17.086  0.4606 -0.4138  0.2801
  883MPD2     N12954   3.636   2.803  16.951 -0.8407 -0.7631 -0.5630
  883MPD2    H512955   3.693   2.775  16.872  0.4385 -0.0738  0.1207
  883MPD2    N112956   3.280   2.840  16.641  0.0519  0.3569 -0.1721
  883MPD2    H712957   3.351   2.815  16.573 -0.1236 -0.6697  0.0234
  884MPD2     C12958   4.600   3.161  15.581  0.1804 -0.3980 -0.6380
  884MPD2    C112959   4.591   3.249  15.477  0.4545  0.4932 -0.3211
  884MPD2    C212960   4.469   3.313  15.453 -0.3376 -0.2942 -0.5532
  884MPD2    C312961   4.364   3.289  15.536  0.2457 -0.8340  0.2481
  884MPD2    C412962   4.382   3.191  15.631 -1.1488  0.0726 -0.1836
  884MPD2    C512963   4.502   3.140  15.668 -0.1210 -0.3542  0.6191
  884MPD2     H12964   4.463   3.381  15.368  2.2066 -0.0694 -0.5514
  884MPD2    H112965   4.302   3.157  15.695  0.0202  0.7921  1.6480
  884MPD2    H212966   4.693   3.109  15.603 -0.1320 -0.9355 -0.5725
  884MPD2    H312967   4.521   3.087  15.760 -2.5589  0.2136  1.4387
  884MPD2     N12968   4.244   3.353  15.519 -0.6774  0.1217 -0.3542
  884MPD2    H512969   4.243   3.432  15.455  1.5835  0.5180  0.1205
  884MPD2    N112970   4.699   3.274  15.393  0.4154  0.4520  0.3616
  884MPD2    H712971   4.689   3.341  15.318  0.3913  0.1493  0.0906
  885MPD2     C12972   2.939   2.868   0.206  0.2182  0.0088  0.6610
  885MPD2    C112973   3.014   2.976   0.237  0.0252  0.2142  0.2409
  885MPD2    C212974   3.026   3.078   0.147 -0.1211 -0.4458 -0.0912
  885MPD2    C312975   2.955   3.077   0.033  0.5053 -0.0186  0.0713
  885MPD2    C412976   2.866   2.973   0.003  0.4930 -0.4799 -0.5732
  885MPD2    C512977   2.864   2.869   0.090 -0.2880 -0.3296 -0.2493
  885MPD2     H12978   3.088   3.165   0.166 -3.6158  2.4134 -1.6620
  885MPD2    H112979   2.804   2.972  17.611 -1.9392 -3.3376  1.1280
  885MPD2    H212980   2.939   2.776   0.264  0.8716 -0.1132  0.4637
  885MPD2    H312981   2.799   2.784   0.074 -0.4495 -0.0797 -0.9432
  885MPD2     N12982   2.966   3.181  17.639 -0.5184 -0.6223 -0.2814
  885MPD2    H512983   3.041   3.249  17.651 -2.0441  0.8444  0.9099
  885MPD2    N112984   3.077   2.983   0.364  0.2372 -0.1864 -0.6800
  885MPD2    H712985   3.071   2.903   0.427 -0.2475  0.8489  0.5765
  886MPD2     C12986   4.182   1.810  16.029  0.4988 -0.1248 -0.1550
  886MPD2    C112987   4.206   1.788  15.896  0.1768  0.1326 -0.0556
  886MPD2    C212988   4.191   1.896  15.808 -0.5861 -0.6719  0.7848
  886MPD2    C312989   4.164   2.026  15.851 -0.2631  0.8628  0.0204
  886MPD2    C412990   4.162   2.045  15.985 -0.1600 -0.4317  0.4827
  886MPD2    C512991   4.176   1.942  16.073 -0.4269 -0.2031  0.3865
  886MPD2     H12992   4.203   1.883  15.701  1.1370  2.9007  0.5242
  886MPD2    H112993   4.161   2.145  16.028  2.4672 -0.1717 -0.0824
  886MPD2    H212994   4.190   1.732  16.103  0.6111 -0.4682 -0.5271
  886MPD2    H312995   4.191   1.964  16.178 -1.2810 -0.5486  0.5807
  886MPD2     N12996   4.156   2.140  15.771  0.2997 -0.0124  0.0136
  886MPD2    H512997   4.165   2.233  15.809 -0.2148  0.2463 -0.5119
  886MPD2    N112998   4.240   1.660  15.843  0.1868 -0.0751  0.4436
  886MPD2    H712999   4.264   1.662  15.744  1.5679 -0.4832  0.7688
  887MPD2     C13000   4.538   1.823  15.442  0.1626  0.0808 -0.0864
  887MPD2    C113001   4.531   1.795  15.570 -0.3637 -0.0143 -0.2218
  887MPD2    C213002   4.558   1.887  15.673 -0.3571  0.4162 -0.7313
  887MPD2    C313003   4.560   2.019  15.637 -0.0870 -1.0347 -0.3485
  887MPD2    C413004   4.545   2.055  15.507 -0.4552 -0.1711 -0.4480
  887MPD2    C513005   4.535   1.960  15.406 -0.1314 -0.4650 -0.1047
  887MPD2     H13006   4.565   1.857  15.776 -2.4213 -0.1321 -0.7573
  887MPD2    H113007   4.535   2.156  15.469  0.2722 -0.3020 -0.9840
  887MPD2    H213008   4.521   1.752  15.362 -1.0690  0.4271 -0.1289
  887MPD2    H313009   4.521   1.987  15.302 -0.2853 -1.1020 -0.2487
  887MPD2     N13010   4.575   2.123  15.733  0.0826  0.2968 -0.0289
  887MPD2    H513011   4.582   2.219  15.700  0.1820  0.0878 -0.6111
  887MPD2    N113012   4.506   1.663  15.612 -0.3291 -0.0018 -0.2800
  887MPD2    H713013   4.506   1.644  15.712  1.1067  1.9827  0.1030
  888MPD2     C13014   2.056   1.784  14.880  0.2971  0.2445  0.1286
  888MPD2    C113015   2.030   1.841  15.000  0.3826  0.1032  0.4391
  888MPD2    C213016   2.070   1.970  15.019 -0.1964 -0.5380  0.8070
  888MPD2    C313017   2.134   2.047  14.920 -0.2373 -0.7920  0.5864
  888MPD2    C413018   2.153   1.984  14.801 -0.3081 -0.2161 -0.0287
  888MPD2    C513019   2.110   1.857  14.779 -0.0990 -0.0366 -0.0557
  888MPD2     H13020   2.045   2.010  15.116 -1.0268  0.2602  0.2603
  888MPD2    H113021   2.176   2.046  14.716  0.6169 -0.4303  0.0696
  888MPD2    H213022   2.027   1.688  14.839 -0.8168  1.0690 -1.0158
  888MPD2    H313023   2.101   1.828  14.674  0.2477  0.1273 -0.1297
  888MPD2     N13024   2.160   2.183  14.946 -0.5894 -0.1698 -0.3212
  888MPD2    H513025   2.126   2.220  15.034 -1.0137 -0.0040 -0.5538
  888MPD2    N113026   1.950   1.782  15.098 -0.6090 -0.4599  0.3105
  888MPD2    H713027   1.941   1.835  15.184 -0.6504  0.2660 -0.1424
  889MPD2     C13028   1.576   1.364  13.016 -0.2016 -0.7268 -0.3871
  889MPD2    C113029   1.626   1.356  13.144  0.5048  0.1288  0.0346
  889MPD2    C213030   1.685   1.463  13.204 -0.8022 -0.0572 -0.5374
  889MPD2    C313031   1.718   1.582  13.138 -0.1415 -0.0299  0.8083
  889MPD2    C413032   1.669   1.589  13.006  0.3293 -0.6293 -0.5964
  889MPD2    C513033   1.602   1.482  12.950  0.0238 -0.3540  0.1251
  889MPD2     H13034   1.698   1.452  13.311  2.5233 -3.6827 -1.3112
  889MPD2    H113035   1.696   1.676  12.948  1.3852  1.4320  3.0000
  889MPD2    H213036   1.554   1.273  12.961  1.6498  0.3454 -2.8896
  889MPD2    H313037   1.567   1.487  12.847  1.1522 -3.8749 -0.4571
  889MPD2     N13038   1.777   1.692  13.204 -0.3403 -0.3849 -0.0190
  889MPD2    H513039   1.794   1.687  13.304  1.1049 -2.0059 -0.3363
  889MPD2    N113040   1.599   1.242  13.221  0.0541 -0.1866  0.2175
  889MPD2    H713041   1.650   1.246  13.308 -0.9038  0.0327  0.7741
  890MPD2     C13042   0.891   3.128  14.571  0.1770 -1.0835 -0.5288
  890MPD2    C113043   0.905   3.202  14.688 -0.1635 -0.0948  0.0425
  890MPD2    C213044   0.884   3.129  14.810 -0.2068 -0.8267 -0.6747
  890MPD2    C313045   0.845   2.998  14.806 -0.3698 -0.6516 -0.0761
  890MPD2    C413046   0.851   2.923  14.691 -0.3616  0.4555  0.0116
  890MPD2    C513047   0.877   2.990  14.572  0.1229  0.1101 -0.4852
  890MPD2     H13048   0.859   3.181  14.903 -0.8953 -0.1942 -1.2170
  890MPD2    H113049   0.827   2.818  14.688  0.2946  0.2906  0.5866
  890MPD2    H213050   0.901   3.181  14.476 -0.2269 -1.8533 -0.9981
  890MPD2    H313051   0.886   2.933  14.481 -0.0941 -0.7558  0.0328
  890MPD2     N13052   0.800   2.942  14.925  0.7020 -1.1976  0.0047
  890MPD2    H513053   0.813   2.997  15.010  0.3443 -0.1498 -0.6181
  890MPD2    N113054   0.918   3.343  14.684 -0.0543  0.1547  0.5106
  890MPD2    H713055   0.922   3.393  14.596 -0.3750  1.4995  1.2543
  891MPD2     C13056   3.850   2.030  16.414 -0.8591 -0.1831 -0.0955
  891MPD2    C113057   3.753   2.074  16.502 -0.1112 -0.5924  0.2279
  891MPD2    C213058   3.779   2.058  16.636 -0.4990  0.0674  0.2342
  891MPD2    C313059   3.894   1.994  16.678 -0.5004  0.2145 -0.0648
  891MPD2    C413060   3.988   1.955  16.585 -0.6221  0.3704  0.0063
  891MPD2    C513061   3.970   1.982  16.453 -0.1760  0.0008 -0.0874
  891MPD2     H13062   3.705   2.073  16.715 -0.0020  1.4020  0.4395
  891MPD2    H113063   4.082   1.911  16.614  0.5976  2.6342 -0.5221
  891MPD2    H213064   3.842   2.043  16.306  0.3725  1.2930 -0.0182
  891MPD2    H313065   4.040   1.949  16.377  0.3655 -1.1676  0.9211
  891MPD2     N13066   3.906   1.973  16.820  0.0095 -1.0505 -0.1444
  891MPD2    H513067   3.839   2.013  16.884 -0.5070 -1.9765 -0.0972
  891MPD2    N113068   3.628   2.119  16.450 -0.4070 -0.1564  0.5043
  891MPD2    H713069   3.616   2.135  16.351  0.7184 -0.9034  0.2471
  892MPD2     C13070   4.648   2.746  15.068 -0.5880 -0.0496  0.3627
  892MPD2    C113071   4.547   2.744  14.971  0.2072 -0.8365  0.7390
  892MPD2    C213072   4.576   2.710  14.845  0.2175 -0.3199 -0.0560
  892MPD2    C313073   4.703   2.672  14.805  0.0506 -0.6180  0.7255
  892MPD2    C413074   0.080   2.682  14.900  0.6717 -0.1455  0.1419
  892MPD2    C513075   0.052   2.716  15.026 -0.4890  0.9836 -0.5393
  892MPD2     H13076   4.494   2.709  14.774  0.8098  0.2482 -0.7570
  892MPD2    H113077   0.185   2.665  14.877  0.7140  0.8871 -0.3849
  892MPD2    H213078   4.628   2.760  15.174 -3.2359  0.5011 -0.1986
  892MPD2    H313079   0.128   2.704  15.102 -1.9908 -0.4282  0.7416
  892MPD2     N13080   4.720   2.618  14.676  0.8536  0.1190 -0.4196
  892MPD2    H513081   0.087   2.577  14.656  0.7583 -0.0685 -0.4685
  892MPD2    N113082   4.416   2.779  15.002 -0.3444 -0.2147 -0.1662
  892MPD2    H713083   4.356   2.809  14.926 -0.3378 -1.6544 -0.7333
  893MPD2     C13084   4.026   0.556   2.116 -0.0606 -0.6288 -0.0700
  893MPD2    C113085   3.899   0.569   2.065 -0.2888 -0.0080  0.2723
  893MPD2    C213086   3.828   0.457   2.017  0.0798 -0.1042  0.3340
  893MPD2    C313087   3.884   0.330   2.020 -0.3250  0.1437 -0.5871
  893MPD2    C413088   4.011   0.318   2.070 -0.2954  0.2152  0.0703
  893MPD2    C513089   4.082   0.429   2.110 -0.3736  0.4564  0.1066
  893MPD2     H13090   3.732   0.470   1.968  0.4576  2.4220  0.2730
  893MPD2    H113091   4.059   0.223   2.052  1.2752  0.9335  0.5138
  893MPD2    H213092   4.087   0.644   2.135  0.9812 -1.7126  1.5948
  893MPD2    H313093   4.187   0.420   2.135 -0.0259  0.1627 -1.4529
  893MPD2     N13094   3.823   0.204   1.983  0.4588 -0.2967 -0.6110
  893MPD2    H513095   3.880   0.120   1.982 -0.6910 -1.0755 -2.5360
  893MPD2    N113096   3.846   0.695   2.067  0.2086 -0.5194  0.1647
  893MPD2    H713097   3.911   0.769   2.091  1.5602 -1.5189 -0.3939
  894MPD2     C13098   4.698   3.419   1.570 -0.0744 -0.3785  0.2422
  894MPD2    C113099   4.616   3.521   1.605  0.8385  0.3414  0.4700
  894MPD2    C213100   4.667   3.649   1.602  0.3413 -0.2990  0.0522
  894MPD2    C313101   0.072   3.674   1.556  0.3564 -0.5196  0.1627
  894MPD2    C413102   0.152   3.570   1.516  0.1296  0.3492 -0.5001
  894MPD2    C513103   0.103   3.445   1.523 -0.0476  0.4298 -0.3698
  894MPD2     H13104   4.613   3.735   1.640 -0.7171 -0.7643 -0.4073
  894MPD2    H113105   0.252   3.575   1.473  0.9563 -1.6065  1.2040
  894MPD2    H213106   4.670   3.315   1.579 -0.3462 -0.4891 -1.8886
  894MPD2    H313107   0.172   3.363   1.507  0.9143  0.7514  2.0140
  894MPD2     N13108   0.122   3.811   1.559 -0.5582 -0.3755 -0.9719
  894MPD2    H513109   0.068   3.877   1.614  2.3686  1.1977  0.0464
  894MPD2    N113110   4.487   3.503   1.658 -0.2573  0.6644  0.1931
  894MPD2    H713111   4.439   3.588   1.686 -1.3134 -0.0867  0.6649
  895MPD2     C13112   3.887   1.730  13.867  0.2498  0.5447 -0.6221
  895MPD2    C113113   3.916   1.862  13.838 -0.4052  0.5180 -0.1075
  895MPD2    C213114   4.046   1.900  13.826  0.1121  0.5714  0.1805
  895MPD2    C313115   4.156   1.809  13.832  0.8095  0.2851  0.0108
  895MPD2    C413116   4.128   1.682  13.865  0.0134 -0.5474 -0.0016
  895MPD2    C513117   3.999   1.647  13.876 -0.2461 -0.0517  0.4417
  895MPD2     H13118   4.067   2.002  13.795  0.2709  0.0453 -1.4208
  895MPD2    H113119   4.200   1.605  13.889 -0.0768 -0.8194 -0.5984
  895MPD2    H213120   3.789   1.685  13.874  1.1956 -1.3604  0.3890
  895MPD2    H313121   3.982   1.540  13.883 -0.9382  0.0737  0.6716
  895MPD2     N13122   4.291   1.846  13.806  0.7343  0.0762  0.4780
  895MPD2    H513123   4.355   1.767  13.806  1.6783  0.8655  2.8728
  895MPD2    N113124   3.811   1.953  13.830  0.5579 -0.2279  0.0394
  895MPD2    H713125   3.836   2.039  13.784  0.4292 -1.3721 -2.1510
  896MPD2     C13126   1.884   0.278   1.643  0.8633  0.8835  0.0854
  896MPD2    C113127   1.840   0.242   1.512 -0.4416 -0.5035  0.3377
  896MPD2    C213128   1.704   0.229   1.479  0.2975  0.5990 -0.1116
  896MPD2    C313129   1.612   0.231   1.585 -0.1682 -1.1317 -0.1205
  896MPD2    C413130   1.660   0.256   1.716 -0.0942  0.0231 -0.2265
  896MPD2    C513131   1.788   0.274   1.742  0.5249 -0.3923 -0.3332
  896MPD2     H13132   1.683   0.202   1.377  0.6754  0.1661 -0.0747
  896MPD2    H113133   1.597   0.257   1.805 -2.1595 -2.1803 -1.6508
  896MPD2    H213134   1.988   0.299   1.660  0.8518 -0.7781  2.2318
  896MPD2    H313135   1.821   0.291   1.843  0.6328 -0.3432 -0.3768
  896MPD2     N13136   1.474   0.208   1.550 -0.2667 -0.0476 -0.9517
  896MPD2    H513137   1.446   0.220   1.454 -0.6798 -1.2184 -0.9797
  896MPD2    N113138   1.946   0.219   1.423  0.0128  0.9755 -0.7195
  896MPD2    H713139   2.045   0.223   1.446 -0.2031  2.4095 -0.0379
  897MPD2     C13140   2.800   1.252  10.899 -0.0780 -0.2477  0.2949
  897MPD2    C113141   2.756   1.337  10.796 -0.9693 -0.1333  0.5670
  897MPD2    C213142   2.650   1.427  10.827 -0.3091 -0.0115  0.0060
  897MPD2    C313143   2.601   1.431  10.956  0.1931  0.1725 -0.9514
  897MPD2    C413144   2.651   1.349  11.056  0.1065  1.0959 -0.1806
  897MPD2    C513145   2.758   1.273  11.028 -0.6858 -0.6670  0.6062
  897MPD2     H13146   2.628   1.509  10.759 -0.5785 -0.3892 -0.3641
  897MPD2    H113147   2.609   1.359  11.156  2.1352  1.0368  0.6772
  897MPD2    H213148   2.888   1.192  10.879 -0.3254 -0.2670 -0.7251
  897MPD2    H313149   2.805   1.213  11.105 -0.3202 -0.9742  0.1402
  897MPD2     N13150   2.497   1.529  10.980  0.1657 -0.0365 -0.2352
  897MPD2    H513151   2.464   1.581  10.900 -1.2877 -1.2948 -0.4554
  897MPD2    N113152   2.817   1.341  10.669  0.2677  0.2191  0.1084
  897MPD2    H713153   2.792   1.419  10.610  3.3889  0.4732 -0.8504
  898MPD2     C13154   4.371   1.734   0.043 -0.5869 -0.2382  0.0354
  898MPD2    C113155   4.417   1.807   0.148  0.2865 -0.0704 -0.4345
  898MPD2    C213156   4.421   1.943   0.140  0.0020 -0.5151  0.0263
  898MPD2    C313157   4.395   2.004   0.019 -0.2990  0.1335 -0.2750
  898MPD2    C413158   4.380   1.915  17.609 -0.1824 -0.3972  0.4323
  898MPD2    C513159   4.362   1.783  17.624  0.1057  0.5686 -0.2313
  898MPD2     H13160   4.443   2.010   0.222  0.3300  1.0027 -1.3042
  898MPD2    H113161   4.360   1.952  17.509  2.4337  0.1819  0.1328
  898MPD2    H213162   4.354   1.628   0.060 -3.0487 -0.0676 -1.3154
  898MPD2    H313163   4.329   1.726  17.537 -1.7584 -1.1508  1.6200
  898MPD2     N13164   4.402   2.144   0.004  0.3900 -0.1423 -1.1324
  898MPD2    H513165   4.390   2.208   0.082 -1.1464 -0.8294 -0.7960
  898MPD2    N113166   4.457   1.739   0.265  0.3026  0.5829  0.4523
  898MPD2    H713167   4.422   1.645   0.282  2.9171 -0.8190 -2.0793
  899MPD2     C13168   0.397   2.575   0.196 -0.5088 -0.1033  0.4496
  899MPD2    C113169   0.484   2.662   0.245  0.9399 -0.5423  0.1762
  899MPD2    C213170   0.466   2.715   0.374 -0.2393  0.6022 -0.0981
  899MPD2    C313171   0.359   2.675   0.454 -0.2704  0.1822 -0.1071
  899MPD2    C413172   0.281   2.575   0.407  0.3455  0.0558 -0.2117
  899MPD2    C513173   0.306   2.530   0.281 -1.1378  0.2425  0.6431
  899MPD2     H13174   0.511   2.807   0.409  2.3817 -0.7808  0.1635
  899MPD2    H113175   0.194   2.537   0.459  1.0184 -3.5186 -1.6879
  899MPD2    H213176   0.391   2.533   0.096  0.4183  0.0048  0.3481
  899MPD2    H313177   0.236   2.460   0.236  0.1298 -0.8181  0.3254
  899MPD2     N13178   0.314   2.746   0.568  0.0895 -0.2284 -0.2916
  899MPD2    H513179   0.227   2.713   0.607  0.6192 -0.6043  0.5766
  899MPD2    N113180   0.577   2.712   0.154  0.5241  0.5750  0.1768
  899MPD2    H713181   0.567   2.681   0.058 -0.0586  1.0073  0.0949
  900MPD2     C13182   0.431   4.513  12.200  0.3399 -0.2095 -0.3944
  900MPD2    C113183   0.385   4.396  12.250  0.2217  0.1745 -0.4203
  900MPD2    C213184   0.272   4.338  12.199  0.4795  0.7750  0.1121
  900MPD2    C313185   0.200   4.404  12.101  0.0043  0.8346 -0.2884
  900MPD2    C413186   0.233   4.530  12.066 -0.2182  0.7634 -0.2087
  900MPD2    C513187   0.353   4.585  12.116  0.5675 -0.0960  0.5116
  900MPD2     H13188   0.240   4.238  12.226 -0.4023  1.1875  0.6041
  900MPD2    H113189   0.178   4.585  11.991 -0.5270 -0.3403 -0.7979
  900MPD2    H213190   0.521   4.559  12.240 -0.2628  0.1639  0.5285
  900MPD2    H313191   0.398   4.675  12.076 -0.4296  0.5853  0.9220
  900MPD2     N13192   0.096   4.336  12.036  0.3857 -0.1662  0.0836
  900MPD2    H513193   0.094   4.235  12.045 -0.1612 -0.0335  1.4997
  900MPD2    N113194   0.474   4.325  12.339  0.3771  0.2738  0.3961
  900MPD2    H713195   0.557   4.379  12.362 -0.4006  1.4341  0.5310
  901MPD2     C13196   0.592   3.506  13.044  0.2420  0.1483 -0.4193
  901MPD2    C113197   0.629   3.476  12.910 -0.0494 -0.4154  0.4173
  901MPD2    C213198   0.651   3.585  12.833 -0.4793  0.2461 -0.8748
  901MPD2    C313199   0.634   3.716  12.870  0.3681 -0.2151 -0.1191
  901MPD2    C413200   0.593   3.748  12.994 -0.1221  0.2168 -0.1011
  901MPD2    C513201   0.571   3.640  13.079 -0.2768 -0.1152 -0.0201
  901MPD2     H13202   0.690   3.577  12.732 -1.2849 -2.2837 -0.9857
  901MPD2    H113203   0.562   3.848  13.022  2.0490  1.0891 -0.8052
  901MPD2    H213204   0.571   3.437  13.124  0.1563  0.0295 -0.5445
  901MPD2    H313205   0.532   3.669  13.176  1.1844  4.6559 -0.8755
  901MPD2     N13206   0.659   3.813  12.773 -0.1978 -0.4767 -0.4757
  901MPD2    H513207   0.721   3.790  12.696  2.5133 -3.0238  2.4180
  901MPD2    N113208   0.647   3.338  12.874  0.6800 -0.3594 -0.1924
  901MPD2    H713209   0.643   3.266  12.946 -1.0415 -0.8635 -0.7760
  902MPD2     C13210   4.301   2.677  13.258 -0.6053 -0.0815 -0.2996
  902MPD2    C113211   4.220   2.673  13.147 -0.0305 -0.3540  0.3293
  902MPD2    C213212   4.279   2.624  13.029  0.4085 -0.1125 -0.1181
  902MPD2    C313213   4.404   2.577  13.020  0.0122  0.0935  0.0915
  902MPD2    C413214   4.490   2.599  13.126  0.3740  0.2294 -0.1226
  902MPD2    C513215   4.439   2.649  13.247  0.0923 -0.2692 -0.1971
  902MPD2     H13216   4.204   2.604  12.953 -1.4686 -0.8121  1.9123
  902MPD2    H113217   4.596   2.574  13.128  0.3595  0.2820  1.1147
  902MPD2    H213218   4.255   2.721  13.345  1.4489  3.9236 -1.2496
  902MPD2    H313219   4.499   2.658  13.336 -0.9494  2.7273  0.2108
  902MPD2     N13220   4.462   2.518  12.906 -0.3512 -0.0144  0.1846
  902MPD2    H513221   4.559   2.490  12.913 -0.5720 -1.0010 -0.6512
  902MPD2    N113222   4.081   2.699  13.165 -0.5702  0.1175  0.0373
  902MPD2    H713223   4.050   2.714  13.261 -1.7355  0.7284 -0.4284
  903MPD2     C13224   4.577   2.200  12.056 -0.1953  0.6574 -0.2413
  903MPD2    C113225   4.496   2.275  12.132  0.4760  0.3271 -0.0574
  903MPD2    C213226   4.369   2.305  12.084  0.0178  0.0565 -0.1106
  903MPD2    C313227   4.317   2.246  11.972  0.3674 -0.2319  0.7924
  903MPD2    C413228   4.412   2.178  11.896  0.7402  0.4018 -0.2405
  903MPD2    C513229   4.539   2.154  11.935  0.1601  0.2484 -0.0529
  903MPD2     H13230   4.298   2.363  12.142  1.1779  1.3046  0.0856
  903MPD2    H113231   4.381   2.134  11.802  2.5912  0.6619 -0.9627
  903MPD2    H213232   4.683   2.187  12.076 -0.3121  2.2997  1.4275
  903MPD2    H313233   4.608   2.114  11.863 -1.4535 -0.0005 -1.4565
  903MPD2     N13234   4.181   2.267  11.932  0.1754 -0.2999  0.2650
  903MPD2    H513235   4.135   2.335  11.991  1.8620 -0.6427  1.9686
  903MPD2    N113236   4.555   2.342  12.244 -0.6462  0.0427  0.0258
  903MPD2    H713237   4.639   2.300  12.283  0.0115  0.0709 -1.3761
  904MPD2     C13238   3.862   1.275  13.985  0.1642  0.2454 -0.0258
  904MPD2    C113239   3.800   1.383  14.047 -0.2156 -0.3623  0.4852
  904MPD2    C213240   3.878   1.459  14.131 -0.2837 -0.1305 -0.4156
  904MPD2    C313241   4.000   1.418  14.183 -0.2906 -0.1328  0.0434
  904MPD2    C413242   4.045   1.296  14.135 -0.3085 -0.4721 -0.1759
  904MPD2    C513243   3.981   1.227  14.034  0.0715  0.3861  0.7240
  904MPD2     H13244   3.831   1.547  14.175 -0.8477 -0.4718 -0.3297
  904MPD2    H113245   4.133   1.238  14.163 -1.0183 -1.3287  0.2864
  904MPD2    H213246   3.818   1.209  13.911  0.0566 -0.3586  0.5809
  904MPD2    H313247   4.008   1.131  13.992 -0.3244  0.7038 -0.2513
  904MPD2     N13248   4.065   1.503  14.274  0.6642 -0.1621 -0.0362
  904MPD2    H513249   4.004   1.571  14.320  1.6996  2.3920 -2.4180
  904MPD2    N113250   3.680   1.437  13.998  0.0593 -0.5781  0.3048
  904MPD2    H713251   3.647   1.518  14.050 -1.7213 -0.9176 -0.2928
  905MPD2     C13252   3.604   1.946  13.433 -0.8189 -0.0766  0.3065
  905MPD2    C113253   3.665   1.834  13.483 -0.1402  0.0568  0.2097
  905MPD2    C213254   3.802   1.828  13.477 -1.2675  0.0629 -0.5249
  905MPD2    C313255   3.875   1.937  13.429  0.4997 -0.0447 -0.4726
  905MPD2    C413256   3.814   2.051  13.389  0.2138 -0.0046  0.3602
  905MPD2    C513257   3.677   2.049  13.384  0.3083 -0.1324 -0.9305
  905MPD2     H13258   3.857   1.738  13.502  0.5434  0.9420 -1.3821
  905MPD2    H113259   3.873   2.136  13.355 -1.3266 -0.3434 -3.1474
  905MPD2    H213260   3.498   1.965  13.432 -0.9510 -1.1101 -3.2636
  905MPD2    H313261   3.629   2.139  13.348  0.7103  0.5984  0.3605
  905MPD2     N13262   4.018   1.934  13.422 -0.2054 -0.2928  0.1805
  905MPD2    H513263   4.059   2.019  13.384 -0.4749 -0.0249  0.4941
  905MPD2    N113264   3.600   1.726  13.546  0.2549  0.1493  1.0018
  905MPD2    H713265   3.653   1.648  13.584  1.1494  1.4579  2.4081
  906MPD2     C13266   1.375   1.591  11.533 -0.1302 -0.3292 -0.0897
  906MPD2    C113267   1.361   1.505  11.425 -0.1884  0.0113  0.2325
  906MPD2    C213268   1.322   1.380  11.459 -0.7859  0.9242 -0.6625
  906MPD2    C313269   1.287   1.336  11.587 -0.1856 -0.2305 -0.2620
  906MPD2    C413270   1.289   1.430  11.688 -1.1806 -0.0159  0.8142
  906MPD2    C513271   1.332   1.552  11.657 -0.0385 -0.3128 -0.1960
  906MPD2     H13272   1.317   1.310  11.377  0.1423  0.6178 -0.4616
  906MPD2    H113273   1.274   1.409  11.794 -2.4805  1.1902  0.8744
  906MPD2    H213274   1.402   1.695  11.525  0.8737 -0.7280 -1.7020
  906MPD2    H313275   1.329   1.626  11.737  1.7150  0.0139 -0.4314
  906MPD2     N13276   1.242   1.204  11.608 -0.0094 -0.6670 -0.1514
  906MPD2    H513277   1.223   1.150  11.524 -0.1508 -0.3156 -0.3429
  906MPD2    N113278   1.379   1.538  11.288  0.3196 -0.0024 -0.1060
  906MPD2    H713279   1.362   1.461  11.224  1.2533  0.6403 -1.1362
  907MPD2     C13280   4.625   0.533  15.444 -0.1059  0.3626 -0.4539
  907MPD2    C113281   4.709   0.424  15.415 -0.2651 -0.5275 -0.5166
  907MPD2    C213282   0.060   0.370  15.518  0.3370 -0.3910  0.1292
  907MPD2    C313283   0.064   0.421  15.651 -0.2367  0.2879 -0.2967
  907MPD2    C413284   4.711   0.535  15.673  0.2839  0.4321 -0.2505
  907MPD2    C513285   4.626   0.582  15.571  0.9315  0.0346  0.1768
  907MPD2     H13286   0.114   0.278  15.498 -0.3053 -0.7534  0.0824
  907MPD2    H113287   4.708   0.590  15.766 -1.5551  0.5844 -0.3992
  907MPD2    H213288   4.560   0.591  15.379 -2.8100 -1.6849  0.4074
  907MPD2    H313289   4.573   0.675  15.592 -0.7727 -0.6372 -1.1999
  907MPD2     N13290   0.149   0.359  15.742  0.3298  0.1347  0.8807
  907MPD2    H513291   0.203   0.278  15.711 -1.4798 -0.4193 -0.8004
  907MPD2    N113292   4.701   0.363  15.289 -0.0454 -0.3812  0.0914
  907MPD2    H713293   0.037   0.284  15.267  0.5046  0.4243 -1.3164
  908MPD2     C13294   3.433   0.778  10.138  0.4941 -1.2094 -0.1400
  908MPD2    C113295   3.305   0.746  10.177  0.5994  0.2802  0.4532
  908MPD2    C213296   3.209   0.845  10.202  0.8207  0.4252  0.8053
  908MPD2    C313297   3.253   0.984  10.199  0.9627  0.1330  0.5923
  908MPD2    C413298   3.383   1.008  10.181 -0.1726 -0.0523 -0.2847
  908MPD2    C513299   3.467   0.909  10.140  0.8645  0.4590  0.0210
  908MPD2     H13300   3.113   0.814  10.242  1.4463 -2.9283 -0.2630
  908MPD2    H113301   3.426   1.107  10.182 -0.4244  0.0805 -1.8251
  908MPD2    H213302   3.507   0.701  10.122  1.2671 -0.4194 -0.3251
  908MPD2    H313303   3.567   0.937  10.112  0.6005  0.8352 -0.5407
  908MPD2     N13304   3.164   1.082  10.229  0.4420  0.3149 -0.7528
  908MPD2    H513305   3.072   1.042  10.246  1.1431  0.0537  2.2984
  908MPD2    N113306   3.282   0.607  10.200  0.3231 -0.4404  1.0051
  908MPD2    H713307   3.352   0.539  10.173 -1.6446 -1.9272 -0.3464
  909MPD2     C13308   3.127   4.024  11.952 -0.8338 -0.3178 -0.0646
  909MPD2    C113309   3.106   4.129  11.856 -0.7227 -0.6685 -0.2737
  909MPD2    C213310   3.040   4.247  11.895 -0.4794  0.1705  0.1745
  909MPD2    C313311   2.979   4.252  12.021  0.2905  0.4367 -0.3047
  909MPD2    C413312   2.995   4.144  12.104 -0.5432 -0.0900  0.0897
  909MPD2    C513313   3.078   4.037  12.083 -0.1490  0.2204  0.1167
  909MPD2     H13314   3.045   4.333  11.829  0.1422  1.2483  1.6113
  909MPD2    H113315   2.957   4.144  12.206 -0.9784  1.6648 -0.0617
  909MPD2    H213316   3.187   3.937  11.930  2.4665  2.2278 -1.1470
  909MPD2    H313317   3.083   3.964  12.163 -0.5802 -0.5266 -0.5396
  909MPD2     N13318   2.901   4.368  12.052  0.5336  0.4862 -0.6833
  909MPD2    H513319   2.871   4.432  11.979  0.0831  0.9263 -0.1161
  909MPD2    N113320   3.156   4.120  11.725  0.0712  0.2596  0.0642
  909MPD2    H713321   3.154   4.209  11.675  0.6277 -0.6936 -1.6255
  910MPD2     C13322   3.767   0.347  15.012 -0.7858 -0.2277 -0.2840
  910MPD2    C113323   3.824   0.445  15.086  0.5295  0.4596  0.0806
  910MPD2    C213324   3.770   0.567  15.088  0.0776  0.5096 -0.0556
  910MPD2    C313325   3.650   0.602  15.024 -1.1651 -0.1550 -0.0264
  910MPD2    C413326   3.594   0.507  14.946  0.0065  0.3795  0.2504
  910MPD2    C513327   3.651   0.382  14.942  0.3115 -0.1491 -0.4304
  910MPD2     H13328   3.833   0.646  15.127  0.2548 -0.1905  1.0629
  910MPD2    H113329   3.514   0.523  14.874  0.8924 -0.7402 -0.9949
  910MPD2    H213330   3.811   0.248  15.008  0.6782  0.3719  1.0252
  910MPD2    H313331   3.611   0.311  14.870  1.0013 -0.7426 -0.2385
  910MPD2     N13332   3.584   0.729  15.022 -0.1612  0.3755  0.4274
  910MPD2    H513333   3.499   0.736  14.966 -0.0081 -0.2740  0.1080
  910MPD2    N113334   3.942   0.434  15.162 -0.5418  0.2147  0.3422
  910MPD2    H713335   3.988   0.514  15.204 -2.2390  0.2937  2.0761
  911MPD2     C13336   2.036   1.392  16.712  0.3653 -1.2070  0.2215
  911MPD2    C113337   2.102   1.511  16.700  0.7234  0.0222 -0.0561
  911MPD2    C213338   2.033   1.622  16.649  0.5527 -0.9280  0.1537
  911MPD2    C313339   1.903   1.606  16.605  0.5280 -0.4902 -0.2846
  911MPD2    C413340   1.835   1.484  16.626 -0.6615 -0.3495 -0.9885
  911MPD2    C513341   1.900   1.377  16.681  0.5116 -0.3126  0.4998
  911MPD2     H13342   2.083   1.719  16.652 -2.4748  0.6500 -0.5112
  911MPD2    H113343   1.733   1.468  16.593  0.0950 -3.0502 -1.9734
  911MPD2    H213344   2.097   1.309  16.748  0.2237 -1.3955  0.0280
  911MPD2    H313345   1.845   1.285  16.697 -1.3410  0.1833 -3.0852
  911MPD2     N13346   1.836   1.713  16.549  0.3107 -0.1729  0.0264
  911MPD2    H513347   1.740   1.695  16.521 -0.5873 -0.2487  3.1284
  911MPD2    N113348   2.242   1.505  16.733  0.0156  0.1321 -0.1953
  911MPD2    H713349   2.274   1.412  16.754 -0.6008 -0.0684 -0.1293
  912MPD2     C13350   1.263   1.584  16.115 -0.2219  0.1390  0.1008
  912MPD2    C113351   1.324   1.591  16.239  0.0178  0.7839  0.0707
  912MPD2    C213352   1.286   1.500  16.335 -0.3000  0.3627  0.7271
  912MPD2    C313353   1.198   1.395  16.313  0.5100  0.0524 -0.0284
  912MPD2    C413354   1.142   1.380  16.187 -0.4942  0.1662  0.3631
  912MPD2    C513355   1.176   1.477  16.096 -0.1815  0.3885 -0.7742
  912MPD2     H13356   1.335   1.491  16.432  1.0096 -0.5865 -0.0372
  912MPD2    H113357   1.073   1.302  16.156 -1.1845 -0.0876  2.4762
  912MPD2    H213358   1.260   1.668  16.047  0.8751 -0.4166 -0.6276
  912MPD2    H313359   1.123   1.465  16.002 -0.3712 -1.4999 -0.4176
  912MPD2     N13360   1.177   1.304  16.426 -0.5931 -0.0454  0.0044
  912MPD2    H513361   1.201   1.337  16.519  1.2482  0.1129 -0.5274
  912MPD2    N113362   1.414   1.701  16.260 -0.1336 -0.1256  0.4369
  912MPD2    H713363   1.406   1.767  16.184  0.6270 -0.4841  0.0482
  913MPD2     C13364   2.701   2.817  10.716  0.4006 -0.1361  0.3778
  913MPD2    C113365   2.678   2.898  10.824  0.1072 -0.5926  0.1826
  913MPD2    C213366   2.659   3.035  10.797 -0.4759 -0.0403  0.0628
  913MPD2    C313367   2.661   3.086  10.666  0.0115 -0.4445 -0.1904
  913MPD2    C413368   2.670   2.998  10.564  0.1903 -0.6710 -0.7613
  913MPD2    C513369   2.699   2.862  10.589  0.3245 -0.0709  0.9054
  913MPD2     H13370   2.651   3.103  10.881 -1.9565  1.3206 -1.1879
  913MPD2    H113371   2.667   3.022  10.458  0.8209 -3.6295 -1.4495
  913MPD2    H213372   2.721   2.711  10.732 -1.1096 -0.6028 -0.8576
  913MPD2    H313373   2.706   2.795  10.504 -1.3142 -0.6530  1.2251
  913MPD2     N13374   2.647   3.223  10.625 -0.8477  0.2162  0.0083
  913MPD2    H513375   2.653   3.232  10.524 -0.7276 -2.8162 -0.2397
  913MPD2    N113376   2.697   2.837  10.951  0.1760  0.2094 -0.3782
  913MPD2    H713377   2.733   2.743  10.960  1.3963  0.6879 -0.1000
  914MPD2     C13378   0.250   3.141  12.054  0.2965  0.4491 -0.2215
  914MPD2    C113379   0.295   3.258  12.118 -0.2708 -0.2224  0.6142
  914MPD2    C213380   0.370   3.238  12.233  0.9150 -0.4927 -0.0605
  914MPD2    C313381   0.403   3.114  12.274 -0.2941  0.2113  0.3685
  914MPD2    C413382   0.371   3.003  12.203 -0.2939 -0.1475  0.2787
  914MPD2    C513383   0.280   3.012  12.105 -0.6718  0.0890  0.0675
  914MPD2     H13384   0.395   3.321  12.298 -0.3648  0.1968 -0.4317
  914MPD2    H113385   0.422   2.909  12.221 -0.8405 -0.1265  1.9299
  914MPD2    H213386   0.188   3.151  11.966 -1.3028  1.6499  1.0374
  914MPD2    H313387   0.249   2.929  12.043 -0.8725 -1.3394  2.1106
  914MPD2     N13388   0.483   3.105  12.391 -0.3404 -0.2631  0.0043
  914MPD2    H513389   0.494   3.192  12.443 -0.9785  0.3424 -0.8786
  914MPD2    N113390   0.254   3.385  12.072 -0.4822 -0.2724  0.1707
  914MPD2    H713391   0.210   3.389  11.980 -1.6963  0.7043  0.7919
  915MPD2     C13392   2.862   2.551  15.726 -0.1242 -0.3697  0.6539
  915MPD2    C113393   2.727   2.555  15.749  0.0970  0.2540 -0.5069
  915MPD2    C213394   2.677   2.657  15.819  0.0954  0.0749 -0.2476
  915MPD2    C313395   2.758   2.762  15.866 -0.0144 -0.8499  0.5207
  915MPD2    C413396   2.894   2.764  15.844  0.1051 -0.3830 -0.2934
  915MPD2    C513397   2.939   2.659  15.766  0.8339 -0.2670  0.2800
  915MPD2     H13398   2.575   2.658  15.855 -0.0757 -3.8257 -0.6621
  915MPD2    H113399   2.956   2.839  15.892  0.4786 -1.0436  0.2489
  915MPD2    H213400   2.898   2.480  15.653  0.5428  1.0648 -0.4147
  915MPD2    H313401   3.046   2.653  15.747  0.3705 -0.8065 -2.1293
  915MPD2     N13402   2.692   2.858  15.954  0.0792  0.6185  1.0635
  915MPD2    H513403   2.597   2.839  15.984  0.2576  1.6101  2.2701
  915MPD2    N113404   2.642   2.451  15.719  0.3084  0.5476  0.6853
  915MPD2    H713405   2.545   2.455  15.748 -0.2741  0.7906 -1.3157
  916MPD2     C13406   0.624   1.448  16.052  0.1435  0.3551 -0.0349
  916MPD2    C113407   0.708   1.390  16.136  0.8525 -0.5606  0.0697
  916MPD2    C213408   0.752   1.262  16.117  0.0368 -0.0760 -0.8677
  916MPD2    C313409   0.694   1.191  16.009 -0.2288  0.4988 -0.6979
  916MPD2    C413410   0.591   1.252  15.940  0.1609 -0.3357 -0.0801
  916MPD2    C513411   0.550   1.386  15.957 -0.3031  0.1632 -0.3624
  916MPD2     H13412   0.827   1.212  16.178 -0.4048  0.0346 -0.2342
  916MPD2    H113413   0.535   1.194  15.867 -0.4621  0.1056  0.0461
  916MPD2    H213414   0.613   1.556  16.052  1.8868  0.5253 -1.1897
  916MPD2    H313415   0.470   1.437  15.904 -0.5253  1.3261  1.0948
  916MPD2     N13416   0.729   1.052  15.988  0.0311  0.0297  0.3039
  916MPD2    H513417   0.798   1.009  16.048  0.1342 -0.0461  0.1311
  916MPD2    N113418   0.766   1.471  16.237 -0.6838 -0.1894 -0.0078
  916MPD2    H713419   0.757   1.572  16.230  3.5064  0.1784  0.1424
  917MPD2     C13420   1.748   3.759  10.953 -0.1306 -0.1474 -0.2638
  917MPD2    C113421   1.811   3.784  11.068 -0.4534  0.1323 -0.1119
  917MPD2    C213422   1.911   3.883  11.077  0.0465 -0.0968  0.4357
  917MPD2    C313423   1.944   3.958  10.968 -0.5264  0.3174 -0.2603
  917MPD2    C413424   1.883   3.926  10.846  0.1103 -0.0502  0.2355
  917MPD2    C513425   1.791   3.816  10.838  0.3993  0.0637 -0.3041
  917MPD2     H13426   1.962   3.918  11.167  2.0165 -2.2002  0.1291
  917MPD2    H113427   1.899   3.989  10.760 -0.1321  0.8223  0.8341
  917MPD2    H213428   1.681   3.674  10.947 -1.3253  0.7315  0.7258
  917MPD2    H313429   1.738   3.791  10.747  1.3352  0.5081 -0.9715
  917MPD2     N13430   2.039   4.069  10.966  0.6286  0.5731  0.2581
  917MPD2    H513431   2.051   4.101  10.871  0.4957 -0.5106 -0.1250
  917MPD2    N113432   1.772   3.693  11.180  0.0224 -0.3347 -0.1100
  917MPD2    H713433   1.680   3.652  11.169 -0.6102  0.9511  0.4703
  918MPD2     C13434   1.888   3.913  12.220  0.1613 -0.2265 -0.1528
  918MPD2    C113435   1.920   3.774  12.204  0.1362 -0.7444 -0.5542
  918MPD2    C213436   1.886   3.707  12.087  0.1403  0.1834  0.0236
  918MPD2    C313437   1.813   3.770  11.988  0.1967 -0.3131  0.2898
  918MPD2    C413438   1.764   3.894  12.015  0.3917 -0.5302 -0.3926
  918MPD2    C513439   1.806   3.967  12.125  0.5405  0.5291 -0.3067
  918MPD2     H13440   1.932   3.610  12.074  0.1386 -0.0189  1.5699
  918MPD2    H113441   1.701   3.948  11.946  1.1856  1.1236  0.1666
  918MPD2    H213442   1.922   3.978  12.300  2.5006 -2.0057  0.2725
  918MPD2    H313443   1.783   4.073  12.129  0.5010  0.5192 -0.2737
  918MPD2     N13444   1.796   3.708  11.863 -0.0567 -0.4419  0.3391
  918MPD2    H513445   1.821   3.610  11.868 -2.0898 -1.0333 -1.2551
  918MPD2    N113446   2.000   3.707  12.304  0.3709  0.1565  0.3623
  918MPD2    H713447   2.044   3.619  12.278 -0.3531 -0.4452  1.1652
  919MPD2     C13448   2.323   2.795  11.494 -0.0192  0.1893 -0.1068
  919MPD2    C113449   2.302   2.671  11.441  0.0311 -0.0896  0.1028
  919MPD2    C213450   2.331   2.649  11.303  0.8426 -0.0645  0.3477
  919MPD2    C313451   2.349   2.763  11.222  0.2457 -0.5327 -0.9450
  919MPD2    C413452   2.359   2.889  11.275 -0.1451  0.7694 -0.0014
  919MPD2    C513453   2.353   2.900  11.410  0.3488 -0.4289  0.4865
  919MPD2     H13454   2.322   2.547  11.268  1.2496  0.1365 -0.3591
  919MPD2    H113455   2.376   2.981  11.219  0.1398  1.4729  1.2495
  919MPD2    H213456   2.320   2.822  11.598  0.4678  0.7810 -0.2468
  919MPD2    H313457   2.351   2.999  11.453  0.4994 -0.6529  1.0169
  919MPD2     N13458   2.347   2.760  11.080  0.2971  0.2182 -0.1402
  919MPD2    H513459   2.353   2.853  11.039 -2.7894 -0.3396 -1.7940
  919MPD2    N113460   2.271   2.560  11.517  0.3161  0.3211 -0.8054
  919MPD2    H713461   2.278   2.475  11.462 -3.6919  0.3004 -1.2828
  920MPD2     C13462   2.192   3.373  10.532  0.1221 -0.1159  0.3939
  920MPD2    C113463   2.145   3.273  10.450  0.2627  0.7509  0.2572
  920MPD2    C213464   2.173   3.143  10.482  0.3162  0.3952  1.1277
  920MPD2    C313465   2.238   3.115  10.601 -0.0682 -0.1875  0.3058
  920MPD2    C413466   2.277   3.215  10.681  0.1019  1.1852 -0.1061
  920MPD2    C513467   2.257   3.352  10.648  0.3370  0.8535 -0.9869
  920MPD2     H13468   2.120   3.063  10.432  0.2387  1.0033  0.2299
  920MPD2    H113469   2.326   3.191  10.775 -0.8031  2.5626  0.7154
  920MPD2    H213470   2.184   3.475  10.498  0.3897  0.0011  0.6802
  920MPD2    H313471   2.286   3.443  10.700  0.4736  0.8403 -1.0417
  920MPD2     N13472   2.266   2.992  10.664 -0.4285 -0.2284  0.0219
  920MPD2    H513473   2.293   2.993  10.762  0.0791  0.7848 -0.1253
  920MPD2    N113474   2.061   3.293  10.337 -0.1496 -0.4507  0.2340
  920MPD2    H713475   2.012   3.216  10.292 -1.8700  0.1796  1.0057
  921MPD2     C13476   2.889   2.213  16.849 -0.4506 -0.1904  0.3749
  921MPD2    C113477   2.928   2.122  16.760  0.9028  0.2322  0.1702
  921MPD2    C213478   2.871   1.996  16.772  0.5767 -0.5585  0.0100
  921MPD2    C313479   2.784   1.964  16.878 -0.1194  0.0047 -0.3907
  921MPD2    C413480   2.749   2.060  16.970  0.4398 -0.4057  0.8582
  921MPD2    C513481   2.811   2.180  16.957  0.2705 -0.1261  0.8626
  921MPD2     H13482   2.890   1.924  16.693  3.1450 -3.3996  3.2492
  921MPD2    H113483   2.687   2.045  17.057 -2.3885  2.2577 -0.7165
  921MPD2    H213484   2.933   2.311  16.839 -0.9169  0.0208  0.4148
  921MPD2    H313485   2.792   2.254  17.035 -0.3430  1.9229 -1.2225
  921MPD2     N13486   2.738   1.836  16.894 -0.2811  0.1865  0.0738
  921MPD2    H513487   2.672   1.823  16.970  0.0705 -1.4336  0.1044
  921MPD2    N113488   3.018   2.159  16.653  0.1157 -0.1564 -0.5489
  921MPD2    H713489   3.044   2.257  16.647 -0.4636  0.2320  3.1512
  922MPD2     C13490   3.690   3.824  17.667  0.1047 -1.6919 -0.5112
  922MPD2    C113491   3.701   3.960  17.666 -0.4927  0.0778  0.5913
  922MPD2    C213492   3.583   4.037  17.686  1.2291  0.2432 -0.1296
  922MPD2    C313493   3.461   3.974  17.683 -0.2523  0.3437 -0.2139
  922MPD2    C413494   3.455   3.837   0.005 -0.1971  0.3220 -0.9556
  922MPD2    C513495   3.569   3.767  17.691  0.5083  0.2552 -0.7161
  922MPD2     H13496   3.579   4.145  17.685  1.8598  0.2567 -1.2647
  922MPD2    H113497   3.363   3.781   0.021  0.2261  0.1308  0.8843
  922MPD2    H213498   3.777   3.761  17.651  0.3330 -1.9318  1.6585
  922MPD2    H313499   3.572   3.659   0.002  0.1014  0.1890 -1.4069
  922MPD2     N13500   3.344   4.053  17.670  0.2947  0.0685  0.4261
  922MPD2    H513501   3.355   4.154  17.662 -0.2309  0.0398 -0.6133
  922MPD2    N113502   3.815   4.034  17.628  0.8470  0.0108  0.4626
  922MPD2    H713503   3.805   4.135  17.632 -0.2350 -0.0754  0.0813
  923MPD2     C13504   1.096   1.191   9.330  0.1833 -0.7116  0.4271
  923MPD2    C113505   1.000   1.237   9.414 -0.2239 -0.4727 -0.8572
  923MPD2    C213506   1.035   1.305   9.533  0.6323  0.3589 -0.1121
  923MPD2    C313507   1.173   1.309   9.566  0.0953 -0.0554 -0.3098
  923MPD2    C413508   1.266   1.238   9.494  1.2325 -0.9582  0.4746
  923MPD2    C513509   1.227   1.196   9.368 -0.3915 -0.0191  0.0063
  923MPD2     H13510   0.951   1.345   9.587  1.9037 -0.0576  2.1669
  923MPD2    H113511   1.368   1.232   9.530  1.7856  0.4127 -0.8745
  923MPD2    H213512   1.071   1.144   9.235  0.6201 -1.3563  0.6232
  923MPD2    H313513   1.314   1.168   9.309  0.4144 -0.0389  1.1876
  923MPD2     N13514   1.213   1.374   9.683 -0.0114 -0.1997  0.1525
  923MPD2    H513515   1.306   1.362   9.723 -0.4645 -1.3716  0.8317
  923MPD2    N113516   0.871   1.228   9.364  0.2002  0.1541  0.0881
  923MPD2    H713517   0.857   1.181   9.276 -0.3483 -0.7537  0.6612
  924MPD2     C13518   0.498   4.296  15.854  0.6172  0.8140 -0.8093
  924MPD2    C113519   0.459   4.335  15.976 -0.1592  0.1749 -0.3131
  924MPD2    C213520   0.448   4.472  16.004 -0.8442  0.1361 -0.2745
  924MPD2    C313521   0.455   4.562  15.899  0.5912 -0.0253  0.8398
  924MPD2    C413522   0.486   4.516  15.771  0.1448  0.0027 -0.2193
  924MPD2    C513523   0.519   4.381  15.749 -0.2448  0.5214  0.5567
  924MPD2     H13524   0.425   4.502  16.106 -2.1730  0.4574 -0.6730
  924MPD2    H113525   0.528   4.584  15.697 -3.2637  0.6264 -1.5723
  924MPD2    H213526   0.521   4.191  15.837  0.5246  0.5685  0.5723
  924MPD2    H313527   0.537   4.343  15.649 -2.0766 -0.2621  0.5268
  924MPD2     N13528   0.449   4.702  15.920 -0.4535  0.0421 -0.8106
  924MPD2    H513529   0.476   0.037  15.842  1.7746 -0.4024 -0.3809
  924MPD2    N113530   0.423   4.234  16.076 -0.0143  0.3528 -0.3402
  924MPD2    H713531   0.473   4.146  16.079 -1.0020 -0.1864  0.0454
  925MPD2     C13532   3.714   2.325  14.770  0.0152  1.2983 -0.7286
  925MPD2    C113533   3.578   2.323  14.788  0.3898  0.7675 -1.6073
  925MPD2    C213534   3.523   2.301  14.916 -0.3857  0.4909  0.2788
  925MPD2    C313535   3.613   2.281  15.021 -0.1779  0.3237 -0.4993
  925MPD2    C413536   3.745   2.277  14.999  0.0472 -0.3608  1.1115
  925MPD2    C513537   3.801   2.312  14.878  0.0430  0.2002 -0.2811
  925MPD2     H13538   3.418   2.288  14.938 -0.0317  1.5647  2.5630
  925MPD2    H113539   3.817   2.265  15.079 -0.5198  0.8231  1.7844
  925MPD2    H213540   3.756   2.356  14.674  0.1852 -0.4445 -1.2173
  925MPD2    H313541   3.908   2.320  14.859  0.3205 -1.3822  0.6240
  925MPD2     N13542   3.567   2.279  15.154 -0.2722  0.3859  0.4538
  925MPD2    H513543   3.632   2.246  15.225 -0.4662 -3.4618 -1.1511
  925MPD2    N113544   3.499   2.351  14.670  0.1540  1.0662  0.4914
  925MPD2    H713545   3.546   2.368  14.582 -1.5773 -2.1941 -1.0643
  926MPD2     C13546   3.081   0.439  13.111  0.2750  0.1475  0.3389
  926MPD2    C113547   3.039   0.567  13.140 -0.3311  0.0968  0.4951
  926MPD2    C213548   3.056   0.668  13.050 -0.4357 -0.5882  0.3505
  926MPD2    C313549   3.144   0.657  12.943 -0.6746  0.3032  0.3171
  926MPD2    C413550   3.184   0.527  12.916 -0.4086  0.1810 -0.0144
  926MPD2    C513551   3.149   0.421  12.998 -0.4396  0.4894 -0.6083
  926MPD2     H13552   3.015   0.764  13.079 -0.1164  0.0534 -1.3234
  926MPD2    H113553   3.242   0.514  12.825 -1.5037  0.9581 -0.8200
  926MPD2    H213554   3.064   0.353  13.175 -1.4930 -0.4287 -0.9064
  926MPD2    H313555   3.182   0.321  12.970 -2.9717 -0.6498  0.5321
  926MPD2     N13556   3.187   0.768  12.859 -0.4742  0.3504 -0.2432
  926MPD2    H513557   3.261   0.763  12.790 -0.4535 -2.1953 -0.0221
  926MPD2    N113558   2.980   0.594  13.261  0.5743 -0.5614  0.0225
  926MPD2    H713559   2.976   0.693  13.283  3.7348 -0.5371  0.5454
  927MPD2     C13560   2.214   3.208   0.337  0.0439 -0.5809  0.2594
  927MPD2    C113561   2.214   3.079   0.289  0.9407  0.4792  0.4679
  927MPD2    C213562   2.293   3.052   0.183  1.0452  0.3516 -0.0964
  927MPD2    C313563   2.363   3.152   0.120 -0.0680  0.4975  0.4016
  927MPD2    C413564   2.365   3.274   0.177  0.3571 -0.2398  0.1960
  927MPD2    C513565   2.292   3.303   0.286  0.0480  0.1572  1.6431
  927MPD2     H13566   2.293   2.956   0.132  0.6503  0.3527 -0.1022
  927MPD2    H113567   2.435   3.350   0.141  0.8820 -0.9289 -0.2395
  927MPD2    H213568   2.150   3.230   0.421  0.4154 -0.6189  0.5524
  927MPD2    H313569   2.282   3.396   0.340 -1.7375  1.7377 -1.4327
  927MPD2     N13570   2.414   3.127  17.685  0.8098  0.0722 -0.2418
  927MPD2    H513571   2.399   3.038  17.638 -0.0741  0.2004 -0.2065
  927MPD2    N113572   2.144   2.979   0.357 -0.2519 -0.3622  0.3695
  927MPD2    H713573   2.098   3.012   0.441  0.6138 -0.4621  0.8893
  928MPD2     C13574   0.338   1.337   1.704  0.6488  0.4286  1.0815
  928MPD2    C113575   0.342   1.471   1.667 -0.6908 -0.1900 -0.2461
  928MPD2    C213576   0.352   1.495   1.529  0.3617  0.3632  0.3955
  928MPD2    C313577   0.350   1.398   1.434 -0.0167  0.1773  0.1109
  928MPD2    C413578   0.338   1.266   1.471 -0.1160  0.3060  0.1225
  928MPD2    C513579   0.348   1.232   1.607 -0.3178  0.0885 -0.3721
  928MPD2     H13580   0.380   1.597   1.505 -0.6334  0.7579  0.9028
  928MPD2    H113581   0.342   1.187   1.396  2.4981 -1.1170  1.7522
  928MPD2    H213582   0.358   1.322   1.809 -0.7293 -1.2667  1.0912
  928MPD2    H313583   0.347   1.127   1.632 -0.0152  0.5151  1.4201
  928MPD2     N13584   0.374   1.430   1.295 -0.0559  0.3080  0.2455
  928MPD2    H513585   0.363   1.354   1.229  3.2012  1.8511 -2.0703
  928MPD2    N113586   0.362   1.580   1.756 -0.6211  0.0162  0.7152
  928MPD2    H713587   0.390   1.563   1.852 -2.0359 -1.0563  0.9363
  929MPD2     C13588   0.688   1.133  10.829 -0.0815  0.3711  0.0419
  929MPD2    C113589   0.580   1.056  10.825  0.2375 -0.1748  0.6768
  929MPD2    C213590   0.520   1.047  10.706  0.1111 -0.7758  0.6171
  929MPD2    C313591   0.562   1.110  10.589 -0.5712  0.8548 -0.7363
  929MPD2    C413592   0.672   1.198  10.600 -0.1503  0.3615  0.3598
  929MPD2    C513593   0.734   1.207  10.721 -0.4160  0.2689 -0.2646
  929MPD2     H13594   0.445   0.969  10.704  0.6686 -1.2933 -0.1976
  929MPD2    H113595   0.704   1.263  10.520 -1.4706  1.4017  0.6826
  929MPD2    H213596   0.725   1.127  10.931  1.1489 -1.5202 -0.5191
  929MPD2    H313597   0.821   1.269  10.738  0.3134 -0.6980 -0.4500
  929MPD2     N13598   0.502   1.086  10.459  0.0417  0.0604  0.0095
  929MPD2    H513599   0.548   1.132  10.382 -1.2365  2.1940  0.5103
  929MPD2    N113600   0.532   0.996  10.943  0.2331  0.1144  0.0465
  929MPD2    H713601   0.571   1.029  11.031  0.0623 -3.0537  1.3111
  930MPD2     C13602   1.607   3.462  14.641 -0.3873 -0.1234  0.0957
  930MPD2    C113603   1.732   3.474  14.585  0.2493  0.6813 -0.2147
  930MPD2    C213604   1.764   3.392  14.482  0.0589 -0.4841  0.2926
  930MPD2    C313605   1.672   3.296  14.440 -0.3923 -0.5535  0.1748
  930MPD2    C413606   1.553   3.279  14.500 -0.5586  0.6220  0.6756
  930MPD2    C513607   1.520   3.364  14.605  0.3052 -0.2416  0.3471
  930MPD2     H13608   1.862   3.405  14.437  0.4393 -0.2824  1.1906
  930MPD2    H113609   1.483   3.206  14.460  2.0809 -1.0929 -0.8448
  930MPD2    H213610   1.568   3.530  14.715  0.2523  0.2494  0.0961
  930MPD2    H313611   1.419   3.371  14.646  0.3045  0.0394  0.2950
  930MPD2     N13612   1.694   3.230  14.316  0.1399  0.4210 -0.3082
  930MPD2    H513613   1.604   3.196  14.285 -0.5441  1.4848  0.5098
  930MPD2    N113614   1.811   3.587  14.621  0.0772 -0.8218  0.8553
  930MPD2    H713615   1.755   3.663  14.657  2.5992  1.4866 -0.0796
  931MPD2     C13616   2.261   2.209   0.535  0.1089  0.3029 -0.8605
  931MPD2    C113617   2.156   2.278   0.591 -0.1601 -0.1850 -0.2083
  931MPD2    C213618   2.104   2.230   0.709 -0.0694 -0.7757 -0.8076
  931MPD2    C313619   2.163   2.120   0.772 -0.3369 -0.5925 -0.2625
  931MPD2    C413620   2.258   2.049   0.706 -0.1658  0.2407  0.4239
  931MPD2    C513621   2.304   2.090   0.585 -0.7755 -0.5512 -0.2087
  931MPD2     H13622   2.029   2.286   0.764  1.1437  1.5044 -1.4877
  931MPD2    H113623   2.304   1.962   0.750  0.1087 -0.5046 -1.3371
  931MPD2    H213624   2.297   2.238   0.437  0.2492 -1.0578 -1.1992
  931MPD2    H313625   2.383   2.037   0.534 -0.4821  0.4960 -0.8384
  931MPD2     N13626   2.126   2.062   0.895  0.6766 -0.0740  0.4256
  931MPD2    H513627   2.186   1.994   0.940  1.2996 -0.0798 -0.4364
  931MPD2    N113628   2.099   2.379   0.517 -0.1141  0.1462  0.2001
  931MPD2    H713629   2.142   2.405   0.428  2.8088 -0.2071  1.5232
  932MPD2     C13630   4.438   1.888  11.186 -0.7746 -0.0038 -0.7393
  932MPD2    C113631   4.430   1.980  11.291  0.0322 -1.0680 -0.8663
  932MPD2    C213632   4.496   1.938  11.404 -0.4527  0.3081 -0.1067
  932MPD2    C313633   4.554   1.811  11.416  0.4827 -0.3888  0.1970
  932MPD2    C413634   4.547   1.722  11.316  0.5424  0.1948 -0.0802
  932MPD2    C513635   4.478   1.756  11.202 -0.5067 -0.6406 -0.2512
  932MPD2     H13636   4.499   2.003  11.490  0.8622 -0.9669  0.8139
  932MPD2    H113637   4.584   1.621  11.331 -0.6208 -0.3909 -1.2024
  932MPD2    H213638   4.387   1.911  11.093  1.3987  2.9781 -1.1993
  932MPD2    H313639   4.489   1.696  11.113  0.2801 -1.1262  0.1773
  932MPD2     N13640   4.616   1.772  11.540  0.1090 -0.4049  0.2450
  932MPD2    H513641   4.611   1.672  11.558 -0.4277 -0.5988 -0.9403
  932MPD2    N113642   4.380   2.113  11.286 -0.1273  0.0974 -0.7292
  932MPD2    H713643   4.392   2.160  11.376 -3.0919  0.7844 -0.6731
  933MPD2     C13644   4.649   2.182   2.016 -0.8361  0.3109 -0.1840
  933MPD2    C113645   0.055   2.226   1.986 -0.3254 -0.3313 -0.2097
  933MPD2    C213646   0.076   2.364   1.966  0.5803 -0.5337  0.1297
  933MPD2    C313647   4.699   2.457   1.985  0.0179  0.5194  0.3237
  933MPD2    C413648   4.576   2.413   2.019  0.1586  0.2930 -0.0175
  933MPD2    C513649   4.550   2.278   2.037 -0.5845  0.2032 -0.0099
  933MPD2     H13650   0.165   2.390   1.909  0.0562  0.9260 -0.0244
  933MPD2    H113651   4.489   2.477   2.029 -0.5868 -0.3067 -2.6911
  933MPD2    H213652   4.610   2.081   2.019  0.3475 -0.1816 -1.3249
  933MPD2    H313653   4.446   2.254   2.059  0.0580 -1.7797  0.8864
  933MPD2     N13654   0.001   2.586   1.939  0.0757 -0.3013 -0.2223
  933MPD2    H513655   0.082   2.598   1.878 -0.1036  0.2495 -0.3573
  933MPD2    N113656   0.150   2.133   1.965  0.1563 -0.2340 -0.4570
  933MPD2    H713657   0.124   2.035   1.971  0.1573 -0.0586  2.0792
  934MPD2     C13658   1.807   4.536   1.561 -0.5456 -0.3240  0.3208
  934MPD2    C113659   1.873   4.422   1.506 -0.1835 -0.2837  0.3629
  934MPD2    C213660   1.793   4.324   1.465 -0.7433  0.0266  0.4447
  934MPD2    C313661   1.656   4.352   1.451 -0.1089 -0.6978  0.2281
  934MPD2    C413662   1.596   4.460   1.502 -0.1846 -0.1249  0.0291
  934MPD2    C513663   1.674   4.561   1.556 -0.0386 -0.0909 -0.2124
  934MPD2     H13664   1.835   4.233   1.423  2.8273  1.9708 -0.1660
  934MPD2    H113665   1.489   4.478   1.509 -0.1817 -0.6650  1.4177
  934MPD2    H213666   1.863   4.626   1.586 -0.2464 -0.4088 -0.0368
  934MPD2    H313667   1.641   4.653   1.601 -0.6755 -0.3909 -0.0642
  934MPD2     N13668   1.564   4.258   1.405 -1.2239  0.1069  0.3274
  934MPD2    H513669   1.471   4.278   1.441 -1.1328  0.8629  0.1249
  934MPD2    N113670   2.015   4.404   1.499  0.2849  0.1298 -0.0800
  934MPD2    H713671   2.049   4.309   1.485 -0.4225 -0.3005  1.0951
  935MPD2     C13672   1.703   3.254   1.308 -0.3140  0.1832 -1.0920
  935MPD2    C113673   1.574   3.272   1.271 -0.0596 -0.2142 -0.5505
  935MPD2    C213674   1.519   3.401   1.269  0.1603 -0.1014 -0.3853
  935MPD2    C313675   1.595   3.512   1.303 -0.2824  0.3005  0.4581
  935MPD2    C413676   1.725   3.490   1.343 -0.1504  0.1164 -0.1162
  935MPD2    C513677   1.777   3.360   1.348 -1.1691 -0.4828 -0.1828
  935MPD2     H13678   1.415   3.415   1.241  0.4569 -1.6094 -2.1846
  935MPD2    H113679   1.789   3.569   1.379  0.6501 -0.4891 -0.2122
  935MPD2    H213680   1.752   3.157   1.305  1.8359  1.1765  1.5547
  935MPD2    H313681   1.875   3.337   1.387 -1.7328 -0.7020  1.1246
  935MPD2     N13682   1.543   3.645   1.308 -0.9225  0.1203 -0.0726
  935MPD2    H513683   1.605   3.704   1.362 -0.9747 -0.1642  0.3019
  935MPD2    N113684   1.489   3.164   1.217 -0.1303 -0.4468 -0.6633
  935MPD2    H713685   1.394   3.182   1.188  0.1694  0.4682 -1.0796
  936MPD2     C13686   4.457   0.812  12.605  0.4338  0.5451  0.4701
  936MPD2    C113687   4.574   0.748  12.645 -0.0136 -0.2855  0.0539
  936MPD2    C213688   4.661   0.823  12.731  0.1375  0.7435 -0.4363
  936MPD2    C313689   4.639   0.953  12.776 -1.1173  0.3339 -0.3363
  936MPD2    C413690   4.524   1.010  12.734  0.4014  0.0110 -0.2754
  936MPD2    C513691   4.435   0.942  12.652 -0.6195  0.0273 -0.5597
  936MPD2     H13692   0.022   0.771  12.772  0.0138  1.0711  0.2383
  936MPD2    H113693   4.504   1.115  12.757 -1.4049 -0.5313  0.6777
  936MPD2    H213694   4.379   0.765  12.545  0.4456  1.4995 -0.3014
  936MPD2    H313695   4.348   0.995  12.617 -0.5907 -0.1761 -0.9364
  936MPD2     N13696   4.719   1.033  12.856  0.0375  0.2061 -0.5024
  936MPD2    H513697   4.701   1.133  12.847 -1.7081  0.0591  1.6014
  936MPD2    N113698   4.610   0.611  12.620 -0.2093  0.2627 -0.0058
  936MPD2    H713699   4.690   0.575  12.671 -1.7498  0.4396  2.5564
  937MPD2     C13700   2.514   1.925  11.525 -0.3492 -0.2033 -0.2799
  937MPD2    C113701   2.549   2.051  11.553 -0.9742  0.6526  0.4172
  937MPD2    C213702   2.654   2.101  11.474  0.1204 -0.8439  0.4321
  937MPD2    C313703   2.730   2.017  11.398  0.1369  0.4571  0.0948
  937MPD2    C413704   2.691   1.885  11.376  0.2064 -1.0233 -0.1623
  937MPD2    C513705   2.589   1.838  11.453  0.8897  0.4538  0.0884
  937MPD2     H13706   2.669   2.208  11.469  0.6528 -0.9654 -0.5920
  937MPD2    H113707   2.750   1.822  11.310  0.0201  1.1744 -2.4157
  937MPD2    H213708   2.425   1.895  11.578 -0.3067  0.0130 -0.0863
  937MPD2    H313709   2.559   1.734  11.448 -0.7906  1.0429 -2.0079
  937MPD2     N13710   2.848   2.076  11.340 -0.2805 -0.0420  0.3269
  937MPD2    H513711   2.878   2.168  11.370  2.0694 -0.4334 -0.8356
  937MPD2    N113712   2.464   2.151  11.609  0.5535  0.1164  0.0526
  937MPD2    H713713   2.490   2.250  11.607 -0.2708  0.3264 -0.0190
  938MPD2     C13714   0.257   3.569   1.072  0.1061 -0.7240 -0.8018
  938MPD2    C113715   0.364   3.614   1.143 -0.4987 -0.0820 -0.5286
  938MPD2    C213716   0.424   3.532   1.234 -0.3098 -0.2667 -0.1789
  938MPD2    C313717   0.377   3.407   1.260  0.2055  0.0530 -0.8268
  938MPD2    C413718   0.267   3.363   1.191  0.3124  0.1109  0.0081
  938MPD2    C513719   0.208   3.445   1.103  0.8480  0.3364  0.0255
  938MPD2     H13720   0.513   3.573   1.281 -0.7800  0.9327 -0.3434
  938MPD2    H113721   0.209   3.273   1.208 -1.1138  0.8238 -1.0024
  938MPD2    H213722   0.221   3.631   0.991 -0.7150  0.3553  0.3894
  938MPD2    H313723   0.117   3.413   1.052  2.1711 -1.5025 -1.2100
  938MPD2     N13724   0.422   3.320   1.372 -0.5500 -0.5593 -0.0113
  938MPD2    H513725   0.380   3.228   1.380 -1.0191  0.1230  4.8322
  938MPD2    N113726   0.412   3.732   1.109  0.4451  0.3080 -0.0087
  938MPD2    H713727   0.353   3.780   1.042  2.3075  2.3012 -0.2345
  939MPD2     C13728   1.796   0.454   0.860  1.0073 -0.1214  1.4725
  939MPD2    C113729   1.730   0.370   0.949 -0.1613 -0.0489  0.2327
  939MPD2    C213730   1.726   0.235   0.913 -0.6522 -0.3369 -0.8803
  939MPD2    C313731   1.787   0.181   0.799  0.1656 -0.7615 -0.2280
  939MPD2    C413732   1.840   0.274   0.711 -0.2056  0.1443 -0.1758
  939MPD2    C513733   1.843   0.406   0.740  0.2784  0.4481  0.1346
  939MPD2     H13734   1.692   0.160   0.984  2.1094  0.2338  1.0069
  939MPD2    H113735   1.888   0.241   0.620  2.1131  0.2515  0.9959
  939MPD2    H213736   1.797   0.562   0.872  1.0492  0.1267 -0.8542
  939MPD2    H313737   1.884   0.471   0.664 -2.2008  2.1126  0.2132
  939MPD2     N13738   1.777   0.041   0.775  0.4475 -0.6550 -0.5262
  939MPD2    H513739   1.729   4.718   0.851 -0.1116  0.5362 -0.1474
  939MPD2    N113740   1.693   0.416   1.076  0.2342 -0.0392 -0.1033
  939MPD2    H713741   1.652   0.339   1.128  1.5303  0.7937  2.1630
  940MPD2     C13742   0.792   0.713  13.232  0.5736 -0.1717 -0.2700
  940MPD2    C113743   0.696   0.611  13.203 -0.2925  0.2525  0.2556
  940MPD2    C213744   0.742   0.493  13.149 -0.2911 -0.1225 -0.1456
  940MPD2    C313745   0.870   0.484  13.100  0.4300  0.3620 -0.1500
  940MPD2    C413746   0.961   0.585  13.124 -0.1643  0.4176 -0.1936
  940MPD2    C513747   0.922   0.699  13.183 -0.1915 -0.2654  0.2391
  940MPD2     H13748   0.668   0.420  13.117 -0.7975  0.2025  0.2930
  940MPD2    H113749   1.062   0.582  13.085 -0.2793  1.3140 -0.5599
  940MPD2    H213750   0.763   0.805  13.281 -1.4875 -0.7077 -0.4571
  940MPD2    H313751   0.993   0.777  13.207  0.1761  0.5032 -3.3250
  940MPD2     N13752   0.918   0.365  13.029  0.6552  0.5633  0.2611
  940MPD2    H513753   1.013   0.367  12.995  0.5042 -1.0903 -0.2808
  940MPD2    N113754   0.564   0.606  13.252 -0.9386  0.0645 -0.0683
  940MPD2    H713755   0.520   0.515  13.248  0.1501 -0.4435 -0.1514
  941MPD2     C13756   3.971   4.124   9.260 -0.0760  0.4090  0.1838
  941MPD2    C113757   4.054   4.084   9.362  0.3412  0.4699 -0.1778
  941MPD2    C213758   4.014   3.974   9.441  0.4835 -0.3730 -0.0391
  941MPD2    C313759   3.907   3.892   9.406 -0.2684 -0.2953  0.4651
  941MPD2    C413760   3.828   3.929   9.304  0.1121  0.4841  0.3205
  941MPD2    C513761   3.863   4.045   9.234 -0.5733  0.6254  0.7815
  941MPD2     H13762   4.072   3.957   9.531  0.8893  0.6050 -0.1150
  941MPD2    H113763   3.754   3.856   9.272  1.6718 -0.0061 -2.2798
  941MPD2    H213764   3.987   4.216   9.206  1.4051  1.3449  2.1885
  941MPD2    H313765   3.809   4.069   9.143  0.6247 -0.3152 -0.1679
  941MPD2     N13766   3.877   3.764   9.464 -0.6859  0.3038 -0.3237
  941MPD2    H513767   3.788   3.728   9.432 -1.3116  0.5039  1.2075
  941MPD2    N113768   4.171   4.153   9.398 -0.5667  0.0310 -0.4875
  941MPD2    H713769   4.217   4.122   9.482  0.0914  0.0142 -0.8567
  942MPD2     C13770   4.225   1.122  10.232 -0.0422  0.1194  0.0594
  942MPD2    C113771   4.201   1.245  10.188 -0.3044  0.0865 -0.5631
  942MPD2    C213772   4.237   1.283  10.060  0.1054  0.2634  0.0480
  942MPD2    C313773   4.310   1.201   9.980 -0.3710  0.3348 -0.1555
  942MPD2    C413774   4.332   1.068  10.025 -0.5922 -0.2536 -0.5328
  942MPD2    C513775   4.286   1.035  10.148  0.1120  0.0169 -0.6456
  942MPD2     H13776   4.217   1.386  10.030  0.2766  0.7315  1.5221
  942MPD2    H113777   4.389   0.992   9.973 -1.0987  0.1239 -1.6232
  942MPD2    H213778   4.191   1.079  10.325  0.9761 -1.8682 -0.4870
  942MPD2    H313779   4.294   0.929  10.171 -2.0851 -0.0632 -0.2178
  942MPD2     N13780   4.363   1.237   9.851 -0.0112  0.1348 -0.1867
  942MPD2    H513781   4.429   1.168   9.816  0.8288  1.4604 -1.2396
  942MPD2    N113782   4.137   1.345  10.268  0.1371 -0.3111 -0.2330
  942MPD2    H713783   4.125   1.433  10.217 -1.1754 -1.5465 -2.0854
  943MPD2     C13784   3.118   4.135   9.975  0.0576  0.0258  0.0587
  943MPD2    C113785   3.182   4.243  10.017  0.2979 -0.5251 -0.1318
  943MPD2    C213786   3.222   4.334   9.928  0.2953 -0.4387  0.2401
  943MPD2    C313787   3.197   4.310   9.798 -0.2953 -0.5598  0.0453
  943MPD2    C413788   3.143   4.190   9.756  0.3665  0.3387  0.2409
  943MPD2    C513789   3.099   4.099   9.843  0.2730  0.0376 -0.2807
  943MPD2     H13790   3.275   4.422   9.963 -1.0069  0.8105 -0.9437
  943MPD2    H113791   3.127   4.166   9.651 -1.0525 -1.9014  0.9572
  943MPD2    H213792   3.087   4.061  10.049  3.0364 -3.2102 -1.9367
  943MPD2    H313793   3.069   4.000   9.812 -0.6070 -0.3671  1.8378
  943MPD2     N13794   3.225   4.408   9.699 -0.1338 -0.3216 -0.2150
  943MPD2    H513795   3.193   4.388   9.605  0.3392  1.5361 -0.7561
  943MPD2    N113796   3.187   4.258  10.161  0.3459 -0.3468 -0.2404
  943MPD2    H713797   3.147   4.182  10.215 -1.1400  0.5235 -0.1205
  944MPD2     C13798   3.042   2.906  11.274  0.0994 -0.9150 -0.5121
  944MPD2    C113799   3.008   3.005  11.178 -0.0820 -0.2365 -0.7649
  944MPD2    C213800   2.956   3.129  11.233 -0.5713  0.3619  0.0288
  944MPD2    C313801   2.947   3.150  11.370 -0.4168 -0.2743 -0.3885
  944MPD2    C413802   2.976   3.053  11.459 -1.0247 -0.1034 -0.1484
  944MPD2    C513803   3.020   2.936  11.409 -1.4330  0.3577 -0.1271
  944MPD2     H13804   2.898   3.197  11.171  0.1235 -0.7062 -1.7934
  944MPD2    H113805   2.955   3.058  11.565  0.7268 -1.2665  0.2521
  944MPD2    H213806   3.096   2.819  11.239  0.9296  0.1503 -1.8785
  944MPD2    H313807   3.054   2.859  11.477  0.7874  0.4487 -1.1183
  944MPD2     N13808   2.883   3.271  11.406  0.0387 -0.2236 -0.3386
  944MPD2    H513809   2.832   3.317  11.332  0.1295  0.0410 -0.2359
  944MPD2    N113810   3.017   2.977  11.039  0.2220 -0.4180 -0.0205
  944MPD2    H713811   3.046   2.884  11.012 -3.0152 -0.7352 -2.3197
    1TCq1    O113812   0.937   3.450  14.241 -0.3036  0.2416  0.2664
    1TCq1    C113813   0.959   3.528  14.349 -0.1697 -0.3760  0.1461
    1TCq1    O213814   0.954   3.500  14.467  0.1927 -0.6629  0.4448
    1TCq1    C213815   0.943   3.672  14.306 -0.2183  0.4905 -0.8134
    1TCq1    C313816   0.869   3.718  14.204 -0.2255 -0.1986  0.2177
    1TCq1    C413817   0.832   3.852  14.203 -0.5603 -0.4088  0.8489
    1TCq1    C513818   0.844   3.928  14.315 -0.0829 -0.3694  0.8731
    1TCq1    C613819   0.918   3.878  14.419 -0.0546  0.7618  0.1704
    1TCq1    C713820   0.963   3.746  14.417 -0.2768  0.2708  0.2228
    1TCq1    C813821   0.950   3.949  14.536 -0.2994  0.2947 -0.1884
    1TCq1    O413822   1.029   3.902  14.614 -0.0731 -0.0166 -0.4094
    1TCq1    C913823   0.768   3.907  14.084 -0.2168  0.0141  0.0106
    1TCq1    O513824   0.746   3.826  13.995 -0.5087  0.1681 -0.0443
    1TCq1    O613825   0.782   4.030  14.063  0.3821 -0.4485  0.0048
    1TCq1    H113826   0.961   3.499  14.159 -2.5549  2.0207  0.6718
    1TCq1    H213827   0.853   3.662  14.112  0.3873 -0.6154  0.3668
    1TCq1    H313828   0.813   4.031  14.302  0.6137 -0.4048 -1.1245
    1TCq1    H413829   1.016   3.711  14.505  1.8858 -0.9566 -1.5618
    2MPD2     C13830   0.870   4.326  14.856  0.6949 -0.3937 -0.2488
    2MPD2    C113831   0.819   4.370  14.737  0.3426 -0.0512 -0.3035
    2MPD2    C213832   0.810   4.279  14.624  0.4561  0.3846  0.7131
    2MPD2    C313833   0.872   4.156  14.643  0.0963 -0.6532  0.3152
    2MPD2    C413834   0.929   4.122  14.767 -0.5891  0.0136  0.1567
    2MPD2    C513835   0.920   4.202  14.873  0.0025  0.4157 -0.2019
    2MPD2     H13836   0.765   4.309  14.530 -0.6161 -1.1291  0.7512
    2MPD2    H113837   0.989   4.032  14.781 -0.2875  0.5752  2.5317
    2MPD2    H213838   0.877   4.396  14.938 -0.5030  1.5232 -1.7838
    2MPD2    H313839   0.973   4.176  14.964 -0.0152 -0.8530 -0.5600
    2MPD2     N13840   0.877   4.065  14.534 -0.3356 -0.1505  0.0071
    2MPD2    H513841   0.839   4.092  14.444  0.5189 -0.6802 -0.5108
    2MPD2    N113842   0.756   4.497  14.733 -0.2185 -0.0921 -0.8325
    2MPD2    H713843   0.785   4.563  14.804 -0.2378 -0.6728 -0.2783
    3TMC2    C113844   0.601   4.665  14.665 -0.2546 -0.1663 -0.3795
    3TMC2    C213845   0.595   0.000  14.792  0.0678 -0.0886  0.2227
    3TMC2    C313846   0.553   0.129  14.788 -0.3311  0.5844  0.3374
    3TMC2    C413847   0.567   4.718  14.545 -0.3882 -0.7235 -0.1752
    3TMC2    C513848   0.537   0.123  14.555 -0.3133  0.1393  0.8119
    3TMC2    C613849   0.518   0.184  14.671 -0.4993  0.5450  0.0628
    3TMC2     C13850   0.654   4.534  14.647  0.3318 -0.2906 -0.6987
    3TMC2     O13851   0.600   4.464  14.564  0.5419 -0.7251 -0.3533
    3TMC2     H13852   0.623   4.677  14.885 -1.7534  2.3871  2.0268
    3TMC2    H113853   0.574   4.664  14.451  3.4704 -0.6838  0.0743
    3TMC2    H213854   0.492   0.289  14.677  1.5036  1.0353 -0.0868
    3TMC2    C713855   0.530   0.195  14.430  0.4321 -0.0745 -0.4713
    3TMC2    C813856   0.607   0.220  14.883 -0.8828 -0.8385 -0.8983
    3TMC2    O113857   0.607   0.147  14.349 -0.0212  0.0927 -0.3654
    3TMC2    O213858   0.577   0.338  14.889  0.7163  0.3236 -0.6785
    3TMC2    O513859   0.680   0.166  14.980  0.3057 -0.2041 -1.3181
    3TMC2    H513860   0.698   0.073  14.952  2.8297  0.2932 -1.2806
    4MPD2     C13861   4.440   1.017  13.531  0.0903 -0.8348 -0.3868
    4MPD2    C113862   4.554   1.091  13.541  1.2240  0.5196 -0.1552
    4MPD2    C213863   4.631   1.082  13.658 -0.2972  0.2694  0.8601
    4MPD2    C313864   4.583   1.002  13.760  0.5599 -0.6745 -0.0362
    4MPD2    C413865   4.474   0.920  13.743 -0.8699 -0.4221 -0.9225
    4MPD2    C513866   4.402   0.931  13.629 -0.7141 -0.1044 -0.0119
    4MPD2     H13867   4.719   1.144  13.667  1.1091 -0.9871 -4.4048
    4MPD2    H113868   4.433   0.844  13.809 -0.1463 -0.3100 -0.3501
    4MPD2    H213869   4.380   1.046  13.446  0.9410 -0.8732 -1.0002
    4MPD2    H313870   4.308   0.877  13.623 -0.4321 -0.5505 -0.3283
    4MPD2     N13871   4.660   0.999  13.878  0.0231 -0.3063 -0.1795
    4MPD2    H513872   0.013   1.066  13.876 -1.8454  1.8420  0.0233
    4MPD2    N113873   4.575   1.183  13.431  0.2240 -0.2061  0.0032
    4MPD2    H713874   4.492   1.187  13.374 -0.1036  0.0616  0.4990
    5TCq2    C113875   4.660   0.898  13.968 -0.3412  0.1567  0.5082
    5TCq2    O213876   4.588   0.798  13.973 -0.2332  0.1283 -0.2561
    5TCq2    C213877   4.721   0.930  14.093 -0.1201 -0.3237 -0.5244
    5TCq2    C313878   0.011   1.058  14.135 -0.0178 -0.8363 -0.0583
    5TCq2    C413879   0.055   1.074  14.265  0.3300  0.8767 -0.8032
    5TCq2    C513880   0.089   0.964  14.347 -0.2559  0.4329 -0.5320
    5TCq2    C613881   0.077   0.838  14.298  0.2513  0.2976  0.0969
    5TCq2    C713882   0.036   0.826  14.167  0.3407  0.2609  0.0877
    5TCq2    C813883   0.170   0.745  14.349 -0.2985  0.1388 -0.0245
    5TCq2    O413884   0.212   0.751  14.465  0.1585  0.0607 -0.0031
    5TCq2    C913885   0.059   1.201  14.323  0.5046 -0.0482 -0.3148
    5TCq2    O513886   0.053   1.300  14.250 -0.5125  0.1403 -0.5446
    5TCq2    O613887   0.053   1.197  14.453  0.4677  0.2407 -0.4162
    5TCq2    H213888   4.714   1.144  14.073  2.1560 -0.3131 -0.0906
    5TCq2    H313889   0.130   0.964  14.447  2.0130  0.8702 -1.4770
    5TCq2    H413890   0.011   0.725  14.135  1.9520 -0.0533 -0.1945
    6MPD1     C13891   4.511   2.406  13.648 -0.5253 -0.1664  0.1886
    6MPD1    C113892   4.386   2.350  13.644 -0.6319  0.4522 -0.7133
    6MPD1    C213893   4.349   2.303  13.514 -0.5144  0.1559 -0.3857
    6MPD1    C313894   4.424   2.328  13.400 -0.0460 -0.0076 -0.5870
    6MPD1    C413895   4.552   2.377  13.414 -0.2957 -0.1135  0.3080
    6MPD1    C513896   4.591   2.410  13.539 -0.0245  0.2040  0.5723
    6MPD1     H13897   4.244   2.276  13.510 -0.3912 -0.5440  1.3571
    6MPD1    H113898   4.625   2.389  13.335 -1.4192 -1.9925 -1.0254
    6MPD1    H213899   4.550   2.452  13.738  1.2268 -3.0148  0.8950
    6MPD1    H313900   4.689   2.456  13.544 -0.2110  0.6236  0.4545
    6MPD1     N13901   4.387   2.300  13.267 -0.6529 -0.3391  0.2050
    6MPD1    H513902   4.460   2.311  13.198  1.9397 -1.6814  2.7213
    6MPD1    N113903   4.302   2.334  13.753 -0.3446 -0.1937 -0.1530
    6MPD1    H613904   4.277   2.236  13.768  1.2111 -0.6559 -0.5776
    6MPD1    H713905   4.341   2.356  13.845 -2.1750  3.4451 -0.2482
    7MPD2     C13906   3.959   1.733  13.122 -0.7457  0.6537  0.2917
    7MPD2    C113907   4.077   1.760  13.059 -0.3798  0.0623 -0.8083
    7MPD2    C213908   4.187   1.669  13.070 -0.4368  0.6378 -0.0410
    7MPD2    C313909   4.171   1.541  13.127 -0.3006 -0.2237 -0.3401
    7MPD2    C413910   4.053   1.522  13.190 -0.0289 -0.0483 -0.1735
    7MPD2    C513911   3.945   1.606  13.186 -0.6100 -0.1916  0.1613
    7MPD2     H13912   4.282   1.692  13.024 -0.8922 -0.1586 -1.3866
    7MPD2    H113913   4.031   1.425  13.233 -0.6293  0.1301 -0.0759
    7MPD2    H213914   3.870   1.793  13.107 -1.4263 -0.0668  1.4219
    7MPD2    H313915   3.854   1.571  13.233 -0.3166 -2.0437 -0.6528
    7MPD2     N13916   4.282   1.451  13.143 -0.1993 -0.8975 -1.0873
    7MPD2    H513917   4.278   1.378  13.213  1.4848  1.5867  1.5520
    7MPD2    N113918   4.097   1.880  12.983 -0.2166 -0.0925  0.2200
    7MPD2    H713919   4.195   1.890  12.956 -0.3185 -2.2378 -0.9411
    8TMC3    C113920   4.517   1.378  13.111  0.3642 -0.2252 -0.0884
    8TMC3    C213921   4.528   1.351  13.243  0.0427 -1.0105  0.5086
    8TMC3    C313922   4.650   1.372  13.302  0.3761 -1.0566 -0.3973
    8TMC3    C413923   4.630   1.391  13.029  0.4789  0.1643 -0.4140
    8TMC3    C513924   0.020   1.438  13.090  0.2589 -0.6605 -0.0448
    8TMC3    C613925   0.034   1.408  13.224  0.5071 -0.4525  0.2366
    8TMC3     C13926   4.403   1.460  13.071 -0.0202  0.5982 -0.4200
    8TMC3     O13927   4.422   1.532  12.979 -0.6933  0.1815  0.2155
    8TMC3     H13928   4.435   1.352  13.298 -0.2602 -1.1953  0.0015
    8TMC3    H113929   4.614   1.406  12.923 -0.5022 -1.0098 -0.4284
    8TMC3    H213930   0.136   1.408  13.261  0.6122 -1.4657 -0.0399
    8TMC3    C713931   0.034   1.579  13.072  0.3569 -0.1619  0.1752
    8TMC3    C813932   4.675   1.277  13.411  0.8252  0.1252 -0.1468
    8TMC3    O113933   4.710   1.651  13.160  0.2081  0.1709 -0.1868
    8TMC3    O213934   0.063   1.277  13.465  0.2180 -0.7159 -0.3699
    9TMC3    C113935   4.243   2.202  13.102 -0.5537 -0.0069  0.0770
    9TMC3    C213936   4.350   2.187  13.017 -0.1977 -0.5701  0.5603
    9TMC3    C313937   4.313   2.137  12.893 -0.1664  0.4424 -0.6415
    9TMC3    C413938   4.113   2.167  13.071 -0.0545 -0.4564  0.0466
    9TMC3    C513939   4.083   2.109  12.952 -0.4574 -0.1531 -0.0842
    9TMC3    C613940   4.185   2.103  12.857  0.5537  0.3041  0.6387
    9TMC3     C13941   4.272   2.225  13.241 -0.4853 -0.7328  0.0625
    9TMC3     O13942   4.203   2.167  13.317 -0.2600  0.2698 -0.6627
    9TMC3     H13943   4.452   2.195  13.053 -0.6588 -0.8943  1.9440
    9TMC3    H113944   4.040   2.149  13.149  0.3042  0.4402  0.5849
    9TMC3    H213945   4.159   2.065  12.758 -0.7248 -3.2875  2.3342
    9TMC3    C713946   4.011   1.984  12.979 -0.2135 -0.2870  1.2151
    9TMC3    C813947   4.413   2.072  12.817 -0.2146 -0.1688 -0.4357
    9TMC3    O113948   3.900   1.992  13.025  0.1352 -0.7501  0.2808
    9TMC3    O213949   4.391   2.069  12.698 -0.4916  0.8498 -0.5495
   10MPD2     C13950   0.042   1.713  12.738  0.0999 -0.6437 -0.5331
   10MPD2    C113951   0.014   1.716  12.872 -0.4441  0.1934 -0.4658
   10MPD2    C213952   4.645   1.807  12.912  0.3407  0.1590  0.0786
   10MPD2    C313953   4.586   1.901  12.829  0.0723 -0.4105 -0.0488
   10MPD2    C413954   4.620   1.898  12.695 -0.1143 -0.3553  0.2480
   10MPD2    C513955   4.703   1.801  12.654  1.0527 -0.5601 -0.4865
   10MPD2     H13956   4.613   1.811  13.016 -1.2766 -2.6865 -0.2946
   10MPD2    H113957   4.590   1.975  12.625 -2.4241 -1.6520 -0.1896
   10MPD2    H213958   0.121   1.647  12.705  0.3357  0.1914 -1.6275
   10MPD2    H313959   0.011   1.804  12.551  1.3514 -0.7767 -0.3978
   10MPD2     N13960   4.492   1.988  12.890  0.1851 -0.2714  0.0669
   10MPD2    H513961   4.466   1.964  12.986  0.4538  0.1538  0.2431
   10MPD2    N113962   0.067   1.607  12.946 -0.3385  0.1260 -0.1519
   10MPD2    H713963   0.122   1.537  12.897  0.2556 -1.7884  3.2934
   11MPD2     C13964   0.492   0.365  14.192 -0.3535  0.0004  0.9520
   11MPD2    C113965   0.450   0.400  14.322  0.4022  0.1858  0.3957
   11MPD2    C213966   0.364   0.516  14.338 -0.1667 -0.2307 -0.3329
   11MPD2    C313967   0.327   0.596  14.228  0.1857 -0.3648  0.9188
   11MPD2    C413968   0.377   0.559  14.105 -0.1568 -0.0206  0.4957
   11MPD2    C513969   0.469   0.453  14.088  0.2843 -0.0679 -0.2853
   11MPD2     H13970   0.328   0.534  14.439  3.9934 -2.2624  1.5454
   11MPD2    H113971   0.352   0.619  14.019 -1.4451 -0.9844  0.2054
   11MPD2    H213972   0.554   0.281  14.163 -3.6441 -2.2978  0.4463
   11MPD2    H313973   0.509   0.440  13.988  2.2936  2.5356  0.2041
   11MPD2     N13974   0.243   0.708  14.238 -0.0809  0.0166  0.1296
   11MPD2    H513975   0.211   0.757  14.156  0.2550  0.1675  0.0905
   11MPD2    N113976   0.464   0.313  14.427 -0.4062  0.2095  0.6737
   11MPD2    H713977   0.405   0.328  14.508 -0.9097  1.1856  0.1351
    1MPD1     C13978   2.935   2.586  17.168  1.0389  0.3809  0.0115
    1MPD1    C113979   2.918   2.538  17.042 -0.8172 -0.3622 -0.3778
    1MPD1    C213980   3.034   2.517  16.964  0.4444 -0.4319  0.0810
    1MPD1    C313981   3.158   2.503  17.021 -0.3972  0.1655 -0.6344
    1MPD1    C413982   3.176   2.551  17.146  0.2829 -0.1717  0.2453
    1MPD1    C513983   3.065   2.600  17.210  0.1578 -0.0680 -0.2924
    1MPD1     H13984   3.018   2.511  16.857 -0.3430 -1.4562  0.2652
    1MPD1    H113985   3.276   2.559  17.187  0.1064 -0.8554  0.8105
    1MPD1    H213986   2.854   2.640  17.217 -1.1982 -0.5916 -2.5893
    1MPD1    H313987   3.084   2.646  17.307 -1.8223 -0.0859  0.1128
    1MPD1     N13988   3.282   2.483  16.957  0.3653 -1.1729  0.1381
    1MPD1    H513989   3.364   2.496  17.014  0.0142  1.0191  0.1425
    1MPD1    N113990   2.788   2.543  16.982 -0.2824 -0.4610 -0.2883
    1MPD1    H613991   2.787   2.479  16.902 -1.6198  0.8024 -1.2759
    1MPD1    H713992   2.726   2.500  17.050  0.8935  1.4442  1.9728
    2MPD1     C13993   4.272   2.270  16.955  0.3844  0.2074  0.0920
    2MPD1    C113994   4.222   2.214  16.837  0.0307  0.4160 -0.1307
    2MPD1    C213995   4.092   2.240  16.797 -0.0184  0.4076  0.9617
    2MPD1    C313996   4.006   2.319  16.872 -0.7692  0.2880 -0.0826
    2MPD1    C413997   4.054   2.354  17.001  0.0255 -0.6622  0.9603
    2MPD1    C513998   4.187   2.334  17.041 -0.2276  0.2418 -0.0849
    2MPD1     H13999   4.069   2.195  16.701  1.3105  0.2375  0.7138
    2MPD1    H114000   3.990   2.401  17.074 -0.7270 -2.8395  1.7053
    2MPD1    H214001   4.376   2.256  16.982 -0.4548 -4.4896  0.9021
    2MPD1    H314002   4.220   2.369  17.138 -3.1820  0.2107  0.9529
    2MPD1     N14003   3.877   2.357  16.825  0.7164  0.4953 -0.7992
    2MPD1    H514004   3.848   2.338  16.729  1.5996 -2.4501 -0.4740
    2MPD1    N114005   4.303   2.127  16.767  0.0222 -0.1234  0.3591
    2MPD1    H614006   4.398   2.163  16.780 -0.8118  2.1039  0.2953
    2MPD1    H714007   4.275   2.136  16.670 -1.2414  0.7746  0.8159
    3TMC3    C114008   3.663   2.453  16.800  0.2117  0.1658 -0.6445
    3TMC3    C214009   3.687   2.484  16.668 -0.8026  0.4380  0.2142
    3TMC3    C314010   3.570   2.505  16.593 -0.0770  0.7437 -0.9887
    3TMC3    C414011   3.539   2.426  16.848  0.0033 -0.1556 -0.5204
    3TMC3    C514012   3.430   2.462  16.771 -1.0793  0.3132  0.5928
    3TMC3    C614013   3.442   2.480  16.638 -0.1894 -0.8350 -0.0740
    3TMC3     C14014   3.774   2.421  16.893 -0.2784 -0.7725 -0.7493
    3TMC3     O14015   3.764   2.443  17.012 -0.0193  0.2392 -0.1992
    3TMC3     H14016   3.778   2.525  16.626 -0.5066 -1.1133 -0.6819
    3TMC3    H114017   3.530   2.377  16.944 -1.2678  0.9718 -0.0544
    3TMC3    H214018   3.358   2.525  16.586  0.0792 -2.5887 -2.0152
    3TMC3    C714019   3.292   2.452  16.821 -0.1895 -0.2782 -0.1224
    3TMC3    C814020   3.576   2.610  16.495 -1.1816  0.3623  0.8487
    3TMC3    O114021   3.205   2.422  16.738 -0.5279  0.5545  0.2373
    3TMC3    O214022   3.492   2.696  16.509  0.3797 -0.8369 -0.6778
    4MPD1     C14023   3.709   2.777  16.030  0.0155  0.1101  0.1566
    4MPD1    C114024   3.798   2.679  16.073  0.1064 -0.0379  0.6588
    4MPD1    C214025   3.778   2.614  16.191  0.1655 -0.3098 -0.4253
    4MPD1    C314026   3.688   2.662  16.284 -0.2710  0.5212  0.1111
    4MPD1    C414027   3.602   2.756  16.239 -0.1888  0.5792 -0.4930
    4MPD1    C514028   3.614   2.819  16.118 -0.1075 -0.3497 -0.4691
    4MPD1     H14029   3.839   2.536  16.235  1.3612  0.5758 -0.5499
    4MPD1    H114030   3.542   2.819  16.304  1.9493  1.8725  0.2219
    4MPD1    H214031   3.698   2.825  15.933  1.0721 -0.8014 -0.4063
    4MPD1    H314032   3.540   2.889  16.081 -0.8540  0.1608  1.9804
    4MPD1     N14033   3.671   2.587  16.398 -0.1560  0.0073  0.3489
    4MPD1    H514034   3.727   2.504  16.413 -0.1423 -0.1692 -0.6350
    4MPD1    N114035   3.891   2.627  15.982  0.3479  0.4921 -0.3015
    4MPD1    H614036   3.923   2.688  15.906  0.3341  0.5897 -0.2288
    4MPD1    H714037   3.977   2.588  16.020 -0.7340 -2.2965 -0.7141
    1TCq1    O114038   0.544   0.651  12.300  0.0611 -0.0185 -0.1625
    1TCq1    C114039   0.558   0.775  12.348 -0.6723 -0.5756  0.2026
    1TCq1    O214040   0.606   0.811  12.455 -0.1681 -0.6033  0.6018
    1TCq1    C214041   0.534   0.867  12.238  0.0615  0.4176 -0.9954
    1TCq1    C314042   0.422   0.855  12.156 -0.0288  0.5386  0.3333
    1TCq1    C414043   0.369   0.968  12.097  0.7618 -0.7582 -0.1799
    1TCq1    C514044   0.413   1.095  12.132  0.0828  0.7371  0.1111
    1TCq1    C614045   0.527   1.105  12.208  0.3433 -0.1837  0.2057
    1TCq1    C714046   0.587   0.988  12.258  0.1046  0.2485  0.3449
    1TCq1    C814047   0.593   1.236  12.233 -0.1058  0.0431  0.5020
    1TCq1    O414048   0.659   1.233  12.335 -0.3146 -0.6212 -0.1386
    1TCq1    C914049   0.237   0.963  12.036  0.7191  0.0422 -0.4694
    1TCq1    O514050   0.176   1.071  12.019  0.4481 -0.2100 -0.1972
    1TCq1    O614051   0.179   0.852  12.032  0.3935 -0.1928  1.2080
    1TCq1    H114052   0.527   0.653  12.204 -0.9326  0.1215  0.0133
    1TCq1    H214053   0.360   0.766  12.155  1.9986 -0.8930  1.6751
    1TCq1    H314054   0.349   1.181  12.116  0.4950  1.3271  1.7044
    1TCq1    H414055   0.669   0.981  12.329  0.2546 -0.2996  0.1162
    2MPD1     C14056   0.740   1.707  12.092 -0.1407 -0.8143 -0.3743
    2MPD1    C114057   0.642   1.667  12.002  0.9563  0.5364  0.3717
    2MPD1    C214058   0.597   1.540  12.012 -1.2651 -0.6061 -0.4154
    2MPD1    C314059   0.641   1.454  12.119 -0.3118  0.4314  0.4186
    2MPD1    C414060   0.728   1.503  12.214 -0.1069 -0.4412 -0.2957
    2MPD1    C514061   0.780   1.623  12.186 -0.2326  0.2944  0.1622
    2MPD1     H14062   0.519   1.499  11.948 -0.9677  0.0970 -1.2197
    2MPD1    H114063   0.766   1.455  12.304 -1.9843 -2.7543 -0.7480
    2MPD1    H214064   0.795   1.799  12.078  1.2930 -1.7687 -1.0701
    2MPD1    H314065   0.866   1.644  12.248 -0.6737 -2.6829  1.7841
    2MPD1     N14066   0.580   1.323  12.126 -0.5227  0.1039  0.3382
    2MPD1    H514067   0.515   1.305  12.050  0.1024  0.7589 -0.3476
    2MPD1    N114068   0.598   1.757  11.900 -0.2218  0.4869  0.4724
    2MPD1    H614069   0.672   1.822  11.873 -0.6405  0.8505  0.2062
    2MPD1    H714070   0.559   1.719  11.814  0.2377 -0.3080  0.6140
    1TCq1    O114071   2.941   1.016   9.227 -0.1504 -0.4866 -0.1709
    1TCq1    C114072   2.823   1.084   9.218 -0.0513 -0.7225  0.2389
    1TCq1    O214073   2.821   1.209   9.215 -0.4216 -0.4365 -0.8219
    1TCq1    C214074   2.730   0.996   9.143  0.2221 -0.3250  0.7117
    1TCq1    C314075   2.674   1.040   9.026  0.1166 -0.3640 -0.4250
    1TCq1    C414076   2.597   0.958   8.952  1.1387  0.4884 -0.1080
    1TCq1    C514077   2.596   0.822   8.983 -0.8063 -0.4609 -0.0573
    1TCq1    C614078   2.655   0.779   9.100  0.2273  1.0466 -0.3408
    1TCq1    C714079   2.718   0.868   9.182  0.0387  0.1863  0.2608
    1TCq1    C814080   2.625   0.653   9.163 -0.0921 -0.3672 -0.2677
    1TCq1    O414081   2.718   0.602   9.226  0.5210  0.1557 -0.3159
    1TCq1    C914082   2.544   1.006   8.827 -0.2403  0.3584  0.2926
    1TCq1    O514083   2.493   0.925   8.753 -0.3135 -0.0985  0.0892
    1TCq1    O614084   2.551   1.127   8.796  0.0682 -0.2817  0.4103
    1TCq1    H114085   2.918   0.924   9.204 -0.5449 -0.7614  1.3449
    1TCq1    H214086   2.696   1.140   8.991  1.2515 -1.0075 -1.5451
    1TCq1    H314087   2.530   0.762   8.921  0.8700 -1.7796 -0.5571
    1TCq1    H414088   2.739   0.832   9.282 -2.9371  2.1052  1.5786
    2MPD1     C14089   2.384   0.195   9.176 -0.0407  0.1161  0.1212
    2MPD1    C114090   2.318   0.280   9.092  0.2402  0.3858 -0.1871
    2MPD1    C214091   2.371   0.407   9.075 -0.7292 -0.8466 -0.2674
    2MPD1    C314092   2.484   0.459   9.135 -0.3988 -0.0896 -0.3452
    2MPD1    C414093   2.548   0.373   9.222  0.7036  0.4490  0.5036
    2MPD1    C514094   2.504   0.243   9.231  0.0601  0.1231 -0.7181
    2MPD1     H14095   2.311   0.470   9.010  2.1389  1.9008 -0.2277
    2MPD1    H114096   2.632   0.405   9.283 -1.6878  3.6507  2.1253
    2MPD1    H214097   2.346   0.094   9.190  0.5878 -0.1736 -0.2764
    2MPD1    H314098   2.566   0.182   9.296  1.2803  0.2179 -1.8087
    2MPD1     N14099   2.519   0.589   9.108 -0.2339  0.0965  0.6193
    2MPD1    H514100   2.461   0.642   9.044 -2.1671  0.3514  2.6016
    2MPD1    N114101   2.198   0.232   9.038  0.6163  0.1358  0.4981
    2MPD1    H614102   2.132   0.292   8.991  2.6165  3.2316  1.6447
    2MPD1    H714103   2.155   0.151   9.083  2.0712 -1.5496 -1.1122
    1MPD1     C14104   1.528   2.247  11.852  0.6542  0.8887 -0.0383
    1MPD1    C114105   1.457   2.353  11.784 -0.4052 -0.5491  0.0050
    1MPD1    C214106   1.529   2.405  11.683  0.3176 -0.1655  0.6330
    1MPD1    C314107   1.662   2.385  11.660 -0.1672 -0.5952 -0.5506
    1MPD1    C414108   1.723   2.283  11.724 -0.1741  0.2108  0.0029
    1MPD1    C514109   1.659   2.211  11.824 -0.0018  0.2064  0.1029
    1MPD1     H14110   1.481   2.468  11.609 -0.0073 -0.2797  0.7453
    1MPD1    H114111   1.830   2.267  11.719 -0.4169 -2.0234  1.7242
    1MPD1    H214112   1.478   2.199  11.935  0.9657  0.9065  0.1573
    1MPD1    H314113   1.712   2.130  11.872  0.3370  0.5237  0.2612
    1MPD1     N14114   1.719   2.456  11.556 -0.5509  0.1101  0.7134
    1MPD1    H514115   1.670   2.538  11.519  0.4818  0.3225 -0.1989
    1MPD1    N114116   1.324   2.368  11.806  0.1249  0.1298  0.2178
    1MPD1    H614117   1.288   2.355  11.901  1.0329 -3.4167  0.0769
    1MPD1    H714118   1.276   2.451  11.770 -1.0783  0.0121  1.5485
    2MPD1     C14119   0.687   2.202  11.389  0.3518 -0.3162  0.0693
    2MPD1    C114120   0.658   2.123  11.279  0.0577 -0.2607  0.2360
    2MPD1    C214121   0.756   2.105  11.186 -0.0350 -0.0627  0.0474
    2MPD1    C314122   0.875   2.168  11.198 -1.1131 -0.3198 -0.1916
    2MPD1    C414123   0.904   2.255  11.310  0.2103 -0.0457  0.4604
    2MPD1    C514124   0.807   2.267  11.406  0.0199  0.5713 -0.2739
    2MPD1     H14125   0.733   2.041  11.100 -2.1162 -0.5463  0.9508
    2MPD1    H114126   0.991   2.318  11.320 -1.0907  2.3295 -2.8503
    2MPD1    H214127   0.618   2.209  11.471  0.7199 -0.9995  0.4395
    2MPD1    H314128   0.810   2.333  11.492 -0.1197 -0.3576  0.4302
    2MPD1     N14129   0.976   2.160  11.099  0.1080 -0.5299  0.1760
    2MPD1    H514130   1.061   2.212  11.114  0.5938 -1.1267 -0.5123
    2MPD1    N114131   0.545   2.039  11.271 -1.3916  0.2138  0.2125
    2MPD1    H614132   0.472   2.074  11.333 -2.6841 -3.2435  0.6472
    2MPD1    H714133   0.564   1.943  11.298 -1.1459  0.0242 -0.6342
    3MPD1     C14134   1.193   1.508  10.373 -0.2949 -0.3309 -0.0898
    3MPD1    C114135   1.072   1.559  10.409 -0.2415 -0.5030 -0.2756
    3MPD1    C214136   1.077   1.670  10.489  0.3698  0.1777 -0.0320
    3MPD1    C314137   1.193   1.743  10.514  0.1389  0.1222  0.1402
    3MPD1    C414138   1.312   1.685  10.477  0.3719 -0.0211 -0.4895
    3MPD1    C514139   1.310   1.568  10.413  0.3015  0.1263  0.7992
    3MPD1     H14140   0.985   1.694  10.541  0.8839 -0.7046  1.3032
    3MPD1    H114141   1.406   1.734  10.500  0.1820  0.8224 -1.5171
    3MPD1    H214142   1.207   1.416  10.318  0.2841  0.2157 -0.8622
    3MPD1    H314143   1.401   1.509  10.406 -1.2934 -2.4820  2.0051
    3MPD1     N14144   1.170   1.860  10.596 -0.2787  0.5658  0.3027
    3MPD1    H514145   1.078   1.889  10.628 -0.4930 -1.2464  1.3331
    3MPD1    N114146   0.959   1.474  10.418  0.1323 -0.0709  0.2763
    3MPD1    H614147   0.958   1.414  10.336  0.4955  1.2439 -0.7004
    3MPD1    H714148   0.875   1.532  10.412  1.4938  1.6203 -2.5714
    4MPD2     C14149   1.575   3.060  11.240  0.8052  0.8074 -0.4207
    4MPD2    C114150   1.700   3.031  11.194 -0.0867 -0.0363 -0.2544
    4MPD2    C214151   1.732   3.059  11.059  0.1506  0.4612  0.1559
    4MPD2    C314152   1.640   3.118  10.974  0.3400  0.4409 -0.0107
    4MPD2    C414153   1.513   3.156  11.026 -0.4294 -0.6126 -0.1646
    4MPD2    C514154   1.487   3.126  11.161 -0.2039 -0.3915 -0.5496
    4MPD2     H14155   1.823   3.020  11.016 -2.2659 -2.7936 -2.0029
    4MPD2    H114156   1.439   3.211  10.969 -1.4685 -1.9879 -0.1093
    4MPD2    H214157   1.540   3.046  11.342 -0.8345  0.8975 -0.9660
    4MPD2    H314158   1.388   3.144  11.201 -0.0224  0.1637 -0.3506
    4MPD2     N14159   1.681   3.135  10.837  0.3168  0.8324 -0.5532
    4MPD2    H514160   1.767   3.088  10.811  1.1297  0.2948  3.1194
    4MPD2    N114161   1.800   2.960  11.267  0.2334 -0.4026  0.3395
    4MPD2    H714162   1.879   2.928  11.210  0.0367 -0.3927  0.0588
    5TMC3    C114163   1.902   2.822  11.433 -0.1801 -0.3324  0.0225
    5TMC3    C214164   1.850   2.709  11.487 -0.7219 -0.0536  0.2786
    5TMC3    C314165   1.874   2.584  11.434  0.0772  0.8250  0.0680
    5TMC3    C414166   1.987   2.806  11.329 -0.1888  0.2055 -0.0752
    5TMC3    C514167   2.005   2.685  11.267 -0.2266  0.1860  0.5016
    5TMC3    C614168   1.953   2.572  11.327  0.6635 -0.2841  0.2051
    5TMC3     C14169   1.794   2.913  11.401 -0.0955  0.8314  0.1132
    5TMC3     O14170   1.691   2.923  11.469  0.4313  0.3059  0.1835
    5TMC3     H14171   1.776   2.726  11.565 -0.7296 -0.3188  0.3272
    5TMC3    H114172   2.036   2.894  11.287 -1.1104  1.3268  1.2009
    5TMC3    H214173   1.954   2.478  11.273 -0.5926 -0.3004  0.2173
    5TMC3    C714174   1.998   2.702  11.130  0.7652 -0.3965  0.7607
    5TMC3    C814175   1.846   2.457  11.506 -0.0049  0.6088  0.2848
    5TMC3    O114176   1.966   2.815  11.093  0.0162  0.2526  0.2025
    5TMC3    O214177   1.922   2.362  11.504 -0.2431  0.1251 -0.1304
    6TMC3    C114178   1.091   2.109  10.900  0.2067 -0.2369  0.1182
    6TMC3    C214179   1.135   2.005  10.821  0.5118 -0.1449 -0.4785
    6TMC3    C314180   1.229   2.041  10.727  0.2275  0.3335  0.3485
    6TMC3    C414181   1.143   2.236  10.889  0.3097  0.0893 -0.6057
    6TMC3    C514182   1.242   2.258  10.805 -0.4637  0.0812 -0.8066
    6TMC3    C614183   1.283   2.168  10.715 -0.7433 -0.0570 -0.3910
    6TMC3     C14184   0.986   2.074  10.988  0.3889 -0.1524  0.4893
    6TMC3     O14185   0.916   1.983  10.954 -0.0940  0.4838 -0.2379
    6TMC3     H14186   1.121   1.899  10.840 -2.4637  0.4819  0.8085
    6TMC3    H114187   1.122   2.300  10.974 -0.2251 -3.0124  1.5983
    6TMC3    H214188   1.350   2.182  10.631  0.0646 -4.1634 -0.4359
    6TMC3    C714189   1.272   2.398  10.773  0.7881  0.3150  0.3482
    6TMC3    C814190   1.273   1.934  10.638  0.7913  0.7097 -0.3417
    6TMC3    O114191   1.336   2.420  10.672 -0.7222 -0.3110 -0.5043
    6TMC3    O214192   1.389   1.949  10.596 -0.2356 -0.0483 -0.4051
    7MPD2     C14193   2.014   2.561  10.637 -0.0139 -0.4151  0.3558
    7MPD2    C114194   1.973   2.679  10.685 -0.2597 -0.0789  0.1208
    7MPD2    C214195   1.981   2.699  10.827 -0.0605  0.8523 -0.2486
    7MPD2    C314196   2.037   2.598  10.906 -0.2607 -0.1150  0.0547
    7MPD2    C414197   2.100   2.486  10.848 -0.1334 -0.2130  0.3671
    7MPD2    C514198   2.075   2.465  10.712 -0.2192  0.1548 -0.6996
    7MPD2     H14199   1.935   2.788  10.870 -0.6250 -0.3228  1.5681
    7MPD2    H114200   2.150   2.407  10.902  1.1642  0.4648  0.1636
    7MPD2    H214201   2.008   2.541  10.531  0.3668  3.0140 -0.3090
    7MPD2    H314202   2.116   2.377  10.664  0.6604 -1.2940  2.7282
    7MPD2     N14203   2.026   2.596  11.048  0.2786  0.2618 -0.0045
    7MPD2    H514204   2.078   2.518  11.088 -0.1733  0.1149  0.3000
    7MPD2    N114205   1.913   2.780  10.600 -0.2854 -0.0162 -0.0476
    7MPD2    H714206   1.909   2.765  10.500 -0.3913  1.3161 -0.2367
    8TMC3    C114207   1.787   2.970  10.549  0.7673 -0.2564 -0.7874
    8TMC3    C214208   1.676   2.901  10.518  0.1355  0.0572 -0.3926
    8TMC3    C314209   1.550   2.957  10.516  0.2223  0.8258  0.4836
    8TMC3    C414210   1.772   3.103  10.597 -0.3410 -0.2854  0.9136
    8TMC3    C514211   1.646   3.156  10.605 -0.5828 -0.0355  0.0262
    8TMC3    C614212   1.533   3.085  10.557 -0.4756  0.1494  0.3230
    8TMC3     C14213   1.868   2.898  10.645 -0.2440  0.0874  0.3846
    8TMC3     O14214   1.874   2.953  10.755 -0.4448  0.2789  0.7936
    8TMC3     H14215   1.684   2.799  10.483 -0.5973 -0.0594 -0.2374
    8TMC3    H114216   1.859   3.158  10.633  0.4331 -0.6218 -0.4292
    8TMC3    H214217   1.432   3.123  10.567  0.0838  1.5778  0.5227
    8TMC3    C714218   1.613   3.206  10.739  0.2177 -0.5477  0.2533
    8TMC3    C814219   1.455   2.856  10.561 -0.2924 -0.1508 -0.0545
    8TMC3    O114220   1.503   3.257  10.750 -0.3639  0.6065  0.4675
    8TMC3    O214221   1.474   2.741  10.533  0.3879 -0.3228 -0.0545
    9MPD2     C14222   1.215   2.902  10.834 -0.1126 -0.6497  0.1700
    9MPD2    C114223   1.286   2.831  10.741 -0.7628  0.4725  0.0658
    9MPD2    C214224   1.287   2.692  10.751  0.3258  0.2240  0.4199
    9MPD2    C314225   1.211   2.627  10.842 -0.0284  0.0543  0.5282
    9MPD2    C414226   1.133   2.699  10.933  0.4976 -0.9190 -1.3424
    9MPD2    C514227   1.135   2.832  10.922  0.1925 -0.5602 -0.2963
    9MPD2     H14228   1.339   2.641  10.670 -0.9623 -2.3505  1.2289
    9MPD2    H114229   1.084   2.655  11.019 -0.9381 -0.1937 -1.7888
    9MPD2    H214230   1.209   3.010  10.836  1.0355 -0.5763 -0.1163
    9MPD2    H314231   1.087   2.888  11.001  3.7072  2.8864 -0.5826
    9MPD2     N14232   1.209   2.488  10.857 -0.0297  0.0138  0.4971
    9MPD2    H514233   1.158   2.449  10.936  0.1100  0.8701  1.0018
    9MPD2    N114234   1.366   2.911  10.655 -0.6299  0.3273 -0.1308
    9MPD2    H714235   1.349   3.011  10.656  1.6166  0.7226 -1.4801
    1MPD1     C14236   2.301   1.335   1.242 -0.5278  0.6638 -0.5280
    1MPD1    C114237   2.290   1.233   1.150  0.4914  0.2544 -0.1186
    1MPD1    C214238   2.207   1.234   1.034  0.8350  0.2304 -0.1824
    1MPD1    C314239   2.130   1.351   1.015  0.0972 -0.6128  0.3305
    1MPD1    C414240   2.138   1.451   1.111  1.0890 -0.1355 -0.4714
    1MPD1    C514241   2.220   1.443   1.220 -0.1291  0.3774  0.2263
    1MPD1     H14242   2.207   1.154   0.961  0.4726 -0.3574  0.4682
    1MPD1    H114243   2.074   1.537   1.091  0.8511 -0.3177 -0.4926
    1MPD1    H214244   2.371   1.336   1.325 -0.2310  1.5126 -0.7890
    1MPD1    H314245   2.224   1.525   1.291  0.1883 -0.4722  1.1939
    1MPD1     N14246   2.028   1.368   0.916 -0.7042 -0.4933  0.0732
    1MPD1    H514247   1.997   1.464   0.907 -1.0517 -0.5176  1.0795
    1MPD1    N114248   2.338   1.107   1.198 -0.3938  0.1760  0.3730
    1MPD1    H614249   2.429   1.109   1.244 -0.0180  0.4312 -0.3854
    1MPD1    H714250   2.341   1.033   1.129  3.1992  2.5384 -1.9674
    2MPD1     C14251   1.914   1.033  17.643  0.2501  0.2432  0.1439
    2MPD1    C114252   1.918   0.954   0.058  0.5150 -0.4237  0.1866
    2MPD1    C214253   1.896   1.013   0.178  0.0789  0.3251  0.4949
    2MPD1    C314254   1.889   1.146   0.194  0.1396  0.0379  0.0625
    2MPD1    C414255   1.896   1.222   0.079  0.1824  0.2428  0.4442
    2MPD1    C514256   1.899   1.167  17.651 -0.1119  0.0628 -0.2154
    2MPD1     H14257   1.905   0.954   0.269  3.8181  0.5297  0.2785
    2MPD1    H114258   1.884   1.329   0.092  1.9811  0.6537 -1.3186
    2MPD1    H214259   1.934   0.983  17.549 -1.3785 -0.5789  0.2387
    2MPD1    H314260   1.894   1.231  17.564  1.3867 -2.6063 -2.2534
    2MPD1     N14261   1.873   1.192   0.326 -0.5751 -0.2928 -0.2624
    2MPD1    H514262   1.866   1.123   0.400 -0.9641  0.5112  0.4665
    2MPD1    N114263   1.925   0.815   0.052 -0.1236  0.4263  0.6444
    2MPD1    H614264   1.947   0.771  17.661 -1.4133 -0.4719  0.7664
    2MPD1    H714265   1.992   0.769   0.113 -0.5344 -0.5452  0.3663
    3TCq2    C114266   1.828   1.319   0.352 -0.1146  0.4292 -0.4762
    3TCq2    O214267   1.803   1.415   0.284  0.2857  0.0847 -0.0781
    3TCq2    C214268   1.820   1.346   0.497 -0.4223  0.2857  0.3802
    3TCq2    C314269   1.746   1.452   0.526  0.0239  0.3755 -0.0654
    3TCq2    C414270   1.733   1.493   0.656  0.4644 -0.3496 -0.5602
    3TCq2    C514271   1.814   1.438   0.754 -0.2269  0.1063  0.1351
    3TCq2    C614272   1.899   1.330   0.718 -0.6009  0.5910  0.0363
    3TCq2    C714273   1.897   1.279   0.587 -0.2697 -0.0664  0.3076
    3TCq2    C814274   2.001   1.279   0.811  0.3284  0.1679  0.0834
    3TCq2    O414275   2.035   1.158   0.799 -0.2987  0.6272 -0.6589
    3TCq2    C914276   1.638   1.596   0.683 -0.2117 -0.9224 -0.3723
    3TCq2    O514277   1.573   1.592   0.796 -0.6072 -0.1702  0.4940
    3TCq2    O614278   1.589   1.656   0.583 -0.3305  0.4988 -0.2155
    3TCq2    H214279   1.667   1.487   0.460 -0.2236  0.2567  0.1649
    3TCq2    H314280   1.810   1.472   0.857  0.8383 -1.2055  0.6133
    3TCq2    H414281   1.949   1.188   0.561 -0.9149 -0.5949  0.8564
    1TCq1    O114282   4.632   4.522  12.645 -0.5501 -0.6484 -0.4071
    1TCq1    C114283   4.584   4.498  12.767  0.0505 -0.1597  0.4694
    1TCq1    O214284   4.651   4.502  12.871 -0.6026  0.7466  0.1045
    1TCq1    C214285   4.441   4.464  12.766 -0.2787 -0.0561 -0.3586
    1TCq1    C314286   4.374   4.442  12.649  0.2586  0.3336  0.1697
    1TCq1    C414287   4.239   4.422  12.664 -0.2643  0.2846  0.4987
    1TCq1    C514288   4.173   4.430  12.781 -0.1978  0.4753  0.2459
    1TCq1    C614289   4.244   4.440  12.895  0.3333  0.1049  1.1928
    1TCq1    C714290   4.383   4.456  12.890 -1.0462 -0.1142 -0.0141
    1TCq1    C814291   4.175   4.467  13.018 -0.4323 -0.6312 -0.0906
    1TCq1    O414292   4.054   4.479  13.014 -0.3846  0.6086 -0.8234
    1TCq1    C914293   4.148   4.397  12.554 -0.3944 -0.9686  0.2046
    1TCq1    O514294   4.200   4.354  12.447  0.2710  0.0831 -0.1568
    1TCq1    O614295   4.035   4.452  12.564  0.2571 -0.0740  0.5408
    1TCq1    H114296   4.560   4.538  12.581  0.5490 -1.2368 -1.7788
    1TCq1    H214297   4.413   4.435  12.548 -3.6804 -1.0056 -1.2486
    1TCq1    H314298   4.065   4.422  12.778 -0.1652 -0.2567  1.1179
    1TCq1    H414299   4.452   4.461  12.973 -0.1738  0.7442 -0.7817
    2MPD2     C14300   4.131   4.615  13.262  0.5523  0.0471 -0.1754
    2MPD2    C114301   4.228   4.518  13.252  0.7733 -0.2740  0.3943
    2MPD2    C214302   4.297   4.488  13.359 -0.2790  0.1008  0.4356
    2MPD2    C314303   4.277   4.550  13.481 -0.3404  0.2125  0.6702
    2MPD2    C414304   4.197   4.658  13.482  0.1226  0.5887  0.2652
    2MPD2    C514305   4.118   4.685  13.377  0.2021  0.1195  0.2537
    2MPD2     H14306   4.369   4.407  13.356 -0.1030  0.3221 -1.2451
    2MPD2    H114307   4.183   4.721  13.570  2.0559  1.4106 -0.0086
    2MPD2    H214308   4.053   4.638  13.191  0.3680 -1.8188 -0.5906
    2MPD2    H314309   4.042   0.038  13.385  0.3856  0.3167  0.0848
    2MPD2     N14310   4.341   4.506  13.595 -0.0738  0.0857 -0.8982
    2MPD2    H514311   4.305   4.545  13.681  0.0174 -0.6011 -0.5500
    2MPD2    N114312   4.255   4.453  13.130 -0.5604 -0.5350  0.2280
    2MPD2    H714313   4.342   4.401  13.129  0.3608  0.9681  1.4533
    3TCq1    O114314   4.576   4.593  14.066  0.0133 -0.2030  0.1021
    3TCq1    C114315   4.449   4.553  14.064 -0.0620  0.4882  0.3562
    3TCq1    O214316   4.362   4.639  14.056 -0.1966 -0.2265  0.0791
    3TCq1    C214317   4.461   4.439  13.975 -0.2772  0.0848  0.0329
    3TCq1    C314318   4.531   4.333  14.015  0.0097  0.1592 -0.4214
    3TCq1    C414319   4.582   4.250  13.917 -0.4657 -0.1969  0.2982
    3TCq1    C514320   4.557   4.273  13.783 -0.6748  0.2411 -0.3733
    3TCq1    C614321   4.483   4.386  13.748  0.1254 -0.7584  0.7012
    3TCq1    C714322   4.440   4.471  13.845  0.5564 -0.2760  0.2428
    3TCq1    C814323   4.440   4.408  13.606 -0.3403 -0.0895 -0.2286
    3TCq1    O414324   4.500   4.344  13.519  0.5156 -0.1292  0.4035
    3TCq1    C914325   4.682   4.155  13.947  0.3723 -0.3596 -0.4551
    3TCq1    O514326   4.686   4.052  13.869 -0.0042  0.4004 -0.4147
    3TCq1    O614327   0.014   4.163  14.059  0.2741 -0.3725 -0.5391
    3TCq1    H114328   4.648   4.528  14.058  0.3286  0.2059 -0.3455
    3TCq1    H214329   4.569   4.323  14.116  0.5617 -1.1786 -0.7672
    3TCq1    H314330   4.604   4.206  13.712  2.4680  2.5964 -0.5315
    3TCq1    H414331   4.377   4.558  13.829  2.5576  1.3204  0.9832
    1MPD2     C14332   3.387   0.738  15.399 -0.4125  0.3981  0.3294
    1MPD2    C114333   3.261   0.681  15.407 -0.3753  0.3522  0.5095
    1MPD2    C214334   3.243   0.541  15.386  0.6982  0.4506 -0.4682
    1MPD2    C314335   3.355   0.472  15.350 -0.5316 -0.0956  0.0483
    1MPD2    C414336   3.476   0.528  15.349  0.0017 -0.8046 -0.0425
    1MPD2    C514337   3.493   0.664  15.361 -1.0002  0.3046  0.4930
    1MPD2     H14338   3.146   0.494  15.377  0.7150  0.3705 -0.2340
    1MPD2    H114339   3.569   0.478  15.325 -0.8688 -2.8773  0.8907
    1MPD2    H214340   3.401   0.841  15.432 -0.5485  0.8973 -1.1514
    1MPD2    H314341   3.584   0.722  15.363 -0.7545 -0.1045  1.0345
    1MPD2     N14342   3.328   0.337  15.311  0.0689  0.6380 -0.3226
    1MPD2    H514343   3.230   0.321  15.288  0.4588 -2.7676  0.3510
    1MPD2    N114344   3.149   0.770  15.417  0.4776 -0.4820  0.2951
    1MPD2    H714345   3.167   0.869  15.404 -0.1823 -0.5988 -1.5697
    2TMC3    C114346   2.926   0.833  15.444 -0.1859 -0.3859 -0.4807
    2TMC3    C214347   2.794   0.785  15.427 -0.2507 -0.3774 -0.0917
    2TMC3    C314348   2.717   0.838  15.326  0.5207 -0.4198  0.2501
    2TMC3    C414349   2.956   0.955  15.389  0.4965 -0.1175 -0.0293
    2TMC3    C514350   2.864   1.011  15.301 -0.9736 -0.4558 -0.7597
    2TMC3    C614351   2.745   0.955  15.267 -0.5425  0.3250 -0.2312
    2TMC3     C14352   3.021   0.728  15.433 -0.0053  0.0484 -0.4408
    2TMC3     O14353   2.971   0.617  15.435  0.4088  0.3740  0.0485
    2TMC3     H14354   2.754   0.695  15.472 -0.6013 -0.3865 -0.4203
    2TMC3    H114355   3.052   1.004  15.403  0.7123 -0.4352 -0.3936
    2TMC3    H214356   2.681   0.990  15.186 -2.3631 -1.3876  0.4542
    2TMC3    C714357   2.878   1.146  15.265 -0.1115  0.6990  0.1702
    2TMC3    C814358   2.657   0.741  15.240 -0.2577  0.4950 -0.2529
    2TMC3    O114359   2.921   1.221  15.351  0.4782 -0.4553  0.1610
    2TMC3    O214360   2.555   0.777  15.179 -0.6622 -1.5882  0.4837
    3TCq1    O114361   2.591   1.687  14.260 -0.3148 -0.3485  0.0204
    3TCq1    C114362   2.710   1.662  14.196  0.5512  0.6805  0.3258
    3TCq1    O214363   2.732   1.695  14.081 -0.4864  0.2146 -0.3130
    3TCq1    C214364   2.794   1.580  14.293 -0.0580 -0.0068 -0.1917
    3TCq1    C314365   2.861   1.464  14.248 -0.2340 -0.2365 -0.2718
    3TCq1    C414366   2.922   1.387  14.342  0.9110  0.6294  0.4287
    3TCq1    C514367   2.915   1.413  14.475 -0.0338 -0.4517 -0.3087
    3TCq1    C614368   2.837   1.518  14.515  0.4691  0.1266 -0.0301
    3TCq1    C714369   2.787   1.611  14.427  0.0856  0.3354 -0.3626
    3TCq1    C814370   2.789   1.533  14.652 -0.6424  0.4333 -0.5154
    3TCq1    O414371   2.740   1.639  14.678 -0.7484  0.0057  0.4413
    3TCq1    C914372   2.985   1.265  14.302  0.6988 -0.2177  0.5135
    3TCq1    O514373   3.002   1.178  14.395 -0.1448 -0.0017 -0.0143
    3TCq1    O614374   3.003   1.240  14.180 -0.0572 -0.0109  0.5118
    3TCq1    H114375   2.587   1.647  14.349  0.3584  2.1580  1.1704
    3TCq1    H214376   2.868   1.444  14.142 -1.4385 -0.6948 -0.2551
    3TCq1    H314377   2.970   1.348  14.543  0.2817 -1.7882 -1.8397
    3TCq1    H414378   2.734   1.700  14.459 -0.3778 -0.6892  1.7241
    4MPD2     C14379   2.766   1.531  14.947 -0.1082 -0.0055 -0.0860
    4MPD2    C114380   2.794   1.414  14.875 -0.8479 -0.3272  0.6497
    4MPD2    C214381   2.813   1.299  14.945 -0.1102  0.8075  0.5834
    4MPD2    C314382   2.815   1.295  15.081  0.1806  0.0745  0.3625
    4MPD2    C414383   2.802   1.415  15.150  0.3400 -0.1634  0.5793
    4MPD2    C514384   2.775   1.528  15.082 -0.8246  0.1911  0.8700
    4MPD2     H14385   2.841   1.205  14.899  0.5284  2.0880 -1.6275
    4MPD2    H114386   2.805   1.438  15.256 -1.4587  1.5193  0.2792
    4MPD2    H214387   2.743   1.633  14.918 -0.6747 -0.7797 -2.3339
    4MPD2    H314388   2.760   1.625  15.128  0.1465  1.5801 -1.7127
    4MPD2     N14389   2.828   1.171  15.135 -0.2195 -0.6099 -0.2940
    4MPD2    H514390   2.812   1.098  15.067  0.8741 -0.3311 -0.8482
    4MPD2    N114391   2.812   1.420  14.730  0.3106 -0.1837  0.4363
    4MPD2    H714392   2.831   1.333  14.682  1.7502 -0.7645  2.0841
    5TMC2    C114393   3.137   0.150  15.084  0.1806 -0.5331 -0.6047
    5TMC2    C214394   3.195   0.157  14.955 -0.1469  0.0221  0.0559
    5TMC2    C314395   3.333   0.147  14.942 -0.2170 -0.5001  0.0852
    5TMC2    C414396   3.217   0.141  15.198  0.5925  0.1685 -0.0630
    5TMC2    C514397   3.355   0.150  15.178 -0.2086 -0.7948 -0.1099
    5TMC2    C614398   3.418   0.138  15.048 -0.0571  0.2528 -0.2451
    5TMC2     C14399   3.030   0.241  15.116 -0.5455 -0.0220  0.1598
    5TMC2     O14400   3.040   0.290  15.228 -0.6079 -0.2628  0.0376
    5TMC2     H14401   3.137   0.188  14.869 -2.5580  0.6490  1.9137
    5TMC2    H114402   3.184   0.142  15.301  1.3518 -2.0276  0.2034
    5TMC2    H214403   3.526   0.146  15.044  0.0360 -1.7265 -1.8235
    5TMC2    C714404   3.426   0.252  15.262 -0.0300 -0.1489 -0.9142
    5TMC2    C814405   3.383   0.182  14.818 -0.0234 -0.8712 -0.1531
    5TMC2    O114406   3.549   0.252  15.271  0.1389 -0.3882  0.4787
    5TMC2    O214407   3.492   0.142  14.784  0.2064  0.3640  0.2411
    5TMC2    O514408   3.341   0.311  14.801 -0.2357 -0.0590 -0.3719
    5TMC2    H514409   3.280   0.340  14.872  0.9008  0.4155  0.4157
    6MPD2     C14410   2.625   0.539  15.035 -0.1976 -0.5015 -0.0403
    6MPD2    C114411   2.732   0.545  15.127  0.4975 -0.2322  0.2307
    6MPD2    C214412   2.843   0.464  15.113  0.0601  0.1551  0.2238
    6MPD2    C314413   2.836   0.354  15.026  0.5298 -0.6304  0.5544
    6MPD2    C414414   2.743   0.360  14.925  0.1677 -0.3354 -0.4885
    6MPD2    C514415   2.636   0.453  14.932 -0.0471 -0.5944 -0.0208
    6MPD2     H14416   2.933   0.482  15.170 -0.9102  1.4863  1.3255
    6MPD2    H114417   2.747   0.287  14.845 -0.9944  0.4266 -1.2604
    6MPD2    H214418   2.534   0.598  15.035 -0.4590 -0.8982  0.5093
    6MPD2    H314419   2.554   0.446  14.862 -1.3861  0.3007  1.4699
    6MPD2     N14420   2.942   0.267  15.015 -0.6554 -0.3409 -0.0644
    6MPD2    H514421   2.950   0.203  14.937  0.1902 -1.2433  0.7596
    6MPD2    N114422   2.743   0.637  15.219  0.2295 -0.2152 -0.2242
    6MPD2    H714423   2.822   0.618  15.279  1.8915  0.2845 -2.2489
  945NH4     N114424   4.061   0.453   9.607  0.9158 -0.3208 -0.4493
  945NH4     H214425   4.133   0.380   9.585 -0.1440 -1.5832  0.2623
  945NH4     H314426   4.108   0.538   9.645  1.2409  0.7283 -3.1701
  945NH4     H414427   4.004   0.413   9.684 -0.7648 -0.5101 -1.7966
  945NH4     H514428   4.002   0.472   9.523  0.6827 -1.9043 -0.6478
  946SOD     NA14429   0.077   1.705  17.142 -0.3375  0.4679 -0.1491
  947SOD     NA14430   4.198   0.582  12.539 -0.0347 -0.0798  0.1265
  948SOD     NA14431   1.875   4.095   1.152  0.2401 -0.5651  0.0482
  949SOD     NA14432   0.624   0.975  16.480 -0.2521 -0.1626  0.1723
  950SOD     NA14433   2.556   1.805   6.568  0.5377  0.0227  0.3775
  951SOD     NA14434   3.760   4.430  10.333  0.1062  0.1215  0.1736
  952SOD     NA14435   1.190   3.069  17.371 -0.2012  0.0790  0.2265
  953SOD     NA14436   1.785   0.909  12.743  0.1300  0.4948 -0.4852
  954SOD     NA14437   2.758   4.559  14.062 -0.0080  0.3603 -0.3324
  955SOD     NA14438   1.816   0.499   6.235  0.0655  0.3979  0.4665
  956SOD     NA14439   1.418   0.241  11.943 -0.5354  0.2041  0.6353
  957SOD     NA14440   0.130   1.181  11.842  0.0561 -0.0331  0.6293
  958SOD     NA14441   3.716   2.491  15.877 -0.4810  0.0588 -0.1450
  959SOD     NA14442   4.341   1.269   1.977  0.0864  0.3336 -0.0095
  960SOD     NA14443   3.883   2.115  12.254  0.3570 -0.1883 -0.1370
  961SOD     NA14444   3.471   0.007  10.774 -0.0347 -0.2963  0.3090
  962SOD     NA14445   4.024   2.769   6.521  0.0576  0.2802  0.9451
  963SOD     NA14446   3.189   3.685  17.068 -0.5938 -0.1249  0.1753
  964SOD     NA14447   4.624   4.692  11.806 -0.2468  0.0647 -0.1256
  965SOD     NA14448   3.438   3.146   7.069 -0.1552 -0.0039  0.2082
  966SOD     NA14449   2.689   2.275   9.200  0.1179  0.4933  0.0611
  967SOD     NA14450   0.971   0.962  12.585 -0.1172  0.0973 -0.0021
  968SOD     NA14451   4.051   4.434  10.202 -0.3532  0.1433  0.0656
  969SOD     NA14452   3.122   1.303  15.328 -0.1545  0.4284  0.3721
  970SOD     NA14453   0.359   4.261  11.309 -0.0731  0.0042  0.3016
  971SOD     NA14454   4.474   3.725  12.140  0.1006 -0.5299  0.3360
  972SOD     NA14455   0.158   4.443  14.396  0.1259  0.4307 -0.4081
  973SOD     NA14456   3.207   1.535   7.857 -0.7251  0.0535 -0.2239
  974SOD     NA14457   3.546   1.784  10.246  0.7895  0.2815  0.0713
  975SOD     NA14458   0.423   4.343   2.521 -0.1715 -0.1933  0.6110
  976SOD     NA14459   3.941   4.113  10.636 -0.2818  0.2084  0.1289
  977SOD     NA14460   1.395   1.444   0.845 -0.5586  0.2383 -0.5991
  978SOD     NA14461   4.440   1.841   8.533  0.4583  0.6247 -0.0822
  979SOD     NA14462   4.650   1.328  14.590 -0.3352 -0.1653 -0.2006
  980SOD     NA14463   1.102   0.611  15.440 -0.0942 -0.1470  0.4227
  981SOD     NA14464   3.333   3.045  10.041  0.4881 -0.2064 -0.0689
  982SOD     NA14465   3.795   4.354  10.031  0.2534  0.0910  0.3407
  983SOD     NA14466   0.351   4.518  14.586  0.2118  0.1874 -0.2332
  984SOD     NA14467   0.056   4.236   0.923  0.2392 -0.3384 -0.3466
  985SOD     NA14468   1.602   4.087   1.018  0.0335  0.2859 -0.1238
  986SOD     NA14469   0.489   1.266  15.449 -0.7549  0.1319 -0.1428
  987SOD     NA14470   0.019   3.434   0.042 -0.2793  0.5273  0.2025
  988SOD     NA14471   0.530   1.249   2.499  0.0857  0.6686 -0.2972
  989SOD     NA14472   2.060   3.987  10.457 -0.2016 -0.4840  0.2246
  990SOD     NA14473   2.039   2.954   4.488  0.4926  0.5789 -0.1622
  991SOD     NA14474   0.822   0.202  14.280  0.2064 -0.1666  0.0228
  992SOD     NA14475   0.219   1.434  14.225 -0.0486  0.7022  0.5557
  993SOD     NA14476   0.385   3.518  14.542  0.2659 -0.2873 -0.0895
  994SOD     NA14477   0.178   1.384  13.634 -0.6048 -0.1000 -0.2226
  995SOD     NA14478   1.560   2.965   5.788 -0.0000 -0.2935  0.1232
  996SOD     NA14479   2.971   0.902  10.640  0.1098  0.3797 -0.5767
  997SOD     NA14480   1.503   2.399   0.822  0.0239  0.7531  0.2448
  998SOD     NA14481   0.112   4.108  12.474  0.1676  0.1447  0.3298
  999SOD     NA14482   3.523   2.839   2.699 -0.0871  0.1311  0.4276
 1000SOD     NA14483   1.999   2.922   1.141  0.5915 -0.1195 -0.6968
 1001SOD     NA14484   3.217   4.582  10.961  0.1078 -0.1474 -0.3471
 1002SOD     NA14485   3.547   1.683   0.252 -0.0553  0.4081 -0.3458
 1003SOD     NA14486   3.521   4.558  10.155 -0.0891  0.2058  0.1914
 1004SOD     NA14487   1.245   2.035  13.868  0.2970  0.1896  0.1215
 1005SOD     NA14488   3.979   0.745  15.419  0.1611 -0.0965 -0.0539
 1006SOD     NA14489   2.723   4.422  12.771  0.2566  0.0037 -0.1267
 1007SOD     NA14490   3.058   2.129   0.720 -0.2048 -0.0899 -0.4114
 1008SOD     NA14491   2.114   4.708   3.437 -0.2232 -0.1236 -0.4785
 1009SOD     NA14492   1.116   1.077  11.228  0.2570 -0.0458  0.1654
 1010SOD     NA14493   4.469   2.001   1.308 -0.9447  0.3130  0.2915
 1011SOL     OW14494   3.130   1.265   2.916 -0.0223 -0.1635  0.3353
 1011SOL    HW114495   3.170   1.209   2.983  1.6507 -0.2732 -0.7470
 1011SOL    HW214496   3.141   1.351   2.956 -1.4485  0.8149 -1.3543
 1012SOL     OW14497   1.239   3.275   1.116  0.1653 -0.0601  0.4583
 1012SOL    HW114498   1.195   3.346   1.163  1.0175  1.2526 -0.7616
 1012SOL    HW214499   1.274   3.322   1.041  2.9416 -0.2867  1.6203
 1013SOL     OW14500   3.327   4.443   8.755 -0.3215  0.2233  0.0004
 1013SOL    HW114501   3.392   4.506   8.725  1.1981 -1.1183  0.4644
 1013SOL    HW214502   3.263   4.455   8.685  0.2477  1.2154 -0.3383
 1014SOL     OW14503   2.802   4.302   7.755 -0.1441 -0.6673 -0.0828
 1014SOL    HW114504   2.801   4.219   7.803  0.8209 -1.1400 -0.8897
 1014SOL    HW214505   2.753   4.362   7.811 -0.3853 -0.2565 -0.7309
 1015SOL     OW14506   0.341   1.813   6.911 -0.6113  0.2804 -0.7836
 1015SOL    HW114507   0.391   1.890   6.883  1.0085  0.6825  3.0989
 1015SOL    HW214508   0.311   1.837   6.999  0.8780 -0.1548 -0.1511
 1016SOL     OW14509   0.192   0.735   7.629 -0.1163  0.1303 -0.0716
 1016SOL    HW114510   0.252   0.776   7.567  1.6838 -1.0373  0.8730
 1016SOL    HW214511   0.143   0.683   7.566 -0.9905 -0.0760  0.7833
 1017SOL     OW14512   2.794   1.128   5.721 -0.0170 -0.1453  0.6525
 1017SOL    HW114513   2.720   1.142   5.779  0.5677 -0.8675  1.5718
 1017SOL    HW214514   2.852   1.190   5.764  1.1523 -1.5979  1.2037
 1018SOL     OW14515   1.894   2.904   3.452  0.3486  1.0447  0.3585
 1018SOL    HW114516   1.936   2.917   3.367 -0.3941 -0.5762 -0.2766
 1018SOL    HW214517   1.804   2.879   3.429 -0.0591  2.9005 -0.0089
 1019SOL     OW14518   0.445   3.423  14.737 -0.3695  0.0877 -0.3565
 1019SOL    HW114519   0.372   3.388  14.788  0.8772 -0.8214  0.7944
 1019SOL    HW214520   0.513   3.371  14.781 -0.2710  1.0538  0.6211
 1020SOL     OW14521   0.027   1.838   2.826 -0.2574 -0.1155 -0.6673
 1020SOL    HW114522   4.713   1.917   2.787  0.5126  0.7112  0.2652
 1020SOL    HW214523   0.076   1.877   2.898  1.5250  0.2320 -2.0741
 1021SOL     OW14524   2.726   0.157   5.255  0.0560  0.3431  0.1251
 1021SOL    HW114525   2.812   0.116   5.263  0.4475  1.1158 -0.1229
 1021SOL    HW214526   2.732   0.225   5.322 -2.5684 -1.3415  2.0732
 1022SOL     OW14527   3.640   0.682   6.491  0.1424 -0.5223 -1.1190
 1022SOL    HW114528   3.724   0.728   6.486 -0.1163  0.3220  2.4506
 1022SOL    HW214529   3.583   0.757   6.504  0.4097 -0.6456  0.7751
 1023SOL     OW14530   3.288   2.878   7.874  0.3175 -0.5845 -0.3382
 1023SOL    HW114531   3.194   2.890   7.887  0.5359 -1.2040  1.8950
 1023SOL    HW214532   3.308   2.821   7.949  0.0533 -1.0172 -0.5938
 1024SOL     OW14533   0.301   1.818  16.482 -0.1694  0.2493 -0.0004
 1024SOL    HW114534   0.211   1.808  16.454 -0.5737 -1.3432  1.8318
 1024SOL    HW214535   0.319   1.726  16.505 -0.6581  0.7000  2.2024
 1025SOL     OW14536   3.634   0.994   8.516  0.1211  0.5985  0.0715
 1025SOL    HW114537   3.684   0.925   8.472 -0.2872  0.8411 -0.7631
 1025SOL    HW214538   3.640   0.973   8.609  0.7015 -3.3642 -0.8642
 1026SOL     OW14539   1.587   1.099  11.668 -0.2280 -0.1168 -0.5083
 1026SOL    HW114540   1.542   1.050  11.737 -0.8211  0.1714 -0.6912
 1026SOL    HW214541   1.624   1.169  11.721  0.1475  0.0693 -1.0177
 1027SOL     OW14542   2.427   2.800   4.756  0.1765  0.4460 -0.1057
 1027SOL    HW114543   2.506   2.813   4.809  1.0627 -0.8977 -1.0883
 1027SOL    HW214544   2.373   2.845   4.821  0.2707  0.8661 -0.3229
 1028SOL     OW14545   2.338   2.259   5.472  0.0849 -0.1485 -0.4377
 1028SOL    HW114546   2.395   2.189   5.441  0.4688 -0.4533  0.9624
 1028SOL    HW214547   2.391   2.300   5.540 -0.3897  1.1472 -0.8400
 1029SOL     OW14548   2.909   1.740   8.676  0.9680 -0.0117 -0.3528
 1029SOL    HW114549   2.913   1.695   8.760  0.8057 -1.6159 -1.2043
 1029SOL    HW214550   2.844   1.804   8.704  0.1391 -0.1937 -1.8428
 1030SOL     OW14551   1.271   0.744   7.735  0.6391  0.5800 -0.3807
 1030SOL    HW114552   1.301   0.717   7.821 -1.2269 -0.1051  0.0607
 1030SOL    HW214553   1.357   0.743   7.694  1.4829 -0.9389  1.4106
 1031SOL     OW14554   0.393   4.536   0.100  0.1585  0.3597  0.1634
 1031SOL    HW114555   0.474   4.493   0.127  0.1095  0.4718  0.4890
 1031SOL    HW214556   0.329   4.497   0.159 -0.9670  1.3767 -0.3826
 1032SOL     OW14557   3.244   3.329  15.539  0.1823  0.1498  0.0033
 1032SOL    HW114558   3.326   3.366  15.507  0.0333  1.7563  1.4511
 1032SOL    HW214559   3.247   3.365  15.628  1.2970  1.5609 -0.6086
 1033SOL     OW14560   0.297   3.725  12.814 -0.0904 -0.0228  0.2927
 1033SOL    HW114561   0.347   3.709  12.734  1.2036  2.5077  0.5939
 1033SOL    HW214562   0.359   3.778  12.864  1.0005  0.2362 -1.3216
 1034SOL     OW14563   1.218   2.808   6.290  0.2625  0.1532 -0.1304
 1034SOL    HW114564   1.188   2.865   6.361 -0.3488 -1.4685  0.9357
 1034SOL    HW214565   1.238   2.872   6.223  0.7006  0.7972  0.6099
 1035SOL     OW14566   1.057   0.612   5.668  0.1131 -0.1615  0.4747
 1035SOL    HW114567   1.130   0.669   5.644 -0.5782  0.4835 -0.0997
 1035SOL    HW214568   0.981   0.666   5.646  1.1397  1.3710  0.7140
 1036SOL     OW14569   0.810   4.658   5.000 -0.4033  0.4332  0.1424
 1036SOL    HW114570   0.881   4.719   5.020 -1.8629  2.1328  0.1119
 1036SOL    HW214571   0.799   4.602   5.076 -0.7215  2.9759  1.9860
 1037SOL     OW14572   3.605   4.464   6.237 -0.0127  0.1221  0.7666
 1037SOL    HW114573   3.556   4.545   6.252  0.5032  0.7316 -0.8174
 1037SOL    HW214574   3.544   4.400   6.201 -2.3944  1.3295  2.6233
 1038SOL     OW14575   0.398   0.298  10.739  0.1193  0.0120 -0.5539
 1038SOL    HW114576   0.383   0.299  10.644 -0.7421 -0.9752 -0.4233
 1038SOL    HW214577   0.419   0.389  10.761 -0.3785 -0.0164  0.0219
 1039SOL     OW14578   2.151   0.071   9.479  0.5588  0.2588 -0.5384
 1039SOL    HW114579   2.225   0.074   9.540  0.2019 -0.7060 -0.0679
 1039SOL    HW214580   2.095   0.016   9.533 -0.5080  0.2506 -1.6575
 1040SOL     OW14581   2.581   3.483   7.905 -0.2779 -0.2301  0.2192
 1040SOL    HW114582   2.628   3.497   7.823 -0.5804 -1.2885 -0.1443
 1040SOL    HW214583   2.642   3.426   7.951 -1.3614  0.7482  2.8514
 1041SOL     OW14584   1.262   4.695   8.043  0.0986 -0.8958 -0.2330
 1041SOL    HW114585   1.169   4.718   8.051  0.4769  0.3306  0.4905
 1041SOL    HW214586   1.254   4.607   8.006  0.1171 -0.4558 -1.2897
 1042SOL     OW14587   3.042   2.517  16.056  0.4813  0.3136 -0.4531
 1042SOL    HW114588   3.116   2.478  16.008  1.8486  1.3543  0.8088
 1042SOL    HW214589   2.991   2.543  15.979  0.5259  1.3735 -0.1238
 1043SOL     OW14590   3.750   3.013   6.091  0.3573  0.3534  0.2247
 1043SOL    HW114591   3.681   3.077   6.109  1.0667  1.5630 -1.3347
 1043SOL    HW214592   3.819   3.054   6.144  1.5794 -2.0053  0.4320
 1044SOL     OW14593   2.321   4.657   6.678  0.2251 -0.0071 -0.4455
 1044SOL    HW114594   2.318   4.712   6.599  0.4778 -0.4939 -0.7955
 1044SOL    HW214595   2.395   4.600   6.658 -2.1237 -1.9613 -3.6314
 1045SOL     OW14596   3.194   3.544   0.826  0.9302  0.1157 -0.1521
 1045SOL    HW114597   3.126   3.545   0.758 -1.0097 -1.0392  1.7432
 1045SOL    HW214598   3.141   3.566   0.904 -1.0463 -1.5364 -1.0217
 1046SOL     OW14599   2.824   2.437   7.957 -0.6172  0.3087 -0.0225
 1046SOL    HW114600   2.847   2.361   8.011  1.3421  0.1919 -1.0177
 1046SOL    HW214601   2.784   2.398   7.879 -0.1755  1.1753 -0.6785
 1047SOL     OW14602   3.293   0.288   2.219 -0.2025 -0.6983  0.1679
 1047SOL    HW114603   3.372   0.334   2.194 -0.6020 -1.4575 -2.4905
 1047SOL    HW214604   3.235   0.301   2.144 -0.2868 -1.3259  0.1206
 1048SOL     OW14605   2.127   1.151  13.016 -0.0863  0.3728 -0.5641
 1048SOL    HW114606   2.167   1.185  12.936  0.5120  0.7945 -0.0850
 1048SOL    HW214607   2.164   1.063  13.027  0.5381  0.9465  1.9333
 1049SOL     OW14608   1.019   2.005   6.417 -0.1039  0.3345 -0.0896
 1049SOL    HW114609   1.045   2.092   6.449 -2.0028 -0.0743  2.5806
 1049SOL    HW214610   0.936   1.995   6.464  0.6995 -0.4571  1.1736
 1050SOL     OW14611   3.526   0.780   6.173 -0.1652 -0.1771  0.4288
 1050SOL    HW114612   3.554   0.840   6.103 -0.6157 -0.1996  0.2320
 1050SOL    HW214613   3.444   0.751   6.134  1.3560 -1.6300 -1.7179
 1051SOL     OW14614   2.724   0.987   2.819 -0.1603  0.6902 -0.5330
 1051SOL    HW114615   2.642   0.957   2.780  1.0205 -0.3678 -2.1982
 1051SOL    HW214616   2.786   1.003   2.748  2.5210 -0.1447  1.6083
 1052SOL     OW14617   2.611   0.626   5.779 -0.1168 -0.0561 -0.7196
 1052SOL    HW114618   2.675   0.697   5.790 -0.6772  0.1719  0.9931
 1052SOL    HW214619   2.562   0.667   5.708  1.1271  1.1227 -0.8992
 1053SOL     OW14620   0.643   4.645  15.149 -0.4400 -0.7199  0.3808
 1053SOL    HW114621   0.703   4.576  15.178  1.2032  1.0336  1.0965
 1053SOL    HW214622   0.691   4.715  15.193  1.0805 -1.2618 -0.4125
 1054SOL     OW14623   3.072   2.146   3.590 -0.5939  0.0138 -0.3489
 1054SOL    HW114624   3.046   2.186   3.673  2.7805 -0.8590  1.1118
 1054SOL    HW214625   3.088   2.053   3.604 -0.1304 -0.1119 -1.7220
 1055SOL     OW14626   2.442   2.175   3.896 -0.4071 -0.8462 -0.1902
 1055SOL    HW114627   2.517   2.232   3.882 -1.7641  0.9408 -0.1940
 1055SOL    HW214628   2.427   2.176   3.990 -0.6283  0.1826 -0.2387
 1056SOL     OW14629   0.191   1.334   6.032  0.1524 -0.2003 -0.6242
 1056SOL    HW114630   0.229   1.381   6.106 -0.3369 -0.2222 -0.3651
 1056SOL    HW214631   0.138   1.400   5.986 -0.3446  1.5031  2.4343
 1057SOL     OW14632   1.536   1.889   9.092 -0.1541 -0.2079  0.2895
 1057SOL    HW114633   1.603   1.955   9.074  1.0677 -2.1750 -2.3194
 1057SOL    HW214634   1.582   1.832   9.153  0.9436 -0.3511 -0.6776
 1058SOL     OW14635   3.422   2.408   8.814 -0.7157  0.6670 -0.0587
 1058SOL    HW114636   3.408   2.502   8.809  1.7698  1.1273  1.3774
 1058SOL    HW214637   3.472   2.387   8.735 -1.5541 -0.9550 -0.1622
 1059SOL     OW14638   4.542   1.533  12.586 -0.9341 -0.0912 -0.1024
 1059SOL    HW114639   4.473   1.466  12.585 -1.4787  0.4428  1.0843
 1059SOL    HW214640   4.491   1.601  12.632 -1.1161 -0.3752  0.1184
 1060SOL     OW14641   1.208   3.665  11.124  0.1761  0.4213  0.2910
 1060SOL    HW114642   1.213   3.761  11.119 -2.1097  0.4889 -0.7584
 1060SOL    HW214643   1.203   3.645  11.217  0.4283  0.1924  0.2538
 1061SOL     OW14644   4.567   0.757   5.977  0.2899 -0.2282 -0.1790
 1061SOL    HW114645   4.593   0.785   5.889 -0.4469 -0.5387 -0.4962
 1061SOL    HW214646   4.575   0.824   6.045  0.4784  2.0318 -2.3977
 1062SOL     OW14647   3.033   4.469   2.219  0.0905 -0.3903 -0.5423
 1062SOL    HW114648   3.050   4.554   2.260  1.8275 -0.8451 -0.3260
 1062SOL    HW214649   2.942   4.451   2.241  0.2949  1.3049  1.7938
 1063SOL     OW14650   4.094   0.166   4.706  0.0358 -0.6749 -0.7721
 1063SOL    HW114651   4.070   0.259   4.715  0.8306 -0.4974 -0.4797
 1063SOL    HW214652   4.121   0.148   4.796 -0.1603  0.3355 -0.5009
 1064SOL     OW14653   3.295   2.882   9.317 -0.3357  0.1418 -0.0520
 1064SOL    HW114654   3.360   2.952   9.325  1.8014 -1.7189 -1.3959
 1064SOL    HW214655   3.250   2.917   9.240 -1.0442 -0.2226  0.2016
 1065SOL     OW14656   4.032   0.831   7.894  0.3902 -0.7200  0.6154
 1065SOL    HW114657   4.099   0.884   7.851  0.2611  0.0744  1.4047
 1065SOL    HW214658   4.024   0.874   7.979 -0.2665 -0.8771  0.6314
 1066SOL     OW14659   1.663   3.739  13.202  0.0946 -0.4704  0.2219
 1066SOL    HW114660   1.659   3.688  13.121  3.1656 -1.9638  1.0183
 1066SOL    HW214661   1.668   3.830  13.174 -0.0851 -0.6822 -0.4816
 1067SOL     OW14662   3.826   4.440   0.751  0.3976 -0.7820 -0.6225
 1067SOL    HW114663   3.757   4.497   0.718 -0.2030 -0.8861  0.4743
 1067SOL    HW214664   3.791   4.354   0.728 -3.8371  0.9699 -0.6867
 1068SOL     OW14665   1.401   2.120  12.459  0.0578 -0.4158 -0.2812
 1068SOL    HW114666   1.328   2.142  12.517 -1.2209  0.0440 -2.0528
 1068SOL    HW214667   1.370   2.033  12.434 -2.6767  0.3510  0.3725
 1069SOL     OW14668   0.599   0.258   3.854 -0.1437 -0.2971 -0.3770
 1069SOL    HW114669   0.690   0.235   3.832  0.5681  4.3228 -2.4617
 1069SOL    HW214670   0.581   0.187   3.915 -1.1595 -0.8774 -1.3599
 1070SOL     OW14671   1.818   0.009  11.816 -0.2290  0.0840  0.0166
 1070SOL    HW114672   1.910   4.708  11.829 -0.7679 -2.2936 -0.5896
 1070SOL    HW214673   1.796   4.701  11.729  0.8709  0.0536 -0.2527
 1071SOL     OW14674   3.337   2.313  11.685  0.1462  0.5551 -0.0473
 1071SOL    HW114675   3.258   2.266  11.711  0.9729 -0.5047  0.5706
 1071SOL    HW214676   3.313   2.314  11.592 -0.1576 -0.7190  0.0159
 1072SOL     OW14677   0.430   2.144  10.261  0.0334 -0.5216  0.4849
 1072SOL    HW114678   0.406   2.098  10.341  1.2002  0.1499  1.2144
 1072SOL    HW214679   0.381   2.097  10.193 -0.0332  0.3372 -0.0690
 1073SOL     OW14680   0.377   3.695  17.604  0.3153 -0.3453  0.1978
 1073SOL    HW114681   0.426   3.737  17.534 -0.4679  0.6250  0.2235
 1073SOL    HW214682   0.421   3.727  17.683  0.3550  1.0695 -0.3877
 1074SOL     OW14683   0.138   0.812   5.877 -0.2967  0.0823 -0.1824
 1074SOL    HW114684   0.058   0.842   5.834  0.2382  0.3932 -0.9662
 1074SOL    HW214685   0.193   0.890   5.880  0.6457 -0.6862  2.2706
 1075SOL     OW14686   3.658   1.185   2.856  0.2287  0.0753 -0.5566
 1075SOL    HW114687   3.661   1.128   2.779  0.2874  1.6807 -1.7264
 1075SOL    HW214688   3.708   1.261   2.828  1.0371 -0.2105  0.1145
 1076SOL     OW14689   2.018   1.999   5.804 -0.3989 -0.0166 -0.3774
 1076SOL    HW114690   2.068   2.012   5.884 -0.3201 -1.3447 -0.2164
 1076SOL    HW214691   1.980   2.086   5.791 -0.3391 -0.0883 -1.0347
 1077SOL     OW14692   4.319   1.705   9.537 -0.4071 -0.1266 -0.3820
 1077SOL    HW114693   4.253   1.767   9.566 -1.4367 -1.7781  0.8176
 1077SOL    HW214694   4.395   1.734   9.588 -0.4724  0.9653 -0.9103
 1078SOL     OW14695   2.493   3.434  15.850 -0.1097  0.3282  0.1723
 1078SOL    HW114696   2.559   3.438  15.918 -1.7505  0.5048  1.7494
 1078SOL    HW214697   2.514   3.519  15.810 -0.0060 -0.0624 -0.6132
 1079SOL     OW14698   2.226   0.120  15.669 -0.1616 -0.0042  0.0182
 1079SOL    HW114699   2.222   0.025  15.679  0.0606 -0.3503 -3.1491
 1079SOL    HW214700   2.238   0.122  15.574 -0.6044  2.1449  0.0123
 1080SOL     OW14701   2.097   3.440   3.493 -0.6902  0.2528 -0.2534
 1080SOL    HW114702   2.142   3.486   3.423  1.3655 -1.3700 -0.0299
 1080SOL    HW214703   2.165   3.375   3.511  0.3555  1.4260  0.0402
 1081SOL     OW14704   0.992   3.710   4.665  0.4639  0.1869 -0.0786
 1081SOL    HW114705   1.059   3.642   4.667 -0.5822 -0.7403  3.5720
 1081SOL    HW214706   1.039   3.793   4.681 -0.7395  0.3702  2.5459
 1082SOL     OW14707   2.097   4.596   2.672 -0.1825  0.1203 -0.7558
 1082SOL    HW114708   2.108   4.675   2.618  0.6170 -0.2662 -1.1651
 1082SOL    HW214709   2.006   4.568   2.670 -0.3976  0.7521  0.3209
 1083SOL     OW14710   1.586   4.072   9.972  0.5918 -0.1215  0.3094
 1083SOL    HW114711   1.680   4.076   9.953  0.7808 -2.3352  0.8575
 1083SOL    HW214712   1.552   4.052   9.885  3.4289  1.0355 -1.0895
 1084SOL     OW14713   0.859   0.256   6.558 -0.2469  0.0393 -0.0245
 1084SOL    HW114714   0.868   0.351   6.550  1.1029  0.0698  1.6945
 1084SOL    HW214715   0.776   0.240   6.514 -0.8506  2.1570  0.3567
 1085SOL     OW14716   0.656   1.496   7.705 -0.4468 -0.4181  0.1456
 1085SOL    HW114717   0.717   1.564   7.676  2.0708 -2.2409  1.1700
 1085SOL    HW214718   0.716   1.432   7.743 -1.2006 -1.2150  0.0109
 1086SOL     OW14719   4.244   0.825   4.511  0.6006 -0.2729  0.4513
 1086SOL    HW114720   4.307   0.788   4.448 -0.8692  0.4640 -1.4765
 1086SOL    HW214721   4.297   0.825   4.591  0.7920  2.7446  0.3044
 1087SOL     OW14722   3.683   2.982   2.244 -0.3142  0.3787  0.6798
 1087SOL    HW114723   3.747   2.936   2.191 -1.6281  0.5245 -1.0170
 1087SOL    HW214724   3.613   3.017   2.190 -0.2215  0.3200  0.5216
 1088SOL     OW14725   1.276   1.985   7.419 -0.3312  0.0132  0.3766
 1088SOL    HW114726   1.227   2.067   7.421  0.5281  0.5854 -2.3890
 1088SOL    HW214727   1.326   1.990   7.500  1.8063 -2.6389 -0.7840
 1089SOL     OW14728   3.651   0.375   4.486  0.2914 -0.3312 -0.2170
 1089SOL    HW114729   3.568   0.399   4.527 -1.7677 -2.0678 -3.4209
 1089SOL    HW214730   3.691   0.463   4.485 -0.1549 -0.1321 -0.2618
 1090SOL     OW14731   1.507   2.542   6.903  0.3711  0.2974  0.5582
 1090SOL    HW114732   1.479   2.479   6.969  2.1770 -1.2581 -0.1535
 1090SOL    HW214733   1.478   2.504   6.820  1.9055 -3.1124  1.5704
 1091SOL     OW14734   1.382   3.687  10.713 -0.4372 -0.3974 -0.0106
 1091SOL    HW114735   1.365   3.604  10.669 -0.4492 -0.9339  0.9993
 1091SOL    HW214736   1.384   3.656  10.804 -0.7064  0.8088  0.4153
 1092SOL     OW14737   0.146   4.494   5.209  0.9377 -0.3959  0.1970
 1092SOL    HW114738   0.126   4.481   5.117  2.1371 -1.0939  0.0386
 1092SOL    HW214739   0.058   4.486   5.247  1.3653  2.0705  1.7036
 1093SOL     OW14740   3.864   3.636   3.371 -0.0699 -0.0236 -0.1254
 1093SOL    HW114741   3.794   3.607   3.430  0.0957  0.7123  0.4273
 1093SOL    HW214742   3.826   3.713   3.328 -1.2318 -0.8426 -0.5738
 1094SOL     OW14743   3.723   2.149   9.940  0.0981 -0.2372  0.7926
 1094SOL    HW114744   3.808   2.185   9.917  1.3717 -3.0251  1.0921
 1094SOL    HW214745   3.674   2.231   9.948 -0.0010 -0.1280 -0.8640
 1095SOL     OW14746   4.534   4.537   2.598 -0.3142 -0.6997 -0.3836
 1095SOL    HW114747   4.464   4.596   2.569  1.4019  0.5849 -1.9246
 1095SOL    HW214748   4.533   4.540   2.693  1.8022  1.1740 -0.4088
 1096SOL     OW14749   1.768   1.454   4.879  0.1820  0.0936  0.0312
 1096SOL    HW114750   1.754   1.428   4.788 -1.0399 -0.2724  0.3194
 1096SOL    HW214751   1.745   1.545   4.864 -0.9946  0.1953  2.3845
 1097SOL     OW14752   0.508   2.734   5.339 -0.1278 -0.1262 -0.7666
 1097SOL    HW114753   0.522   2.826   5.360 -1.0583 -0.2356  0.2864
 1097SOL    HW214754   0.601   2.713   5.353 -1.3163 -3.1518  2.4293
 1098SOL     OW14755   3.637   0.026   2.559  0.1821  0.5288  0.3508
 1098SOL    HW114756   3.691   0.083   2.614  0.3771 -1.3549  2.1334
 1098SOL    HW214757   3.569   0.002   2.622  0.4015  1.5722  0.9808
 1099SOL     OW14758   1.291   3.845  14.690  0.0312 -0.7560 -0.4436
 1099SOL    HW114759   1.196   3.857  14.681 -0.0062 -0.1025  0.7650
 1099SOL    HW214760   1.334   3.927  14.663 -2.7552  1.2917  1.3290
 1100SOL     OW14761   3.189   1.287   2.609 -0.2680  0.4673  0.4835
 1100SOL    HW114762   3.179   1.258   2.518  0.4812 -0.8857  0.8441
 1100SOL    HW214763   3.115   1.255   2.661 -0.7661 -2.8217 -2.2128
 1101SOL     OW14764   1.282   1.483   5.202 -0.5224 -0.0189 -0.2793
 1101SOL    HW114765   1.304   1.560   5.254 -2.0215 -0.1291  0.5360
 1101SOL    HW214766   1.326   1.406   5.238  1.3877  0.9364 -0.6028
 1102SOL     OW14767   3.023   4.658   5.965 -0.5126  0.0261 -0.2092
 1102SOL    HW114768   2.997   4.620   6.049 -3.0042 -0.1129 -1.0274
 1102SOL    HW214769   2.971   0.011   5.990 -0.7494  0.6355 -2.6375
 1103SOL     OW14770   1.214   0.523   4.057 -0.7762 -0.9226 -0.2135
 1103SOL    HW114771   1.192   0.521   3.963  0.6567  2.2032 -0.5975
 1103SOL    HW214772   1.217   0.616   4.077 -0.9590 -0.9515 -0.0536
 1104SOL     OW14773   2.886   3.926   8.907 -0.0310 -0.5351 -0.4413
 1104SOL    HW114774   2.842   3.896   8.986  0.3479 -1.4314 -0.5676
 1104SOL    HW214775   2.917   4.013   8.935  0.2555 -0.3811 -1.2386
 1105SOL     OW14776   1.284   1.843  13.972  0.2807  0.1146  0.0847
 1105SOL    HW114777   1.370   1.808  13.992  0.9603  0.6446 -1.9602
 1105SOL    HW214778   1.234   1.777  14.021  1.7262  0.4274  1.9781
 1106SOL     OW14779   1.621   0.967   2.740  0.0964 -0.2808  0.4370
 1106SOL    HW114780   1.601   0.874   2.732  1.1142 -0.2163 -2.8474
 1106SOL    HW214781   1.563   0.994   2.811 -0.3324  0.9685 -0.4041
 1107SOL     OW14782   1.350   1.029   7.140 -0.1654 -0.2881 -0.2662
 1107SOL    HW114783   1.350   0.974   7.218  3.9788  0.7148  0.4059
 1107SOL    HW214784   1.443   1.052   7.136  0.1989 -1.8471 -0.6968
 1108SOL     OW14785   3.468   0.339   3.740 -0.2119 -0.1486 -0.0857
 1108SOL    HW114786   3.433   0.297   3.662 -4.4657  1.5633  0.8611
 1108SOL    HW214787   3.549   0.290   3.749 -0.6560 -0.5991  1.4333
 1109SOL     OW14788   1.122   0.082   8.676 -0.3003 -0.1210 -0.3194
 1109SOL    HW114789   1.217   0.080   8.680 -0.2049  2.4180 -1.5888
 1109SOL    HW214790   1.109   0.032   8.757 -0.5796 -2.7660 -1.9807
 1110SOL     OW14791   2.977   3.470   3.126  0.6203 -0.2173  0.0661
 1110SOL    HW114792   2.991   3.466   3.031 -2.3779 -0.8469 -0.3558
 1110SOL    HW214793   2.894   3.518   3.124  0.7526 -0.0549 -1.5288
 1111SOL     OW14794   3.841   3.696   8.483  0.3286  0.0765 -0.5906
 1111SOL    HW114795   3.803   3.674   8.568 -0.2858  2.6801 -0.1778
 1111SOL    HW214796   3.863   3.786   8.511 -0.4357 -0.0008  0.2478
 1112SOL     OW14797   0.210   1.948  12.990  0.0106 -0.2405 -0.0687
 1112SOL    HW114798   0.249   2.022  12.945  0.6089  1.1521  2.7237
 1112SOL    HW214799   0.227   1.873  12.933  2.0823  0.5986 -0.5494
 1113SOL     OW14800   1.954   3.411   6.442  0.0504  0.5967  0.1468
 1113SOL    HW114801   2.024   3.349   6.460 -0.5931  0.3739  1.9028
 1113SOL    HW214802   1.916   3.427   6.529 -0.4589  1.2081 -0.1816
 1114SOL     OW14803   1.112   4.537   5.352  0.0035 -0.4485 -0.5547
 1114SOL    HW114804   1.173   4.514   5.422  1.2219  0.9809 -1.1488
 1114SOL    HW214805   1.040   4.566   5.408  2.1033  3.2252  0.2220
 1115SOL     OW14806   2.323   2.080   3.363  0.5404  0.1387  0.0291
 1115SOL    HW114807   2.320   1.992   3.326 -0.5982  0.7659 -1.3176
 1115SOL    HW214808   2.259   2.081   3.435 -0.3877 -1.9861 -0.7856
 1116SOL     OW14809   1.578   0.687   7.043  0.5866 -0.1157  0.0004
 1116SOL    HW114810   1.500   0.652   7.000 -0.4392  2.4983 -0.2538
 1116SOL    HW214811   1.629   0.607   7.031  0.7625  0.5032 -3.4822
 1117SOL     OW14812   1.692   3.707   8.342  0.5591 -0.5921 -0.7266
 1117SOL    HW114813   1.715   3.622   8.304 -1.6391 -0.9674 -1.2274
 1117SOL    HW214814   1.727   3.769   8.278 -1.5312  0.0389 -1.2282
 1118SOL     OW14815   1.491   2.853  10.953  0.3626 -0.6879  0.3023
 1118SOL    HW114816   1.568   2.909  10.946 -1.8513  2.1880 -1.2053
 1118SOL    HW214817   1.421   2.903  10.910  0.3041 -0.9361  0.1066
 1119SOL     OW14818   1.877   1.332   5.621 -0.2373  0.6189 -0.1505
 1119SOL    HW114819   1.861   1.403   5.683 -0.7590  0.0840  0.3225
 1119SOL    HW214820   1.970   1.356   5.611  0.0772  0.2707  1.9614
 1120SOL     OW14821   1.504   2.657   9.545  0.4463 -0.2465 -0.0966
 1120SOL    HW114822   1.598   2.641   9.552  0.5301  0.9817  1.8271
 1120SOL    HW214823   1.475   2.680   9.634 -1.5588 -1.6676 -0.3872
 1121SOL     OW14824   4.215   0.195  16.636  0.1348  0.1712 -0.4355
 1121SOL    HW114825   4.186   0.202  16.545  0.6726  0.6733 -0.5695
 1121SOL    HW214826   4.218   0.285  16.670  0.1339  0.2949 -0.7690
 1122SOL     OW14827   4.311   0.675   2.291 -0.5228 -0.2030  0.5460
 1122SOL    HW114828   4.382   0.703   2.350 -0.6195 -0.8234  0.9524
 1122SOL    HW214829   4.273   0.600   2.336 -0.5303  1.5120  3.4062
 1123SOL     OW14830   3.369   2.289   6.387 -0.1955  0.4893 -0.4970
 1123SOL    HW114831   3.292   2.310   6.333  2.1064  1.2948 -3.4638
 1123SOL    HW214832   3.420   2.232   6.329  0.1840 -1.0619  1.3789
 1124SOL     OW14833   3.122   2.656   2.257 -0.1528  0.4363  0.1212
 1124SOL    HW114834   3.182   2.721   2.220 -0.9178  0.4065 -1.1717
 1124SOL    HW214835   3.169   2.575   2.240 -0.0681  0.6870 -0.8607
 1125SOL     OW14836   1.460   4.530   6.980  0.0754  0.3482  0.5677
 1125SOL    HW114837   1.447   4.540   6.886 -1.9802 -1.5614  0.6519
 1125SOL    HW214838   1.525   4.460   6.986 -0.1276  0.0102 -1.0109
 1126SOL     OW14839   0.524   0.674   6.379 -0.2046  0.1872 -0.0345
 1126SOL    HW114840   0.446   0.625   6.351  0.0234  0.3135 -0.9015
 1126SOL    HW214841   0.566   0.691   6.295  0.5790 -0.6289  0.1932
 1127SOL     OW14842   4.533   4.030   0.136 -0.4107 -0.0524  0.1230
 1127SOL    HW114843   4.473   4.104   0.127 -1.0693 -0.8319 -1.8998
 1127SOL    HW214844   4.592   4.044   0.061  0.5891 -0.4220  0.8406
 1128SOL     OW14845   4.092   2.960   3.321 -0.0261  0.2904 -0.0683
 1128SOL    HW114846   4.123   2.878   3.282 -1.4358  1.0091 -2.7021
 1128SOL    HW214847   4.157   3.023   3.289  0.5889 -0.0549  0.4984
 1129SOL     OW14848   1.297   0.766   6.342 -0.5237 -0.4305  0.2447
 1129SOL    HW114849   1.279   0.852   6.381  2.0917 -0.4918  1.5915
 1129SOL    HW214850   1.239   0.762   6.266 -0.5689  1.0635  0.2018
 1130SOL     OW14851   2.787   4.160   2.377  0.0056 -0.7089 -0.2876
 1130SOL    HW114852   2.825   4.190   2.294  1.4932 -1.6857  0.0535
 1130SOL    HW214853   2.813   4.068   2.375 -0.5499 -0.9281  3.4027
 1131SOL     OW14854   3.372   3.006   7.633  0.1518  0.5213 -0.0479
 1131SOL    HW114855   3.388   2.927   7.685  2.1317 -0.0314 -1.5336
 1131SOL    HW214856   3.409   3.063   7.701  1.4942 -0.9185  0.4387
 1132SOL     OW14857   3.037   3.342   5.143  0.2498 -0.4139  0.4650
 1132SOL    HW114858   2.988   3.325   5.223 -2.1384  0.2613 -0.8603
 1132SOL    HW214859   3.070   3.431   5.152 -2.7478  0.9955 -2.3708
 1133SOL     OW14860   2.585   1.053  11.220  0.2862 -0.1383  0.5340
 1133SOL    HW114861   2.606   1.127  11.277  2.0673 -0.5683  0.4192
 1133SOL    HW214862   2.647   0.987  11.250  1.5436  0.3746 -0.9806
 1134SOL     OW14863   2.759   3.065   4.459  0.2871  0.3022  0.0262
 1134SOL    HW114864   2.721   3.098   4.540 -0.0291  1.3327 -0.5305
 1134SOL    HW214865   2.691   3.088   4.396  0.6814  0.2379 -0.4276
 1135SOL     OW14866   3.042   0.070   5.678  0.0296 -0.4973 -0.8216
 1135SOL    HW114867   3.122   0.120   5.692  0.0501 -1.1740  1.4144
 1135SOL    HW214868   3.022   0.036   5.765 -0.6540  1.6059 -0.1656
 1136SOL     OW14869   4.228   1.555   5.652 -0.3375  0.5301  0.6517
 1136SOL    HW114870   4.152   1.605   5.621  0.0604  1.2563  0.8509
 1136SOL    HW214871   4.284   1.584   5.580 -0.5041  2.0373  1.1230
 1137SOL     OW14872   3.134   3.152   4.626 -0.1084  0.3098  0.1644
 1137SOL    HW114873   3.096   3.119   4.708 -2.1954  0.1312 -0.8671
 1137SOL    HW214874   3.202   3.086   4.610  0.4945  1.2004 -0.9727
 1138SOL     OW14875   2.968   0.373   4.259  0.5506 -0.0615  0.0621
 1138SOL    HW114876   2.995   0.420   4.180 -1.4301  0.5475 -0.2579
 1138SOL    HW214877   2.985   0.282   4.237  0.7066  0.2864 -1.2127
 1139SOL     OW14878   0.771   1.875  13.863  0.1041  0.4770 -0.0902
 1139SOL    HW114879   0.795   1.842  13.950  0.3592  3.2554  0.9042
 1139SOL    HW214880   0.838   1.825  13.817 -1.6394 -2.0187  0.0610
 1140SOL     OW14881   0.670   2.814   8.655 -0.2172  0.9408 -0.4154
 1140SOL    HW114882   0.734   2.749   8.683 -0.4942  1.3802  1.2468
 1140SOL    HW214883   0.590   2.773   8.690 -0.2791  2.3259  1.0750
 1141SOL     OW14884   1.018   1.466   1.792 -0.5575  0.0856  0.5436
 1141SOL    HW114885   1.030   1.450   1.698  0.9586 -0.4084  0.8287
 1141SOL    HW214886   0.933   1.509   1.801  0.4755  2.3022 -0.2239
 1142SOL     OW14887   3.249   4.623   3.647 -0.6516  0.0018 -0.3525
 1142SOL    HW114888   3.314   4.567   3.605 -2.4451 -2.5369  0.2827
 1142SOL    HW214889   3.216   4.669   3.570 -0.8105  0.9582  0.2814
 1143SOL     OW14890   0.760   2.563   6.131 -0.1509  0.0987 -0.3167
 1143SOL    HW114891   0.753   2.582   6.224 -1.3083 -1.0192 -0.1831
 1143SOL    HW214892   0.673   2.524   6.134 -0.9991  2.0328  0.0618
 1144SOL     OW14893   0.405   2.651   4.668 -1.0280  0.1248 -0.3422
 1144SOL    HW114894   0.430   2.706   4.742 -0.4084 -1.2555  0.4746
 1144SOL    HW214895   0.439   2.569   4.704  0.3191 -0.3133 -2.5837
 1145SOL     OW14896   1.544   4.671   0.075 -0.7890  0.6314  0.0565
 1145SOL    HW114897   1.492   4.724   0.014  1.8116  1.3831 -1.4968
 1145SOL    HW214898   1.488   4.594   0.087  1.6120 -0.9878  0.7809
 1146SOL     OW14899   1.045   1.058   5.595  0.0311  0.1052 -0.2373
 1146SOL    HW114900   1.084   1.068   5.509 -1.0162  0.3121 -0.6840
 1146SOL    HW214901   1.122   1.088   5.645  0.2446 -0.6761 -0.0990
 1147SOL     OW14902   1.564   4.107   6.818  0.0811 -0.1656 -0.1966
 1147SOL    HW114903   1.505   4.168   6.775  0.9764  1.1447  0.4526
 1147SOL    HW214904   1.636   4.139   6.765  0.0950 -1.4124 -0.9406
 1148SOL     OW14905   2.614   1.180   5.934 -0.1777 -0.1655 -0.1440
 1148SOL    HW114906   2.555   1.104   5.934 -0.6685  0.2145 -0.2429
 1148SOL    HW214907   2.657   1.172   6.019  0.1994 -3.3338 -0.6187
 1149SOL     OW14908   4.186   1.216  15.153  0.2774 -0.0119 -0.4773
 1149SOL    HW114909   4.197   1.123  15.173  1.0029 -0.1971 -1.7458
 1149SOL    HW214910   4.239   1.235  15.076  0.0819  2.2655 -0.0445
 1150SOL     OW14911   0.288   2.833  16.931 -0.6593  0.6306 -0.4183
 1150SOL    HW114912   0.222   2.881  16.882 -1.1323  1.2377  0.7944
 1150SOL    HW214913   0.287   2.881  17.014  1.4795 -0.5843  0.3330
 1151SOL     OW14914   3.378   1.443  12.253 -0.1368  0.2227 -0.0187
 1151SOL    HW114915   3.299   1.476  12.210  1.3531  1.6601 -1.6347
 1151SOL    HW214916   3.350   1.423  12.342  0.4508  0.3780  0.1999
 1152SOL     OW14917   0.554   3.788   2.992 -0.3818  0.1648 -0.0833
 1152SOL    HW114918   0.582   3.697   3.003  1.0093  0.5020 -0.7792
 1152SOL    HW214919   0.470   3.787   3.038  0.7576 -2.8995  1.9452
 1153SOL     OW14920   1.041   3.258   5.083  0.2509  0.3171 -0.3033
 1153SOL    HW114921   0.997   3.286   5.163 -0.8872 -2.1316 -0.0484
 1153SOL    HW214922   1.087   3.339   5.062  2.9457 -0.4107  2.7435
 1154SOL     OW14923   0.525   3.375   8.426 -0.1867  0.7760 -0.4508
 1154SOL    HW114924   0.585   3.331   8.486  1.1582  1.8795 -0.9817
 1154SOL    HW214925   0.581   3.370   8.349 -0.6675 -0.0112 -0.7472
 1155SOL     OW14926   3.886   0.197   7.253  0.0952  0.4357  0.2285
 1155SOL    HW114927   3.862   0.154   7.171 -1.1249 -0.8721  1.2841
 1155SOL    HW214928   3.802   0.233   7.277  0.6376  1.0942  1.1172
 1156SOL     OW14929   0.983   4.021   3.357 -0.0622  0.1219  0.5392
 1156SOL    HW114930   0.948   4.003   3.270  0.5550  1.0437  0.0896
 1156SOL    HW214931   0.907   4.014   3.415 -1.1318 -1.7368 -1.1177
 1157SOL     OW14932   3.611   2.303   4.665  0.1488  0.0123  0.1612
 1157SOL    HW114933   3.570   2.241   4.606 -0.5823  2.0781 -1.4911
 1157SOL    HW214934   3.544   2.371   4.678  1.5290  0.8595  3.0002
 1158SOL     OW14935   4.521   4.196   6.194  0.1907 -0.2960  0.5338
 1158SOL    HW114936   4.544   4.197   6.102 -1.0427 -1.7191  0.2213
 1158SOL    HW214937   4.586   4.256   6.232 -0.3863  0.8262 -0.2369
 1159SOL     OW14938   4.323   4.408   1.051 -0.3249 -0.1489  0.3461
 1159SOL    HW114939   4.312   4.374   1.140 -1.5568 -0.3492  0.1127
 1159SOL    HW214940   4.418   4.398   1.037 -0.1060  0.1902  1.5931
 1160SOL     OW14941   4.421   4.004   5.358 -0.2063 -0.3905 -0.5591
 1160SOL    HW114942   4.422   3.917   5.316  0.9471 -0.7193  0.1549
 1160SOL    HW214943   4.508   3.999   5.397  0.0225  3.7953 -0.6133
 1161SOL     OW14944   2.045   3.148   1.145 -0.0037 -0.1070 -0.4671
 1161SOL    HW114945   2.040   3.222   1.206 -0.4130 -1.2624  0.8948
 1161SOL    HW214946   2.047   3.193   1.060  0.2542  1.0435  0.1453
 1162SOL     OW14947   0.993   1.130   4.018 -0.8155 -0.0314 -0.2956
 1162SOL    HW114948   0.942   1.143   3.939  2.9141  3.5754 -2.1295
 1162SOL    HW214949   1.030   1.218   4.029  1.3285 -0.7458 -1.7113
 1163SOL     OW14950   4.290   0.468  10.170 -0.4112  0.2722 -0.3566
 1163SOL    HW114951   4.202   0.501  10.185  0.1482  0.6052  2.1963
 1163SOL    HW214952   4.284   0.418  10.088 -1.5980 -1.5034  0.8208
 1164SOL     OW14953   4.686   4.499  14.700  0.1526 -0.2685 -0.2369
 1164SOL    HW114954   0.037   4.500  14.760 -0.1352  0.4405  0.1111
 1164SOL    HW214955   0.008   4.524  14.620 -1.1153 -0.2823 -0.9637
 1165SOL     OW14956   4.383   0.343   3.584 -0.1152 -0.0228  0.3498
 1165SOL    HW114957   4.396   0.270   3.524  0.7432  0.7490 -0.4084
 1165SOL    HW214958   4.461   0.324   3.636  0.6565 -0.7798 -1.0848
 1166SOL     OW14959   0.689   3.283   9.281  0.1141 -0.3551  0.0182
 1166SOL    HW114960   0.618   3.309   9.340  2.5657  2.7012  1.6102
 1166SOL    HW214961   0.771   3.284   9.330  0.2816 -3.1348 -0.2150
 1167SOL     OW14962   1.276   0.278   6.150 -0.1836  0.3700 -0.2770
 1167SOL    HW114963   1.191   0.275   6.194  0.2425  1.0088  0.6073
 1167SOL    HW214964   1.324   0.208   6.195  0.6701  0.7911 -0.5342
 1168SOL     OW14965   2.043   0.992   3.520 -0.1688  0.6097 -0.1694
 1168SOL    HW114966   2.135   1.018   3.531 -0.4855  1.6277  0.0427
 1168SOL    HW214967   2.044   0.975   3.426  1.0488  1.4219 -0.3141
 1169SOL     OW14968   0.268   3.424   0.294  0.4519 -0.2736  0.4091
 1169SOL    HW114969   0.191   3.480   0.298 -0.2251 -1.3362  2.3591
 1169SOL    HW214970   0.274   3.403   0.201 -0.5145 -0.5005  0.3963
 1170SOL     OW14971   2.381   3.957   9.988 -0.2314  0.1401  0.5186
 1170SOL    HW114972   2.377   4.052   9.974 -0.4431  0.2019  1.0066
 1170SOL    HW214973   2.455   3.947  10.047  0.7649 -0.4987 -0.8403
 1171SOL     OW14974   1.487   0.049  13.899  0.5786 -0.9589 -0.6412
 1171SOL    HW114975   1.509   4.715  13.972 -0.5334  0.0236  0.4649
 1171SOL    HW214976   1.391   0.043  13.897  0.5521  0.3894 -3.2185
 1172SOL     OW14977   3.794   0.758   7.194 -0.3304  0.4233 -0.3120
 1172SOL    HW114978   3.794   0.675   7.146  0.5888 -0.8323  1.8525
 1172SOL    HW214979   3.703   0.784   7.204 -0.0980  2.5834 -3.6256
 1173SOL     OW14980   1.238   0.977   1.797  0.1331 -0.0136 -0.4208
 1173SOL    HW114981   1.209   0.897   1.842 -1.5578  0.5325 -0.5591
 1173SOL    HW214982   1.249   1.034   1.874  1.7039  0.8490 -1.2729
 1174SOL     OW14983   2.353   4.652   8.377 -0.6228 -0.0177  0.2493
 1174SOL    HW114984   2.272   4.641   8.328  0.2290  2.6822 -1.7635
 1174SOL    HW214985   2.349   4.583   8.443  0.4248 -1.1000 -0.8063
 1175SOL     OW14986   3.868   4.587  12.697  0.2447  0.3023  0.1996
 1175SOL    HW114987   3.897   4.675  12.673 -1.0432  0.4930 -0.6644
 1175SOL    HW214988   3.938   4.533  12.661 -1.6941 -2.8763  1.1783
 1176SOL     OW14989   2.996   1.332   2.115  0.5644  0.1200 -0.0813
 1176SOL    HW114990   3.020   1.297   2.029  0.7459 -1.6628  0.6883
 1176SOL    HW214991   2.929   1.395   2.090  0.9482 -0.0777 -1.6160
 1177SOL     OW14992   3.676   2.766   7.830  0.0061  0.0956 -0.0383
 1177SOL    HW114993   3.717   2.827   7.892 -0.2048  0.2426 -0.0435
 1177SOL    HW214994   3.746   2.702   7.819 -1.5519 -1.3902 -1.2611
 1178SOL     OW14995   0.060   2.422   2.707  0.0627 -0.1347  0.4500
 1178SOL    HW114996   0.093   2.512   2.701 -2.4234  0.8133  0.9770
 1178SOL    HW214997   0.140   2.370   2.720 -1.4693 -2.8038 -0.8098
 1179SOL     OW14998   1.811   0.724   6.159  0.2940  0.1493 -0.2602
 1179SOL    HW114999   1.719   0.735   6.136  0.3238 -1.6559 -1.3006
 1179SOL    HW215000   1.846   0.721   6.070  0.1302  0.6026 -0.3368
 1180SOL     OW15001   0.592   2.375  17.692 -0.4980 -0.6338  0.5880
 1180SOL    HW115002   0.590   2.359   0.089 -0.1535  1.0126  0.8752
 1180SOL    HW215003   0.574   2.286  17.663  0.8803 -0.4020 -0.9632
 1181SOL     OW15004   2.515   1.670   2.291  0.3205  0.1358  0.0786
 1181SOL    HW115005   2.423   1.645   2.280  0.7362 -1.8660  1.0723
 1181SOL    HW215006   2.547   1.711   2.211  2.0101  1.8790  1.6361
 1182SOL     OW15007   2.596   4.546  12.631 -0.6329  0.0883  0.2014
 1182SOL    HW115008   2.615   4.621  12.574 -0.4854 -0.8758 -1.0359
 1182SOL    HW215009   2.505   4.566  12.650 -0.3233 -0.1130  1.8902
 1183SOL     OW15010   0.385   3.326  13.829 -0.7693 -0.1184 -0.2777
 1183SOL    HW115011   0.368   3.308  13.737  0.3335  0.6859 -0.6305
 1183SOL    HW215012   0.451   3.396  13.824  0.4220 -1.1619  0.7291
 1184SOL     OW15013   3.209   2.243   9.109  0.3950  0.1425  0.2067
 1184SOL    HW115014   3.183   2.245   9.201  1.8021 -2.7412  0.6723
 1184SOL    HW215015   3.303   2.260   9.110  0.7570 -2.0857  2.7952
 1185SOL     OW15016   3.207   2.949   9.880  0.6828  1.1131  0.5901
 1185SOL    HW115017   3.115   2.925   9.894  1.2862 -0.6269  1.5555
 1185SOL    HW215018   3.200   3.013   9.809 -0.6680  1.4807  1.0627
 1186SOL     OW15019   0.146   3.441  15.990  0.3518 -0.0542 -0.0579
 1186SOL    HW115020   0.232   3.480  15.974 -0.0444  0.1209 -1.7514
 1186SOL    HW215021   0.132   3.401  15.904  2.1132  0.3886 -0.5618
 1187SOL     OW15022   2.479   0.656   4.967 -0.6812 -0.0286  0.1567
 1187SOL    HW115023   2.430   0.651   5.049  0.3342 -3.1754  0.5817
 1187SOL    HW215024   2.507   0.746   4.980  0.6924 -0.1393 -1.9555
 1188SOL     OW15025   3.480   3.597   2.326 -0.6262 -0.3215  0.0060
 1188SOL    HW115026   3.524   3.615   2.243 -0.0715 -0.5829  0.2475
 1188SOL    HW215027   3.477   3.502   2.316 -1.0314 -0.2030 -0.9997
 1189SOL     OW15028   2.384   2.642   1.765 -0.8444  0.0248  0.6220
 1189SOL    HW115029   2.298   2.635   1.724 -0.4967  3.6922 -0.7445
 1189SOL    HW215030   2.416   2.554   1.746 -1.1173  0.1797 -0.5796
 1190SOL     OW15031   1.001   0.352   7.713  0.4575  0.0264  0.4972
 1190SOL    HW115032   1.063   0.426   7.710 -0.9790  1.1743 -0.6453
 1190SOL    HW215033   1.028   0.303   7.791  0.5353 -1.6922 -0.6207
 1191SOL     OW15034   3.467   0.895   2.439  0.4356 -0.2572  0.7524
 1191SOL    HW115035   3.400   0.944   2.392  2.5432  2.3035  0.3801
 1191SOL    HW215036   3.510   0.849   2.367 -0.3145 -0.1483  0.2408
 1192SOL     OW15037   4.054   4.396   9.981 -0.1870 -0.0639  0.2156
 1192SOL    HW115038   4.037   4.333   9.911  1.5763  1.0022 -1.1825
 1192SOL    HW215039   4.148   4.407   9.968 -0.2401 -0.1706 -0.2502
 1193SOL     OW15040   2.581   4.529   3.245 -0.3316  0.1509 -0.3075
 1193SOL    HW115041   2.629   4.507   3.166  1.4507  1.2251  0.4780
 1193SOL    HW215042   2.558   4.622   3.233 -3.0774 -0.2902  1.5251
 1194SOL     OW15043   0.296   3.556  17.302  1.1353 -0.3550 -0.1062
 1194SOL    HW115044   0.308   3.465  17.329 -1.4115 -0.2959  1.1690
 1194SOL    HW215045   0.288   3.591  17.390  0.0874  0.0630 -0.3664
 1195SOL     OW15046   0.229   2.374   6.672 -0.1867 -0.5494  0.1130
 1195SOL    HW115047   0.140   2.409   6.676  0.3873  0.7635  1.7993
 1195SOL    HW215048   0.229   2.332   6.759 -3.3337  0.4990  0.6262
 1196SOL     OW15049   2.810   2.009   6.236  0.2371 -0.4211 -0.1498
 1196SOL    HW115050   2.790   2.056   6.155  0.7756  1.6031  0.8919
 1196SOL    HW215051   2.904   1.995   6.230  0.1651 -0.2201 -1.9274
 1197SOL     OW15052   2.594   1.123  16.342  0.6061  0.3052 -0.8729
 1197SOL    HW115053   2.620   1.188  16.406 -0.7478  0.2864 -0.3019
 1197SOL    HW215054   2.512   1.099  16.385  1.2541 -0.7704 -0.2362
 1198SOL     OW15055   3.730   1.798  15.350 -0.4292  0.0564  0.8054
 1198SOL    HW115056   3.669   1.863  15.387  1.0885  2.6079 -1.1626
 1198SOL    HW215057   3.811   1.846  15.331  0.6219 -1.7032  0.9019
 1199SOL     OW15058   0.424   3.512  15.894 -0.6780 -0.1680 -0.3698
 1199SOL    HW115059   0.385   3.425  15.902  0.7780 -0.8830 -1.0956
 1199SOL    HW215060   0.508   3.480  15.926 -1.3737 -1.8736 -0.2260
 1200SOL     OW15061   3.341   1.402  15.344 -0.2095 -0.0845  0.0969
 1200SOL    HW115062   3.341   1.473  15.280  0.5825 -0.2811 -0.1166
 1200SOL    HW215063   3.415   1.430  15.398 -0.1393  0.4550 -0.2835
 1201SOL     OW15064   1.544   2.914   7.091  0.0413 -0.5159 -0.7927
 1201SOL    HW115065   1.600   2.846   7.128 -1.0293 -1.5033 -0.9825
 1201SOL    HW215066   1.500   2.944   7.171  3.3052  3.4630 -0.5045
 1202SOL     OW15067   3.001   0.039   3.681 -0.3536  0.2883 -0.0750
 1202SOL    HW115068   3.027   0.130   3.664  0.1613  0.3015  0.8128
 1202SOL    HW215069   3.081   0.012   3.725 -0.4889 -0.5509 -0.3353
 1203SOL     OW15070   1.242   2.930  11.337  0.0125 -0.0715 -0.4898
 1203SOL    HW115071   1.307   2.944  11.406 -0.5025 -0.4869  0.0732
 1203SOL    HW215072   1.188   3.008  11.349  0.9751  0.7112 -1.2612
 1204SOL     OW15073   1.558   3.058   7.680 -0.3589 -0.7121 -0.5849
 1204SOL    HW115074   1.566   3.041   7.586  0.8860 -2.4235 -0.1720
 1204SOL    HW215075   1.612   2.986   7.713  0.5420  0.0546 -0.4062
 1205SOL     OW15076   1.617   2.401   4.718 -0.2954  0.5620  0.3798
 1205SOL    HW115077   1.703   2.362   4.702 -0.4261  0.4971 -0.1599
 1205SOL    HW215078   1.551   2.338   4.688  0.5512 -0.6377  1.0101
 1206SOL     OW15079   0.969   0.640  16.972 -0.4871 -0.1895 -0.0173
 1206SOL    HW115080   1.046   0.691  16.948 -0.5830  0.4228  1.0118
 1206SOL    HW215081   0.893   0.691  16.944 -1.1374 -0.7788  0.6857
 1207SOL     OW15082   4.466   3.855   1.887  0.3582  0.5557 -0.1871
 1207SOL    HW115083   4.419   3.915   1.945 -0.1231  2.2961 -2.3699
 1207SOL    HW215084   4.486   3.777   1.938  0.6565 -0.0106 -1.1542
 1208SOL     OW15085   1.244   0.037  10.081  0.7355  0.2432 -0.2819
 1208SOL    HW115086   1.170   0.097  10.095  0.2281 -0.4347 -0.0494
 1208SOL    HW215087   1.319   0.093  10.098 -0.4882  1.9105 -0.3261
 1209SOL     OW15088   3.439   0.114   6.025 -0.1431  0.2080 -0.0138
 1209SOL    HW115089   3.520   0.163   6.033  1.6952 -2.5690 -1.2674
 1209SOL    HW215090   3.418   0.080   6.112  0.6568 -0.2856 -0.0122
 1210SOL     OW15091   3.125   3.470   0.086  0.1959  0.3474 -0.1173
 1210SOL    HW115092   3.047   3.442   0.134  0.0183 -0.5965 -0.9586
 1210SOL    HW215093   3.127   3.566   0.086  0.2000  0.3471  2.7611
 1211SOL     OW15094   1.901   1.631   1.269  0.6199  0.0670  0.0883
 1211SOL    HW115095   1.879   1.539   1.259 -1.7764  0.4803  1.5882
 1211SOL    HW215096   1.865   1.667   1.189 -0.7073  0.9578  1.0830
 1212SOL     OW15097   0.565   2.918   7.788 -0.3535 -0.4469  0.7174
 1212SOL    HW115098   0.617   2.843   7.817  2.2251  0.7309 -0.8493
 1212SOL    HW215099   0.619   2.989   7.823  1.5824 -1.1158 -0.9212
 1213SOL     OW15100   0.943   3.267   7.153 -0.8293  0.2674 -0.4376
 1213SOL    HW115101   0.946   3.278   7.248 -0.4362  2.0208 -0.6549
 1213SOL    HW215102   0.948   3.172   7.158 -1.3233  0.3389  1.6371
 1214SOL     OW15103   1.897   4.096  11.602 -0.1441 -0.7861  0.3675
 1214SOL    HW115104   1.855   4.014  11.627 -1.0049 -0.6350 -0.5678
 1214SOL    HW215105   1.980   4.055  11.577  0.0599 -1.5605  2.2862
 1215SOL     OW15106   4.277   2.456   8.201 -0.4851 -0.0477  0.6085
 1215SOL    HW115107   4.251   2.503   8.280  1.3136 -1.2212  1.8807
 1215SOL    HW215108   4.369   2.480   8.191 -0.2185  0.1054  3.3623
 1216SOL     OW15109   2.284   3.537   1.808  0.1616 -0.0874 -0.0343
 1216SOL    HW115110   2.303   3.560   1.717 -2.3347 -0.7695 -0.7260
 1216SOL    HW215111   2.295   3.621   1.853  1.3785  0.2192 -0.9005
 1217SOL     OW15112   4.048   2.898   3.582 -0.6531  0.0532  0.5019
 1217SOL    HW115113   4.025   2.805   3.576 -1.5432  0.2271  1.1435
 1217SOL    HW215114   4.052   2.920   3.489  0.7766  0.8044  0.7450
 1218SOL     OW15115   2.962   0.048   2.151  0.2107 -0.1636  0.2598
 1218SOL    HW115116   2.954   0.132   2.196  0.6351  0.5631 -1.0408
 1218SOL    HW215117   3.056   0.029   2.160  0.1187 -0.7267  0.0369
 1219SOL     OW15118   3.494   0.587   3.654 -0.1807  0.2321 -0.0228
 1219SOL    HW115119   3.498   0.520   3.722 -3.3140 -1.0237 -1.0831
 1219SOL    HW215120   3.538   0.543   3.581  1.2630 -0.1409  1.0861
 1220SOL     OW15121   0.865   1.228   9.054  0.7688 -0.2203 -0.0447
 1220SOL    HW115122   0.839   1.229   8.962  0.7630 -1.5407 -0.0522
 1220SOL    HW215123   0.903   1.315   9.049  0.7408 -0.1712  0.7013
 1221SOL     OW15124   1.875   1.365   1.894 -0.4631  0.0993 -0.2629
 1221SOL    HW115125   1.848   1.324   1.976  1.3004  0.0974  0.3020
 1221SOL    HW215126   1.828   1.313   1.828 -1.0348  2.5836 -1.8419
 1222SOL     OW15127   0.117   3.909   4.690  0.2098 -0.0039  0.2937
 1222SOL    HW115128   0.070   3.972   4.635  2.1217 -0.0421 -1.3742
 1222SOL    HW215129   0.042   3.856   4.716 -1.3071  1.8692 -0.2032
 1223SOL     OW15130   2.728   4.522  13.628 -0.2629  0.0346 -0.0714
 1223SOL    HW115131   2.811   4.567  13.613  0.1976 -0.5786  0.6869
 1223SOL    HW215132   2.721   4.455  13.560 -0.7188 -0.6736  0.6867
 1224SOL     OW15133   4.634   4.170  16.101  0.5575 -0.0205  0.6567
 1224SOL    HW115134   4.563   4.193  16.040  1.7682  1.8720 -0.0633
 1224SOL    HW215135   4.707   4.147  16.043  2.0682  0.7656  2.2463
 1225SOL     OW15136   3.040   2.448   9.770  0.5955 -0.1007 -0.6561
 1225SOL    HW115137   3.117   2.416   9.816 -0.7363  1.5663  2.7149
 1225SOL    HW215138   3.077   2.450   9.681  1.9290  2.1851 -0.0498
 1226SOL     OW15139   4.603   3.337   2.883  0.8002 -0.6324 -0.1786
 1226SOL    HW115140   4.648   3.341   2.799  1.0261  0.5159 -0.0095
 1226SOL    HW215141   4.526   3.391   2.864  0.4465 -1.0723  0.0086
 1227SOL     OW15142   4.696   4.243   2.603  0.4126 -0.1510 -0.1211
 1227SOL    HW115143   4.646   4.304   2.548 -0.3906 -1.4198 -0.7841
 1227SOL    HW215144   0.063   4.256   2.575 -0.1327  3.8961 -0.0397
 1228SOL     OW15145   2.571   4.353   7.507  0.5436 -0.2421 -0.0020
 1228SOL    HW115146   2.548   4.281   7.566  1.5348  0.0074  0.6966
 1228SOL    HW215147   2.588   4.424   7.569 -1.0398 -1.1552  1.4741
 1229SOL     OW15148   0.659   4.443   0.207 -0.2316 -0.0488  0.0629
 1229SOL    HW115149   0.698   4.527   0.231 -0.7249 -0.4031  2.1926
 1229SOL    HW215150   0.699   4.428   0.122 -0.7544  2.2378 -0.5635
 1230SOL     OW15151   2.483   4.223  11.450  0.4512 -0.1476 -0.3368
 1230SOL    HW115152   2.457   4.138  11.414  1.8130 -1.4271  1.7629
 1230SOL    HW215153   2.499   4.268  11.367 -1.5693 -0.9670 -1.1618
 1231SOL     OW15154   0.540   0.128   7.214  0.0442 -0.2931  0.8689
 1231SOL    HW115155   0.587   0.134   7.130  1.4751  0.6945  1.7384
 1231SOL    HW215156   0.518   0.035   7.227  0.0930 -0.3072  0.8536
 1232SOL     OW15157   3.708   1.561   4.849 -0.2455 -0.6939  0.0694
 1232SOL    HW115158   3.801   1.568   4.825 -1.2639 -0.5326 -3.7197
 1232SOL    HW215159   3.683   1.478   4.811 -1.1285  0.5990 -2.1501
 1233SOL     OW15160   3.765   0.776   8.389 -0.0103 -0.0224  0.3444
 1233SOL    HW115161   3.713   0.706   8.427 -1.2546  2.2927  2.9505
 1233SOL    HW215162   3.795   0.737   8.307 -1.6023 -1.1253  0.2942
 1234SOL     OW15163   1.991   4.208   4.087 -0.0694  0.4763  0.7178
 1234SOL    HW115164   2.008   4.154   4.165 -0.0560  0.2875  0.5856
 1234SOL    HW215165   2.068   4.178   4.040 -1.7175 -0.2316 -1.5076
 1235SOL     OW15166   0.296   2.591  16.702 -0.2152  0.3654 -0.7914
 1235SOL    HW115167   0.379   2.629  16.730 -0.6864  0.6645  0.1786
 1235SOL    HW215168   0.244   2.585  16.782  0.2773  3.2945 -0.2510
 1236SOL     OW15169   0.863   0.442   3.347 -0.0247  0.1128 -0.3959
 1236SOL    HW115170   0.933   0.435   3.282 -2.8237 -0.7129 -3.3058
 1236SOL    HW215171   0.889   0.529   3.376  0.0368 -0.0994  0.1792
 1237SOL     OW15172   1.869   0.517  12.729 -0.1061 -0.4343  0.0698
 1237SOL    HW115173   1.926   0.457  12.681 -0.4083 -0.3867 -0.3451
 1237SOL    HW215174   1.847   0.464  12.806 -0.7251 -1.2438 -0.6626
 1238SOL     OW15175   1.812   4.535   6.848  0.3851  0.1680  0.2314
 1238SOL    HW115176   1.863   4.558   6.926  0.9150  0.1717 -0.1130
 1238SOL    HW215177   1.765   4.615   6.826  1.0835  0.7200  0.7264
 1239SOL     OW15178   1.181   4.497   3.860  0.1030 -0.3059 -0.1807
 1239SOL    HW115179   1.248   4.473   3.796  0.2944 -0.6578  0.1426
 1239SOL    HW215180   1.192   4.592   3.863 -1.2152 -0.1491 -0.4897
 1240SOL     OW15181   2.998   0.777  14.499  0.6995 -0.0211 -0.0409
 1240SOL    HW115182   3.040   0.697  14.468  0.8086 -1.0143  2.6315
 1240SOL    HW215183   2.986   0.831  14.421 -0.5607 -1.7335 -1.0258
 1241SOL     OW15184   1.349   2.543  15.959  0.4081 -0.7148  0.0304
 1241SOL    HW115185   1.339   2.519  15.867  0.1892  0.8756 -0.3634
 1241SOL    HW215186   1.398   2.624  15.949 -1.8419  0.5564 -0.7329
 1242SOL     OW15187   3.670   2.358   8.376  0.0854 -0.6022  0.2698
 1242SOL    HW115188   3.666   2.386   8.284  0.0314 -0.0557  0.4429
 1242SOL    HW215189   3.661   2.263   8.368  0.6313 -0.5250 -1.4006
 1243SOL     OW15190   3.917   1.547  10.008  0.4550  0.3750 -0.1161
 1243SOL    HW115191   3.979   1.620   9.999 -0.2737  0.9390 -0.5625
 1243SOL    HW215192   3.925   1.507   9.922 -1.8305 -0.5363  0.1010
 1244SOL     OW15193   1.592   1.148  16.824  0.3831  0.2821  0.3338
 1244SOL    HW115194   1.586   1.175  16.916 -1.6605 -1.5457  0.7571
 1244SOL    HW215195   1.590   1.052  16.827 -0.4094  0.2899  0.2369
 1245SOL     OW15196   0.119   4.384   7.095  0.3605 -0.3443 -0.4439
 1245SOL    HW115197   0.208   4.410   7.071  0.3771 -0.1122 -0.1270
 1245SOL    HW215198   0.090   4.346   7.012 -2.8927 -2.2971  1.6195
 1246SOL     OW15199   3.874   3.398   4.789  0.2458 -0.1971 -0.0922
 1246SOL    HW115200   3.863   3.489   4.817 -0.6893 -0.8299  1.6124
 1246SOL    HW215201   3.785   3.367   4.806  0.4432 -1.5369 -1.5455
 1247SOL     OW15202   1.817   0.945   4.003  0.1898  0.5800 -0.2433
 1247SOL    HW115203   1.748   0.879   4.009  0.9818 -0.2593 -0.4962
 1247SOL    HW215204   1.822   0.967   4.096  1.1184 -0.8724  0.0482
 1248SOL     OW15205   2.087   3.122  10.991 -0.7448  0.3854  0.2911
 1248SOL    HW115206   2.019   3.172  11.035  0.0077  1.8342 -0.2112
 1248SOL    HW215207   2.028   3.074  10.934 -0.7482  2.7529 -1.6897
 1249SOL     OW15208   3.086   2.970  16.241  0.0231 -0.0073  0.4578
 1249SOL    HW115209   2.999   2.988  16.275  1.0290  1.8072  2.1011
 1249SOL    HW215210   3.087   3.018  16.158 -1.5670 -4.0566 -1.8704
 1250SOL     OW15211   1.471   1.458  16.637  0.3585  0.1750  0.3243
 1250SOL    HW115212   1.500   1.482  16.725  0.7486  1.5123 -0.1732
 1250SOL    HW215213   1.489   1.535  16.584 -6.2393  1.1677 -0.3820
 1251SOL     OW15214   0.413   1.813  14.271 -0.2335  0.1505 -0.1138
 1251SOL    HW115215   0.372   1.892  14.306 -0.1538 -0.9627  2.4845
 1251SOL    HW215216   0.451   1.865  14.200  1.3230 -0.6575  0.1275
 1252SOL     OW15217   4.121   3.131   7.255 -0.2163 -0.1773 -0.0620
 1252SOL    HW115218   4.203   3.159   7.215  0.6824 -0.7161  1.3912
 1252SOL    HW215219   4.142   3.038   7.249  0.1449 -0.0131 -1.2871
 1253SOL     OW15220   2.792   2.501   7.057  0.1880 -0.2858  0.2491
 1253SOL    HW115221   2.863   2.473   7.114 -0.4266  2.6054  2.4298
 1253SOL    HW215222   2.756   2.561   7.122 -1.7091 -1.4196  0.2781
 1254SOL     OW15223   1.999   1.657  12.879 -0.8602  0.0144  0.0602
 1254SOL    HW115224   1.937   1.701  12.937  0.7402  0.0230  1.7483
 1254SOL    HW215225   1.933   1.608  12.830  0.6125 -1.8254 -0.0679
 1255SOL     OW15226   2.971   1.844  12.624  0.5411 -0.2793 -0.0445
 1255SOL    HW115227   2.958   1.874  12.534 -0.6258  0.7318  0.4568
 1255SOL    HW215228   2.946   1.923  12.672 -0.6860 -0.9808  0.4833
 1256SOL     OW15229   4.052   0.609  10.186  0.1347  0.5228 -0.0215
 1256SOL    HW115230   4.028   0.681  10.243 -0.0327 -0.4687  1.1591
 1256SOL    HW215231   3.965   0.572  10.171 -0.1492  1.0688  0.2626
 1257SOL     OW15232   1.040   3.898  10.147  0.1849 -0.7641 -0.0712
 1257SOL    HW115233   1.027   3.819  10.199 -1.1972  0.8135  2.0110
 1257SOL    HW215234   0.997   3.865  10.068 -2.5272  2.3810  0.0754
 1258SOL     OW15235   4.364   1.805   3.627  0.0617 -0.2311 -0.4834
 1258SOL    HW115236   4.438   1.745   3.620  1.1412  1.0336  0.0104
 1258SOL    HW215237   4.374   1.829   3.720  0.1622 -0.7706 -0.3569
 1259SOL     OW15238   3.151   4.428  13.517  0.2848 -0.0007  0.1120
 1259SOL    HW115239   3.074   4.372  13.508  0.8523 -0.4295 -2.1808
 1259SOL    HW215240   3.108   4.514  13.525 -0.6316  0.0228 -4.4655
 1260SOL     OW15241   2.194   3.193   8.251  0.2238  0.3468  0.1710
 1260SOL    HW115242   2.262   3.202   8.185  1.8885 -1.0802  1.6944
 1260SOL    HW215243   2.175   3.283   8.277  1.6751  0.7150 -0.0663
 1261SOL     OW15244   3.361   0.114   0.352  0.3192  0.1781 -0.2942
 1261SOL    HW115245   3.360   0.024   0.384  0.6023 -0.0050 -0.8067
 1261SOL    HW215246   3.272   0.137   0.378  0.7507 -0.8663  2.1748
 1262SOL     OW15247   4.724   3.619   5.478  0.2908 -0.2336 -0.3042
 1262SOL    HW115248   0.069   3.602   5.414  0.6279  0.3833 -0.1041
 1262SOL    HW215249   4.693   3.528   5.483 -1.1148  0.4401  3.3382
 1263SOL     OW15250   3.558   1.465   3.174  0.1831 -0.0579 -0.7080
 1263SOL    HW115251   3.533   1.547   3.131 -3.3688 -1.7319 -1.8158
 1263SOL    HW215252   3.644   1.448   3.136  0.6130  0.3776  0.0595
 1264SOL     OW15253   1.243   0.418  11.866  0.7179 -0.1220 -0.1966
 1264SOL    HW115254   1.229   0.400  11.773  0.1485  0.9167 -0.3123
 1264SOL    HW215255   1.158   0.399  11.904  1.0560 -0.0262  0.5970
 1265SOL     OW15256   2.715   3.558   0.685 -0.3084 -0.4898  0.1917
 1265SOL    HW115257   2.677   3.512   0.760 -0.1989 -1.2432 -0.2182
 1265SOL    HW215258   2.644   3.550   0.621  0.4126 -2.6880 -0.3224
 1266SOL     OW15259   1.496   4.716   5.055  0.4895 -0.2315 -0.1552
 1266SOL    HW115260   1.543   4.646   5.009 -1.2702 -1.9800  0.7061
 1266SOL    HW215261   1.544   0.004   5.137  0.0333 -0.8015  0.1910
 1267SOL     OW15262   0.987   3.528   6.556  0.0813 -0.4717 -0.1104
 1267SOL    HW115263   1.034   3.445   6.562 -1.4024 -1.4293 -1.5230
 1267SOL    HW215264   0.897   3.494   6.554 -0.1783  0.2502 -0.6450
 1268SOL     OW15265   3.256   3.368  10.374 -0.0926  0.1456  0.8630
 1268SOL    HW115266   3.345   3.339  10.395 -0.2668  0.2354  1.6976
 1268SOL    HW215267   3.210   3.313  10.437  1.3547 -0.0651  1.7399
 1269SOL     OW15268   0.087   2.079   4.754  0.1990 -0.1048 -0.4793
 1269SOL    HW115269   4.720   2.084   4.784 -0.3769  1.0498 -2.4383
 1269SOL    HW215270   0.077   2.080   4.659  2.1611  0.0254 -0.6708
 1270SOL     OW15271   3.951   3.829  16.570 -0.2733 -0.2498 -0.1891
 1270SOL    HW115272   4.003   3.890  16.623  2.4061 -3.0379  0.3999
 1270SOL    HW215273   3.957   3.865  16.481  1.3759  3.5856  1.4384
 1271SOL     OW15274   3.029   4.651   7.988 -0.0036 -0.6180 -0.5152
 1271SOL    HW115275   3.081   4.594   7.932  0.6550  0.1310 -0.6737
 1271SOL    HW215276   3.050   4.629   8.079  0.1084  1.8943  0.0821
 1272SOL     OW15277   0.774   3.701   7.800  0.1523  0.2882  0.4410
 1272SOL    HW115278   0.693   3.723   7.847  0.6047  1.5034  0.6405
 1272SOL    HW215279   0.771   3.759   7.724  1.0885  1.6875  1.4665
 1273SOL     OW15280   1.418   0.236   5.908  0.7728 -0.3046  0.2238
 1273SOL    HW115281   1.358   0.282   5.966  1.1328  2.3791 -1.5004
 1273SOL    HW215282   1.369   0.165   5.868 -0.1079  2.8636 -4.3520
 1274SOL     OW15283   3.297   3.538   8.192  0.0625 -0.2193  0.0256
 1274SOL    HW115284   3.327   3.592   8.118  0.5869 -0.1401  0.2947
 1274SOL    HW215285   3.244   3.481   8.136 -0.5347  0.5054 -0.1550
 1275SOL     OW15286   1.968   3.612   8.582  0.3171 -0.0774 -0.0040
 1275SOL    HW115287   1.983   3.552   8.508  0.4994  2.0866 -1.7055
 1275SOL    HW215288   1.970   3.694   8.533  3.4904 -0.3412 -0.3531
 1276SOL     OW15289   2.317   1.521   6.968 -0.0213  0.0894  0.3388
 1276SOL    HW115290   2.364   1.449   6.926 -1.4508  0.9993 -2.8369
 1276SOL    HW215291   2.235   1.480   6.994 -0.2563  0.1884 -0.2366
 1277SOL     OW15292   1.875   2.768   9.397 -0.0792 -0.5204  0.0234
 1277SOL    HW115293   1.862   2.718   9.316  1.5300  0.9926 -1.1815
 1277SOL    HW215294   1.883   2.857   9.362 -1.9366 -1.0154 -1.6923
 1278SOL     OW15295   3.591   1.857   6.627  0.6129  0.2697  0.1943
 1278SOL    HW115296   3.529   1.803   6.578  1.0067  0.8346 -0.9269
 1278SOL    HW215297   3.661   1.796   6.652 -1.7740 -2.2336  0.8037
 1279SOL     OW15298   0.068   0.762   5.502  0.3780 -0.8996  0.0502
 1279SOL    HW115299   0.109   0.699   5.562  5.5841  1.9898 -0.5066
 1279SOL    HW215300   0.140   0.776   5.441 -0.2899  0.2656 -0.4676
 1280SOL     OW15301   1.855   3.745   7.614 -0.7650  1.1621 -1.2570
 1280SOL    HW115302   1.940   3.760   7.656 -0.0396 -0.9172 -2.0175
 1280SOL    HW215303   1.794   3.707   7.677 -2.7886  2.6333 -2.3559
 1281SOL     OW15304   1.712   2.082   2.318  0.2876  0.0857 -0.3783
 1281SOL    HW115305   1.795   2.126   2.298  0.6781 -0.2238  0.5318
 1281SOL    HW215306   1.738   2.002   2.273 -1.0842 -0.7401  0.3001
 1282SOL     OW15307   2.640   3.997   3.041  0.4744 -0.5992  0.0154
 1282SOL    HW115308   2.623   3.973   2.950 -2.3367 -3.2179  1.2610
 1282SOL    HW215309   2.547   4.003   3.063  1.3808  0.7692  3.5082
 1283SOL     OW15310   4.045   4.157  13.172  0.7808 -0.2025  0.7397
 1283SOL    HW115311   4.015   4.246  13.152 -1.8635 -1.3238 -0.1909
 1283SOL    HW215312   4.048   4.162  13.268  1.2193  3.4067  0.5332
 1284SOL     OW15313   0.607   0.082  13.895 -0.0115  0.2660  0.2017
 1284SOL    HW115314   0.602   0.066  13.801 -1.4021  2.1088 -0.0300
 1284SOL    HW215315   0.520   0.119  13.908  0.0920  0.9898 -1.2198
 1285SOL     OW15316   2.751   0.899   6.892  0.2352 -0.7912  0.7983
 1285SOL    HW115317   2.690   0.939   6.954  0.8997  0.8381  0.4048
 1285SOL    HW215318   2.830   0.953   6.895 -0.3639  0.2039 -1.4536
 1286SOL     OW15319   4.316   0.613   3.150 -0.5210  0.6769 -0.1339
 1286SOL    HW115320   4.261   0.535   3.152 -0.9717  0.9946  0.1268
 1286SOL    HW215321   4.373   0.594   3.224 -1.3984  1.4300  0.7393
 1287SOL     OW15322   0.758   2.443   9.036 -0.5253 -0.1648  0.6565
 1287SOL    HW115323   0.805   2.360   9.049 -0.2375 -0.2344 -0.8911
 1287SOL    HW215324   0.800   2.489   9.109 -1.2720  0.7574  0.4921
 1288SOL     OW15325   3.495   0.179   7.480  0.2302 -0.4637  0.1453
 1288SOL    HW115326   3.440   0.182   7.558  1.1531  0.8783  0.7559
 1288SOL    HW215327   3.456   0.112   7.424  1.6192 -0.7223 -0.5161
 1289SOL     OW15328   1.427   2.868   9.101 -0.2753 -0.4986 -0.1081
 1289SOL    HW115329   1.458   2.778   9.112  0.0148 -0.3885 -0.0459
 1289SOL    HW215330   1.385   2.857   9.015 -0.7252 -0.0933  0.0619
 1290SOL     OW15331   1.039   3.491   5.579 -0.0711 -0.5529  0.1288
 1290SOL    HW115332   1.043   3.542   5.660 -1.0614 -1.6078  0.8454
 1290SOL    HW215333   1.060   3.558   5.515 -0.9341 -0.2430  0.1706
 1291SOL     OW15334   3.396   1.088   7.921  0.5478  0.3156 -0.4251
 1291SOL    HW115335   3.426   1.007   7.880  0.2364 -0.8577  1.6850
 1291SOL    HW215336   3.474   1.114   7.971 -0.7009  0.0375  1.6626
 1292SOL     OW15337   1.905   1.101  12.732  0.1896 -0.1436  0.0368
 1292SOL    HW115338   1.922   1.186  12.772 -1.0303 -0.7375  1.8283
 1292SOL    HW215339   1.991   1.066  12.710 -1.4395 -5.1783  1.6575
 1293SOL     OW15340   1.302   1.162  17.661  0.0197 -0.2733  0.5401
 1293SOL    HW115341   1.349   1.170  17.578 -1.0432 -3.0550 -0.3503
 1293SOL    HW215342   1.372   1.162   0.027 -0.6346  1.3511  1.2437
 1294SOL     OW15343   3.286   4.577   5.861 -0.0114  0.1211 -0.2548
 1294SOL    HW115344   3.195   4.574   5.891  0.4517  0.6410  1.2032
 1294SOL    HW215345   3.285   4.659   5.811 -0.9050 -0.8043 -1.7645
 1295SOL     OW15346   0.195   3.875   4.314  0.0142 -0.2015 -0.0314
 1295SOL    HW115347   0.254   3.948   4.334 -2.0990  1.1242  1.3462
 1295SOL    HW215348   0.257   3.804   4.297 -1.3733 -1.2819 -0.6152
 1296SOL     OW15349   4.317   1.670   5.041  0.5828 -0.3755  1.2889
 1296SOL    HW115350   4.375   1.740   5.072  1.5333 -0.4067 -0.4456
 1296SOL    HW215351   4.299   1.686   4.949 -1.0332 -3.9054  0.9906
 1297SOL     OW15352   2.982   3.811   4.306 -0.0264  0.3077 -0.0633
 1297SOL    HW115353   3.011   3.897   4.278 -0.0914 -0.3964 -2.2877
 1297SOL    HW215354   3.052   3.789   4.368  0.9815 -1.4990 -1.8195
 1298SOL     OW15355   2.257   2.732   7.067  0.2213 -0.9303  0.8259
 1298SOL    HW115356   2.307   2.663   7.024 -0.3206 -0.5586 -0.4026
 1298SOL    HW215357   2.186   2.698   7.122 -1.5294  0.6200 -0.4739
 1299SOL     OW15358   3.524   1.230  17.127  0.0318 -0.5557 -0.4453
 1299SOL    HW115359   3.581   1.289  17.078  2.5276 -3.6329 -1.2097
 1299SOL    HW215360   3.544   1.257  17.216  2.3758 -1.1808 -0.7913
 1300SOL     OW15361   0.954   4.133   4.811  0.4778 -0.1531  0.2237
 1300SOL    HW115362   0.942   4.099   4.900  0.2304 -3.3501 -1.0318
 1300SOL    HW215363   0.999   4.217   4.822 -1.5435  0.9204  0.2393
 1301SOL     OW15364   2.472   2.245   4.222 -0.3067 -0.6823  0.5703
 1301SOL    HW115365   2.460   2.338   4.203  0.7285 -0.5534  0.5367
 1301SOL    HW215366   2.558   2.251   4.264 -1.3519  2.0340  2.3570
 1302SOL     OW15367   2.652   4.435   8.004  0.1071  0.3243  0.1317
 1302SOL    HW115368   2.586   4.375   8.037 -0.4654  0.4928 -0.7058
 1302SOL    HW215369   2.610   4.480   7.931 -2.7297  1.7637  2.6137
 1303SOL     OW15370   2.196   2.039   4.124 -0.2974 -0.4582 -0.3453
 1303SOL    HW115371   2.170   2.127   4.150 -0.0620 -1.5982  3.8619
 1303SOL    HW215372   2.180   1.998   4.209 -0.2175 -1.2954 -0.7344
 1304SOL     OW15373   4.079   3.700  14.486  0.3457  0.3468  0.5502
 1304SOL    HW115374   4.010   3.693  14.551  0.3035  0.6789  0.5433
 1304SOL    HW215375   4.084   3.794  14.470  1.4087 -0.3525 -3.1838
 1305SOL     OW15376   4.506   2.992  13.344  0.1180  0.0429 -0.4270
 1305SOL    HW115377   4.420   3.029  13.325 -1.3584 -2.0623  2.1823
 1305SOL    HW215378   4.563   3.045  13.288 -0.1227  0.9991  0.2281
 1306SOL     OW15379   0.985   3.334   7.940 -0.4170 -0.2554  0.2315
 1306SOL    HW115380   1.017   3.345   8.030 -0.5163  2.0773  0.0041
 1306SOL    HW215381   1.019   3.416   7.903 -0.1551 -0.2023  0.5834
 1307SOL     OW15382   0.806   3.181  17.275  0.0436  0.2465  0.2606
 1307SOL    HW115383   0.791   3.193  17.181  1.3768 -0.5809 -0.0529
 1307SOL    HW215384   0.720   3.148  17.302 -0.0887  0.5438  0.2028
 1308SOL     OW15385   4.452   0.677   4.968  0.2210 -0.0491  0.2673
 1308SOL    HW115386   4.536   0.684   5.013  1.1050  2.5724 -1.7873
 1308SOL    HW215387   4.405   0.739   5.023  0.1375  1.2173 -1.2126
 1309SOL     OW15388   3.903   3.969   3.405 -0.6855 -0.1023 -0.3119
 1309SOL    HW115389   3.983   3.917   3.406  1.3659  3.0834  0.4850
 1309SOL    HW215390   3.921   4.048   3.354 -0.6752 -0.4121 -0.7940
 1310SOL     OW15391   0.173   1.180   8.260 -0.0430 -0.0867 -0.3307
 1310SOL    HW115392   0.248   1.140   8.217  0.4504 -1.2448  1.5868
 1310SOL    HW215393   0.099   1.148   8.208 -0.3578  3.0474 -1.8195
 1311SOL     OW15394   0.437   0.728   1.148 -0.1578  0.2326  0.1952
 1311SOL    HW115395   0.496   0.733   1.073  0.0453  0.7058  0.3910
 1311SOL    HW215396   0.503   0.704   1.213 -0.3709 -1.8660 -0.3449
 1312SOL     OW15397   1.163   2.687  13.190  0.1398 -0.0698 -0.0763
 1312SOL    HW115398   1.074   2.683  13.225  0.6599 -0.5887  1.1635
 1312SOL    HW215399   1.150   2.608  13.137  1.4561 -1.2314  1.3479
 1313SOL     OW15400   3.749   0.932   5.297  0.7191  0.0898  1.1311
 1313SOL    HW115401   3.748   0.855   5.240 -0.9323  1.4705 -0.7134
 1313SOL    HW215402   3.815   0.985   5.251 -0.0348  0.4433  0.4590
 1314SOL     OW15403   1.523   3.645   3.241  0.0669 -0.4142  0.0941
 1314SOL    HW115404   1.524   3.674   3.332 -0.5421  0.8833 -0.3009
 1314SOL    HW215405   1.586   3.573   3.239  0.3700 -0.1072 -1.6780
 1315SOL     OW15406   4.055   3.112   7.936 -0.6441  0.0645  0.4456
 1315SOL    HW115407   4.130   3.113   7.995 -0.4525 -2.5730  0.2465
 1315SOL    HW215408   4.013   3.192   7.967 -1.6883  0.4309 -1.9214
 1316SOL     OW15409   4.712   3.820   6.053 -0.2154  0.5046 -0.0761
 1316SOL    HW115410   0.068   3.768   6.042 -0.2668  0.7401 -1.5527
 1316SOL    HW215411   0.015   3.895   6.000 -2.2924  1.0983 -0.2603
 1317SOL     OW15412   2.132   4.121  12.388  0.0405  0.5136  0.3965
 1317SOL    HW115413   2.096   4.038  12.418 -0.3997  0.5040 -0.1489
 1317SOL    HW215414   2.213   4.096  12.344 -1.2891 -1.9444 -0.6182
 1318SOL     OW15415   4.115   0.603   7.791 -0.2435  0.1426 -0.0351
 1318SOL    HW115416   4.097   0.542   7.862  0.6422  0.5832  0.5641
 1318SOL    HW215417   4.090   0.679   7.843  0.8590  0.3134  0.2376
 1319SOL     OW15418   0.588   0.780  14.002  0.1134 -0.0167  0.0705
 1319SOL    HW115419   0.670   0.733  13.987  0.2891  1.0526 -2.2771
 1319SOL    HW215420   0.555   0.797  13.914 -0.0932 -1.0224 -0.0513
 1320SOL     OW15421   2.447   1.568   3.207  0.3084  0.3932  0.6416
 1320SOL    HW115422   2.492   1.565   3.122  1.2439  1.5185  1.0983
 1320SOL    HW215423   2.521   1.555   3.266 -0.7568 -2.5422  1.3435
 1321SOL     OW15424   2.849   2.995   5.572 -0.3180  0.0672  0.1474
 1321SOL    HW115425   2.907   2.987   5.648 -0.4470  0.4294  0.2834
 1321SOL    HW215426   2.826   2.903   5.558 -1.3381  0.5737 -1.5290
 1322SOL     OW15427   2.436   3.586   7.215 -0.1275  0.2297 -0.0220
 1322SOL    HW115428   2.516   3.605   7.263 -1.0944  2.5678  0.6385
 1322SOL    HW215429   2.398   3.515   7.267  2.3230 -1.3491 -0.3841
 1323SOL     OW15430   4.326   0.511   6.840 -0.2789 -0.4527 -0.0444
 1323SOL    HW115431   4.359   0.423   6.859 -0.9022 -1.1823 -2.3862
 1323SOL    HW215432   4.300   0.500   6.749 -0.1574 -0.7282 -0.0452
 1324SOL     OW15433   1.069   0.832   0.395  0.3084  0.3313 -0.4447
 1324SOL    HW115434   1.008   0.900   0.424 -0.5625 -0.1565 -1.1329
 1324SOL    HW215435   1.095   0.792   0.478 -0.2302 -0.7753 -0.8161
 1325SOL     OW15436   0.951   2.956   3.324  0.3263 -0.3066  0.0589
 1325SOL    HW115437   1.001   2.899   3.265  2.0600  0.3141  0.9141
 1325SOL    HW215438   1.022   2.987   3.380  0.9209  0.1242 -0.9388
 1326SOL     OW15439   3.682   4.099   9.573 -0.5330 -0.0618  0.1069
 1326SOL    HW115440   3.740   4.024   9.581  0.1392  0.4460 -0.0032
 1326SOL    HW215441   3.657   4.121   9.662 -0.4853  0.6485 -0.0529
 1327SOL     OW15442   1.696   0.438   3.153  0.2639  0.0814  0.2061
 1327SOL    HW115443   1.654   0.354   3.136 -2.1763  0.8658  2.3813
 1327SOL    HW215444   1.743   0.460   3.073 -0.2510  1.4654  0.2846
 1328SOL     OW15445   3.813   2.553   3.348  0.5914  0.4834 -0.9220
 1328SOL    HW115446   3.819   2.561   3.443 -0.7107  1.1192 -0.8904
 1328SOL    HW215447   3.862   2.473   3.331  1.5509  1.2177 -1.5716
 1329SOL     OW15448   1.689   3.907   0.501 -0.2988  0.5521  0.4102
 1329SOL    HW115449   1.638   3.852   0.560 -1.5233  1.6722  0.3949
 1329SOL    HW215450   1.668   3.997   0.527 -1.6585  0.5758 -0.7864
 1330SOL     OW15451   3.304   0.691   8.107  0.5149 -0.1180 -0.2967
 1330SOL    HW115452   3.302   0.767   8.049  1.1860 -0.8633 -1.2878
 1330SOL    HW215453   3.395   0.664   8.095  0.7553 -0.3293  1.9265
 1331SOL     OW15454   4.565   0.619   8.707  0.3305 -0.4665 -0.2689
 1331SOL    HW115455   4.635   0.636   8.643  1.8526 -0.8620  1.2963
 1331SOL    HW215456   4.606   0.560   8.770 -0.7104  0.5146  1.3441
 1332SOL     OW15457   0.835   3.722  12.567  0.0360  0.3023  0.3598
 1332SOL    HW115458   0.904   3.674  12.612  0.3728  0.7121  0.2874
 1332SOL    HW215459   0.888   3.784  12.517 -1.9824  2.3850  0.7746
 1333SOL     OW15460   1.818   4.337   3.271 -0.0825 -0.6639 -0.2117
 1333SOL    HW115461   1.815   4.265   3.209  1.9167 -1.1143  0.2129
 1333SOL    HW215462   1.819   4.289   3.353 -3.8740 -1.1936 -0.5035
 1334SOL     OW15463   1.987   4.331   2.866 -0.6068  0.0332  0.5536
 1334SOL    HW115464   2.007   4.273   2.792 -1.5400 -0.2750  0.5455
 1334SOL    HW215465   1.942   4.406   2.829  1.6709  0.8608 -0.5303
 1335SOL     OW15466   2.193   1.545   2.658 -0.2824 -0.5935 -0.0934
 1335SOL    HW115467   2.152   1.599   2.590  0.1541 -0.1449 -0.0050
 1335SOL    HW215468   2.257   1.494   2.607  1.4048  1.3934  0.0505
 1336SOL     OW15469   2.279   4.014   4.670 -0.0887 -0.1736  0.0034
 1336SOL    HW115470   2.227   4.058   4.603  0.5820  0.5064 -0.0638
 1336SOL    HW215471   2.260   4.077   4.740 -2.1628 -2.0488  1.1189
 1337SOL     OW15472   0.276   2.625   5.396 -0.5519  0.7096  0.1971
 1337SOL    HW115473   0.231   2.709   5.397 -1.7558  0.0621  1.1636
 1337SOL    HW215474   0.369   2.642   5.382 -0.9546  1.4823 -1.4794
 1338SOL     OW15475   2.027   1.334  16.287  0.1608  0.1727 -0.2372
 1338SOL    HW115476   1.960   1.339  16.219 -0.5574  0.3665  0.4928
 1338SOL    HW215477   2.076   1.413  16.262  0.1365 -0.1415 -1.3096
 1339SOL     OW15478   4.553   3.979  16.292 -0.5684 -0.1742 -0.2483
 1339SOL    HW115479   4.539   3.932  16.210 -1.5693  1.0509 -0.7636
 1339SOL    HW215480   4.583   4.064  16.262  0.6898 -0.2161  0.8606
 1340SOL     OW15481   2.324   3.328   9.241 -0.3025 -0.2449 -0.0937
 1340SOL    HW115482   2.412   3.350   9.209 -0.8403  0.4948 -1.0661
 1340SOL    HW215483   2.315   3.366   9.329  0.1883 -1.4896  0.4982
 1341SOL     OW15484   3.556   3.744   3.286 -0.2699  0.0925 -0.2283
 1341SOL    HW115485   3.554   3.839   3.302 -3.0091  0.4397 -2.6765
 1341SOL    HW215486   3.465   3.729   3.311 -0.3275 -1.6629 -1.5393
 1342SOL     OW15487   1.081   3.707   8.119 -0.3504  0.1767 -0.0075
 1342SOL    HW115488   1.141   3.688   8.191  0.5475  1.5179 -0.3926
 1342SOL    HW215489   1.120   3.780   8.071 -0.7145  0.3349 -0.0671
 1343SOL     OW15490   4.562   3.027  11.515 -0.1426 -0.4563  0.0543
 1343SOL    HW115491   4.532   2.960  11.455  2.0302 -1.9114  0.5789
 1343SOL    HW215492   4.599   3.083  11.446 -2.0774  1.8991  0.9122
 1344SOL     OW15493   2.563   4.694   7.412 -0.8399 -0.4476 -0.3763
 1344SOL    HW115494   2.535   0.026   7.484  1.0164 -1.3113  1.0098
 1344SOL    HW215495   2.622   0.033   7.370  0.0470  0.2749  1.9561
 1345SOL     OW15496   4.689   3.286   8.374  0.0804  0.3819  0.1750
 1345SOL    HW115497   4.662   3.365   8.420 -0.8836  0.3101 -0.2672
 1345SOL    HW215498   0.037   3.256   8.429  0.6686  0.7677 -0.3921
 1346SOL     OW15499   3.207   1.537  17.312 -0.6581  0.1776  0.1434
 1346SOL    HW115500   3.180   1.529  17.220 -0.4110  0.6989  0.0247
 1346SOL    HW215501   3.123   1.557  17.354 -1.2351 -0.1189 -0.8538
 1347SOL     OW15502   3.180   3.446   8.781  0.0301 -0.5942 -0.4855
 1347SOL    HW115503   3.257   3.451   8.724  0.1894 -2.0052 -0.4004
 1347SOL    HW215504   3.201   3.516   8.842  0.6617 -0.9708 -0.2642
 1348SOL     OW15505   3.976   2.479   2.197  0.1796 -0.2232 -0.0905
 1348SOL    HW115506   4.050   2.479   2.136 -0.3612 -1.6750 -0.7406
 1348SOL    HW215507   4.030   2.472   2.276  0.6288  0.5440 -0.3354
 1349SOL     OW15508   3.087   4.564  12.720 -0.1876  0.5317  0.1543
 1349SOL    HW115509   3.003   4.610  12.724  0.2747  1.4463 -0.7883
 1349SOL    HW215510   3.109   4.586  12.630 -0.3187  2.1281  0.5147
 1350SOL     OW15511   4.333   2.200   5.022  0.2523 -0.9368  0.1655
 1350SOL    HW115512   4.390   2.151   5.081  0.0329 -0.2309  0.9758
 1350SOL    HW215513   4.260   2.138   5.021 -0.7688  0.3082 -2.3186
 1351SOL     OW15514   1.022   4.710   2.611  0.2399  0.1990 -0.0281
 1351SOL    HW115515   1.025   4.659   2.530  1.8163  0.1884  0.0241
 1351SOL    HW215516   1.072   4.645   2.659  0.6127 -0.5650 -1.4535
 1352SOL     OW15517   3.117   2.949   8.768 -0.1652 -0.4978  0.3375
 1352SOL    HW115518   3.209   2.976   8.773 -0.2369 -0.1876 -0.0019
 1352SOL    HW215519   3.082   2.968   8.855  0.6123  0.9266  0.3511
 1353SOL     OW15520   2.355   2.622  12.481  0.4336 -0.0320  0.7539
 1353SOL    HW115521   2.371   2.691  12.545 -0.9302  1.5266 -0.6107
 1353SOL    HW215522   2.434   2.630  12.428  0.2284 -0.5333  0.3692
 1354SOL     OW15523   3.643   2.046  17.052  0.2040 -0.1579 -0.0367
 1354SOL    HW115524   3.661   1.952  17.052  0.8167 -0.0452  0.4867
 1354SOL    HW215525   3.548   2.054  17.052 -0.0825 -3.9217 -2.7199
 1355SOL     OW15526   2.092   4.047   1.051  0.2717  0.1153 -0.1124
 1355SOL    HW115527   2.180   4.039   1.016  1.3869  2.1175  2.2574
 1355SOL    HW215528   2.039   4.034   0.972  0.0319  3.1415 -0.4611
 1356SOL     OW15529   3.304   0.038   7.705 -0.2526 -0.4146 -0.4341
 1356SOL    HW115530   3.212   0.053   7.686 -0.0109 -1.9799 -2.7512
 1356SOL    HW215531   3.311   4.667   7.690 -1.0095 -0.6711  0.8467
 1357SOL     OW15532   0.290   1.555   6.895  1.1996  0.5102  0.3311
 1357SOL    HW115533   0.289   1.651   6.891  4.0451  0.5047 -0.8503
 1357SOL    HW215534   0.383   1.536   6.909  0.2526 -3.3175  1.3295
 1358SOL     OW15535   1.306   2.523  11.448 -0.5899 -0.1631  0.5811
 1358SOL    HW115536   1.239   2.592  11.448  0.6870  1.0627  1.8972
 1358SOL    HW215537   1.380   2.578  11.470 -2.1367  1.9546  0.5294
 1359SOL     OW15538   4.083   2.711   1.808 -0.1451  0.0184 -0.3293
 1359SOL    HW115539   4.069   2.751   1.894 -1.3917 -0.3253 -0.3641
 1359SOL    HW215540   4.033   2.771   1.752 -1.5625 -0.1865  0.7129
 1360SOL     OW15541   2.087   1.502   5.552 -0.2139  0.0584  0.3178
 1360SOL    HW115542   2.169   1.477   5.509 -0.9221  1.8024 -2.0495
 1360SOL    HW215543   2.107   1.583   5.599  1.0971  0.1657 -0.4049
 1361SOL     OW15544   0.961   2.424   2.996  0.1226 -0.5632 -0.1913
 1361SOL    HW115545   0.928   2.369   2.925  0.9040  0.3005 -1.2006
 1361SOL    HW215546   0.929   2.506   2.958 -0.9091  0.0815  2.0561
 1362SOL     OW15547   2.657   2.701   4.986  0.1630 -0.1833 -0.9003
 1362SOL    HW115548   2.653   2.727   5.078 -0.6142  0.8893 -1.2275
 1362SOL    HW215549   2.673   2.788   4.948 -1.3414  0.0432 -1.0120
 1363SOL     OW15550   1.085   1.717   1.910  0.5318 -0.2158 -0.6099
 1363SOL    HW115551   1.056   1.759   1.829 -0.0906 -1.7215 -1.1733
 1363SOL    HW215552   1.063   1.626   1.891  3.0046 -0.4694 -2.3357
 1364SOL     OW15553   0.684   2.746   1.265  0.0976 -0.1098  0.2912
 1364SOL    HW115554   0.745   2.685   1.306 -0.9739  0.2285  2.3754
 1364SOL    HW215555   0.706   2.833   1.299 -0.3205 -0.2089  0.8121
 1365SOL     OW15556   0.986   3.739  15.882 -0.6073 -0.9262  0.1534
 1365SOL    HW115557   0.931   3.725  15.805  1.8617  0.6540 -1.8581
 1365SOL    HW215558   1.061   3.688  15.853 -0.8475 -1.1468 -0.0840
 1366SOL     OW15559   0.665   4.548   7.972  0.0140  0.6428  0.8500
 1366SOL    HW115560   0.721   4.475   7.998 -1.7112 -1.0113 -0.0883
 1366SOL    HW215561   0.644   4.519   7.884 -2.1018 -2.2826  2.3167
 1367SOL     OW15562   3.100   2.166  11.778 -0.5674  0.3225  0.3134
 1367SOL    HW115563   3.112   2.150  11.871 -0.0031 -0.1470  0.1519
 1367SOL    HW215564   3.029   2.231  11.768  1.0829  1.9537 -0.7813
 1368SOL     OW15565   1.179   4.264   9.752 -0.5138 -0.0056 -0.3444
 1368SOL    HW115566   1.182   4.175   9.788 -1.5228 -0.0477 -0.3747
 1368SOL    HW215567   1.246   4.311   9.803 -0.0317  0.7512 -1.6723
 1369SOL     OW15568   3.774   4.275   7.602  0.1235  0.2495 -0.3291
 1369SOL    HW115569   3.738   4.288   7.514  0.0666 -0.8400 -0.4589
 1369SOL    HW215570   3.693   4.297   7.647 -0.5759 -2.2601 -0.4159
 1370SOL     OW15571   4.051   1.744   5.388  0.1063 -0.3076 -0.2085
 1370SOL    HW115572   4.042   1.687   5.311  1.1777  0.4435 -0.8886
 1370SOL    HW215573   3.971   1.724   5.435  0.2701 -2.0723 -0.6667
 1371SOL     OW15574   3.041   0.205   8.004  0.5690  0.2252 -0.6773
 1371SOL    HW115575   2.949   0.234   8.011  0.2211 -0.7609 -1.2163
 1371SOL    HW215576   3.046   0.111   7.988  0.5254 -0.1309  1.3595
 1372SOL     OW15577   2.651   2.522  17.361 -0.0702 -0.2390 -0.4191
 1372SOL    HW115578   2.582   2.455  17.356 -0.0171 -0.2760 -0.6689
 1372SOL    HW215579   2.596   2.585  17.314 -0.1261  0.7259  0.9658
 1373SOL     OW15580   3.607   0.041   3.512 -0.7193 -0.7285 -0.0311
 1373SOL    HW115581   3.643   4.677   3.505 -0.2525 -0.5744  0.4662
 1373SOL    HW215582   3.571   0.041   3.423  0.4746  0.4505 -0.5027
 1374SOL     OW15583   3.558   0.902   3.104  0.5051  0.6262  0.1684
 1374SOL    HW115584   3.498   0.958   3.056 -3.9245 -2.6414  1.8628
 1374SOL    HW215585   3.635   0.958   3.111  0.2551  1.0411 -0.4569
 1375SOL     OW15586   2.688   0.529  17.605  0.5913  0.2365  0.2544
 1375SOL    HW115587   2.691   0.592  17.533 -0.0396  1.5237  1.3723
 1375SOL    HW215588   2.596   0.506  17.597  0.3855  0.9565  0.5834
 1376SOL     OW15589   3.788   1.456   5.110  0.2219  0.7658 -0.0620
 1376SOL    HW115590   3.748   1.511   5.044 -1.0200 -0.4787 -0.3536
 1376SOL    HW215591   3.738   1.375   5.098  0.5013  0.6313 -0.3298
 1377SOL     OW15592   4.557   1.254   2.356  0.3386 -0.1006 -0.4178
 1377SOL    HW115593   4.519   1.336   2.386 -0.9906 -1.2562  1.0460
 1377SOL    HW215594   4.522   1.189   2.417 -0.4717 -1.2834 -2.1413
 1378SOL     OW15595   1.540   2.023   7.111 -0.5014  0.5307  0.6795
 1378SOL    HW115596   1.622   1.977   7.129  0.4469  1.5165 -1.1185
 1378SOL    HW215597   1.477   1.952   7.118 -0.6719  0.4149 -1.8219
 1379SOL     OW15598   1.250   4.712   4.700  0.1282  0.2862 -0.6756
 1379SOL    HW115599   1.263   4.685   4.791  0.2840  0.8963 -0.5233
 1379SOL    HW215600   1.184   4.646   4.677  1.4046 -1.3249  0.2128
 1380SOL     OW15601   2.983   2.685   7.480 -0.3693 -0.1847  0.4096
 1380SOL    HW115602   2.960   2.630   7.405 -0.1422 -0.7809  0.7724
 1380SOL    HW215603   3.049   2.749   7.456 -0.9400  0.7036  1.1908
 1381SOL     OW15604   3.141   0.357   3.205  0.1542 -0.1099  0.2073
 1381SOL    HW115605   3.188   0.280   3.174  1.2496 -0.0338  1.7057
 1381SOL    HW215606   3.216   0.413   3.228 -1.4113  1.9279  0.3293
 1382SOL     OW15607   2.802   0.354  16.289 -0.1184 -0.8162  0.0719
 1382SOL    HW115608   2.717   0.312  16.294 -1.1090  1.4891  2.5427
 1382SOL    HW215609   2.782   0.447  16.280  3.6858  0.0290  0.2057
 1383SOL     OW15610   0.773   2.293   4.916 -0.3378 -0.1480  0.0644
 1383SOL    HW115611   0.840   2.340   4.966  0.8156 -1.7750  0.0331
 1383SOL    HW215612   0.708   2.361   4.897  1.4026  1.9641  1.6508
 1384SOL     OW15613   0.656   4.467   3.217  0.2103  0.2380 -0.3462
 1384SOL    HW115614   0.670   4.553   3.177  0.7647  0.5987  0.6230
 1384SOL    HW215615   0.602   4.481   3.294 -0.1437  0.5603 -0.6505
 1385SOL     OW15616   2.230   0.040   8.094 -0.4178  0.4551 -0.5030
 1385SOL    HW115617   2.150   0.091   8.088 -1.3091 -0.7365  1.2128
 1385SOL    HW215618   2.192   4.682   8.126 -0.7777  0.5836 -0.6094
 1386SOL     OW15619   2.978   1.566   8.486 -0.7286  0.6785  0.3992
 1386SOL    HW115620   2.948   1.634   8.546 -0.5743  0.5544  0.6202
 1386SOL    HW215621   3.020   1.511   8.553 -1.7462 -0.7521 -0.1196
 1387SOL     OW15622   4.144   4.641   8.001 -0.1199 -0.0835  0.6484
 1387SOL    HW115623   4.167   4.643   8.093 -1.2617 -0.2027  0.9391
 1387SOL    HW215624   4.226   4.603   7.970  0.1639  1.4479 -0.4903
 1388SOL     OW15625   4.623   2.527   9.232 -0.0210  0.0997 -0.2643
 1388SOL    HW115626   4.697   2.537   9.172  0.6507 -0.8410  0.4213
 1388SOL    HW215627   4.654   2.477   9.307 -0.7761  1.6362  1.0720
 1389SOL     OW15628   3.713   3.703   5.907 -0.1842  0.2171 -0.0891
 1389SOL    HW115629   3.658   3.633   5.875  1.5361  0.8268 -4.4060
 1389SOL    HW215630   3.647   3.764   5.941 -1.3109 -0.8328 -0.4188
 1390SOL     OW15631   0.433   2.565   5.129  0.3076 -0.0440 -0.4752
 1390SOL    HW115632   0.344   2.599   5.139  0.1316 -0.5867 -0.1964
 1390SOL    HW215633   0.486   2.616   5.190  0.2320 -1.1830  0.5377
 1391SOL     OW15634   1.537   1.246   4.451 -0.0800  0.2255  0.1385
 1391SOL    HW115635   1.449   1.207   4.453  0.0478 -0.0553  0.2387
 1391SOL    HW215636   1.585   1.168   4.478 -3.1842 -1.8726 -0.3589
 1392SOL     OW15637   1.234   2.853   9.796 -0.5654 -0.3428 -0.2232
 1392SOL    HW115638   1.250   2.946   9.782 -3.5702  0.3795  0.9588
 1392SOL    HW215639   1.321   2.813   9.797 -0.2708  0.3216  0.8935
 1393SOL     OW15640   4.287   2.419   4.857 -0.1356  0.1077  0.3002
 1393SOL    HW115641   4.191   2.422   4.858 -0.0424  3.0200  0.0025
 1393SOL    HW215642   4.299   2.340   4.911  0.1297  0.9704  1.4895
 1394SOL     OW15643   1.706   3.384   5.237 -0.5528  0.0708 -0.2688
 1394SOL    HW115644   1.737   3.296   5.215 -1.2257  0.4703 -2.7559
 1394SOL    HW215645   1.787   3.434   5.245 -1.1361  0.6056  2.2738
 1395SOL     OW15646   2.307   0.789   9.063 -0.3806 -0.0672  0.1922
 1395SOL    HW115647   2.303   0.864   9.123  0.4210 -0.2026  0.4070
 1395SOL    HW215648   2.294   0.841   8.983  1.1452  1.3850  0.8940
 1396SOL     OW15649   4.141   2.996   9.400 -0.2782 -0.3648  0.8927
 1396SOL    HW115650   4.173   2.907   9.416 -0.1755 -0.2072  1.5373
 1396SOL    HW215651   4.082   2.978   9.326  0.7399 -1.5173  0.3594
 1397SOL     OW15652   2.783   1.554   4.688 -0.0958 -0.4626  0.9922
 1397SOL    HW115653   2.842   1.519   4.621  1.3396 -0.3616  2.2241
 1397SOL    HW215654   2.733   1.478   4.716  1.8886 -1.3888  1.9753
 1398SOL     OW15655   2.275   2.376  12.585 -0.3660  0.3017  0.1199
 1398SOL    HW115656   2.295   2.462  12.547  2.7881 -0.8985 -0.8525
 1398SOL    HW215657   2.218   2.345  12.515  2.6462  0.1724 -2.2696
 1399SOL     OW15658   0.755   3.007   4.107 -0.5827 -0.3113 -0.6563
 1399SOL    HW115659   0.763   3.046   4.020  0.4948  0.9792  0.0296
 1399SOL    HW215660   0.797   2.922   4.092 -1.3300 -0.8132  0.0476
 1400SOL     OW15661   0.581   1.964  16.198  0.1265 -0.2831  0.5706
 1400SOL    HW115662   0.595   1.870  16.212 -0.8329 -0.3510  1.1483
 1400SOL    HW215663   0.548   1.986  16.285  0.2256 -2.0652  1.0638
 1401SOL     OW15664   4.655   2.224   3.136 -0.1176 -0.0556 -0.2577
 1401SOL    HW115665   4.580   2.167   3.123  1.4490 -2.4793  1.3668
 1401SOL    HW215666   4.662   2.265   3.050  1.9080  0.2535  0.0563
 1402SOL     OW15667   0.471   0.553  16.625 -0.2773 -0.0985  0.1102
 1402SOL    HW115668   0.429   0.623  16.675  0.1022  1.6910 -2.0690
 1402SOL    HW215669   0.542   0.527  16.684  0.1537  3.1832  1.0230
 1403SOL     OW15670   4.049   2.685  10.953  0.1384  0.2393 -1.1121
 1403SOL    HW115671   3.958   2.674  10.982  0.4785 -2.0558 -0.8596
 1403SOL    HW215672   4.059   2.775  10.924 -2.0936  1.2949  1.4357
 1404SOL     OW15673   3.767   2.165   8.934 -0.4069 -0.1006 -0.4755
 1404SOL    HW115674   3.729   2.237   8.985 -0.1889 -0.2647 -0.0898
 1404SOL    HW215675   3.851   2.160   8.980 -0.6581  1.4593  0.1500
 1405SOL     OW15676   2.365   1.195   4.920  0.1621 -0.6215  0.3597
 1405SOL    HW115677   2.287   1.199   4.977 -0.3265 -1.6235 -0.2357
 1405SOL    HW215678   2.374   1.282   4.882  1.0729 -0.5854  0.6464
 1406SOL     OW15679   4.264   0.974  16.516 -0.0054  0.0913 -0.2109
 1406SOL    HW115680   4.238   1.037  16.583 -3.2689 -0.0277 -1.3390
 1406SOL    HW215681   4.293   1.034  16.447 -1.2658  0.5183 -0.3671
 1407SOL     OW15682   1.713   0.506   5.992  0.5897  0.2105  0.2424
 1407SOL    HW115683   1.620   0.508   5.969  0.5361 -0.6351  0.3691
 1407SOL    HW215684   1.742   0.459   5.913 -0.9035  2.2248 -1.5095
 1408SOL     OW15685   2.934   2.553  12.560 -0.1610 -0.4443  0.3439
 1408SOL    HW115686   2.929   2.556  12.656 -1.3751  1.2176  0.2282
 1408SOL    HW215687   3.023   2.517  12.558 -0.8094 -1.9001 -1.9495
 1409SOL     OW15688   0.507   1.947  13.778  0.0756  0.0849 -0.3557
 1409SOL    HW115689   0.564   1.914  13.848 -2.9063 -0.4367  1.8097
 1409SOL    HW215690   0.486   1.861  13.741  0.8382 -0.5092  0.5736
 1410SOL     OW15691   1.014   0.832  10.034 -0.1426 -0.5023 -0.0059
 1410SOL    HW115692   0.944   0.769  10.016  0.2493 -0.7960 -0.5294
 1410SOL    HW215693   1.034   0.861   9.945 -2.8760 -2.6008 -1.2887
 1411SOL     OW15694   4.722   3.732   1.134 -0.4947  0.3492 -0.0123
 1411SOL    HW115695   0.084   3.717   1.095  0.3035  0.7143  1.5951
 1411SOL    HW215696   4.696   3.645   1.163  1.9339 -1.2521 -2.6101
 1412SOL     OW15697   2.491   0.459   3.657 -0.1671  0.2630  0.0140
 1412SOL    HW115698   2.449   0.393   3.601 -0.9988 -0.2827  1.2751
 1412SOL    HW215699   2.585   0.440   3.657 -0.4872 -1.3710 -0.1188
 1413SOL     OW15700   2.810   1.260   6.512 -0.0501  0.3528 -0.4876
 1413SOL    HW115701   2.857   1.252   6.595  0.6192  0.3126 -0.8702
 1413SOL    HW215702   2.769   1.174   6.506 -1.3026  0.9390 -0.3425
 1414SOL     OW15703   1.444   0.893  12.466 -0.1336  0.1961 -0.0732
 1414SOL    HW115704   1.512   0.886  12.533 -1.0665  4.3185  1.3484
 1414SOL    HW215705   1.474   0.972  12.420  1.5974 -0.8663 -0.7313
 1415SOL     OW15706   0.178   3.212   2.597 -0.0183 -0.3507  0.5354
 1415SOL    HW115707   0.132   3.131   2.621 -0.4324  0.2920  1.9266
 1415SOL    HW215708   0.267   3.181   2.610 -0.0330 -0.1592  1.0660
 1416SOL     OW15709   1.901   4.216   6.029  0.4475 -0.1464  0.5230
 1416SOL    HW115710   1.872   4.238   5.940 -0.2372  0.1184  0.8072
 1416SOL    HW215711   1.858   4.285   6.081  2.2101 -0.3570  2.2676
 1417SOL     OW15712   3.266   2.073   8.084  0.2026  0.6414 -0.0898
 1417SOL    HW115713   3.318   2.084   8.163  0.8087  2.8894 -0.7897
 1417SOL    HW215714   3.234   1.984   8.095 -1.6310  1.2121 -0.7795
 1418SOL     OW15715   1.886   0.943   2.737  0.0547 -0.2941 -0.5957
 1418SOL    HW115716   1.795   0.960   2.712 -0.2953  0.7095  1.3384
 1418SOL    HW215717   1.881   0.866   2.795  0.5016  1.8729  2.3124
 1419SOL     OW15718   4.185   0.702   1.213  0.1732  0.2119  0.0412
 1419SOL    HW115719   4.276   0.731   1.208  0.7529 -1.6216  0.3327
 1419SOL    HW215720   4.151   0.759   1.283  1.7185  0.7787  0.3369
 1420SOL     OW15721   4.093   1.992   0.075 -0.1150  0.3047  0.0402
 1420SOL    HW115722   4.188   2.002   0.078 -0.3358  1.9010  1.6998
 1420SOL    HW215723   4.075   1.919   0.133  0.8333 -0.7672 -1.0087
 1421SOL     OW15724   2.814   1.050  16.669  0.0574  0.0467  0.7026
 1421SOL    HW115725   2.849   1.013  16.588 -1.3630 -1.1030  0.6211
 1421SOL    HW215726   2.861   1.133  16.663 -0.6567  0.4079  0.0397
 1422SOL     OW15727   2.836   1.614   2.590  0.1567 -0.1186 -0.4466
 1422SOL    HW115728   2.906   1.635   2.652  0.1524  2.4673 -1.3176
 1422SOL    HW215729   2.789   1.697   2.583  1.0845  0.5035  0.7759
 1423SOL     OW15730   4.257   3.863   6.188 -0.0779 -0.5744 -0.7162
 1423SOL    HW115731   4.189   3.796   6.195  1.7050 -2.4357 -0.8634
 1423SOL    HW215732   4.326   3.813   6.143  0.2343  0.6323 -1.5783
 1424SOL     OW15733   2.409   0.601  17.031  0.2391 -0.1291  0.6864
 1424SOL    HW115734   2.340   0.536  17.049  1.3445 -1.2994  0.6869
 1424SOL    HW215735   2.472   0.543  16.988  1.7425  2.6444 -0.7972
 1425SOL     OW15736   3.664   0.973   5.951 -0.3839  0.2986 -0.3173
 1425SOL    HW115737   3.741   1.020   5.918 -1.2701  0.4526 -2.1758
 1425SOL    HW215738   3.626   0.935   5.872  2.1234 -4.3057  0.7255
 1426SOL     OW15739   3.446   3.552   4.082  0.3105 -0.1837 -0.3728
 1426SOL    HW115740   3.409   3.573   4.167  0.0594 -2.6647  0.1342
 1426SOL    HW215741   3.402   3.611   4.022  0.5684  1.4678  1.0675
 1427SOL     OW15742   3.852   3.156   7.164 -0.0768 -0.2746 -0.2611
 1427SOL    HW115743   3.840   3.149   7.259  1.1662 -0.8075 -0.1440
 1427SOL    HW215744   3.947   3.146   7.156  0.4431  2.5163  2.1056
 1428SOL     OW15745   1.186   1.895   4.033 -0.4170 -0.0157  0.5986
 1428SOL    HW115746   1.156   1.828   4.096  1.8127 -0.3695  1.2706
 1428SOL    HW215747   1.246   1.950   4.083  1.4659  1.4996 -3.3686
 1429SOL     OW15748   0.356   1.321  14.387 -0.1167  0.7606 -0.1339
 1429SOL    HW115749   0.307   1.289  14.463  2.1735 -0.4263  0.8679
 1429SOL    HW215750   0.416   1.379  14.435 -0.3342  0.2885  0.7103
 1430SOL     OW15751   0.506   3.463  11.036 -0.1222 -0.1659 -0.0095
 1430SOL    HW115752   0.513   3.547  11.081  3.4134 -1.0700  1.1206
 1430SOL    HW215753   0.425   3.478  10.987  0.1612  0.7117 -0.1976
 1431SOL     OW15754   0.814   2.070  17.473 -0.1942 -0.1329 -0.3944
 1431SOL    HW115755   0.872   2.020  17.530  0.2471  0.0359 -0.6942
 1431SOL    HW215756   0.829   2.020  17.392 -2.0295 -1.5036  0.1144
 1432SOL     OW15757   0.406   0.244  15.507 -0.0214  0.3366 -0.2043
 1432SOL    HW115758   0.378   0.278  15.422 -1.6723  1.9706  0.9980
 1432SOL    HW215759   0.344   0.176  15.532  1.3323 -0.1787  1.7471
 1433SOL     OW15760   3.491   2.425   3.490  0.1419  0.0576 -0.1968
 1433SOL    HW115761   3.434   2.361   3.446 -2.4625  1.7362  0.7363
 1433SOL    HW215762   3.426   2.458   3.552 -0.4088 -3.4894  1.0577
 1434SOL     OW15763   1.012   1.925   8.420  0.4593 -0.7300  0.2495
 1434SOL    HW115764   0.994   1.834   8.397  0.9392 -1.1033  1.3191
 1434SOL    HW215765   0.950   1.931   8.493  1.5894 -2.6286  1.3902
 1435SOL     OW15766   0.296   2.517  14.689  0.0484 -0.2132  0.1162
 1435SOL    HW115767   0.317   2.432  14.727 -0.2753 -0.8110 -1.0401
 1435SOL    HW215768   0.368   2.523  14.627 -0.5500  0.9730 -0.4706
 1436SOL     OW15769   0.789   0.716   0.631  0.3988 -0.0605 -0.1320
 1436SOL    HW115770   0.862   0.706   0.693  0.0397  0.8261  0.4409
 1436SOL    HW215771   0.821   0.794   0.585  2.1087 -0.4610  0.3625
 1437SOL     OW15772   1.838   3.418   6.709  0.1815 -0.3946  0.0911
 1437SOL    HW115773   1.917   3.366   6.720  0.0745 -0.7802 -0.9972
 1437SOL    HW215774   1.762   3.360   6.706 -0.4052  0.4097 -0.4438
 1438SOL     OW15775   4.028   1.110  13.171  0.1375 -0.1013  0.5976
 1438SOL    HW115776   3.988   1.024  13.158  1.2787 -0.4935 -0.3056
 1438SOL    HW215777   3.988   1.144  13.091 -2.5595 -2.9973  0.7162
 1439SOL     OW15778   2.896   3.444  10.904 -0.0928  0.1014  0.5773
 1439SOL    HW115779   2.809   3.423  10.871 -0.0390  0.8378 -0.0125
 1439SOL    HW215780   2.923   3.354  10.926 -1.4428 -0.0646  1.5351
 1440SOL     OW15781   0.572   0.390   1.105  0.3479 -0.3555 -0.7516
 1440SOL    HW115782   0.600   0.325   1.041 -1.7515 -2.3424  0.3455
 1440SOL    HW215783   0.487   0.423   1.074 -0.3278 -2.7463 -1.4205
 1441SOL     OW15784   3.309   3.421   6.191 -0.3230  0.1964  0.2532
 1441SOL    HW115785   3.221   3.452   6.215 -0.8402 -0.3796 -0.9309
 1441SOL    HW215786   3.297   3.326   6.196  0.7268  0.1301  1.2851
 1442SOL     OW15787   1.907   2.718   1.116  0.4416 -0.4004  0.5048
 1442SOL    HW115788   1.859   2.737   1.035  1.4709 -0.9047 -0.2319
 1442SOL    HW215789   1.839   2.688   1.175 -1.3011 -0.1437 -1.3679
 1443SOL     OW15790   3.794   1.626   3.627  0.1880  0.3154 -0.2004
 1443SOL    HW115791   3.840   1.705   3.598 -0.8724  0.7004 -0.8421
 1443SOL    HW215792   3.865   1.563   3.612  0.6547  1.0578 -1.0785
 1444SOL     OW15793   3.468   0.002   0.853 -0.8515  0.3450  0.6386
 1444SOL    HW115794   3.499   4.637   0.833 -1.7809  0.6468 -2.1496
 1444SOL    HW215795   3.502   0.023   0.940 -4.6588  0.0107  2.2227
 1445SOL     OW15796   1.756   2.344   7.037 -0.7842 -0.0285  0.6326
 1445SOL    HW115797   1.689   2.278   7.055  0.9224 -1.4766  1.6695
 1445SOL    HW215798   1.707   2.414   7.081 -1.5021  0.5749 -1.1095
 1446SOL     OW15799   0.082   0.921   9.050 -0.1251  0.3050 -0.0163
 1446SOL    HW115800   0.067   0.972   8.970  0.4499 -0.9018 -0.8951
 1446SOL    HW215801   4.715   0.899   9.071  0.3052 -0.7753  0.7324
 1447SOL     OW15802   0.253   0.229   6.479 -0.1650 -0.0135  0.8754
 1447SOL    HW115803   0.225   0.257   6.567 -2.4756 -0.1638  0.1855
 1447SOL    HW215804   0.242   0.304   6.422  0.8803 -0.8816 -0.4807
 1448SOL     OW15805   2.875   1.657   4.966 -0.3089 -0.2272 -0.5514
 1448SOL    HW115806   2.859   1.567   4.937 -0.4266 -0.0459 -1.0355
 1448SOL    HW215807   2.847   1.712   4.894  0.6894  2.2901  0.9784
 1449SOL     OW15808   0.583   2.446   2.074  0.2494 -0.7127  0.3944
 1449SOL    HW115809   0.629   2.506   2.016 -0.6894 -1.0596 -0.6993
 1449SOL    HW215810   0.497   2.483   2.093 -0.2949 -1.3275 -0.8756
 1450SOL     OW15811   3.143   3.829   3.466  0.4099  0.0070 -0.0153
 1450SOL    HW115812   3.051   3.845   3.487 -0.0192  0.2166 -2.0081
 1450SOL    HW215813   3.186   3.878   3.536 -2.7194 -2.0062  3.2983
 1451SOL     OW15814   3.696   2.881  10.223 -0.6758 -0.3536 -0.1636
 1451SOL    HW115815   3.683   2.819  10.295  2.0540 -0.4497  0.2355
 1451SOL    HW215816   3.769   2.935  10.252  0.5979 -3.4577  2.3484
 1452SOL     OW15817   1.510   3.264   3.412 -0.4635  0.3441 -0.4587
 1452SOL    HW115818   1.478   3.350   3.438 -1.0330 -0.3371  1.0924
 1452SOL    HW215819   1.592   3.260   3.461 -1.1877  0.5923  0.7546
 1453SOL     OW15820   0.711   3.038   5.188  0.4253  0.6370 -0.3726
 1453SOL    HW115821   0.770   3.039   5.264 -0.5926  1.1076  0.4122
 1453SOL    HW215822   0.734   3.123   5.151 -0.8111  0.5833 -1.2628
 1454SOL     OW15823   3.103   4.620   0.592 -0.1210 -0.1500  0.9606
 1454SOL    HW115824   3.141   4.649   0.675  0.5144  1.1922  0.2058
 1454SOL    HW215825   3.089   4.529   0.616  1.2563 -0.9343 -1.2613
 1455SOL     OW15826   3.817   0.123   7.671  0.3659  0.4261  0.3555
 1455SOL    HW115827   3.857   0.044   7.707 -1.2336 -0.4991  0.0742
 1455SOL    HW215828   3.731   0.104   7.708  1.2926 -0.6787  1.9616
 1456SOL     OW15829   2.928   3.650  13.536 -0.1139 -0.1081 -0.1481
 1456SOL    HW115830   2.894   3.561  13.547  0.2936 -0.1119  1.1284
 1456SOL    HW215831   2.985   3.656  13.612 -0.3771 -2.3172  0.2397
 1457SOL     OW15832   0.903   0.935   2.091  0.8960 -0.0517 -0.4625
 1457SOL    HW115833   0.823   0.913   2.044  0.3265  2.0053 -0.4532
 1457SOL    HW215834   0.965   0.917   2.020  1.8654  2.5182 -0.2551
 1458SOL     OW15835   0.062   2.703   2.551 -0.5376 -0.0618 -0.6370
 1458SOL    HW115836   0.068   2.795   2.578  2.4314  0.0612 -1.6693
 1458SOL    HW215837   0.138   2.664   2.594  0.3216  3.1196  0.7838
 1459SOL     OW15838   4.502   1.756   3.304  0.0443 -0.6694 -0.3366
 1459SOL    HW115839   4.522   1.745   3.397  1.2859  0.4664 -0.4719
 1459SOL    HW215840   4.570   1.705   3.259  0.3240 -1.9599  1.5577
 1460SOL     OW15841   2.048   4.496   6.466  0.0541  0.2882  0.0121
 1460SOL    HW115842   2.074   4.474   6.555 -0.0023 -1.4944 -0.4181
 1460SOL    HW215843   2.002   4.414   6.451 -0.3141  0.1014  2.1859
 1461SOL     OW15844   2.035   3.149   2.308  0.2092  0.0631  0.0629
 1461SOL    HW115845   2.123   3.121   2.286 -0.1732 -0.8549 -0.2898
 1461SOL    HW215846   2.021   3.214   2.239 -1.5525  1.6281  1.8701
 1462SOL     OW15847   2.322   2.862  14.232 -0.3854  0.7652  0.0271
 1462SOL    HW115848   2.257   2.932  14.226 -1.5648 -0.5778 -3.1603
 1462SOL    HW215849   2.397   2.911  14.264  2.3771 -1.8257 -2.5347
 1463SOL     OW15850   3.422   1.322   4.977 -0.0816  0.9392 -0.1333
 1463SOL    HW115851   3.451   1.385   5.043  2.1077  0.3382 -0.5141
 1463SOL    HW215852   3.346   1.371   4.946 -1.1941 -1.2849 -0.9032
 1464SOL     OW15853   1.715   0.467   7.007 -0.3021 -0.5005 -0.0947
 1464SOL    HW115854   1.768   0.410   7.063 -1.6322 -1.7807 -0.1520
 1464SOL    HW215855   1.656   0.400   6.972  0.1733  0.1467 -2.1517
 1465SOL     OW15856   3.601   1.556   8.621  0.0201  0.0641  0.0057
 1465SOL    HW115857   3.663   1.625   8.645  0.4597 -0.5873  0.7739
 1465SOL    HW215858   3.613   1.560   8.527 -2.5481 -1.5081 -0.3797
 1466SOL     OW15859   3.685   3.139  13.009  0.1030  0.0016  0.5041
 1466SOL    HW115860   3.723   3.168  13.092 -0.2292  0.1672  0.5978
 1466SOL    HW215861   3.641   3.221  12.989 -0.1138 -0.0983  0.5692
 1467SOL     OW15862   4.658   0.281  16.184  0.1363  0.3720 -0.4854
 1467SOL    HW115863   4.696   0.203  16.224 -1.3531 -1.0738 -1.8789
 1467SOL    HW215864   4.598   0.303  16.256  0.2576 -1.5201  0.2076
 1468SOL     OW15865   3.097   0.669  15.120 -0.1814  0.0374  0.3453
 1468SOL    HW115866   3.059   0.650  15.207 -0.4487  0.0737  0.2382
 1468SOL    HW215867   3.111   0.763  15.131  0.2399 -0.0242  0.3223
 1469SOL     OW15868   1.398   0.826   0.205 -0.5276  0.3707 -0.2223
 1469SOL    HW115869   1.477   0.814   0.152  1.0902 -3.0870  2.9871
 1469SOL    HW215870   1.405   0.742   0.250  1.8805  0.3222 -0.6997
 1470SOL     OW15871   4.373   1.185   3.595 -0.5986 -0.4764  0.0367
 1470SOL    HW115872   4.388   1.180   3.500 -0.3848 -2.2213  0.1667
 1470SOL    HW215873   4.406   1.273   3.612  1.0988 -0.7729 -1.7449
 1471SOL     OW15874   3.560   0.876   5.730  0.5867  0.4293 -0.2491
 1471SOL    HW115875   3.637   0.866   5.675  0.4544  1.1713 -0.5701
 1471SOL    HW215876   3.506   0.810   5.688  0.3758  0.6854 -0.3816
 1472SOL     OW15877   0.712   3.041   2.115 -0.3731 -0.4782  0.4062
 1472SOL    HW115878   0.767   2.964   2.101  0.0455 -0.1469  0.2306
 1472SOL    HW215879   0.772   3.115   2.110  0.1760 -0.7912  2.7226
 1473SOL     OW15880   3.426   0.079   3.305 -0.0208 -0.1927 -0.7815
 1473SOL    HW115881   3.337   0.048   3.320 -0.7566  1.9940 -0.5736
 1473SOL    HW215882   3.405   0.150   3.244  1.5970  1.6347  0.7646
 1474SOL     OW15883   0.326   2.470  16.022  0.0439 -0.3110  0.5882
 1474SOL    HW115884   0.270   2.523  16.078 -0.4863 -0.3170  0.0547
 1474SOL    HW215885   0.349   2.398  16.081 -0.6720 -0.7069  0.3771
 1475SOL     OW15886   0.119   2.791   6.751 -0.2548 -0.8275 -0.1868
 1475SOL    HW115887   0.090   2.875   6.715  1.3661 -0.2353 -0.1177
 1475SOL    HW215888   0.214   2.787   6.738 -0.1716 -2.4587  0.8422
 1476SOL     OW15889   2.873   1.984  12.386  0.5844 -0.3989  0.6464
 1476SOL    HW115890   2.936   2.040  12.430  1.5027 -1.0337  0.1541
 1476SOL    HW215891   2.798   2.036  12.412  0.2364  0.6484 -2.3802
 1477SOL     OW15892   3.453   0.412  10.071  0.3444  0.2995 -0.2180
 1477SOL    HW115893   3.461   0.324  10.035  0.4228 -0.1416  0.8920
 1477SOL    HW215894   3.513   0.455  10.010 -0.5035  0.4474 -0.9551
 1478SOL     OW15895   2.819   1.365  13.312  0.0338 -0.3223 -0.5857
 1478SOL    HW115896   2.789   1.444  13.266 -1.8133 -0.0393  1.1078
 1478SOL    HW215897   2.763   1.357  13.389  2.2192  3.4245  1.3917
 1479SOL     OW15898   1.876   0.021  11.238  0.2749  0.2757 -0.1550
 1479SOL    HW115899   1.967   0.045  11.255  0.6139 -1.1890  0.1101
 1479SOL    HW215900   1.881   0.028  11.143 -1.9189 -0.4796 -0.3311
 1480SOL     OW15901   0.685   0.885   2.709 -0.0751 -0.4422 -0.0633
 1480SOL    HW115902   0.752   0.953   2.699  0.1340 -0.4906  0.9389
 1480SOL    HW215903   0.724   0.821   2.769  1.8373  0.9734  0.2219
 1481SOL     OW15904   4.713   4.551  10.140  0.5491 -0.3713  0.5352
 1481SOL    HW115905   0.052   4.566  10.071  0.0449 -0.0559  0.1418
 1481SOL    HW215906   0.013   4.613  10.209  0.1965  1.9703 -1.4884
 1482SOL     OW15907   3.002   3.212   2.555 -0.0131  0.1933 -0.5759
 1482SOL    HW115908   2.978   3.120   2.540 -4.2118  0.5417  3.9201
 1482SOL    HW215909   2.927   3.254   2.596 -1.6796 -2.7511 -0.5689
 1483SOL     OW15910   3.304   3.933  17.324  0.7571  0.6837  0.0911
 1483SOL    HW115911   3.293   3.891  17.409 -0.2776 -0.0354 -0.3892
 1483SOL    HW215912   3.364   4.003  17.348  0.4155  1.4765 -1.3468
 1484SOL     OW15913   1.026   3.886  16.100  0.0016 -0.2230  0.0729
 1484SOL    HW115914   0.976   3.958  16.061  3.6960  2.4102  0.2891
 1484SOL    HW215915   1.013   3.811  16.042 -0.8719 -0.7909  0.9929
 1485SOL     OW15916   3.028   0.869  15.763  0.2885  0.4265 -0.3069
 1485SOL    HW115917   3.026   0.891  15.856 -2.6806  1.2536 -0.5718
 1485SOL    HW215918   2.993   0.780  15.757 -0.2366  0.7055 -1.4317
 1486SOL     OW15919   2.942   0.914  16.013  0.2003  0.1285 -0.1433
 1486SOL    HW115920   2.861   0.906  15.962  1.0867 -2.7451 -1.0942
 1486SOL    HW215921   2.908   0.985  16.068 -1.7382  0.1213 -1.3352
 1487SOL     OW15922   3.512   3.032   5.248  0.0059  0.4982  0.2305
 1487SOL    HW115923   3.439   3.074   5.202  0.9181  2.5183  0.5863
 1487SOL    HW215924   3.530   2.970   5.178  0.6074  0.8781  0.0493
 1488SOL     OW15925   1.745   4.608  12.406  0.1221 -0.0801 -0.0332
 1488SOL    HW115926   1.679   4.539  12.400  0.0234  0.0259 -0.1930
 1488SOL    HW215927   1.720   4.636  12.494 -0.7490  1.8852 -0.8971
 1489SOL     OW15928   4.469   0.856  15.374 -0.6091 -0.0566 -0.3374
 1489SOL    HW115929   4.481   0.886  15.464 -0.6410  1.1437 -0.7364
 1489SOL    HW215930   4.552   0.864  15.327 -1.4214  1.8260 -1.4115
 1490SOL     OW15931   3.329   0.276   3.975 -0.1181 -0.7073 -0.6314
 1490SOL    HW115932   3.332   0.185   3.944 -0.2685 -0.3840 -1.5747
 1490SOL    HW215933   3.373   0.324   3.905 -1.5646 -1.0147 -1.7416
 1491SOL     OW15934   0.878   2.217   9.095  0.1841  0.2867 -0.4062
 1491SOL    HW115935   0.919   2.133   9.115  0.0852  0.0353 -1.2624
 1491SOL    HW215936   0.956   2.269   9.075  0.0182  0.3235 -0.9599
 1492SOL     OW15937   3.387   4.667   4.703 -0.4311  0.2306 -0.0654
 1492SOL    HW115938   3.475   4.699   4.722 -0.8159  0.6451  1.0216
 1492SOL    HW215939   3.338   0.021   4.728 -0.7554  1.0865 -3.3238
 1493SOL     OW15940   3.703   1.817   2.648 -0.1549 -0.0089  0.4404
 1493SOL    HW115941   3.681   1.854   2.563 -1.3563 -0.5313  0.5225
 1493SOL    HW215942   3.640   1.850   2.712 -0.1153 -0.7175  0.8460
 1494SOL     OW15943   4.526   1.294   4.952  0.0166  0.1021  0.7054
 1494SOL    HW115944   4.454   1.351   4.925 -1.3165 -1.8950  0.0469
 1494SOL    HW215945   4.594   1.325   4.892 -1.3458  1.1057 -0.3283
 1495SOL     OW15946   2.438   4.018  12.553 -0.2846  0.0403  0.4905
 1495SOL    HW115947   2.412   4.108  12.574 -2.2813  0.0924 -2.1986
 1495SOL    HW215948   2.480   4.035  12.468 -0.1938 -0.7560  0.3823
 1496SOL     OW15949   4.090   0.420   3.047  0.6805 -0.3973 -0.1354
 1496SOL    HW115950   4.148   0.345   3.055 -0.6729 -1.4754 -0.5302
 1496SOL    HW215951   4.076   0.410   2.953 -1.2823  1.8533 -0.1152
 1497SOL     OW15952   3.463   4.068   9.400 -0.7035 -0.1826  0.0500
 1497SOL    HW115953   3.421   4.152   9.414 -1.3387 -0.3692 -0.7412
 1497SOL    HW215954   3.537   4.074   9.461  0.0239  1.0114 -0.9640
 1498SOL     OW15955   3.859   2.785  12.507 -0.0134 -0.8174 -0.2202
 1498SOL    HW115956   3.821   2.741  12.430  1.3998  0.6968 -1.7767
 1498SOL    HW215957   3.852   2.716  12.573 -0.2321  0.2444  0.8449
 1499SOL     OW15958   0.174   2.354  10.863 -0.0269 -0.0904  0.0388
 1499SOL    HW115959   0.241   2.370  10.929 -1.4493  2.1296  0.9681
 1499SOL    HW215960   0.116   2.430  10.878 -0.1385  0.3149 -2.4963
 1500SOL     OW15961   1.521   4.526  11.910  0.0039 -0.3192 -0.0858
 1500SOL    HW115962   1.493   4.560  11.824 -1.2378 -0.2959  0.3286
 1500SOL    HW215963   1.432   4.529  11.944  0.1908  0.4351  0.3338
 1501SOL     OW15964   1.987   1.076   2.019  0.7668  0.5888 -0.4708
 1501SOL    HW115965   2.075   1.043   2.004  1.0098  0.6094  0.9402
 1501SOL    HW215966   1.936   0.996   2.003 -0.5132  1.0268  1.4472
 1502SOL     OW15967   1.728   2.899   5.413  0.5284  0.6396 -0.6993
 1502SOL    HW115968   1.711   2.846   5.335 -1.2968  0.7111 -0.3648
 1502SOL    HW215969   1.822   2.888   5.425  0.2221  0.6337  1.6667
 1503SOL     OW15970   2.914   2.130   6.741 -0.5178  0.1201  0.3306
 1503SOL    HW115971   2.982   2.124   6.674 -1.4818 -0.9384 -0.5320
 1503SOL    HW215972   2.883   2.220   6.726  0.4021  0.5097  0.7481
 1504SOL     OW15973   2.913   2.998   6.065  0.2626  0.4492 -0.2173
 1504SOL    HW115974   2.998   2.970   6.032  1.1563  0.9482  1.7147
 1504SOL    HW215975   2.887   3.068   6.005 -1.4100 -0.8998 -1.0677
 1505SOL     OW15976   1.758   4.161   2.665  0.3371 -0.2360 -0.5392
 1505SOL    HW115977   1.853   4.160   2.659  0.3827  1.5126 -0.1891
 1505SOL    HW215978   1.736   4.091   2.603  1.5468 -0.7371 -0.3986
 1506SOL     OW15979   4.370   3.137   1.032  0.1632  0.8142 -0.0998
 1506SOL    HW115980   4.456   3.101   1.006 -1.2801 -0.4817 -3.1189
 1506SOL    HW215981   4.359   3.105   1.121  1.2525 -1.7953 -0.8762
 1507SOL     OW15982   2.529   4.462   6.662 -0.4385 -0.0324  0.3529
 1507SOL    HW115983   2.607   4.491   6.710 -0.2763  1.0233 -0.5390
 1507SOL    HW215984   2.495   4.399   6.726  1.1171  1.1933  2.3946
 1508SOL     OW15985   4.290   2.236   5.770  0.2141  0.1327  0.6880
 1508SOL    HW115986   4.238   2.302   5.726  0.8500  1.1949  1.5406
 1508SOL    HW215987   4.238   2.158   5.754  0.4833  0.1363 -0.2159
 1509SOL     OW15988   0.062   3.844  11.318  0.2101 -0.1116  0.6145
 1509SOL    HW115989   0.016   3.873  11.397 -2.3039 -0.6044 -0.6549
 1509SOL    HW215990   4.717   3.783  11.293  1.1066 -1.2049  0.8292
 1510SOL     OW15991   4.645   4.518  13.310 -0.0796  0.6042 -0.2891
 1510SOL    HW115992   4.694   4.508  13.391  0.8715 -3.7976 -1.4054
 1510SOL    HW215993   4.609   4.430  13.298 -1.5723  1.3492 -1.3377
 1511SOL     OW15994   3.006   1.344   9.042  0.3379 -0.2056 -0.7223
 1511SOL    HW115995   2.962   1.284   9.103  0.1617 -0.5883 -1.2334
 1511SOL    HW215996   3.074   1.290   9.003  0.3978 -0.9448  0.4026
 1512SOL     OW15997   1.126   0.769   5.399  0.7620  0.2460  0.2792
 1512SOL    HW115998   1.183   0.813   5.462 -0.6789  1.7325  0.5434
 1512SOL    HW215999   1.162   0.797   5.316  0.4437  0.7731  0.3213
 1513SOL     OW16000   0.318   1.779   4.148 -0.4505  0.4825  0.4717
 1513SOL    HW116001   0.225   1.762   4.158 -0.3702  0.8981  1.9526
 1513SOL    HW216002   0.332   1.812   4.059  1.6601  2.0041  1.3641
 1514SOL     OW16003   3.347   1.630  16.743 -0.0665  0.2453  0.7267
 1514SOL    HW116004   3.289   1.554  16.744 -0.8989  0.8979  1.9202
 1514SOL    HW216005   3.277   1.695  16.744 -0.3511 -0.0891  2.5810
 1515SOL     OW16006   1.078   4.302  11.721  0.6797 -0.3306  0.8327
 1515SOL    HW116007   1.037   4.216  11.714 -0.9108  0.7144 -2.7145
 1515SOL    HW216008   1.161   4.281  11.677  0.5401 -0.2139  0.5127
 1516SOL     OW16009   3.377   2.772  17.587 -0.5522 -0.4162 -0.2735
 1516SOL    HW116010   3.309   2.827  17.549  0.2148  0.5829 -0.1883
 1516SOL    HW216011   3.401   2.720  17.510 -0.0670 -1.3495  0.4944
 1517SOL     OW16012   2.192   4.482   8.891 -0.6394 -0.9385  0.3038
 1517SOL    HW116013   2.103   4.508   8.867 -0.5573  0.2704  1.2858
 1517SOL    HW216014   2.170   4.417   8.957  1.0337 -2.8062 -0.9527
 1518SOL     OW16015   3.675   2.848   3.766 -0.1286 -0.2592  0.3692
 1518SOL    HW116016   3.613   2.802   3.823 -2.2759  0.9763 -1.0087
 1518SOL    HW216017   3.647   2.811   3.683 -0.8927  0.1026  0.4644
 1519SOL     OW16018   2.891   4.025  11.469  0.2580 -0.2180 -0.3528
 1519SOL    HW116019   2.798   4.035  11.450  0.1925 -1.2482 -0.5640
 1519SOL    HW216020   2.899   3.931  11.483 -1.3878 -0.3337 -0.2159
 1520SOL     OW16021   1.523   1.086   3.576 -0.0913  0.4121 -0.4444
 1520SOL    HW116022   1.463   1.161   3.583 -1.9978 -0.8407 -3.0985
 1520SOL    HW216023   1.548   1.073   3.667 -2.4694 -0.0208  0.1493
 1521SOL     OW16024   0.764   2.411   0.335 -0.1917  0.7958 -0.2526
 1521SOL    HW116025   0.683   2.361   0.341  0.3173  0.0503  0.4969
 1521SOL    HW216026   0.807   2.362   0.264 -0.8313 -1.1224  0.6771
 1522SOL     OW16027   2.408   3.308   7.625 -0.3279 -0.7911 -0.7599
 1522SOL    HW116028   2.432   3.246   7.694  1.3058  3.2216  2.2054
 1522SOL    HW216029   2.491   3.336   7.587  0.5348 -1.4251  0.6665
 1523SOL     OW16030   1.726   0.385   4.108 -0.5419 -0.0466  0.1830
 1523SOL    HW116031   1.742   0.471   4.148  2.9716 -1.0201  0.7992
 1523SOL    HW216032   1.650   0.409   4.055 -0.2276 -1.3112 -0.8223
 1524SOL     OW16033   0.274   2.494  17.570 -0.0136 -0.0448  0.5734
 1524SOL    HW116034   0.245   2.405  17.551  0.8306 -0.3426  0.6719
 1524SOL    HW216035   0.189   2.511  17.611 -0.5912 -1.9011  0.1141
 1525SOL     OW16036   4.688   0.233  11.058  0.4138 -0.3383  0.4900
 1525SOL    HW116037   4.633   0.156  11.073 -0.0169 -0.2546 -0.6953
 1525SOL    HW216038   0.033   0.204  11.118  1.2268 -1.9957 -1.2334
 1526SOL     OW16039   0.104   2.574   0.728 -0.0289 -0.0472 -0.6820
 1526SOL    HW116040   0.183   2.579   0.782 -0.2076  1.2805 -0.5520
 1526SOL    HW216041   0.062   2.495   0.762 -0.8845  1.4879  1.8928
 1527SOL     OW16042   1.686   2.027   3.140 -0.3377  0.2812 -0.3849
 1527SOL    HW116043   1.602   2.059   3.106  0.4637  1.1063 -1.5521
 1527SOL    HW216044   1.658   1.940   3.170  0.8080 -0.4715 -1.5409
 1528SOL     OW16045   1.521   3.257   9.311  0.5174 -0.0460  0.0635
 1528SOL    HW116046   1.615   3.239   9.313  0.4971 -0.0751  0.8062
 1528SOL    HW216047   1.501   3.227   9.222 -0.8075  1.9938 -0.3381
 1529SOL     OW16048   1.921   0.965   4.730  0.4771  0.2279  0.4547
 1529SOL    HW116049   1.953   0.993   4.815  0.0084 -0.8904  0.9993
 1529SOL    HW216050   1.837   0.923   4.748  0.7567 -1.0409 -1.1979
 1530SOL     OW16051   0.629   3.115   6.234  0.2819  0.2932 -0.0772
 1530SOL    HW116052   0.707   3.086   6.281 -0.5639 -0.7137  0.7200
 1530SOL    HW216053   0.562   3.119   6.303  0.8189  2.3232  0.3391
 1531SOL     OW16054   0.104   4.629   6.227 -0.4769  0.0499 -0.4534
 1531SOL    HW116055   0.049   4.700   6.261  0.1356 -0.0597  0.7511
 1531SOL    HW216056   0.168   4.639   6.297  0.8240  0.4887 -1.7072
 1532SOL     OW16057   1.539   0.348   9.001 -0.0594 -0.4448 -0.0650
 1532SOL    HW116058   1.603   0.309   9.060 -0.4685 -1.8483 -0.5314
 1532SOL    HW216059   1.598   0.376   8.931 -1.7721  1.5798 -0.7104
 1533SOL     OW16060   3.799   2.587   4.080 -0.2473 -0.1293 -0.0385
 1533SOL    HW116061   3.722   2.644   4.088  0.8195  0.9138  2.8612
 1533SOL    HW216062   3.842   2.626   4.156 -0.4905 -1.3694  0.7403
 1534SOL     OW16063   0.683   0.459   0.364  0.3449  0.3609 -0.0873
 1534SOL    HW116064   0.643   0.537   0.402 -0.5741 -0.9375  1.6369
 1534SOL    HW216065   0.770   0.451   0.402  0.8794  1.5108 -1.0780
 1535SOL     OW16066   1.628   3.418   2.321  0.0384 -0.3084 -0.1292
 1535SOL    HW116067   1.641   3.435   2.415  2.0715 -0.4642 -0.3909
 1535SOL    HW216068   1.635   3.323   2.314  0.0432 -0.2581 -0.7939
 1536SOL     OW16069   0.707   2.621   6.382 -0.3599  0.4198  0.0884
 1536SOL    HW116070   0.657   2.595   6.459 -1.2665  1.3182 -0.1974
 1536SOL    HW216071   0.770   2.684   6.418  1.2626 -0.1900 -1.6485
 1537SOL     OW16072   0.423   3.440   4.234  0.1479 -0.1089 -0.2287
 1537SOL    HW116073   0.454   3.422   4.145 -2.7357 -0.8568 -1.0627
 1537SOL    HW216074   0.366   3.365   4.248  1.0267 -0.9854 -1.3579
 1538SOL     OW16075   2.381   4.213   3.431  0.1597  0.4786 -0.2511
 1538SOL    HW116076   2.435   4.254   3.499  1.8293 -1.0924 -0.6535
 1538SOL    HW216077   2.420   4.236   3.347  0.1968 -0.5270 -0.4987
 1539SOL     OW16078   0.281   4.144   3.562 -0.2944 -0.3545 -0.0891
 1539SOL    HW116079   0.339   4.068   3.558 -1.9748 -1.6195 -0.7078
 1539SOL    HW216080   0.339   4.210   3.599 -0.6482 -1.6004  2.6939
 1540SOL     OW16081   0.116   3.555  15.610  0.5187 -0.0313 -0.1579
 1540SOL    HW116082   0.211   3.549  15.604  0.6556  1.6976  0.2918
 1540SOL    HW216083   0.092   3.468  15.644 -3.1482  1.0074 -0.1156
 1541SOL     OW16084   2.828   1.153  14.024 -0.1612 -0.4056 -0.1020
 1541SOL    HW116085   2.854   1.168  13.933  1.5031 -1.3064  0.2323
 1541SOL    HW216086   2.895   1.193  14.078  0.0180 -3.2543  1.7831
 1542SOL     OW16087   2.479   2.956   3.342 -0.0192 -0.0568 -0.0606
 1542SOL    HW116088   2.543   2.923   3.404  1.1179 -0.3061 -1.3852
 1542SOL    HW216089   2.491   2.907   3.261 -1.7428  0.6778 -0.7704
 1543SOL     OW16090   0.725   2.934   5.493  0.4284 -0.4319 -0.4447
 1543SOL    HW116091   0.702   3.012   5.543 -0.7940 -0.1922 -1.3995
 1543SOL    HW216092   0.797   2.977   5.446  1.6310  0.9147  2.5924
 1544SOL     OW16093   2.769   4.318   5.609 -0.5732  0.2384 -0.2697
 1544SOL    HW116094   2.789   4.384   5.675 -0.3661  0.2690 -0.3631
 1544SOL    HW216095   2.691   4.359   5.572 -0.7375 -1.7931 -2.1464
 1545SOL     OW16096   3.853   3.419   6.036 -0.3361  0.1868  0.3494
 1545SOL    HW116097   3.806   3.434   5.954 -0.2843 -0.7931  0.1385
 1545SOL    HW216098   3.904   3.498   6.052 -0.6532  0.4226  0.1804
 1546SOL     OW16099   1.299   2.188  14.053  0.2608 -0.0446 -0.1487
 1546SOL    HW116100   1.376   2.240  14.073  0.0122  0.1548  0.2845
 1546SOL    HW216101   1.225   2.207  14.111 -0.0121 -0.8719 -0.2290
 1547SOL     OW16102   0.507   3.057   3.821 -0.0459 -0.1174 -0.1034
 1547SOL    HW116103   0.591   3.085   3.787  0.5047 -2.2882 -0.5525
 1547SOL    HW216104   0.523   2.962   3.823 -0.9337 -0.2509  0.9100
 1548SOL     OW16105   1.288   0.243   4.098  0.0584  0.8246 -0.0646
 1548SOL    HW116106   1.213   0.191   4.070  0.3326 -0.2029  1.0977
 1548SOL    HW216107   1.254   0.332   4.089 -0.9350  0.3463 -1.0172
 1549SOL     OW16108   2.008   4.136   6.486  0.5289 -0.5112  0.2008
 1549SOL    HW116109   2.098   4.103   6.488  0.4016 -0.9065 -0.6267
 1549SOL    HW216110   1.963   4.070   6.539 -0.5711 -0.9220 -1.2409
 1550SOL     OW16111   2.447   1.933   3.683 -0.0186 -0.2658  0.2942
 1550SOL    HW116112   2.455   1.922   3.778 -1.6316 -1.2527  0.3140
 1550SOL    HW216113   2.374   1.993   3.685  0.0322 -0.1820 -0.6043
 1551SOL     OW16114   1.977   3.915   8.712 -0.0933  0.4946  0.3294
 1551SOL    HW116115   1.952   3.874   8.630  1.8483 -0.5932  0.2864
 1551SOL    HW216116   2.018   3.847   8.765 -1.8721 -0.5440  0.3484
 1552SOL     OW16117   2.047   2.725  16.894 -0.3977 -0.2316 -0.5291
 1552SOL    HW116118   1.983   2.696  16.830 -1.2771  1.0942 -0.2423
 1552SOL    HW216119   2.122   2.729  16.835 -0.2480  2.4719 -0.1642
 1553SOL     OW16120   1.582   2.865   6.463 -0.0095 -0.7717 -0.6455
 1553SOL    HW116121   1.560   2.815   6.542 -1.6843 -0.5467 -0.9798
 1553SOL    HW216122   1.513   2.931   6.459  1.4403  0.9623  2.9871
 1554SOL     OW16123   1.193   3.990   5.795 -0.3656  0.6838 -0.2463
 1554SOL    HW116124   1.155   4.078   5.793  0.3868  1.0421  1.5529
 1554SOL    HW216125   1.253   3.999   5.722 -0.5032  2.4516 -0.1535
 1555SOL     OW16126   0.714   4.681   7.563 -0.1109 -0.7754 -0.1007
 1555SOL    HW116127   0.809   4.678   7.555 -0.4257 -3.8425 -2.8271
 1555SOL    HW216128   0.693   4.588   7.557 -0.1140 -0.8694  1.3432
 1556SOL     OW16129   1.944   3.937   4.685 -0.5688  0.7023 -0.7025
 1556SOL    HW116130   1.866   3.944   4.740  1.3121 -2.5837  2.4116
 1556SOL    HW216131   1.928   3.999   4.615  0.5569  1.2354 -0.4838
 1557SOL     OW16132   3.623   4.538   3.024 -0.9898  0.4675 -0.0418
 1557SOL    HW116133   3.643   4.461   2.970  2.4167  0.1840  1.6042
 1557SOL    HW216134   3.653   4.605   2.962  0.9724  0.7657  1.2199
 1558SOL     OW16135   1.657   1.538   1.855 -0.0377  0.1730 -0.4323
 1558SOL    HW116136   1.658   1.510   1.947 -1.4156  1.1410 -0.1212
 1558SOL    HW216137   1.715   1.470   1.821  1.0611  1.2267 -0.6657
 1559SOL     OW16138   2.848   2.876  13.140  0.1164  0.1653  0.6276
 1559SOL    HW116139   2.844   2.873  13.044  0.6007  1.1288  0.5773
 1559SOL    HW216140   2.923   2.819  13.155 -0.2713 -0.1776  1.2841
 1560SOL     OW16141   3.003   2.262   3.846  0.1286 -0.3979  0.2747
 1560SOL    HW116142   3.031   2.194   3.907  0.0332  0.2682  1.0680
 1560SOL    HW216143   2.956   2.315   3.911 -0.0218 -0.9431  0.6089
 1561SOL     OW16144   1.450   0.225   1.251  0.4146 -0.4459  0.0215
 1561SOL    HW116145   1.486   0.143   1.218 -1.3877 -1.9043  1.6778
 1561SOL    HW216146   1.388   0.243   1.181 -0.1332 -2.0188  0.0956
 1562SOL     OW16147   1.751   1.268   5.082  0.9261 -0.3068  0.8621
 1562SOL    HW116148   1.763   1.351   5.035  2.4699 -0.3442  1.1663
 1562SOL    HW216149   1.773   1.292   5.172  2.0721 -0.8407  0.7263
 1563SOL     OW16150   1.961   1.128  17.038 -0.1225 -0.2075  0.3609
 1563SOL    HW116151   1.999   1.155  17.122  0.5971 -0.9619  0.2741
 1563SOL    HW216152   1.869   1.112  17.055  0.1279 -1.0755  0.8609
 1564SOL     OW16153   0.188   2.033   3.408 -0.0415  0.0285  0.1037
 1564SOL    HW116154   0.126   2.100   3.438 -0.3760 -0.3264  0.1998
 1564SOL    HW216155   0.267   2.087   3.402  0.4237 -0.9283 -2.1981
 1565SOL     OW16156   1.733   0.682  16.244  0.1580 -0.1001  0.2767
 1565SOL    HW116157   1.645   0.708  16.214 -0.0470 -0.1695  0.8171
 1565SOL    HW216158   1.750   0.600  16.199 -0.7347  1.1206 -2.3188
 1566SOL     OW16159   4.332   3.123   8.030  0.3821 -0.1337 -0.0844
 1566SOL    HW116160   4.412   3.090   7.989  0.6204 -0.7699  0.8919
 1566SOL    HW216161   4.358   3.213   8.049  1.8559 -0.7242  0.6905
 1567SOL     OW16162   1.039   3.411   1.890  0.3494  0.1621  0.6152
 1567SOL    HW116163   0.975   3.344   1.865 -0.2191  0.0260  2.3991
 1567SOL    HW216164   1.118   3.360   1.873  0.9768 -0.0501  4.1136
 1568SOL     OW16165   2.678   1.756   4.307 -0.1813  0.7437 -0.1013
 1568SOL    HW116166   2.720   1.810   4.374 -0.3445  1.4077 -0.5376
 1568SOL    HW216167   2.629   1.818   4.253 -0.3502  1.4532  0.8606
 1569SOL     OW16168   3.880   2.242   1.240 -0.0580  0.7412  0.0832
 1569SOL    HW116169   3.907   2.153   1.218  0.3185  1.3902 -2.0255
 1569SOL    HW216170   3.921   2.289   1.168  2.8188 -0.2662  1.0433
 1570SOL     OW16171   2.402   0.339   1.091 -0.5868  0.4332  0.5033
 1570SOL    HW116172   2.439   0.263   1.046 -1.3501 -0.5374  1.4944
 1570SOL    HW216173   2.364   0.398   1.026 -2.0459 -0.5749  0.4468
 1571SOL     OW16174   1.484   3.987   4.765 -0.8295 -0.1226  0.2549
 1571SOL    HW116175   1.481   3.892   4.781  1.9729 -0.1809  0.4686
 1571SOL    HW216176   1.483   3.992   4.669 -0.8148 -1.9704  0.1584
 1572SOL     OW16177   2.376   0.773  17.290  0.3562 -1.3185  0.1607
 1572SOL    HW116178   2.360   0.841  17.224  1.5006 -0.4945  0.7450
 1572SOL    HW216179   2.412   0.701  17.238  1.1822 -0.0206 -1.0750
 1573SOL     OW16180   1.427   3.222   7.204  0.4515  0.0453  0.1588
 1573SOL    HW116181   1.415   3.137   7.247 -1.4786  0.0614 -0.3203
 1573SOL    HW216182   1.467   3.278   7.271 -0.9133 -0.0810  1.0782
 1574SOL     OW16183   1.788   2.092   4.841 -0.6972 -0.5479  0.3640
 1574SOL    HW116184   1.844   2.150   4.892 -0.2365 -0.3184 -0.4001
 1574SOL    HW216185   1.768   2.019   4.899 -2.6066  1.4518  2.2212
 1575SOL     OW16186   3.700   2.937   7.586  0.8115 -0.3922 -0.0834
 1575SOL    HW116187   3.719   2.922   7.679 -4.4219  1.9446  1.3478
 1575SOL    HW216188   3.707   2.853   7.541  1.0187 -0.2218 -0.3726
 1576SOL     OW16189   1.024   2.705  13.668  0.4218  0.3701 -0.0945
 1576SOL    HW116190   1.027   2.687  13.574 -2.7020 -1.0737  0.1017
 1576SOL    HW216191   0.966   2.781  13.675  2.6384  2.2134 -1.8255
 1577SOL     OW16192   0.562   2.105   3.984 -0.5083  0.2641 -0.6641
 1577SOL    HW116193   0.543   2.041   3.916 -2.4863 -0.0697  0.2182
 1577SOL    HW216194   0.588   2.181   3.932 -0.4734  1.3647  0.9649
 1578SOL     OW16195   4.235   0.951   6.974 -0.6965 -0.5963  0.2353
 1578SOL    HW116196   4.282   0.954   6.890  0.1618  3.5773  0.9013
 1578SOL    HW216197   4.197   0.863   6.970 -2.7534  0.2696  0.8769
 1579SOL     OW16198   1.289   0.698  15.258 -0.5718 -0.0108 -0.1437
 1579SOL    HW116199   1.284   0.784  15.216 -1.1772  1.0640  2.1820
 1579SOL    HW216200   1.321   0.639  15.189  0.1405  0.7638 -0.4723
 1580SOL     OW16201   0.458   2.671   1.123  0.2018 -0.3124 -0.2671
 1580SOL    HW116202   0.415   2.744   1.167  0.1425 -0.8267  0.5252
 1580SOL    HW216203   0.550   2.676   1.151  0.4788  0.9517 -1.4021
 1581SOL     OW16204   4.668   1.918   6.906 -0.3941  0.1885  0.7470
 1581SOL    HW116205   4.621   2.001   6.910  1.5725  1.3573 -0.0643
 1581SOL    HW216206   4.702   1.912   6.995  1.9644  0.3258 -0.1254
 1582SOL     OW16207   1.025   3.787   8.825 -0.0937 -0.5147 -0.0707
 1582SOL    HW116208   1.084   3.769   8.752 -0.6120  0.0947 -0.6429
 1582SOL    HW216209   0.946   3.747   8.786 -0.9418  1.0712  0.0418
 1583SOL     OW16210   1.186   1.507   3.915  0.3383  0.1655 -0.0207
 1583SOL    HW116211   1.209   1.504   4.008  0.1516  0.1150  0.0236
 1583SOL    HW216212   1.249   1.565   3.872 -1.7428  2.0012 -0.5910
 1584SOL     OW16213   2.415   2.679   0.532 -0.5166  0.3438  0.1081
 1584SOL    HW116214   2.379   2.680   0.621 -1.1027 -0.2309 -0.1267
 1584SOL    HW216215   2.505   2.651   0.551 -0.3953  0.5161 -0.2310
 1585SOL     OW16216   0.479   1.411   0.183  0.3381  0.1512  0.6032
 1585SOL    HW116217   0.394   1.432   0.143 -0.1267  0.7809  1.9091
 1585SOL    HW216218   0.449   1.374   0.266  1.1358 -0.4636  0.6178
 1586SOL     OW16219   0.036   2.217   1.672  0.3362  0.3350  0.4660
 1586SOL    HW116220   0.070   2.212   1.761  0.2330  1.0374  0.5463
 1586SOL    HW216221   4.705   2.140   1.678  1.9406 -0.7617  0.9536
 1587SOL     OW16222   3.863   1.995   7.787 -0.6150  0.2695  0.1321
 1587SOL    HW116223   3.908   1.918   7.754  0.7275  0.9431  0.3796
 1587SOL    HW216224   3.894   1.998   7.877 -1.1605  2.4916  0.2647
 1588SOL     OW16225   2.326   0.220   7.295  0.5845  0.4379  0.0169
 1588SOL    HW116226   2.376   0.232   7.376  0.4928 -0.0565  0.1505
 1588SOL    HW216227   2.247   0.266   7.321  0.3588 -0.7196  1.3860
 1589SOL     OW16228   0.329   3.470  16.876  0.1871  0.5536  0.2999
 1589SOL    HW116229   0.334   3.430  16.789  2.1524  0.5017  0.4412
 1589SOL    HW216230   0.359   3.400  16.935 -2.7573 -0.9409  0.0264
 1590SOL     OW16231   3.223   3.080   9.611  0.5733  0.2821 -0.2462
 1590SOL    HW116232   3.233   3.162   9.562  0.0777 -0.0372 -0.8804
 1590SOL    HW216233   3.310   3.057   9.643  0.5060  0.9424  0.4075
 1591SOL     OW16234   0.577   2.609   2.935  0.7504  0.3625 -0.4772
 1591SOL    HW116235   0.621   2.641   3.014 -0.2974 -0.7478  0.5369
 1591SOL    HW216236   0.647   2.568   2.883 -0.2414 -1.1547 -0.6141
 1592SOL     OW16237   4.604   0.431   4.128 -0.3929 -0.1908 -0.2899
 1592SOL    HW116238   4.539   0.412   4.060 -0.4153  1.5079 -0.7698
 1592SOL    HW216239   4.685   0.441   4.077  0.8387 -0.0015  1.6897
 1593SOL     OW16240   1.257   4.213   6.071 -0.1953  0.2994  0.0089
 1593SOL    HW116241   1.219   4.154   6.137 -0.2629  0.9536  0.5526
 1593SOL    HW216242   1.196   4.217   5.998 -0.5916  0.0138  0.3232
 1594SOL     OW16243   0.631   3.725   6.136 -0.0445  0.1416 -0.1415
 1594SOL    HW116244   0.726   3.730   6.147 -0.2421 -1.9012  2.3745
 1594SOL    HW216245   0.613   3.679   6.054  0.8277 -1.7077  0.7195
 1595SOL     OW16246   1.814   1.285  16.087 -0.4833 -0.1422  0.2875
 1595SOL    HW116247   1.754   1.212  16.103  0.8209 -1.6902 -1.9254
 1595SOL    HW216248   1.756   1.362  16.080  0.4588  0.3982 -1.5690
 1596SOL     OW16249   0.208   4.151   3.272 -0.4647 -0.0417 -0.4562
 1596SOL    HW116250   0.133   4.093   3.285 -1.5304  1.0698 -1.6218
 1596SOL    HW216251   0.268   4.112   3.335  0.1967  2.4262  0.4370
 1597SOL     OW16252   4.023   2.030   3.734  0.2664  0.1857 -0.2949
 1597SOL    HW116253   4.012   2.120   3.703 -3.9841  0.7370  2.8424
 1597SOL    HW216254   3.999   2.040   3.826  0.8424  0.6790 -0.1971
 1598SOL     OW16255   1.741   2.035  11.242 -0.3724 -0.0245  0.3090
 1598SOL    HW116256   1.811   2.097  11.261  0.3958 -1.0298  0.7662
 1598SOL    HW216257   1.676   2.097  11.210 -1.1153  0.3465  2.5527
 1599SOL     OW16258   3.133   1.872   8.585 -0.2982  0.1126  0.0058
 1599SOL    HW116259   3.074   1.810   8.627 -0.1781  0.4871  0.7305
 1599SOL    HW216260   3.215   1.823   8.578  1.1680  2.5658 -0.1948
 1600SOL     OW16261   2.587   2.964   8.082  0.0732  0.3175  0.2995
 1600SOL    HW116262   2.560   2.939   8.170 -0.2264  1.5182  0.5571
 1600SOL    HW216263   2.680   2.965   8.105  0.2830 -0.6350 -0.5249
 1601SOL     OW16264   3.285   0.249   4.496 -0.3962 -0.3035  0.0758
 1601SOL    HW116265   3.266   0.217   4.584 -1.0720 -2.1101 -0.7208
 1601SOL    HW216266   3.248   0.337   4.501  0.2611  0.1080 -2.1402
 1602SOL     OW16267   2.342   0.945   1.500  0.0143  0.4527  0.1616
 1602SOL    HW116268   2.413   0.907   1.447 -0.6913 -0.0079 -0.4449
 1602SOL    HW216269   2.269   0.886   1.483 -0.9520  1.5232  0.6254
 1603SOL     OW16270   4.712   1.341   3.686  0.9821  0.5245  0.2126
 1603SOL    HW116271   4.622   1.374   3.698  1.1612  0.5369  1.5617
 1603SOL    HW216272   4.696   1.288   3.608 -0.1311 -0.6796  1.2400
 1604SOL     OW16273   2.132   2.423   2.923 -0.5213 -0.2458  0.5959
 1604SOL    HW116274   2.106   2.451   2.835  2.9791 -1.3221 -0.7929
 1604SOL    HW216275   2.228   2.425   2.915 -0.3402 -0.2938  2.7667
 1605SOL     OW16276   0.049   3.547   7.626  0.3465  0.3338 -0.4530
 1605SOL    HW116277   0.115   3.612   7.650  0.2931 -0.0169  0.6504
 1605SOL    HW216278   0.025   3.508   7.710  3.3317  1.5666  0.9602
 1606SOL     OW16279   4.549   2.207   5.884 -0.0674  0.0278 -0.1462
 1606SOL    HW116280   4.469   2.221   5.834  0.2515  0.6387 -0.4830
 1606SOL    HW216281   4.590   2.290   5.858 -0.7691  0.4161 -0.0041
 1607SOL     OW16282   4.583   3.534  10.691  0.3302 -0.0117 -0.1668
 1607SOL    HW116283   4.646   3.563  10.757  1.2666  1.8145 -1.8619
 1607SOL    HW216284   4.595   3.614  10.640  1.6711 -1.3757 -1.9980
 1608SOL     OW16285   3.768   0.531   5.530 -0.1434  0.1008 -0.2922
 1608SOL    HW116286   3.760   0.436   5.525 -1.5063  0.1030  2.0205
 1608SOL    HW216287   3.864   0.539   5.533 -0.2738  0.9791  1.5478
 1609SOL     OW16288   4.280   0.115   7.404 -0.3654 -0.3294 -0.0349
 1609SOL    HW116289   4.247   0.058   7.473  0.2050  0.6612  1.0517
 1609SOL    HW216290   4.364   0.139   7.443  0.9670 -2.5704 -1.4893
 1610SOL     OW16291   4.104   0.734   2.802 -0.4400 -0.3247 -0.5551
 1610SOL    HW116292   4.159   0.656   2.801 -0.5115 -0.3648 -1.7348
 1610SOL    HW216293   4.085   0.732   2.708  0.2357 -1.7253 -0.6547
 1611SOL     OW16294   1.077   1.833   5.916 -0.0834  0.3560  0.0548
 1611SOL    HW116295   0.984   1.848   5.899 -0.1656 -1.1908 -0.8743
 1611SOL    HW216296   1.054   1.811   6.006  0.4280 -0.2195  0.0504
 1612SOL     OW16297   4.581   1.853  13.280  0.2629  0.8032 -0.4764
 1612SOL    HW116298   4.619   1.940  13.267  0.8941  0.6243  0.1412
 1612SOL    HW216299   4.646   1.788  13.252 -0.1876  0.9970 -1.9584
 1613SOL     OW16300   1.649   4.265  11.623  0.3014 -0.4260  0.0191
 1613SOL    HW116301   1.663   4.354  11.590  3.5608 -1.1575 -0.6270
 1613SOL    HW216302   1.728   4.220  11.592 -0.9217 -1.0259 -2.2013
 1614SOL     OW16303   0.437   1.405   2.630  0.0405  0.4961 -0.2576
 1614SOL    HW116304   0.347   1.434   2.641  0.2273  0.4161  1.5879
 1614SOL    HW216305   0.483   1.471   2.681 -0.7744  0.0962  1.0063
 1615SOL     OW16306   2.954   1.102   2.272 -0.2852 -0.1830 -0.0769
 1615SOL    HW116307   2.955   1.176   2.213 -0.7608  0.7183  1.0414
 1615SOL    HW216308   2.904   1.030   2.233 -0.4720 -1.4606  2.4683
 1616SOL     OW16309   4.605   4.701  11.155 -0.2837  0.1050  0.0530
 1616SOL    HW116310   4.552   4.673  11.080 -1.6157  0.2576  0.9441
 1616SOL    HW216311   4.562   4.651  11.224 -0.0415 -0.4280 -0.1784
 1617SOL     OW16312   4.316   3.551   3.284  0.2147 -0.5218 -0.0924
 1617SOL    HW116313   4.225   3.546   3.257  0.6495  2.0244 -2.0640
 1617SOL    HW216314   4.348   3.607   3.214 -0.5003 -0.7677 -0.6098
 1618SOL     OW16315   3.617   2.178   7.048 -0.1950 -0.0654  0.0916
 1618SOL    HW116316   3.552   2.115   7.080 -1.2531  0.7748 -0.3983
 1618SOL    HW216317   3.591   2.185   6.956  0.5791 -0.6633 -0.1741
 1619SOL     OW16318   2.784   4.361  16.772 -0.1351  0.1629  0.0062
 1619SOL    HW116319   2.823   4.424  16.712 -1.9230 -0.3083 -1.6465
 1619SOL    HW216320   2.843   4.354  16.847 -1.1891  1.4807  0.9695
 1620SOL     OW16321   0.205   1.446   8.316  0.0230  0.1698  0.2597
 1620SOL    HW116322   0.212   1.443   8.412  1.7808 -1.6341  0.0607
 1620SOL    HW216323   0.166   1.360   8.301 -0.4348  0.4118  0.0674
 1621SOL     OW16324   4.270   3.189  12.103  0.2891  0.5150  0.3134
 1621SOL    HW116325   4.294   3.096  12.103 -0.8602  0.2165  0.3836
 1621SOL    HW216326   4.238   3.215  12.189  0.3057  1.6839 -0.0368
 1622SOL     OW16327   3.087   0.428   4.503  0.0924  0.3198  0.4524
 1622SOL    HW116328   3.011   0.434   4.562 -0.2363 -0.6698  0.1259
 1622SOL    HW216329   3.036   0.405   4.425 -1.2692 -0.3261  1.5206
 1623SOL     OW16330   4.207   0.977   4.281 -0.5496 -0.0633 -0.4858
 1623SOL    HW116331   4.115   0.959   4.262 -0.3626 -0.0968 -1.3261
 1623SOL    HW216332   4.230   0.903   4.338  2.5353  0.8427 -0.5575
 1624SOL     OW16333   1.145   0.149  14.948 -0.0137  0.2250 -0.0375
 1624SOL    HW116334   1.158   0.067  14.899  2.2906  1.0773 -0.8480
 1624SOL    HW216335   1.140   0.116  15.037 -1.1971  0.4105 -0.0309
 1625SOL     OW16336   2.899   2.406  10.671  0.1469  0.2005  0.5207
 1625SOL    HW116337   2.808   2.418  10.641  0.1214 -0.3545  0.3787
 1625SOL    HW216338   2.930   2.496  10.668  1.1010 -0.1956 -1.1483
 1626SOL     OW16339   0.835   4.028   6.189 -0.1408 -0.0771 -0.1884
 1626SOL    HW116340   0.859   4.017   6.282  1.3341 -0.1605 -0.5791
 1626SOL    HW216341   0.860   3.941   6.158  1.2848 -0.4856  2.1019
 1627SOL     OW16342   4.564   1.155   7.091 -0.0761  0.6902  0.0016
 1627SOL    HW116343   4.548   1.067   7.059  2.7541  0.6030 -1.1352
 1627SOL    HW216344   4.479   1.176   7.129  0.4101  0.1270  1.3885
 1628SOL     OW16345   2.232   3.952   6.459  0.5544 -0.2743 -0.4379
 1628SOL    HW116346   2.153   3.906   6.430  0.0969 -0.1580  0.6295
 1628SOL    HW216347   2.298   3.886   6.436 -0.6474 -1.0450 -1.7150
 1629SOL     OW16348   1.025   3.440  12.106 -0.0252  0.0328  0.1495
 1629SOL    HW116349   1.120   3.450  12.118 -0.2488  0.8023  1.2290
 1629SOL    HW216350   0.989   3.457  12.193  0.0200  0.1645  0.1434
 1630SOL     OW16351   2.585   0.528   8.288  0.4086  0.0370 -0.0201
 1630SOL    HW116352   2.567   0.467   8.360 -0.7519 -0.9402 -1.1215
 1630SOL    HW216353   2.560   0.612   8.325  0.4935  0.3208 -0.6139
 1631SOL     OW16354   2.819   2.702  10.307  0.5327  0.5240  0.4150
 1631SOL    HW116355   2.893   2.715  10.367 -0.9721  0.8021  2.2256
 1631SOL    HW216356   2.809   2.793  10.277 -3.5154 -0.2224 -0.5305
 1632SOL     OW16357   1.503   4.569   0.589  0.3683 -0.4979  0.1332
 1632SOL    HW116358   1.474   4.480   0.571  0.3136 -0.2891 -0.7868
 1632SOL    HW216359   1.423   4.612   0.620 -0.7390 -0.7310 -2.4090
 1633SOL     OW16360   0.472   2.310   5.199  0.1806  0.3668  0.0958
 1633SOL    HW116361   0.506   2.263   5.123 -0.1367  3.7488 -2.1682
 1633SOL    HW216362   0.458   2.396   5.159 -0.5813  0.8565  1.4108
 1634SOL     OW16363   1.006   0.588   2.027 -0.1492  0.3258 -1.1843
 1634SOL    HW116364   1.085   0.538   2.007 -0.1187  1.2519 -3.3621
 1634SOL    HW216365   0.997   0.572   2.121 -0.2917 -2.5233 -1.7015
 1635SOL     OW16366   4.643   2.958  12.865 -0.1371 -0.5233 -0.2626
 1635SOL    HW116367   4.671   3.050  12.861 -2.2977  0.0572 -2.2358
 1635SOL    HW216368   4.555   2.966  12.827  0.4991 -1.0793 -1.8666
 1636SOL     OW16369   0.702   2.677   8.928  0.0215 -0.1481 -0.7713
 1636SOL    HW116370   0.772   2.662   8.865 -1.2983 -0.9751 -2.0496
 1636SOL    HW216371   0.697   2.586   8.958  1.3745 -0.6253 -1.9806
 1637SOL     OW16372   3.974   0.935   8.130  0.3773  0.0548 -0.2374
 1637SOL    HW116373   3.964   0.852   8.176  0.3334  0.6076  0.7396
 1637SOL    HW216374   3.934   1.000   8.187  0.6314 -0.0464  0.0525
 1638SOL     OW16375   4.143   3.454   7.204  0.5525  0.3489  0.3102
 1638SOL    HW116376   4.082   3.520   7.170  0.3079 -0.2409 -0.3774
 1638SOL    HW216377   4.098   3.376   7.171 -0.9070  1.6840 -0.8672
 1639SOL     OW16378   0.079   3.379  12.470  0.1435 -0.6747  0.7207
 1639SOL    HW116379   0.050   3.323  12.398 -0.6942  1.4268 -0.5574
 1639SOL    HW216380   0.138   3.314  12.510  0.1240 -1.7109 -0.9286
 1640SOL     OW16381   2.577   3.239  11.243 -0.1274  0.0652  0.7256
 1640SOL    HW116382   2.588   3.151  11.208  1.1880  0.1749  0.8741
 1640SOL    HW216383   2.559   3.218  11.335  0.1622 -0.9430  0.5488
 1641SOL     OW16384   4.055   1.010   5.676  0.8260 -0.2760  0.3293
 1641SOL    HW116385   4.018   0.936   5.627 -0.2578  1.7165 -1.8645
 1641SOL    HW216386   4.107   0.966   5.743 -2.1873 -1.6517  1.7870
 1642SOL     OW16387   3.342   3.692   5.284 -0.1392  0.4452 -0.4750
 1642SOL    HW116388   3.364   3.699   5.191 -1.1629  1.5337 -0.6403
 1642SOL    HW216389   3.430   3.663   5.307 -0.7698 -0.8102  0.3754
 1643SOL     OW16390   2.262   2.904   3.789 -0.3863 -0.5221 -0.3436
 1643SOL    HW116391   2.181   2.853   3.794 -1.8503  1.6285 -2.0744
 1643SOL    HW216392   2.294   2.867   3.707  0.6954  0.4015 -0.3396
 1644SOL     OW16393   3.009   2.208   6.997  0.1599 -0.1062  0.1500
 1644SOL    HW116394   2.987   2.171   6.912  1.6541  0.0432 -0.3132
 1644SOL    HW216395   2.925   2.202   7.043  1.3464 -1.7436  2.1216
 1645SOL     OW16396   1.311   4.632   4.064  0.2695 -0.0180 -0.7263
 1645SOL    HW116397   1.401   4.662   4.077  0.5482 -0.4952 -1.5294
 1645SOL    HW216398   1.329   4.542   4.038 -0.2420 -0.1038 -0.7745
 1646SOL     OW16399   2.085   1.159   5.342  0.4729 -0.7025  1.0547
 1646SOL    HW116400   2.120   1.083   5.388  0.6438 -1.1850  0.1195
 1646SOL    HW216401   2.020   1.120   5.285  1.5332  0.3213 -0.8841
 1647SOL     OW16402   2.656   2.447   5.267  0.0525 -0.6838  0.5058
 1647SOL    HW116403   2.581   2.502   5.288  0.5385 -0.2732  1.1499
 1647SOL    HW216404   2.684   2.435   5.358 -2.0013  0.3479  1.2640
 1648SOL     OW16405   1.504   2.214   1.943 -0.8470  0.2115  0.5108
 1648SOL    HW116406   1.589   2.181   1.915 -0.8623  0.0227  0.6903
 1648SOL    HW216407   1.451   2.189   1.867 -0.8670 -0.8490  0.8831
 1649SOL     OW16408   1.841   3.892   1.894  0.1892  0.4074 -0.1957
 1649SOL    HW116409   1.861   3.800   1.879 -0.0844 -0.2421  3.4330
 1649SOL    HW216410   1.931   3.923   1.906 -0.3814  1.8209  0.4807
 1650SOL     OW16411   2.644   4.002   5.796  0.1949 -0.3120  0.3266
 1650SOL    HW116412   2.641   3.934   5.728  0.9833 -1.0370  1.0244
 1650SOL    HW216413   2.581   4.066   5.763 -0.3973 -0.3877  1.2884
 1651SOL     OW16414   2.672   0.229  13.797  0.1559 -0.0919  0.6852
 1651SOL    HW116415   2.713   0.165  13.856  1.7043  0.6673  0.4421
 1651SOL    HW216416   2.585   0.222  13.836  0.4923  0.7495  1.5727
 1652SOL     OW16417   1.458   1.812  15.712  0.1135  0.0879 -0.3011
 1652SOL    HW116418   1.395   1.780  15.776  2.9179  0.6562  2.8040
 1652SOL    HW216419   1.540   1.793  15.758  0.0900 -1.0210 -0.7134
 1653SOL     OW16420   1.708   4.253  12.616 -0.1401 -0.0655 -0.1951
 1653SOL    HW116421   1.780   4.251  12.553  1.3230  0.8981  1.4363
 1653SOL    HW216422   1.630   4.246  12.560  1.0343 -2.7512 -1.5262
 1654SOL     OW16423   3.645   1.887   4.350 -0.0123 -0.4984 -0.5162
 1654SOL    HW116424   3.674   1.866   4.261 -0.3772 -0.7666 -0.5711
 1654SOL    HW216425   3.732   1.878   4.390 -0.4428 -1.1849  0.2610
 1655SOL     OW16426   1.691   0.477   7.863 -0.2561 -0.1948 -0.5229
 1655SOL    HW116427   1.785   0.497   7.867 -0.4750  0.0488  3.2204
 1655SOL    HW216428   1.692   0.399   7.919  3.2710  1.7044  2.1219
 1656SOL     OW16429   1.370   3.053   2.277 -0.4181  0.1945  0.2876
 1656SOL    HW116430   1.405   3.105   2.205 -1.4429  1.3301  0.6096
 1656SOL    HW216431   1.385   2.966   2.240 -1.3064 -0.1919  0.8198
 1657SOL     OW16432   3.899   4.412  14.227  0.5909  0.0419 -0.3934
 1657SOL    HW116433   3.967   4.470  14.193  1.2164  0.2000  1.1373
 1657SOL    HW216434   3.910   4.417  14.322 -0.6059  0.4428 -0.2839
 1658SOL     OW16435   4.461   3.770   1.125  0.2337  0.7372 -0.0394
 1658SOL    HW116436   4.555   3.777   1.137  0.3094  1.0066 -0.8122
 1658SOL    HW216437   4.445   3.831   1.053 -0.9294 -0.6780 -0.9905
 1659SOL     OW16438   0.727   0.844  16.936  0.1746 -0.2759 -0.0247
 1659SOL    HW116439   0.693   0.825  17.024  1.4375  2.7366  1.1402
 1659SOL    HW216440   0.648   0.888  16.905 -1.2458 -0.6292  3.0501
 1660SOL     OW16441   1.900   0.231  16.057 -0.3773  0.0178 -0.2916
 1660SOL    HW116442   1.953   0.264  15.985 -0.8087 -0.3963 -0.8009
 1660SOL    HW216443   1.852   0.305  16.095  1.4975 -1.2777  4.6334
 1661SOL     OW16444   0.967   2.622  14.867 -0.1253  0.3648  0.2438
 1661SOL    HW116445   0.972   2.718  14.865 -0.3264  0.3910  1.3579
 1661SOL    HW216446   1.010   2.601  14.949 -1.9624 -0.8610  0.8893
 1662SOL     OW16447   2.625   0.694   6.421 -0.1299 -0.0840 -0.1043
 1662SOL    HW116448   2.638   0.723   6.512  1.5019  3.3466 -1.4408
 1662SOL    HW216449   2.694   0.729   6.364 -0.4351 -1.0797 -1.0733
 1663SOL     OW16450   3.922   0.630  17.695 -0.0476 -0.4219  0.4180
 1663SOL    HW116451   3.880   0.600  17.614  0.2567 -0.0718  0.1353
 1663SOL    HW216452   3.995   0.572   0.018 -0.9371 -1.9903 -0.7500
 1664SOL     OW16453   0.331   0.295   8.478  0.1358 -0.5635  0.5868
 1664SOL    HW116454   0.268   0.367   8.489 -0.1445 -0.9506  1.5269
 1664SOL    HW216455   0.320   0.239   8.555 -1.5201 -0.7914  0.1828
 1665SOL     OW16456   4.628   0.555  17.046 -0.2475  0.4027 -0.6039
 1665SOL    HW116457   4.720   0.528  17.048 -0.6847 -0.6741  3.3724
 1665SOL    HW216458   4.593   0.484  17.100  0.9610  0.5443  0.3622
 1666SOL     OW16459   4.160   3.138   6.981  0.2159  0.8114 -0.2198
 1666SOL    HW116460   4.183   3.049   6.956 -1.1627  0.7033 -1.0608
 1666SOL    HW216461   4.095   3.164   6.917  0.3314  2.2687  0.2460
 1667SOL     OW16462   2.014   2.929  16.197 -0.0303  0.2711 -0.1001
 1667SOL    HW116463   2.091   2.944  16.252 -0.0540  0.3381 -0.0853
 1667SOL    HW216464   1.990   3.020  16.181  0.1881  0.5455  1.1277
 1668SOL     OW16465   0.808   3.488   3.494  0.8466  0.4929  0.0667
 1668SOL    HW116466   0.797   3.527   3.407  1.8049  0.8190  0.0947
 1668SOL    HW216467   0.818   3.396   3.471  1.7857  0.4914  0.5048
 1669SOL     OW16468   3.378   3.923   4.214  0.4873 -0.0056 -0.2821
 1669SOL    HW116469   3.466   3.960   4.203 -0.0391  1.6439  1.0475
 1669SOL    HW216470   3.364   3.866   4.139 -3.1856 -2.0284  1.9219
 1670SOL     OW16471   2.804   2.007  14.019  0.5912  0.2846 -0.2163
 1670SOL    HW116472   2.782   2.084  13.966  2.8197  1.4341  0.5164
 1670SOL    HW216473   2.854   1.954  13.958 -2.6349 -1.0091 -1.7441
 1671SOL     OW16474   1.996   1.581   1.542 -0.1261 -0.2091  0.0792
 1671SOL    HW116475   1.989   1.583   1.447  1.7903 -0.0378 -0.0542
 1671SOL    HW216476   1.980   1.489   1.564  0.0529 -0.0540  0.8606
 1672SOL     OW16477   3.431   0.828   4.553 -0.1091 -0.1551  0.4211
 1672SOL    HW116478   3.374   0.751   4.558 -0.6117  0.3600  2.5538
 1672SOL    HW216479   3.505   0.804   4.609 -0.2824  0.8129  1.0741
 1673SOL     OW16480   4.011   2.940   5.141  0.1646 -0.1619  0.2897
 1673SOL    HW116481   4.018   3.026   5.182  1.4224 -0.9440  1.7246
 1673SOL    HW216482   4.045   2.884   5.211  0.8854 -2.6975 -2.0943
 1674SOL     OW16483   2.711   3.803   7.950 -0.1396 -0.0639 -0.5631
 1674SOL    HW116484   2.652   3.774   8.019  2.2694 -1.4020  0.9281
 1674SOL    HW216485   2.787   3.750   7.976 -0.6833 -0.2576  0.5894
 1675SOL     OW16486   0.998   0.530  15.257 -0.4637  0.7139 -0.3783
 1675SOL    HW116487   0.947   0.454  15.230 -3.1462  1.4355  2.7659
 1675SOL    HW216488   1.066   0.515  15.191 -0.3304  0.4834 -0.1866
 1676SOL     OW16489   0.441   1.933   6.341  0.2421  0.0853 -0.1624
 1676SOL    HW116490   0.375   1.988   6.298  0.3932 -1.0108 -1.7925
 1676SOL    HW216491   0.419   1.924   6.434  3.2823  0.5377  0.5928
 1677SOL     OW16492   0.163   0.699   2.859 -0.2084 -0.2323  0.1704
 1677SOL    HW116493   0.188   0.728   2.947 -2.3438  1.0310  0.3768
 1677SOL    HW216494   0.243   0.725   2.814  0.4989  0.7711  2.0469
 1678SOL     OW16495   2.481   4.057   6.165 -0.1847 -0.0115 -0.3633
 1678SOL    HW116496   2.413   4.118   6.192 -0.6737 -0.0526 -1.5034
 1678SOL    HW216497   2.511   4.101   6.085  0.3251 -1.4666 -0.9833
 1679SOL     OW16498   4.635   0.759   4.003  0.1991  0.7379 -0.1175
 1679SOL    HW116499   4.678   0.677   3.982  0.7561  1.4230 -1.6598
 1679SOL    HW216500   4.705   0.818   4.032  1.6453 -1.5991  1.0766
 1680SOL     OW16501   3.143   1.805  16.710 -0.0144 -0.1736 -0.4630
 1680SOL    HW116502   3.154   1.830  16.618  0.9301 -0.7321 -0.5022
 1680SOL    HW216503   3.055   1.841  16.722  1.4543  2.8609  1.3449
 1681SOL     OW16504   1.054   0.291  15.729  0.0541 -0.3093 -0.5412
 1681SOL    HW116505   1.029   0.237  15.804 -2.7083 -2.3344 -2.9284
 1681SOL    HW216506   0.971   0.334  15.710 -0.7232 -1.0799  1.0596
 1682SOL     OW16507   4.312   3.295   8.313 -0.1807  0.3110 -0.0024
 1682SOL    HW116508   4.331   3.306   8.220 -0.1734 -0.1931 -0.0591
 1682SOL    HW216509   4.220   3.320   8.328 -0.7612 -1.0202 -1.3021
 1683SOL     OW16510   1.306   0.901   9.146 -0.1825 -0.0926  0.4030
 1683SOL    HW116511   1.246   0.947   9.205 -0.0630  0.9121 -0.2504
 1683SOL    HW216512   1.263   0.816   9.144  1.0219 -0.6754 -0.4021
 1684SOL     OW16513   0.598   1.694   6.349  0.1715  0.2841  0.1392
 1684SOL    HW116514   0.568   1.612   6.389  0.7384  0.1196  0.2246
 1684SOL    HW216515   0.530   1.755   6.379  0.5721 -0.1538  1.9373
 1685SOL     OW16516   0.694   2.160   8.107 -0.4355 -0.1049  0.3330
 1685SOL    HW116517   0.654   2.073   8.118  1.5370 -0.9061  1.0726
 1685SOL    HW216518   0.626   2.203   8.054  1.5088  2.3216 -0.1596
 1686SOL     OW16519   1.684   2.307  16.256 -0.0471 -0.2491  0.3242
 1686SOL    HW116520   1.661   2.394  16.222  1.4625  0.6470  1.6141
 1686SOL    HW216521   1.622   2.250  16.211  1.1149 -2.2789  1.3377
 1687SOL     OW16522   2.300   2.108   8.525  0.0199  0.5072 -0.0604
 1687SOL    HW116523   2.259   2.194   8.514  1.2914  1.2375  0.9280
 1687SOL    HW216524   2.224   2.060   8.558 -0.3761 -0.1362 -1.9588
 1688SOL     OW16525   4.370   4.144   0.454  0.2275  0.4239  0.3027
 1688SOL    HW116526   4.311   4.206   0.412 -1.4184 -0.6114  1.0695
 1688SOL    HW216527   4.446   4.203   0.454  2.1533 -2.0274 -1.9183
 1689SOL     OW16528   4.331   2.304   8.715  0.2178 -0.1777  0.6908
 1689SOL    HW116529   4.300   2.380   8.666 -0.6276  0.7442  2.6284
 1689SOL    HW216530   4.335   2.239   8.645  0.7253  1.4440 -0.7822
 1690SOL     OW16531   1.183   2.990   3.490 -0.4466  0.4937 -0.3838
 1690SOL    HW116532   1.222   3.013   3.574 -3.2146 -0.9049  1.2548
 1690SOL    HW216533   1.263   2.996   3.437 -0.5516  0.0215 -0.5911
 1691SOL     OW16534   0.313   2.188  12.903 -0.3831  0.2729 -0.1137
 1691SOL    HW116535   0.256   2.205  12.828 -0.5050 -0.1440 -0.1160
 1691SOL    HW216536   0.286   2.258  12.963 -1.4588 -1.1490  1.0689
 1692SOL     OW16537   2.205   3.391  17.520  0.6953  0.3015  0.3903
 1692SOL    HW116538   2.119   3.374  17.479  1.0061  0.6679 -0.4185
 1692SOL    HW216539   2.186   3.344  17.601  2.3116 -1.8137 -0.4749
 1693SOL     OW16540   4.514   2.200  10.911 -0.0084 -0.5798  0.6727
 1693SOL    HW116541   4.468   2.137  10.966 -2.6440  0.8283  0.1075
 1693SOL    HW216542   4.440   2.259  10.894  0.4742 -0.5438 -1.3330
 1694SOL     OW16543   3.822   4.391   6.444 -0.2933  0.1785 -1.3254
 1694SOL    HW116544   3.759   4.377   6.373 -0.9955  0.0255 -0.6669
 1694SOL    HW216545   3.908   4.356   6.422 -0.9239 -2.6373  0.6310
 1695SOL     OW16546   2.638   3.494   2.851  0.4140  0.0100 -0.3488
 1695SOL    HW116547   2.675   3.516   2.936  0.3548  0.3468 -0.4118
 1695SOL    HW216548   2.581   3.417   2.862  1.2239 -0.3044  1.6167
 1696SOL     OW16549   1.598   2.228  13.122  0.2305  0.5261  0.0357
 1696SOL    HW116550   1.663   2.290  13.154  0.7874  0.7391 -1.4934
 1696SOL    HW216551   1.614   2.239  13.028  1.2888  3.5967  0.5646
 1697SOL     OW16552   1.459   2.154   2.988  0.1709 -0.1054  0.1727
 1697SOL    HW116553   1.383   2.098   2.972  0.1006  0.2521 -0.7115
 1697SOL    HW216554   1.462   2.198   2.904 -0.6531  0.0301  0.2145
 1698SOL     OW16555   1.900   2.368   4.432  0.3186  0.0868  0.1856
 1698SOL    HW116556   1.894   2.387   4.526  1.2905  0.5556  0.1561
 1698SOL    HW216557   1.986   2.326   4.434  0.4035  0.2296 -0.3802
 1699SOL     OW16558   1.063   3.665   9.380  0.0771  0.6027 -0.7984
 1699SOL    HW116559   1.077   3.688   9.288 -0.4354  0.7775 -0.8288
 1699SOL    HW216560   1.153   3.673   9.414 -0.9444 -1.2302  2.3208
 1700SOL     OW16561   4.165   2.982  17.581 -0.6351 -0.2018 -0.2323
 1700SOL    HW116562   4.092   2.954  17.527 -0.0829  1.5209 -1.8999
 1700SOL    HW216563   4.195   2.902  17.624  0.3710 -0.8425 -2.1130
 1701SOL     OW16564   2.001   3.176   4.951  0.6728 -0.4192 -0.2426
 1701SOL    HW116565   1.990   3.095   5.001  0.4219  0.5062  1.1744
 1701SOL    HW216566   2.031   3.233   5.022  0.9483 -2.3845  1.2297
 1702SOL     OW16567   4.254   4.361   0.308 -0.1953 -0.9516  0.4561
 1702SOL    HW116568   4.312   4.435   0.290  1.6637 -2.4917  0.1785
 1702SOL    HW216569   4.253   4.307   0.228 -0.4598  1.4479 -1.1548
 1703SOL     OW16570   4.259   3.693   6.527 -0.2572  0.0525  0.2673
 1703SOL    HW116571   4.234   3.760   6.591 -0.8107  0.6871 -0.6278
 1703SOL    HW216572   4.328   3.746   6.488 -0.6306 -0.1887 -0.7049
 1704SOL     OW16573   2.412   2.398   1.610 -0.0805  0.7879 -0.1839
 1704SOL    HW116574   2.506   2.385   1.601 -0.3139 -0.5724 -0.6000
 1704SOL    HW216575   2.388   2.371   1.521 -0.0109  0.5740 -0.1371
 1705SOL     OW16576   0.078   1.470  17.488 -0.7576  0.4363 -0.6041
 1705SOL    HW116577   0.094   1.498  17.578 -0.2876 -2.0641  0.1071
 1705SOL    HW216578   0.049   1.380  17.504  0.4732  0.2963  0.8068
 1706SOL     OW16579   2.093   4.079   3.688 -0.1372 -0.4260 -0.1191
 1706SOL    HW116580   2.004   4.106   3.668  0.9883  0.7890 -3.5213
 1706SOL    HW216581   2.123   4.162   3.725 -0.1747 -1.1077  1.4361
 1707SOL     OW16582   1.174   3.921   6.595 -0.2184 -0.4696  0.1985
 1707SOL    HW116583   1.167   3.946   6.688  0.3614  0.8505 -0.1214
 1707SOL    HW216584   1.106   3.979   6.560  1.1696 -0.4051 -2.3502
 1708SOL     OW16585   0.921   4.603   8.335 -0.0067  0.5675 -0.1824
 1708SOL    HW116586   0.830   4.602   8.307 -0.3845  0.7517  1.0624
 1708SOL    HW216587   0.932   4.536   8.403  0.1295 -2.1244 -2.8577
 1709SOL     OW16588   4.702   1.439   6.262 -0.5964 -0.1917 -0.8288
 1709SOL    HW116589   4.713   1.382   6.338 -0.8991  0.8039 -0.0279
 1709SOL    HW216590   0.043   1.399   6.204  0.7555  1.3904 -0.4047
 1710SOL     OW16591   2.922   2.371   4.456  0.2057 -0.0467 -0.2472
 1710SOL    HW116592   2.882   2.439   4.511  0.9140 -0.5790  0.9126
 1710SOL    HW216593   2.913   2.290   4.507  2.4384  0.2532  0.6309
 1711SOL     OW16594   1.608   0.950   1.010  0.0967  0.0653 -0.0484
 1711SOL    HW116595   1.595   0.952   1.105  1.9741 -1.5875  0.2429
 1711SOL    HW216596   1.665   1.024   0.991 -0.7724  0.3597 -1.5791
 1712SOL     OW16597   0.098   1.056  15.064  0.5278 -0.1568  0.2083
 1712SOL    HW116598   0.013   1.070  15.022  2.0375  0.7366 -2.5844
 1712SOL    HW216599   0.098   0.962  15.084 -1.5761 -0.4369 -1.0711
 1713SOL     OW16600   4.672   4.505   5.805 -0.4517  0.7191  0.2076
 1713SOL    HW116601   0.035   4.510   5.766 -0.6934 -1.5643 -0.6118
 1713SOL    HW216602   4.644   4.591   5.775 -0.7240  0.4828 -0.2120
 1714SOL     OW16603   0.342   4.643   6.927 -0.9801 -0.1731  0.1152
 1714SOL    HW116604   0.297   4.640   6.842 -2.1225  0.3370  0.7026
 1714SOL    HW216605   0.327   4.556   6.964  0.5304 -0.6226 -0.3390
 1715SOL     OW16606   0.893   0.392   0.601 -0.2345 -0.0790 -0.1751
 1715SOL    HW116607   0.867   0.307   0.565 -2.1166  1.0115 -1.3995
 1715SOL    HW216608   0.982   0.396   0.565 -0.3083 -2.0537 -0.6164
 1716SOL     OW16609   2.068   4.287   7.664 -0.6334  0.3461 -0.5453
 1716SOL    HW116610   2.124   4.341   7.608  0.0732 -2.6454 -2.7697
 1716SOL    HW216611   2.019   4.351   7.715 -0.3947 -0.2037  0.3616
 1717SOL     OW16612   4.579   0.151   4.811  0.2081  0.5406  0.0645
 1717SOL    HW116613   4.559   0.240   4.839  2.4378  1.4529 -1.2663
 1717SOL    HW216614   4.625   0.172   4.730 -0.1288  0.9194 -0.0273
 1718SOL     OW16615   4.349   3.365   6.287  0.1555 -0.2543  0.0606
 1718SOL    HW116616   4.304   3.392   6.367  1.5808 -1.8381  1.4242
 1718SOL    HW216617   4.438   3.398   6.299 -0.2861 -0.7731  4.8722
 1719SOL     OW16618   0.171   3.447   4.683  0.3635  0.0785  0.1628
 1719SOL    HW116619   0.137   3.499   4.755 -0.8970  0.7955 -0.9599
 1719SOL    HW216620   0.132   3.486   4.605 -0.5305 -2.0978 -0.4725
 1720SOL     OW16621   0.330   0.322   0.841 -0.0684  0.1500 -0.3170
 1720SOL    HW116622   0.296   0.370   0.917 -0.7943 -0.3167 -0.3518
 1720SOL    HW216623   0.390   0.387   0.803  2.0247 -1.0564  0.9178
 1721SOL     OW16624   4.550   3.810   6.624 -0.4159  0.1936 -0.6603
 1721SOL    HW116625   4.484   3.872   6.592 -1.3448 -0.7929 -0.6930
 1721SOL    HW216626   4.632   3.842   6.587 -0.5430  0.6609 -0.5297
 1722SOL     OW16627   1.718   1.950   8.030 -0.2516  0.3964 -0.7823
 1722SOL    HW116628   1.637   1.969   8.078  0.3275 -0.3504  0.4964
 1722SOL    HW216629   1.776   1.926   8.102  0.5899 -0.8109 -1.8782
 1723SOL     OW16630   1.261   3.460   4.136 -0.1899  0.3431 -0.1812
 1723SOL    HW116631   1.226   3.372   4.120  1.0898  0.0410 -1.3108
 1723SOL    HW216632   1.230   3.506   4.059  2.2684  3.6283  0.8035
 1724SOL     OW16633   3.004   1.557   7.973 -0.2006  0.4615  0.1104
 1724SOL    HW116634   2.962   1.625   7.920  1.3449  1.5052  0.2137
 1724SOL    HW216635   2.975   1.579   8.061  0.2654 -1.9821  0.8658
 1725SOL     OW16636   2.615   2.774   3.917 -0.3280 -0.2252  0.1330
 1725SOL    HW116637   2.550   2.716   3.877  1.2547  1.3174 -4.6876
 1725SOL    HW216638   2.668   2.817   3.849 -1.5447  2.3431  0.8496
 1726SOL     OW16639   3.597   2.867   1.457  0.3928 -0.0587  0.1904
 1726SOL    HW116640   3.619   2.917   1.379  2.4290  0.2817  0.9877
 1726SOL    HW216641   3.522   2.822   1.419  0.6046 -0.3086  0.0750
 1727SOL     OW16642   3.824   4.025   5.862  0.6206  0.2824 -0.6989
 1727SOL    HW116643   3.731   4.009   5.843  0.2772  2.6148 -1.0128
 1727SOL    HW216644   3.820   4.072   5.946  2.7389  0.6939 -0.8480
 1728SOL     OW16645   2.212   4.129  12.009  0.2960  0.0259  0.0046
 1728SOL    HW116646   2.155   4.072  11.956  1.4027  0.6646 -1.8541
 1728SOL    HW216647   2.229   4.071  12.083 -0.2276  0.1186  0.1966
 1729SOL     OW16648   1.215   3.330   7.554  0.2757  0.0211 -0.0438
 1729SOL    HW116649   1.229   3.379   7.635  1.9242 -0.4745 -0.0379
 1729SOL    HW216650   1.233   3.395   7.486  0.8384 -1.8056 -1.6401
 1730SOL     OW16651   1.629   2.819   2.010 -0.0457  0.3813 -0.7593
 1730SOL    HW116652   1.704   2.839   1.953 -0.2866  1.0161 -0.8534
 1730SOL    HW216653   1.659   2.732   2.037  1.3360  0.6692 -1.3230
 1731SOL     OW16654   2.879   4.678   2.927 -0.0170  0.2971  0.9088
 1731SOL    HW116655   2.926   4.695   2.846 -0.3464 -0.6009  0.5279
 1731SOL    HW216656   2.799   0.006   2.921 -0.0079  0.0886 -0.8299
 1732SOL     OW16657   1.981   2.490   5.109  0.1312 -0.5267 -0.3678
 1732SOL    HW116658   2.005   2.579   5.085  0.4138 -0.1476  1.3505
 1732SOL    HW216659   2.034   2.473   5.187 -0.1057 -0.3588 -0.1691
 1733SOL     OW16660   2.560   2.207   9.018 -0.2901 -0.5850  0.1866
 1733SOL    HW116661   2.617   2.138   8.985  1.7837  1.7187 -1.0565
 1733SOL    HW216662   2.502   2.208   8.941 -0.9822  0.9442  0.7358
 1734SOL     OW16663   1.293   0.117   0.423 -0.5064  0.1642  0.1987
 1734SOL    HW116664   1.285   0.053   0.493 -0.7913  0.0956  0.1042
 1734SOL    HW216665   1.388   0.128   0.423 -0.7548  2.3546 -1.1803
 1735SOL     OW16666   2.374   2.964   6.134 -0.2763 -0.1005 -0.1839
 1735SOL    HW116667   2.389   3.055   6.157  0.6821 -0.1426 -0.6242
 1735SOL    HW216668   2.376   2.930   6.223  1.0713  0.4463  0.0023
 1736SOL     OW16669   1.764   2.458   3.840 -0.2009 -0.3451 -0.3291
 1736SOL    HW116670   1.767   2.438   3.933 -2.8685  1.3441  0.1318
 1736SOL    HW216671   1.680   2.505   3.833  0.3020  0.6689  0.4481
 1737SOL     OW16672   2.128   0.428  12.292 -0.0894  0.2095 -0.3789
 1737SOL    HW116673   2.129   0.335  12.314  2.9275  0.8310  2.0409
 1737SOL    HW216674   2.033   0.435  12.283 -0.3995  0.1420  2.7729
 1738SOL     OW16675   4.505   4.372  10.194 -0.3974  0.2244  0.7174
 1738SOL    HW116676   4.557   4.451  10.203 -0.5553  0.6841 -2.4763
 1738SOL    HW216677   4.555   4.332  10.123 -1.1542  0.6823 -0.0729
 1739SOL     OW16678   2.990   3.955   0.158  0.0288 -0.2296 -0.6410
 1739SOL    HW116679   2.896   3.954   0.176  0.2588 -1.5063  0.5158
 1739SOL    HW216680   3.027   4.029   0.206 -0.9586  0.2553 -0.6433
 1740SOL     OW16681   3.526   1.982   5.076  0.1475  0.2953  0.3099
 1740SOL    HW116682   3.547   2.068   5.039  1.3140  0.2821  0.9443
 1740SOL    HW216683   3.577   1.922   5.022 -0.1842 -0.8251  1.2466
 1741SOL     OW16684   2.877   0.324   8.627  0.9587  0.1362  0.5872
 1741SOL    HW116685   2.876   0.275   8.545 -2.9287 -2.7653  2.3789
 1741SOL    HW216686   2.891   0.261   8.697 -0.5427 -0.0848  0.6875
 1742SOL     OW16687   0.918   1.863   4.762 -0.4589  0.4705  0.5505
 1742SOL    HW116688   0.923   1.773   4.794 -2.2177  0.0911 -0.2617
 1742SOL    HW216689   0.999   1.907   4.789 -0.3911  0.3697  0.5096
 1743SOL     OW16690   1.642   4.153   7.367  0.2196 -0.2437 -0.2123
 1743SOL    HW116691   1.691   4.198   7.298  0.1489 -0.0887 -0.1601
 1743SOL    HW216692   1.682   4.066   7.369  0.8756  0.0850  0.8719
 1744SOL     OW16693   3.088   2.669   4.229 -0.1170  0.7204 -0.4260
 1744SOL    HW116694   3.014   2.730   4.236 -1.3798 -1.1165  2.1531
 1744SOL    HW216695   3.159   2.732   4.234 -0.9362  1.6689 -0.6156
 1745SOL     OW16696   2.421   3.109   6.615 -0.4078  0.3340 -0.0273
 1745SOL    HW116697   2.415   3.173   6.686  0.2092  0.7011 -0.3012
 1745SOL    HW216698   2.420   3.033   6.673  2.0320  0.6733  0.4703
 1746SOL     OW16699   2.040   4.429   0.026  0.4587 -0.0550  0.1145
 1746SOL    HW116700   2.134   4.442   0.039  0.7234  0.5278 -2.4670
 1746SOL    HW216701   2.041   4.344  17.682  0.9338  1.2022 -2.4325
 1747SOL     OW16702   0.736   0.043  10.969  0.4479 -0.0116 -0.2755
 1747SOL    HW116703   0.824   0.071  10.993  0.3307  0.0591  0.0609
 1747SOL    HW216704   0.756   4.675  10.949 -0.7559 -0.2775 -0.2675
 1748SOL     OW16705   4.491   0.532   7.658  0.1640  0.1080 -0.5713
 1748SOL    HW116706   4.469   0.455   7.711  2.5483 -1.7012 -2.2027
 1748SOL    HW216707   4.404   0.545   7.621 -0.9642 -1.0699  1.6811
 1749SOL     OW16708   1.083   0.550   9.580 -0.0258  0.1480  0.6007
 1749SOL    HW116709   1.149   0.513   9.639  1.0148 -3.5611 -2.9195
 1749SOL    HW216710   1.038   0.473   9.545  0.2569 -0.5767  1.8395
 1750SOL     OW16711   3.637   2.749   7.246 -0.0164 -0.2421 -0.0905
 1750SOL    HW116712   3.725   2.718   7.267  0.1607  0.4408  0.1736
 1750SOL    HW216713   3.584   2.716   7.319  0.5041 -1.0831 -0.0835
 1751SOL     OW16714   1.650   3.990   2.469  0.2316 -0.1579 -0.2725
 1751SOL    HW116715   1.707   3.924   2.429  0.3399 -0.8468  1.0435
 1751SOL    HW216716   1.571   3.935   2.472  0.2209 -0.1920 -1.1060
 1752SOL     OW16717   3.373   3.798  11.859 -0.1450 -0.7638 -0.0419
 1752SOL    HW116718   3.348   3.710  11.833 -0.5002 -1.0824  1.4059
 1752SOL    HW216719   3.330   3.853  11.793 -0.4086  1.8167  2.2313
 1753SOL     OW16720   4.425   2.240   1.264  0.0039  0.0970 -0.1103
 1753SOL    HW116721   4.399   2.295   1.339 -1.7026  0.0054 -0.6230
 1753SOL    HW216722   4.342   2.226   1.218  0.1710 -4.1101  0.9093
 1754SOL     OW16723   0.780   2.229   8.690 -0.6259 -0.5753  0.3704
 1754SOL    HW116724   0.786   2.235   8.595 -1.4732 -0.0005  0.3496
 1754SOL    HW216725   0.864   2.194   8.719  0.5501  1.1314 -0.9701
 1755SOL     OW16726   0.702   3.188   5.750  0.2396 -0.0041 -0.4738
 1755SOL    HW116727   0.717   3.093   5.758  1.7859  0.4017  1.6142
 1755SOL    HW216728   0.791   3.220   5.735  0.9231 -2.5393 -1.9025
 1756SOL     OW16729   4.219   1.562   3.447  0.2335 -0.0010  0.7186
 1756SOL    HW116730   4.297   1.507   3.456  0.7840  0.6190 -0.2845
 1756SOL    HW216731   4.257   1.637   3.402 -0.9386  1.5191  2.2419
 1757SOL     OW16732   0.859   0.801  15.376  0.4046 -0.2568  0.1781
 1757SOL    HW116733   0.885   0.725  15.429  1.2303 -1.6539 -2.2155
 1757SOL    HW216734   0.766   0.780  15.367  0.9140 -1.8351 -1.6567
 1758SOL     OW16735   0.965   4.282   8.304 -0.0914 -0.8221 -0.0925
 1758SOL    HW116736   0.882   4.236   8.318 -1.3762  1.7587  0.8656
 1758SOL    HW216737   0.957   4.341   8.379 -0.1818 -1.4176  0.3696
 1759SOL     OW16738   0.247   3.028   8.261  0.3311 -0.0227 -0.0600
 1759SOL    HW116739   0.257   3.045   8.355 -2.4267  0.6288  0.1199
 1759SOL    HW216740   0.319   2.966   8.250  0.8730  0.6299 -0.1794
 1760SOL     OW16741   3.105   1.013   8.300  0.5376 -0.3376  0.2174
 1760SOL    HW116742   3.056   0.957   8.240  0.0288  0.0152  0.3022
 1760SOL    HW216743   3.039   1.067   8.343  0.2723  1.3187 -2.2694
 1761SOL     OW16744   2.610   3.367   4.943  0.2907 -0.0713  0.1267
 1761SOL    HW116745   2.652   3.453   4.939  0.1129  0.0291  0.4048
 1761SOL    HW216746   2.667   3.311   4.995  1.2329  0.6501 -0.1370
 1762SOL     OW16747   0.007   2.224   3.437  0.4061 -0.6759 -0.5871
 1762SOL    HW116748   0.029   2.306   3.482 -1.5282  0.1819 -1.2084
 1762SOL    HW216749   4.698   2.236   3.348 -0.2861  0.7461 -0.1361
 1763SOL     OW16750   4.671   3.287   6.965 -0.6782  0.2257 -0.1486
 1763SOL    HW116751   4.578   3.304   6.947 -0.9646 -0.3684  0.7548
 1763SOL    HW216752   4.672   3.288   7.061 -1.8612  1.1215 -0.1507
 1764SOL     OW16753   3.520   1.971   2.790 -0.1035 -0.8627  0.0472
 1764SOL    HW116754   3.481   2.022   2.720 -0.8988 -2.0292 -0.3562
 1764SOL    HW216755   3.487   2.025   2.862 -0.9593 -0.9978 -0.2425
 1765SOL     OW16756   0.659   4.537   6.747  0.0133  0.1195 -0.1397
 1765SOL    HW116757   0.604   4.615   6.757 -0.0855 -0.0492  0.5968
 1765SOL    HW216758   0.642   4.495   6.831 -0.4553 -0.8907 -0.7420
 1766SOL     OW16759   2.925   0.563  13.852 -0.2202  0.6374 -0.1042
 1766SOL    HW116760   2.924   0.522  13.939  0.3323  0.8693  0.0113
 1766SOL    HW216761   2.961   0.650  13.869  1.4145  0.0296 -0.4210
 1767SOL     OW16762   1.877   3.122   4.467 -0.2000 -0.1574 -0.3294
 1767SOL    HW116763   1.870   3.202   4.414 -2.5585  0.6874  1.2617
 1767SOL    HW216764   1.785   3.098   4.452  0.2685 -1.9827 -0.3152
 1768SOL     OW16765   1.986   2.262   7.875 -0.7274 -0.2321 -0.1298
 1768SOL    HW116766   2.006   2.234   7.785 -0.5965  0.5209 -0.3356
 1768SOL    HW216767   1.897   2.226   7.876 -0.8524  0.0489 -1.0679
 1769SOL     OW16768   3.613   0.016   0.016 -0.0835  0.1418 -0.2634
 1769SOL    HW116769   3.526   0.057   0.019  0.5837  1.7642 -2.6070
 1769SOL    HW216770   3.654   0.051   0.095  0.0962 -0.8234  0.0648
 1770SOL     OW16771   1.221   0.985   4.103  0.0534  0.4261 -0.0924
 1770SOL    HW116772   1.142   1.032   4.077  0.3601  2.9059  3.3556
 1770SOL    HW216773   1.190   0.906   4.147  2.1642  0.2823  1.1614
 1771SOL     OW16774   3.640   0.958   9.056 -0.2523  0.1063  0.5985
 1771SOL    HW116775   3.590   0.877   9.061  0.9532 -0.7522 -1.2816
 1771SOL    HW216776   3.680   0.972   9.141  1.4095 -1.1037  0.0084
 1772SOL     OW16777   2.049   4.490   3.370  0.2834 -0.0758 -0.2013
 1772SOL    HW116778   1.974   4.470   3.314  0.4702 -0.1391 -0.4284
 1772SOL    HW216779   2.050   4.407   3.417  1.1876 -0.5574 -1.0699
 1773SOL     OW16780   4.090   0.094   3.877  0.3824  0.0135  0.5686
 1773SOL    HW116781   4.022   0.158   3.858  2.0619  1.6465  0.0340
 1773SOL    HW216782   4.146   0.089   3.799 -1.4291  0.0447 -0.7222
 1774SOL     OW16783   2.936   2.193   9.616  0.3373 -0.6171  0.3484
 1774SOL    HW116784   3.005   2.231   9.671 -1.1024  1.8853  0.3980
 1774SOL    HW216785   2.950   2.245   9.537  1.0539 -3.7742 -1.6311
 1775SOL     OW16786   4.257   4.480   6.096 -0.1621 -0.0086  0.0563
 1775SOL    HW116787   4.256   4.544   6.025 -0.8825  1.3486  1.2899
 1775SOL    HW216788   4.277   4.402   6.044 -2.4484 -1.6725  1.6520
 1776SOL     OW16789   0.502   0.546   2.045 -0.6221 -0.1950  0.2212
 1776SOL    HW116790   0.475   0.456   2.060  0.7069 -0.5500  0.4849
 1776SOL    HW216791   0.413   0.581   2.038 -0.6504 -0.3962 -0.4399
 1777SOL     OW16792   3.938   4.566   3.889 -0.1144  0.4646 -0.2453
 1777SOL    HW116793   4.008   4.624   3.919  0.9699 -1.0314  0.1151
 1777SOL    HW216794   3.906   4.616   3.814 -0.5239  0.5856  0.0086
 1778SOL     OW16795   0.045   3.852   3.016  0.1013 -0.5245  0.1767
 1778SOL    HW116796   0.060   3.870   2.923  0.5362  1.7374  0.6925
 1778SOL    HW216797   4.698   3.915   3.027  0.3913 -0.2516  0.4445
 1779SOL     OW16798   3.778   4.045   4.327 -0.3423  0.7998 -0.5220
 1779SOL    HW116799   3.774   3.956   4.361  2.2201  0.4034 -1.2452
 1779SOL    HW216800   3.753   4.023   4.238  1.1234  0.3583 -0.8234
 1780SOL     OW16801   4.577   4.514   5.259 -0.1892  0.2630  0.6240
 1780SOL    HW116802   4.571   4.487   5.350  0.1069  0.1205  0.6013
 1780SOL    HW216803   4.508   4.580   5.268 -1.1722 -0.9126  1.7047
 1781SOL     OW16804   0.931   4.240   5.420  0.5847  0.1726  0.2064
 1781SOL    HW116805   1.002   4.178   5.400 -1.2306 -2.0817  0.7490
 1781SOL    HW216806   0.981   4.318   5.394  1.3688 -0.9216 -1.5773
 1782SOL     OW16807   1.121   3.044   4.684 -0.4645  0.1057 -0.3378
 1782SOL    HW116808   1.041   2.994   4.700  1.2225 -2.9505 -1.4746
 1782SOL    HW216809   1.090   3.108   4.621 -2.2001 -1.7072 -1.3418
 1783SOL     OW16810   3.137   0.802   1.639 -0.3008 -0.2232  0.0825
 1783SOL    HW116811   3.168   0.712   1.630 -0.4061 -0.1781 -0.7944
 1783SOL    HW216812   3.225   0.841   1.639 -1.1949  1.7962 -0.3890
 1784SOL     OW16813   0.925   0.318   8.752  0.5051  0.2990 -0.0180
 1784SOL    HW116814   0.935   0.240   8.697 -1.4744 -0.8732  1.2846
 1784SOL    HW216815   0.843   0.301   8.798 -0.5093  0.1446 -1.8666
 1785SOL     OW16816   4.662   2.110   7.524 -0.2755 -0.1488  0.3800
 1785SOL    HW116817   0.026   2.076   7.538  0.2235  0.7468 -0.5613
 1785SOL    HW216818   4.615   2.067   7.595 -0.9257  0.4077  0.2852
 1786SOL     OW16819   0.523   0.713   6.822 -0.6427  0.1578 -0.4601
 1786SOL    HW116820   0.454   0.676   6.877 -1.5927  2.7000  0.0606
 1786SOL    HW216821   0.577   0.752   6.891 -1.6863 -0.3442  0.6438
 1787SOL     OW16822   2.573   2.096   0.790 -0.1401  0.6429  0.6080
 1787SOL    HW116823   2.518   2.054   0.856 -0.8992  2.4957  1.1384
 1787SOL    HW216824   2.508   2.147   0.742 -1.9646 -0.1189  2.2646
 1788SOL     OW16825   1.203   3.191   8.754  0.0231  0.6260 -0.1382
 1788SOL    HW116826   1.149   3.155   8.684  2.1758  0.3245 -1.6067
 1788SOL    HW216827   1.181   3.284   8.762 -0.9664  0.3060  1.0517
 1789SOL     OW16828   4.011   1.687   4.509  0.1710 -0.3226  0.7727
 1789SOL    HW116829   4.105   1.704   4.504 -0.0875  0.1174 -2.5039
 1789SOL    HW216830   3.980   1.676   4.419  0.6350 -1.9679  0.8155
 1790SOL     OW16831   2.134   4.544   8.191 -0.1762 -0.0991 -0.3659
 1790SOL    HW116832   2.129   4.478   8.259 -2.8384  0.9112  0.4158
 1790SOL    HW216833   2.045   4.540   8.156 -0.6392 -1.6380  1.0231
 1791SOL     OW16834   2.988   0.666  10.687  0.2974  0.3243 -0.1853
 1791SOL    HW116835   3.027   0.711  10.762 -0.6781 -0.7024  0.9360
 1791SOL    HW216836   2.906   0.632  10.722  0.8618  0.0960  0.8995
 1792SOL     OW16837   1.814   0.289   5.795 -0.7318  1.3679 -0.4270
 1792SOL    HW116838   1.831   0.227   5.724  0.2813  1.1059  0.0376
 1792SOL    HW216839   1.809   0.230   5.870  1.6053  1.4076 -0.2304
 1793SOL     OW16840   2.866   1.784   1.950 -0.2235  0.6437  0.1520
 1793SOL    HW116841   2.934   1.819   2.007 -0.7672  0.3617  0.9814
 1793SOL    HW216842   2.793   1.838   1.982 -1.4011 -1.6632  1.3954
 1794SOL     OW16843   1.064   2.568  14.319  0.0854 -0.5797 -0.4888
 1794SOL    HW116844   1.099   2.629  14.383  0.9375 -0.8738 -0.6761
 1794SOL    HW216845   0.994   2.612  14.270  0.7379  1.3844  0.3682
 1795SOL     OW16846   3.315   0.592   5.053  0.0944  0.1230  0.1073
 1795SOL    HW116847   3.251   0.575   4.984  0.3720  0.4069 -0.2207
 1795SOL    HW216848   3.364   0.664   5.015  0.7955 -0.1133  0.5609
 1796SOL     OW16849   1.266   2.388  16.802 -0.2930  0.1109 -0.5677
 1796SOL    HW116850   1.281   2.478  16.832  1.5870  0.4088 -2.3639
 1796SOL    HW216851   1.354   2.376  16.766 -0.6164 -3.0249 -0.2616
 1797SOL     OW16852   0.397   2.703   3.582  0.5565 -0.1904 -0.6461
 1797SOL    HW116853   0.357   2.722   3.497  2.2194 -2.0307 -1.8286
 1797SOL    HW216854   0.331   2.747   3.636  1.5163 -0.9603  1.1446
 1798SOL     OW16855   4.184   4.285   2.401 -0.6136 -0.4802 -0.3287
 1798SOL    HW116856   4.142   4.261   2.483 -0.6281  0.7371  0.0109
 1798SOL    HW216857   4.136   4.227   2.342  1.0948  0.0100 -2.2114
 1799SOL     OW16858   0.262   1.973   6.556 -0.1147  0.3669 -0.4962
 1799SOL    HW116859   0.206   1.995   6.631  1.1234  0.2856  0.4583
 1799SOL    HW216860   0.233   1.884   6.539 -1.6142  0.6894  0.3141
 1800SOL     OW16861   2.635   4.631   2.667 -0.2999 -0.2008 -0.5748
 1800SOL    HW116862   2.594   4.546   2.679 -0.4128 -0.1682 -0.7324
 1800SOL    HW216863   2.695   4.626   2.592  0.2593  2.8207 -0.3419
 1801SOL     OW16864   0.191   3.740   3.800 -0.1337  0.0417 -0.3498
 1801SOL    HW116865   0.175   3.707   3.711  0.1968  1.7822 -1.0585
 1801SOL    HW216866   0.283   3.765   3.806 -0.4666  0.9530  0.7766
 1802SOL     OW16867   2.178   0.971   6.481 -0.6872  0.2695 -0.2022
 1802SOL    HW116868   2.104   0.930   6.436  0.7164 -1.4416 -0.9261
 1802SOL    HW216869   2.177   1.056   6.436 -2.1573  1.5996  2.3141
 1803SOL     OW16870   2.082   4.163   3.375 -0.6210 -0.0239  0.5653
 1803SOL    HW116871   2.091   4.147   3.281 -1.4079 -0.2904  0.5338
 1803SOL    HW216872   2.174   4.147   3.394  0.0392  3.0609 -0.1151
 1804SOL     OW16873   0.431   3.033   5.568  0.6658 -0.9469  1.1207
 1804SOL    HW116874   0.468   3.039   5.480 -0.4403 -2.0727  0.5832
 1804SOL    HW216875   0.339   3.057   5.554  0.5549 -1.9549  0.1302
 1805SOL     OW16876   0.799   0.342  15.154  0.2277  0.2391 -0.0020
 1805SOL    HW116877   0.802   0.253  15.189 -1.2654  0.4318  0.6034
 1805SOL    HW216878   0.770   0.329  15.064 -0.7054 -1.6388  0.5770
 1806SOL     OW16879   0.390   3.685   4.333 -0.2468 -0.2670 -0.5819
 1806SOL    HW116880   0.446   3.608   4.322 -2.3088 -2.0580  1.2049
 1806SOL    HW216881   0.450   3.751   4.300  0.1960 -0.4770 -0.1913
 1807SOL     OW16882   1.920   3.932   1.318  0.3154 -0.2931  0.2340
 1807SOL    HW116883   1.850   3.871   1.343 -2.2887  1.6897 -2.2039
 1807SOL    HW216884   1.968   3.948   1.399  1.8846 -0.6826 -0.6214
 1808SOL     OW16885   1.132   3.159   2.409  0.2128  0.6448  0.1335
 1808SOL    HW116886   1.148   3.161   2.315 -3.3658 -0.8897 -0.5286
 1808SOL    HW216887   1.206   3.207   2.447 -0.5191 -0.0122  2.4495
 1809SOL     OW16888   3.896   0.015   4.580  0.1602 -0.0566 -0.5651
 1809SOL    HW116889   3.943   4.658   4.561  1.0507  0.5130 -0.8112
 1809SOL    HW216890   3.955   0.044   4.649 -0.7040  0.9781 -0.2725
 1810SOL     OW16891   2.565   4.698   1.563 -0.1137  0.1363 -0.6704
 1810SOL    HW116892   2.532   0.060   1.592 -0.7338  0.0079 -0.9873
 1810SOL    HW216893   2.490   4.645   1.592 -0.0723  0.9737  0.9573
 1811SOL     OW16894   0.328   3.899   2.357 -0.3571  0.1868 -0.1736
 1811SOL    HW116895   0.381   3.845   2.415 -0.9029  0.3213  0.4524
 1811SOL    HW216896   0.396   3.955   2.320  0.3178 -0.7901 -0.4095
 1812SOL     OW16897   3.913   4.415  16.206  0.2371  0.0657 -0.3669
 1812SOL    HW116898   3.843   4.450  16.150  0.2936  0.0222 -0.4646
 1812SOL    HW216899   3.981   4.482  16.202  0.3622 -0.1571 -2.3286
 1813SOL     OW16900   0.880   0.873   7.567 -0.7306 -0.4133  0.3163
 1813SOL    HW116901   0.788   0.894   7.581 -0.7766  1.0207 -2.0842
 1813SOL    HW216902   0.912   0.888   7.656 -0.6300 -3.3394  0.7511
 1814SOL     OW16903   1.378   0.040   9.228  0.3583 -0.0478 -0.4489
 1814SOL    HW116904   1.382   0.076   9.140 -1.2013 -0.9257 -0.8751
 1814SOL    HW216905   1.380   0.126   9.271 -2.4762  1.6968 -3.8875
 1815SOL     OW16906   1.330   1.827   7.173 -0.2905 -0.2441  0.1772
 1815SOL    HW116907   1.252   1.849   7.123  0.0868 -2.4558 -1.3361
 1815SOL    HW216908   1.311   1.880   7.251  2.3289 -0.0565  0.6966
 1816SOL     OW16909   1.683   3.402  11.132 -0.3367 -0.6429  0.6895
 1816SOL    HW116910   1.707   3.370  11.219  0.1291 -0.6798  0.5422
 1816SOL    HW216911   1.758   3.375  11.080 -0.4792 -1.8248  1.1041
 1817SOL     OW16912   3.446   0.828   3.542  0.1613 -0.6517  0.6716
 1817SOL    HW116913   3.442   0.897   3.609 -3.3463 -0.7456  0.5589
 1817SOL    HW216914   3.477   0.754   3.594  3.8586  0.1384 -0.4245
 1818SOL     OW16915   2.309   3.521   2.261 -0.2195 -0.4684  0.1598
 1818SOL    HW116916   2.234   3.508   2.203  0.0111 -1.3872  0.0724
 1818SOL    HW216917   2.329   3.610   2.231  1.5400  0.0328  2.7912
 1819SOL     OW16918   1.509   2.814   8.605  0.2826  0.3549  0.0060
 1819SOL    HW116919   1.436   2.767   8.645  1.4929 -0.5635  1.1566
 1819SOL    HW216920   1.487   2.906   8.624  1.4862  0.6612 -0.0970
 1820SOL     OW16921   1.827   4.015   3.893  0.0808  0.2588  0.4203
 1820SOL    HW116922   1.825   3.945   3.959 -1.0484 -0.8869 -0.8232
 1820SOL    HW216923   1.872   4.079   3.948  1.8874  0.7811 -1.7081
 1821SOL     OW16924   2.515   1.128  13.636 -0.5709  0.1144  0.3119
 1821SOL    HW116925   2.584   1.062  13.629 -0.2051  0.4054  1.2278
 1821SOL    HW216926   2.512   1.154  13.544  0.5877  2.7579  0.9928
 1822SOL     OW16927   1.278   3.928  13.408  0.1600 -0.3602 -0.2055
 1822SOL    HW116928   1.245   3.950  13.320 -1.5920 -0.7930  0.3407
 1822SOL    HW216929   1.292   4.013  13.449  3.3087 -0.2065 -1.6206
 1823SOL     OW16930   1.560   2.615   3.254 -0.0612  0.5635  0.3027
 1823SOL    HW116931   1.650   2.647   3.251  1.0194 -2.9170 -3.7690
 1823SOL    HW216932   1.566   2.581   3.165  0.2471  0.0014  0.5313
 1824SOL     OW16933   3.626   4.059   6.300 -0.0727  0.3488  0.6636
 1824SOL    HW116934   3.568   4.130   6.328 -0.3048  0.6423 -0.5606
 1824SOL    HW216935   3.689   4.099   6.240  1.4622  0.1374  2.1081
 1825SOL     OW16936   2.206   3.976   7.617  0.2699 -0.2407 -0.5382
 1825SOL    HW116937   2.228   4.069   7.625  1.3017 -0.5235 -0.1079
 1825SOL    HW216938   2.110   3.971   7.623  0.5978 -2.3232  3.4009
 1826SOL     OW16939   0.773   3.696   1.557 -0.0363 -0.2756  0.3069
 1826SOL    HW116940   0.861   3.729   1.576 -0.0285  0.3892 -0.9364
 1826SOL    HW216941   0.773   3.626   1.623 -0.6825  1.2488  1.9425
 1827SOL     OW16942   1.923   1.397   7.376  0.3206 -0.1892  0.0892
 1827SOL    HW116943   1.977   1.474   7.363  0.0086  0.0442  0.1854
 1827SOL    HW216944   1.978   1.361   7.446 -0.9077 -1.7998  0.2341
 1828SOL     OW16945   2.386   0.471  14.247 -0.0147 -0.1876  0.2439
 1828SOL    HW116946   2.442   0.434  14.178  1.1150 -0.9878  1.5798
 1828SOL    HW216947   2.362   0.392  14.295  4.8754 -0.4259  2.3101
 1829SOL     OW16948   0.884   1.603   3.508 -0.2126 -0.0976  0.4509
 1829SOL    HW116949   0.843   1.689   3.514 -0.4053 -0.2276  1.0313
 1829SOL    HW216950   0.857   1.557   3.587 -1.3593 -0.1239  0.0386
 1830SOL     OW16951   0.250   4.687  17.102 -0.2909 -0.3303 -0.8790
 1830SOL    HW116952   0.311   0.013  17.049 -0.4669 -0.2662 -1.0231
 1830SOL    HW216953   0.226   4.615  17.043 -0.1886 -1.1017  0.0138
 1831SOL     OW16954   0.070   1.873   7.182  0.1518 -0.3158 -0.7370
 1831SOL    HW116955   0.053   1.875   7.276  0.4829  1.9814 -0.7357
 1831SOL    HW216956   0.056   1.778   7.178  0.9806 -0.5942  2.5726
 1832SOL     OW16957   1.386   3.409  12.501 -0.8225 -0.1044 -0.0211
 1832SOL    HW116958   1.443   3.381  12.573 -1.2534  0.0249  0.3669
 1832SOL    HW216959   1.328   3.476  12.538 -1.8543 -0.3177 -1.2537
 1833SOL     OW16960   1.385   2.424   4.457 -0.6129 -0.4951 -0.0725
 1833SOL    HW116961   1.294   2.453   4.456 -0.2552  0.6348  0.8211
 1833SOL    HW216962   1.386   2.367   4.534  0.9588 -0.3515 -0.0000
 1834SOL     OW16963   0.881   4.705  14.247  0.5868 -0.5964 -0.7482
 1834SOL    HW116964   0.862   4.691  14.154 -1.5985  0.2559 -0.4286
 1834SOL    HW216965   0.848   4.625  14.288  1.6916 -0.3802  0.5705
 1835SOL     OW16966   2.861   2.252   2.393  0.1108  0.3892 -0.6454
 1835SOL    HW116967   2.910   2.250   2.476 -1.7671 -1.8001  0.4267
 1835SOL    HW216968   2.815   2.168   2.386 -0.6559  0.7669 -0.0803
 1836SOL     OW16969   2.069   0.371  17.509  0.5676 -0.5656 -0.1878
 1836SOL    HW116970   2.031   0.435  17.449 -0.0511 -0.9878 -0.2408
 1836SOL    HW216971   2.158   0.365  17.473  0.6073  1.9895 -0.5358
 1837SOL     OW16972   1.823   1.138   1.050 -0.3488  0.1615 -0.2174
 1837SOL    HW116973   1.835   1.110   1.141  0.6944 -0.5773 -0.5773
 1837SOL    HW216974   1.912   1.119   1.020  0.4299  1.2041  1.4622
 1838SOL     OW16975   2.966   0.769   3.172  0.2328 -0.2723 -0.3762
 1838SOL    HW116976   3.024   0.782   3.097 -0.3464  0.0666 -0.7663
 1838SOL    HW216977   2.947   0.861   3.193  0.6925 -0.0878 -0.7705
 1839SOL     OW16978   4.225   0.780   5.791 -0.7438  0.2737  0.5557
 1839SOL    HW116979   4.254   0.689   5.804 -1.7887 -0.2768 -0.9563
 1839SOL    HW216980   4.305   0.831   5.780 -2.1839  1.8638 -2.4397
 1840SOL     OW16981   1.835   2.420  14.313  0.2706  0.1136 -0.1367
 1840SOL    HW116982   1.814   2.326  14.312  1.0139 -0.0619  0.2018
 1840SOL    HW216983   1.838   2.439  14.406 -0.0591  2.6500 -0.6655
 1841SOL     OW16984   0.427   1.713  11.642  0.8140 -0.5915 -0.0856
 1841SOL    HW116985   0.463   1.714  11.552 -0.2433 -0.5017 -0.5001
 1841SOL    HW216986   0.436   1.808  11.643  3.5121 -0.8055 -1.3171
 1842SOL     OW16987   3.864   0.406   9.793  0.2437 -0.1671  0.1247
 1842SOL    HW116988   3.775   0.372   9.805 -0.6971  1.5498 -1.9806
 1842SOL    HW216989   3.869   0.495   9.828  0.6961 -0.3868  0.6261
 1843SOL     OW16990   0.502   2.602  11.416 -0.0484  0.2155  1.1690
 1843SOL    HW116991   0.450   2.548  11.475 -1.2140  1.2798  1.1310
 1843SOL    HW216992   0.549   2.662  11.474  0.3656 -1.1258  2.2240
 1844SOL     OW16993   2.087   2.620   7.254 -0.1897 -0.1029 -0.2770
 1844SOL    HW116994   2.073   2.526   7.261 -0.0889 -0.0055  1.3475
 1844SOL    HW216995   2.073   2.643   7.346 -1.3836 -0.0690 -0.4680
 1845SOL     OW16996   2.840   1.167   3.755 -0.2304  0.2693  0.2819
 1845SOL    HW116997   2.745   1.166   3.742 -0.4842 -1.4266  2.2933
 1845SOL    HW216998   2.849   1.113   3.833  1.0935 -0.1057 -0.1338
 1846SOL     OW16999   0.170   4.125   8.578  0.4757 -0.6093 -0.0836
 1846SOL    HW117000   0.075   4.119   8.588  0.3127  2.4231  0.4001
 1846SOL    HW217001   0.181   4.046   8.525  0.6191  1.1094 -2.6116
 1847SOL     OW17002   2.248   3.044   4.449  0.2770  0.0711 -0.4190
 1847SOL    HW117003   2.324   2.986   4.443  0.4818  0.3573 -0.6121
 1847SOL    HW217004   2.244   3.068   4.357  0.9483  0.6670 -0.2927
 1848SOL     OW17005   2.735   2.708  15.491  0.4919 -0.0995  0.6035
 1848SOL    HW117006   2.805   2.745  15.544 -0.0010 -0.4699  1.5195
 1848SOL    HW217007   2.789   2.651  15.435 -0.5408 -1.2050  0.7269
 1849SOL     OW17008   1.892   2.646  16.685 -0.3537  0.5284 -0.5966
 1849SOL    HW117009   1.880   2.639  16.591  1.7967 -1.4323 -0.7310
 1849SOL    HW217010   1.844   2.566  16.707 -1.9801  1.5273 -0.4766
 1850SOL     OW17011   3.016   2.263   4.806 -0.5013 -0.3345  0.2708
 1850SOL    HW117012   2.985   2.245   4.717  1.8942  0.7433 -0.7604
 1850SOL    HW217013   2.934   2.292   4.847  0.7566 -0.4336  2.8472
 1851SOL     OW17014   1.967   3.229   5.732  0.2221  0.0099 -0.1164
 1851SOL    HW117015   1.921   3.291   5.675 -1.7228 -3.3549 -2.2395
 1851SOL    HW217016   2.015   3.293   5.785 -1.8473  1.8750 -0.4836
 1852SOL     OW17017   2.117   1.258   8.385  0.3150 -0.2478  0.1761
 1852SOL    HW117018   2.208   1.235   8.373  0.9992  1.2883  2.3098
 1852SOL    HW217019   2.075   1.173   8.371  1.0476 -0.6835  0.6393
 1853SOL     OW17020   2.808   1.792  13.635 -0.0779  0.6556 -0.1346
 1853SOL    HW117021   2.894   1.751  13.632  0.5436  1.7240  2.7396
 1853SOL    HW217022   2.832   1.873  13.678 -0.7423  0.7749  0.0183
 1854SOL     OW17023   3.268   3.014   7.151  0.0481 -0.0809 -0.4647
 1854SOL    HW117024   3.261   2.952   7.078  0.6683  1.2242 -1.6352
 1854SOL    HW217025   3.213   2.980   7.222 -0.4757  0.1344 -0.7665
 1855SOL     OW17026   3.933   4.702   9.773  0.0350  0.4084  0.3676
 1855SOL    HW117027   3.849   0.003   9.812 -0.9739 -2.1838 -0.1802
 1855SOL    HW217028   3.915   4.626   9.718 -0.3473  0.2409  0.7185
 1856SOL     OW17029   4.239   4.655   6.511 -0.2310  0.2214 -0.0853
 1856SOL    HW117030   4.206   4.597   6.578 -1.1352  1.9599  0.9719
 1856SOL    HW217031   4.299   4.598   6.463  0.2906  0.5513  0.1736
 1857SOL     OW17032   3.268   3.428   1.150 -0.7779  0.5185  0.5969
 1857SOL    HW117033   3.265   3.350   1.095  1.4211  0.7646  0.1343
 1857SOL    HW217034   3.209   3.488   1.104  0.9841  1.1604 -0.8149
 1858SOL     OW17035   3.178   2.867   6.048  0.9565  0.3328  0.1484
 1858SOL    HW117036   3.222   2.802   5.994 -0.2593 -0.4152  0.0602
 1858SOL    HW217037   3.159   2.808   6.121  0.2167 -0.4898 -0.7187
 1859SOL     OW17038   2.557   3.126   7.837 -0.0909  0.1353  0.8863
 1859SOL    HW117039   2.620   3.134   7.908  0.0705  1.7552  0.5657
 1859SOL    HW217040   2.614   3.083   7.774  0.4531  0.5354  1.1091
 1860SOL     OW17041   2.480   0.708   3.968  0.1814 -0.0901  0.5134
 1860SOL    HW117042   2.546   0.736   3.905  0.6261 -0.3612  0.8537
 1860SOL    HW217043   2.528   0.640   4.016 -1.3157 -1.0698  0.6291
 1861SOL     OW17044   1.142   4.290   4.344  0.5475 -0.5258  0.3116
 1861SOL    HW117045   1.149   4.381   4.371 -1.9012  0.0264 -0.9576
 1861SOL    HW217046   1.147   4.297   4.249 -0.9686 -0.1476  0.2554
 1862SOL     OW17047   3.505   3.480   6.693  0.0871  0.0697 -0.1787
 1862SOL    HW117048   3.569   3.410   6.688  2.7410  2.5326 -0.4589
 1862SOL    HW217049   3.423   3.440   6.663  0.0619 -0.7284  0.9311
 1863SOL     OW17050   0.133   0.593   1.695  0.2835  0.5725 -0.1257
 1863SOL    HW117051   0.169   0.581   1.607 -0.4118  0.0927 -0.3385
 1863SOL    HW217052   0.189   0.661   1.734  0.3634 -0.1000  0.9193
 1864SOL     OW17053   0.126   3.969  10.844  0.0960  0.4311 -0.2597
 1864SOL    HW117054   0.199   4.020  10.809 -1.0285  1.5383 -1.0078
 1864SOL    HW217055   0.160   3.953  10.932  0.6975 -1.6577 -0.8828
 1865SOL     OW17056   0.301   2.511   6.446 -0.3594  0.1011  0.3740
 1865SOL    HW117057   0.290   2.464   6.528  0.7221  0.1576  0.5562
 1865SOL    HW217058   0.212   2.519   6.412 -0.5641  0.8601  1.0837
 1866SOL     OW17059   4.561   4.186   1.915 -0.0734 -0.3369 -0.1962
 1866SOL    HW117060   4.500   4.158   1.983  0.4518 -2.1672 -0.4970
 1866SOL    HW217061   4.548   4.281   1.921  0.4718 -0.1348 -2.1199
 1867SOL     OW17062   2.603   3.306   1.490 -0.0333 -0.4220 -0.1777
 1867SOL    HW117063   2.523   3.322   1.539  0.9366 -1.7716  1.8162
 1867SOL    HW217064   2.644   3.393   1.482 -0.4176 -0.1751  0.6291
 1868SOL     OW17065   3.117   2.329   1.167 -0.0960  0.1986  1.0025
 1868SOL    HW117066   3.212   2.341   1.173 -0.1994 -0.0959  3.1755
 1868SOL    HW217067   3.104   2.343   1.073 -1.1175 -0.8975  0.9710
 1869SOL     OW17068   1.030   4.597   6.760  0.3791 -0.2498 -0.2456
 1869SOL    HW117069   0.964   4.664   6.775  0.3702 -0.4428  0.5459
 1869SOL    HW217070   1.057   4.573   6.848  1.0550 -2.4618 -1.0460
 1870SOL     OW17071   1.478   4.417   8.281 -0.8545  0.5239  0.3373
 1870SOL    HW117072   1.441   4.457   8.360 -0.8619  1.2476 -0.0333
 1870SOL    HW217073   1.412   4.362   8.239 -0.7617  0.3127  0.4683
 1871SOL     OW17074   0.063   0.136   8.646 -0.2943 -0.0965  0.1341
 1871SOL    HW117075   4.699   0.099   8.640 -1.1188  2.2506 -1.8578
 1871SOL    HW217076   0.057   0.231   8.641  3.1461  0.0987  0.1020
 1872SOL     OW17077   1.289   2.172   9.125  0.3407  0.1397 -0.0964
 1872SOL    HW117078   1.375   2.210   9.140  1.3511 -2.1151 -0.2088
 1872SOL    HW217079   1.304   2.082   9.154 -0.0143 -0.2419 -1.0943
 1873SOL     OW17080   1.200   3.664   2.948  0.6521  0.2920 -0.4752
 1873SOL    HW117081   1.106   3.679   2.954  0.4615 -1.5984  1.3463
 1873SOL    HW217082   1.225   3.629   3.033 -0.1788 -0.4424 -0.5288
 1874SOL     OW17083   4.333   0.788  14.031 -0.0775  0.5115 -0.3050
 1874SOL    HW117084   4.424   0.783  14.000 -0.0683 -1.5538  0.0633
 1874SOL    HW217085   4.338   0.852  14.102 -1.2604 -1.0767  1.2131
 1875SOL     OW17086   2.267   2.746   2.207  0.5106  0.0447  0.3069
 1875SOL    HW117087   2.300   2.693   2.279 -1.7644 -0.9156  0.6495
 1875SOL    HW217088   2.179   2.708   2.206  0.9430 -0.8923 -2.0052
 1876SOL     OW17089   0.864   1.218  15.652 -0.4379 -0.2339 -0.5062
 1876SOL    HW117090   0.878   1.283  15.721  1.9649 -0.2232 -0.9798
 1876SOL    HW217091   0.879   1.141  15.706  3.9777  1.3699  0.5230
 1877SOL     OW17092   3.539   0.572  13.241  0.0982  0.6999  0.1231
 1877SOL    HW117093   3.555   0.558  13.148  1.6545 -0.4875  0.5799
 1877SOL    HW217094   3.511   0.482  13.256 -1.9634  1.8161  3.0949
 1878SOL     OW17095   2.960   2.969   0.711 -0.2301 -0.3894 -0.5819
 1878SOL    HW117096   2.874   2.939   0.682 -0.5004  0.5353 -0.7430
 1878SOL    HW217097   3.008   2.890   0.737 -0.3705 -0.2973 -0.0486
 1879SOL     OW17098   3.919   2.247  12.437 -0.4305  0.5953  0.1207
 1879SOL    HW117099   3.957   2.274  12.520  2.5438 -0.0069 -1.0327
 1879SOL    HW217100   3.886   2.329  12.399  2.6992  2.0772  0.6145
 1880SOL     OW17101   0.072   4.394   3.024  0.4139  0.2283  0.4975
 1880SOL    HW117102   0.083   4.327   3.092  0.8139  0.1944  0.3986
 1880SOL    HW217103   4.721   4.360   2.976  0.2934  0.7695  0.3076
 1881SOL     OW17104   0.695   3.403   2.268  0.3045  0.1564  0.1240
 1881SOL    HW117105   0.683   3.468   2.199 -2.8369  0.7376  1.2329
 1881SOL    HW217106   0.752   3.347   2.216 -1.0151 -0.7348 -0.3765
 1882SOL     OW17107   2.829   0.133   0.687  0.5191  0.0814 -0.4496
 1882SOL    HW117108   2.806   0.222   0.715 -0.6810 -0.3265 -0.1261
 1882SOL    HW217109   2.770   0.121   0.612  0.1265  1.4070 -0.3486
 1883SOL     OW17110   4.624   3.479   6.319  0.6990 -0.5560  0.4140
 1883SOL    HW117111   4.607   3.572   6.303 -1.6145 -1.2803 -1.3528
 1883SOL    HW217112   4.653   3.459   6.230 -2.0584 -1.6026 -0.2538
 1884SOL     OW17113   1.316   2.482   8.427 -0.1574 -0.0325 -0.2400
 1884SOL    HW117114   1.333   2.548   8.495  0.3596 -1.6062  1.1709
 1884SOL    HW217115   1.244   2.426   8.455 -0.1140  0.1094  0.1634
 1885SOL     OW17116   1.145   3.535  15.737 -0.0216 -0.7393  0.1913
 1885SOL    HW117117   1.181   3.451  15.766 -0.7635 -1.0635  0.1584
 1885SOL    HW217118   1.188   3.543  15.652 -2.8419 -2.1626 -1.3656
 1886SOL     OW17119   0.152   1.154   7.495  0.0762 -0.0542  0.0573
 1886SOL    HW117120   0.073   1.156   7.441  1.7647  0.6734 -2.3570
 1886SOL    HW217121   0.113   1.191   7.574  3.3682  1.0783  1.1416
 1887SOL     OW17122   3.899   3.471   6.727  0.6137  0.1177 -0.6394
 1887SOL    HW117123   3.883   3.476   6.633  0.0956 -2.5499 -0.6781
 1887SOL    HW217124   3.933   3.558   6.746 -0.8459  0.0185  2.3799
 1888SOL     OW17125   0.903   0.576   6.884  0.1261  0.1242 -0.5333
 1888SOL    HW117126   0.941   0.660   6.908  1.0752  0.2542 -2.4566
 1888SOL    HW217127   0.976   0.516   6.898  1.8501  2.0876 -1.2194
 1889SOL     OW17128   3.167   1.357   3.965  0.3952  0.3005 -0.1705
 1889SOL    HW117129   3.121   1.399   3.892 -0.4585 -1.2321 -0.5311
 1889SOL    HW217130   3.180   1.274   3.918 -1.1230 -0.1833  0.2664
 1890SOL     OW17131   2.440   1.127   2.174 -0.5296 -0.0016  0.3628
 1890SOL    HW117132   2.377   1.182   2.128  0.7413 -0.1610 -1.5888
 1890SOL    HW217133   2.503   1.188   2.213 -1.3308  1.2325 -0.2819
 1891SOL     OW17134   1.320   1.611   0.685 -0.3964 -0.1016 -0.3291
 1891SOL    HW117135   1.387   1.614   0.617 -0.4167 -0.9470 -0.3877
 1891SOL    HW217136   1.335   1.704   0.704  1.2775 -0.5728  0.7198
 1892SOL     OW17137   3.252   0.139   3.100  0.1202  0.0120  0.0587
 1892SOL    HW117138   3.263   0.046   3.080 -0.0296 -0.0941  0.4674
 1892SOL    HW217139   3.266   0.183   3.016  2.1397  0.0435  0.4292
 1893SOL     OW17140   2.144   1.522   5.893  0.5895 -0.0614  0.5095
 1893SOL    HW117141   2.099   1.606   5.885 -0.0618 -0.4230  0.3995
 1893SOL    HW217142   2.187   1.518   5.808 -0.3999  0.6303 -0.0256
 1894SOL     OW17143   2.231   3.409   3.910 -0.4131 -0.0015  0.1611
 1894SOL    HW117144   2.244   3.482   3.850  3.0084 -0.1861  0.6926
 1894SOL    HW217145   2.264   3.335   3.859 -0.2629  0.6457 -0.6900
 1895SOL     OW17146   3.365   1.573  14.861  0.5683  0.1858  0.5186
 1895SOL    HW117147   3.428   1.518  14.907  2.1024  1.5184  0.0026
 1895SOL    HW217148   3.399   1.662  14.869 -0.4549  0.4509  1.8837
 1896SOL     OW17149   1.870   3.865   0.292 -0.0661  0.1046 -0.3597
 1896SOL    HW117150   1.793   3.887   0.343 -0.1594  2.4946 -1.5375
 1896SOL    HW217151   1.918   3.801   0.345 -1.0383  0.3129  0.7670
 1897SOL     OW17152   1.791   3.852   8.109 -0.1097 -1.0777  0.3163
 1897SOL    HW117153   1.828   3.786   8.050  0.1686 -0.8711  0.2603
 1897SOL    HW217154   1.722   3.873   8.046  0.8249 -0.6021 -0.5754
 1898SOL     OW17155   4.621   4.623   3.540  0.2502 -0.4719 -0.6570
 1898SOL    HW117156   4.572   4.695   3.501  2.3152  1.6894  0.7693
 1898SOL    HW217157   4.632   4.557   3.472  2.0745 -0.7774 -0.0667
 1899SOL     OW17158   3.453   4.225   8.337 -0.5870 -0.0215  0.2996
 1899SOL    HW117159   3.438   4.295   8.401  1.1591  1.3965 -0.8788
 1899SOL    HW217160   3.537   4.256   8.304 -0.1814 -1.2825  0.1508
 1900SOL     OW17161   4.604   1.004   2.234 -0.1840 -0.4670  0.7552
 1900SOL    HW117162   4.522   0.980   2.279 -1.3713  1.7900 -0.2125
 1900SOL    HW217163   4.596   1.098   2.244  1.6342 -0.2141 -0.1932
 1901SOL     OW17164   0.236   4.670   5.544  0.0284 -0.2519 -0.3416
 1901SOL    HW117165   0.317   4.722   5.549  0.4633 -0.9912  0.2681
 1901SOL    HW217166   0.190   4.707   5.468  1.3276  0.6640 -0.6885
 1902SOL     OW17167   4.116   1.836   3.124  0.0034  0.1920  0.7765
 1902SOL    HW117168   4.168   1.916   3.133 -1.6084  1.5200 -1.5924
 1902SOL    HW217169   4.042   1.851   3.065  0.6984 -0.6228 -0.2931
 1903SOL     OW17170   0.942   2.279   2.624 -0.5256  0.1244  0.6112
 1903SOL    HW117171   0.916   2.243   2.709  0.2743  0.7782  1.1352
 1903SOL    HW217172   0.883   2.354   2.614  0.1878  0.4654 -0.9552
 1904SOL     OW17173   4.183   3.337   3.036  0.0109  0.1331 -0.1264
 1904SOL    HW117174   4.102   3.381   3.010 -0.2645 -0.0477  0.4301
 1904SOL    HW217175   4.192   3.372   3.124 -1.3417  0.4788 -0.1300
 1905SOL     OW17176   4.677   0.989   7.314  0.2545  0.6353  0.1961
 1905SOL    HW117177   4.711   0.902   7.293  0.9495  0.2268  2.9995
 1905SOL    HW217178   4.681   1.030   7.227 -2.0716  0.6670  0.1240
 1906SOL     OW17179   2.947   4.105   2.821 -0.1680 -0.0513 -0.3475
 1906SOL    HW117180   2.871   4.138   2.773 -0.9150  0.5571  1.2412
 1906SOL    HW217181   2.984   4.054   2.749 -2.2829 -1.4011 -0.4602
 1907SOL     OW17182   3.365   0.610   1.512 -0.3847 -0.5091 -0.5570
 1907SOL    HW117183   3.409   0.540   1.562  0.9824  0.3668 -0.5265
 1907SOL    HW217184   3.358   0.554   1.435  0.7348 -0.3421 -0.7837
 1908SOL     OW17185   4.307   3.281  13.942 -0.3815  0.1518  0.0506
 1908SOL    HW117186   4.358   3.204  13.915 -0.8012 -0.8857  2.2887
 1908SOL    HW217187   4.316   3.267  14.036  0.2332  0.3873  0.0292
 1909SOL     OW17188   1.067   3.545   5.091  0.7880  0.2491  0.0183
 1909SOL    HW117189   0.979   3.570   5.120  1.7276  2.6972  0.7879
 1909SOL    HW217190   1.083   3.606   5.019  0.3307  1.1271  0.6600
 1910SOL     OW17191   1.800   3.592   2.203 -0.0286 -0.2657  0.0932
 1910SOL    HW117192   1.745   3.525   2.244 -0.0129  0.3372  1.0983
 1910SOL    HW217193   1.746   3.610   2.126  0.0896  0.0714  0.0905
 1911SOL     OW17194   1.470   1.096  10.947  0.1475 -0.1386 -0.1332
 1911SOL    HW117195   1.546   1.092  11.005 -0.7852 -5.0254  0.7049
 1911SOL    HW217196   1.518   1.082  10.865 -1.0504 -1.3656 -0.6172
 1912SOL     OW17197   3.632   4.360   3.326 -0.3175  0.1152 -0.6429
 1912SOL    HW117198   3.703   4.302   3.296  0.1635  0.0366  0.6430
 1912SOL    HW217199   3.686   4.439   3.326 -0.9512  0.5534  0.8147
 1913SOL     OW17200   2.588   0.242   3.047  1.0380  0.5621 -0.3963
 1913SOL    HW117201   2.655   0.302   3.015  0.9312  1.4943  1.1364
 1913SOL    HW217202   2.605   0.176   2.980 -1.0683 -0.5435  0.1531
 1914SOL     OW17203   4.340   1.184   7.582  0.1799  0.3645  0.2552
 1914SOL    HW117204   4.415   1.243   7.575 -0.3467  1.0433  0.2787
 1914SOL    HW217205   4.277   1.228   7.525 -0.0957 -0.0182  0.2676
 1915SOL     OW17206   3.059   3.249   4.101 -0.2078  0.0383  0.9160
 1915SOL    HW117207   3.044   3.223   4.193  1.6909 -1.7357  0.7226
 1915SOL    HW217208   3.154   3.250   4.111  0.1071 -2.9990 -1.8518
 1916SOL     OW17209   3.511   0.460   0.396 -0.1886 -0.1732  0.2669
 1916SOL    HW117210   3.432   0.489   0.349  1.7716  2.7325 -1.2112
 1916SOL    HW217211   3.562   0.532   0.361  0.1493 -0.3918  0.3064
 1917SOL     OW17212   2.788   3.688   8.798 -0.3251 -0.1373  0.2873
 1917SOL    HW117213   2.821   3.771   8.832 -1.1315  0.4774 -0.4080
 1917SOL    HW217214   2.699   3.698   8.832  0.4175 -0.9080  2.4356
 1918SOL     OW17215   3.600   4.222   1.499 -0.9132 -0.3340 -0.9941
 1918SOL    HW117216   3.612   4.130   1.521 -0.5435  0.2335  1.1715
 1918SOL    HW217217   3.682   4.271   1.506 -0.4490 -1.0479 -1.4102
 1919SOL     OW17218   4.143   1.438  16.947  0.0095  0.0250 -0.0526
 1919SOL    HW117219   4.075   1.372  16.935  0.1323 -0.3945  1.5446
 1919SOL    HW217220   4.221   1.386  16.926  0.4100  0.2565  0.8547
 1920SOL     OW17221   3.311   3.245   8.072 -0.1357 -0.3183  0.6727
 1920SOL    HW117222   3.325   3.255   8.167 -0.2980 -0.2479  0.6889
 1920SOL    HW217223   3.394   3.280   8.039 -0.1700  2.0019  3.0219
 1921SOL     OW17224   1.881   4.495   2.366 -0.7192  0.3131  0.1130
 1921SOL    HW117225   1.825   4.458   2.435 -1.0634 -0.9922 -0.8733
 1921SOL    HW217226   1.897   4.419   2.311 -1.7596  0.7402 -0.7896
 1922SOL     OW17227   1.454   4.053   2.202 -0.0202 -0.6350  0.1246
 1922SOL    HW117228   1.522   4.057   2.134 -1.3366 -1.0047 -1.2102
 1922SOL    HW217229   1.389   4.086   2.140  1.0539 -2.6436 -2.1001
 1923SOL     OW17230   2.898   0.559   0.633  0.5644  0.1611  0.7284
 1923SOL    HW117231   2.993   0.553   0.647  0.5684  0.9136  1.0360
 1923SOL    HW217232   2.896   0.640   0.582 -0.5488  1.6677  3.1836
 1924SOL     OW17233   4.210   4.350   3.888  0.4899  0.3609 -0.0407
 1924SOL    HW117234   4.124   4.377   3.856  0.5135 -0.2257 -0.6072
 1924SOL    HW217235   4.178   4.265   3.918  0.8329  0.1948 -0.1439
 1925SOL     OW17236   3.590   4.677  12.580 -0.2362  0.0824  0.4212
 1925SOL    HW117237   3.633   4.626  12.649  0.1545  1.3684  1.1354
 1925SOL    HW217238   3.669   4.723  12.553 -1.1399  1.3225 -0.0933
 1926SOL     OW17239   3.579   3.158   7.509 -0.1607  0.3800 -0.2935
 1926SOL    HW117240   3.651   3.102   7.539  0.8878  1.2955 -1.1007
 1926SOL    HW217241   3.501   3.105   7.526  0.7850 -0.8207  0.3365
 1927SOL     OW17242   4.523   3.060   8.419  0.2959  0.1891 -0.5728
 1927SOL    HW117243   4.523   3.001   8.343 -0.6401 -0.5868  0.0254
 1927SOL    HW217244   4.570   3.137   8.388  1.1700  0.9479  2.6987
 1928SOL     OW17245   3.932   2.630   3.627  0.3450 -0.1024 -0.1301
 1928SOL    HW117246   3.907   2.687   3.700  0.5016 -1.4916  1.0072
 1928SOL    HW217247   3.857   2.571   3.633  0.1244  0.1888  0.0256
 1929SOL     OW17248   2.103   1.015  16.816 -0.2990 -0.0094 -0.1416
 1929SOL    HW117249   2.130   0.932  16.857 -0.0465  0.2843  0.2849
 1929SOL    HW217250   2.042   1.046  16.883  0.1367  1.5535 -0.4911
 1930SOL     OW17251   3.747   1.120   3.116  0.2511 -0.1333  0.4714
 1930SOL    HW117252   3.821   1.069   3.082 -0.7823  0.3943 -2.5674
 1930SOL    HW217253   3.718   1.159   3.034  0.8075  1.9585  1.2822
 1931SOL     OW17254   2.934   4.097   3.348 -0.1193  0.1590 -0.3767
 1931SOL    HW117255   2.872   4.145   3.293 -0.5649 -0.1677 -0.1609
 1931SOL    HW217256   2.887   4.023   3.388  1.3263 -0.2368  0.5774
 1932SOL     OW17257   1.762   3.122   5.216 -0.5257 -0.6333  0.2268
 1932SOL    HW117258   1.832   3.070   5.176 -1.1844 -0.5846 -0.9784
 1932SOL    HW217259   1.757   3.086   5.305 -1.4104 -1.2279 -0.0726
 1933SOL     OW17260   3.113   4.448   3.901  0.2676 -0.0220 -0.6556
 1933SOL    HW117261   3.188   4.475   3.955 -0.7629 -0.2453  0.9030
 1933SOL    HW217262   3.166   4.420   3.827 -0.3410 -1.3881 -0.5653
 1934SOL     OW17263   1.761   4.132  16.187  0.4501  0.1400  0.1556
 1934SOL    HW117264   1.841   4.162  16.230 -0.5221  2.6818  0.1414
 1934SOL    HW217265   1.727   4.207  16.140 -0.1174 -1.4678 -2.0197
 1935SOL     OW17266   1.765   1.077   4.273  0.1240 -0.0289  0.3626
 1935SOL    HW117267   1.758   1.044   4.363  1.5431  0.0396  0.5086
 1935SOL    HW217268   1.730   1.166   4.276 -0.4148 -0.2255 -0.2122
 1936SOL     OW17269   1.086   3.384   9.242  0.4337 -0.3981 -0.2599
 1936SOL    HW117270   1.104   3.468   9.201  1.6405 -0.9108 -0.7759
 1936SOL    HW217271   1.098   3.319   9.173  1.8456  1.2972 -1.6068
 1937SOL     OW17272   2.572   3.201  11.533  0.3209 -0.5155  0.2262
 1937SOL    HW117273   2.579   3.235  11.622  0.0174 -0.8944  0.3943
 1937SOL    HW217274   2.615   3.115  11.540 -0.2934 -0.7966  0.4872
 1938SOL     OW17275   1.543   3.798   0.712 -0.3705 -0.1879  0.6224
 1938SOL    HW117276   1.541   3.818   0.805  1.5698 -0.1080  0.6302
 1938SOL    HW217277   1.517   3.706   0.710 -1.7081  0.1935 -0.2172
 1939SOL     OW17278   1.382   2.352   7.516 -0.2102  0.6738  0.3780
 1939SOL    HW117279   1.414   2.369   7.604  1.7339 -1.7981  0.1236
 1939SOL    HW217280   1.345   2.264   7.517  1.2260  0.0845  1.4220
 1940SOL     OW17281   1.516   0.761   2.264  0.0220  0.4299  0.7176
 1940SOL    HW117282   1.609   0.767   2.287  0.1994 -1.3137  0.4638
 1940SOL    HW217283   1.482   0.846   2.292  0.1022  1.1313 -1.2768
 1941SOL     OW17284   3.539   1.910   2.227  0.3143  0.0952 -0.1350
 1941SOL    HW117285   3.588   1.937   2.150  1.6158  3.0799  1.7833
 1941SOL    HW217286   3.578   1.951   2.304  0.2687 -0.6653  0.2952
 1942SOL     OW17287   4.063   3.177   4.203 -0.0946  0.2842 -0.7251
 1942SOL    HW117288   4.113   3.122   4.143 -0.1471 -0.1535 -0.3682
 1942SOL    HW217289   4.048   3.244   4.136 -0.1662 -1.4824 -2.4824
 1943SOL     OW17290   2.290   0.494   1.736  0.0097 -0.4301  0.1353
 1943SOL    HW117291   2.220   0.479   1.673 -0.2322 -1.9787  0.7632
 1943SOL    HW217292   2.351   0.544   1.682  0.5928 -0.1606  1.0380
 1944SOL     OW17293   1.078   3.981   5.484 -0.1990 -0.4880 -0.4350
 1944SOL    HW117294   1.127   3.995   5.565  0.0033 -0.2057 -0.6071
 1944SOL    HW217295   1.145   3.939   5.430 -0.9273 -0.5262 -1.3170
 1945SOL     OW17296   1.347   4.506  13.891 -0.4394 -0.4861 -0.3641
 1945SOL    HW117297   1.298   4.520  13.810 -2.2388  0.8276  0.9476
 1945SOL    HW217298   1.426   4.469  13.851  1.7121  4.2311 -0.5840
 1946SOL     OW17299   1.849   0.449  15.774  0.0561  0.2633 -0.0382
 1946SOL    HW117300   1.928   0.395  15.779  0.0853  0.2906 -0.2193
 1946SOL    HW217301   1.800   0.412  15.700 -0.8262  1.0487  0.1538
 1947SOL     OW17302   4.057   4.308   5.174 -0.0868 -0.0431 -0.4067
 1947SOL    HW117303   4.140   4.262   5.174  1.0571  1.9927  0.1716
 1947SOL    HW217304   4.005   4.261   5.239 -0.7941 -1.8588 -2.2882
 1948SOL     OW17305   1.295   2.951   4.855  0.0346  0.0412  0.1629
 1948SOL    HW117306   1.335   2.872   4.818 -0.6744 -0.5092  0.5856
 1948SOL    HW217307   1.242   2.985   4.783 -2.2386 -2.4613  0.6701
 1949SOL     OW17308   2.370   1.112  11.090  0.0462  0.1335 -0.1567
 1949SOL    HW117309   2.336   1.181  11.146  1.9353 -0.3547  1.5726
 1949SOL    HW217310   2.448   1.088  11.140 -0.9201 -3.7808 -0.4621
 1950SOL     OW17311   2.199   0.996  17.454  0.3786  0.1483 -0.1561
 1950SOL    HW117312   2.265   1.009  17.386  0.5648  0.4193  0.0806
 1950SOL    HW217313   2.168   1.086  17.445 -1.4817 -0.6555 -1.8444
 1951SOL     OW17314   1.109   1.199  15.870  0.3221 -0.5107  0.8336
 1951SOL    HW117315   1.027   1.249  15.865 -0.1051 -1.3966 -1.0152
 1951SOL    HW217316   1.078   1.109  15.863  0.3735 -0.4634  0.0102
 1952SOL     OW17317   3.250   0.612   4.601  0.1367 -0.2471 -0.0860
 1952SOL    HW117318   3.195   0.656   4.667 -0.5498 -0.6981 -0.3618
 1952SOL    HW217319   3.187   0.556   4.556  2.7987 -1.0078 -2.8213
 1953SOL     OW17320   0.476   2.081  14.428 -0.5953 -0.2455 -0.1774
 1953SOL    HW117321   0.562   2.109  14.396 -0.8405  1.1312  0.3591
 1953SOL    HW217322   0.426   2.163  14.422  0.8962  0.6137 -0.7902
 1954SOL     OW17323   3.093   4.558   8.221  0.2075  0.0392  0.2770
 1954SOL    HW117324   3.144   4.478   8.232 -0.0219 -0.0148  0.9538
 1954SOL    HW217325   3.055   4.566   8.309 -0.6708  0.2988 -0.1259
 1955SOL     OW17326   0.356   1.793   2.965 -0.0548 -0.5796  0.6381
 1955SOL    HW117327   0.287   1.727   2.963  1.1051 -1.8537  1.9569
 1955SOL    HW217328   0.339   1.834   3.049  0.2917 -0.9462  0.8892
 1956SOL     OW17329   3.623   0.061   4.669  0.1546  0.5466 -0.1561
 1956SOL    HW117330   3.578   0.052   4.585 -1.5919  0.9530  0.7390
 1956SOL    HW217331   3.714   0.069   4.642  0.4191  0.8413  0.8355
 1957SOL     OW17332   4.390   3.153   4.846  0.3695  0.4748 -0.2632
 1957SOL    HW117333   4.370   3.245   4.826 -2.7869 -0.3450 -0.7830
 1957SOL    HW217334   4.378   3.115   4.759  1.1203  1.6367 -0.8803
 1958SOL     OW17335   3.143   4.246  12.776  0.5104 -0.1067  0.5495
 1958SOL    HW117336   3.214   4.298  12.738 -0.6293  0.2052 -1.1650
 1958SOL    HW217337   3.194   4.179  12.821 -0.5353  1.0583  3.4658
 1959SOL     OW17338   0.211   2.199   3.958  0.0099 -0.3869  0.5513
 1959SOL    HW117339   0.154   2.195   3.881  0.2679  0.3197  0.3212
 1959SOL    HW217340   0.262   2.279   3.943 -2.4936  1.3516  1.4364
 1960SOL     OW17341   2.035   3.921  13.747  0.1737  0.0794 -0.2361
 1960SOL    HW117342   2.106   3.857  13.754  0.4659  0.3143 -1.0666
 1960SOL    HW217343   1.964   3.883  13.798 -1.4784 -0.8000 -3.2057
 1961SOL     OW17344   4.262   4.523   7.207 -0.3928  0.0646 -0.0294
 1961SOL    HW117345   4.241   4.470   7.284  2.3729 -0.4652  0.3693
 1961SOL    HW217346   4.313   4.454   7.163 -1.6175 -1.4172  0.8772
 1962SOL     OW17347   0.430   2.063   6.863 -0.2043 -0.0928 -0.2158
 1962SOL    HW117348   0.380   2.145   6.863  0.8024  0.5169 -2.3153
 1962SOL    HW217349   0.469   2.071   6.950 -0.2984 -2.3803  0.0235
 1963SOL     OW17350   2.982   4.582  11.830 -0.2512  0.4097  0.2402
 1963SOL    HW117351   3.029   4.572  11.747  0.2757  0.3619  0.5397
 1963SOL    HW217352   3.018   4.670  11.844 -1.0197  0.6748  0.5617
 1964SOL     OW17353   0.883   0.686   6.390  0.3723 -0.2208  0.7460
 1964SOL    HW117354   0.899   0.634   6.469  0.4523 -0.4114  0.6052
 1964SOL    HW217355   0.815   0.746   6.421  1.1641  0.3068  1.4526
 1965SOL     OW17356   2.354   3.469   8.193  0.0275 -0.2975  0.0760
 1965SOL    HW117357   2.364   3.431   8.106  1.1483  1.9622 -0.7885
 1965SOL    HW217358   2.318   3.554   8.169 -0.6582 -0.9449 -1.2204
 1966SOL     OW17359   0.320   1.091   4.112 -0.7134 -0.1558  0.1977
 1966SOL    HW117360   0.396   1.037   4.089 -0.7545 -0.4344  0.7140
 1966SOL    HW217361   0.301   1.135   4.030  1.1189  1.2800  0.5184
 1967SOL     OW17362   2.704   1.458   8.307 -0.3185  0.2415 -0.2226
 1967SOL    HW117363   2.720   1.462   8.401 -2.3565  1.3015  0.0968
 1967SOL    HW217364   2.616   1.421   8.316  0.6585 -2.0105 -0.1107
 1968SOL     OW17365   1.774   0.309  15.550 -0.0445  0.4086  0.0721
 1968SOL    HW117366   1.846   0.263  15.508 -0.9183 -0.0346 -0.9259
 1968SOL    HW217367   1.770   0.385  15.492  1.8696  2.3098  2.4169
 1969SOL     OW17368   0.721   1.860   3.845 -0.6893  0.0931 -0.2460
 1969SOL    HW117369   0.777   1.937   3.851 -1.3713  0.4887  1.1155
 1969SOL    HW217370   0.792   1.798   3.828  0.4149  1.3802 -0.2545
 1970SOL     OW17371   3.107   4.432   5.250 -0.0666 -0.8231  0.0700
 1970SOL    HW117372   3.076   4.520   5.228  1.1897 -0.4698 -0.2992
 1970SOL    HW217373   3.185   4.458   5.300 -0.4190 -1.2198  0.8171
 1971SOL     OW17374   0.122   0.460   6.433 -0.4718 -0.0362  0.0729
 1971SOL    HW117375   0.108   0.532   6.495  0.3587  0.3672 -0.2044
 1971SOL    HW217376   0.050   0.398   6.442 -0.3689 -0.2323 -0.4696
 1972SOL     OW17377   3.463   2.576   6.418 -0.3267  0.0027 -0.1585
 1972SOL    HW117378   3.546   2.541   6.387 -0.4020 -0.9300  0.6919
 1972SOL    HW217379   3.407   2.511   6.377 -1.9817  0.6635  1.0376
 1973SOL     OW17380   0.154   4.192   7.311  0.6215  0.4533  0.3094
 1973SOL    HW117381   0.152   4.097   7.318  1.5039  0.3619 -0.6490
 1973SOL    HW217382   0.130   4.193   7.218  1.7741 -2.0826 -0.0226
 1974SOL     OW17383   4.097   3.921   1.633 -0.9731 -0.1919  0.2253
 1974SOL    HW117384   4.088   3.959   1.721  3.3838  0.3667  0.4629
 1974SOL    HW217385   4.013   3.928   1.589  0.3742  1.9877 -1.9821
 1975SOL     OW17386   0.596   3.841  15.255 -0.2899 -0.2300 -0.1844
 1975SOL    HW117387   0.587   3.904  15.183 -1.4181 -0.3431 -0.1425
 1975SOL    HW217388   0.515   3.792  15.242 -0.5180  0.1872 -0.3718
 1976SOL     OW17389   0.974   3.948   8.300 -0.1991 -0.2674  0.7154
 1976SOL    HW117390   0.960   3.981   8.389 -0.7474 -2.0206  1.2853
 1976SOL    HW217391   0.888   3.959   8.259  0.4540 -1.8174 -1.0820
 1977SOL     OW17392   2.364   3.778   0.243  0.0801  0.5949 -0.1198
 1977SOL    HW117393   2.437   3.733   0.286  0.6784  0.3482 -1.3940
 1977SOL    HW217394   2.368   3.865   0.284 -1.3804  0.2917  0.6332
 1978SOL     OW17395   1.544   2.585  10.922  0.4134 -0.5501  0.5530
 1978SOL    HW117396   1.516   2.572  10.832  0.8860  1.5691  0.0860
 1978SOL    HW217397   1.540   2.679  10.940 -2.5618 -0.6775  0.5645
 1979SOL     OW17398   4.233   2.537  14.413 -0.0711 -0.1250  0.1450
 1979SOL    HW117399   4.321   2.521  14.446 -0.2253 -1.7542 -0.2650
 1979SOL    HW217400   4.251   2.619  14.366  1.9237 -0.6339  0.0089
 1980SOL     OW17401   2.983   2.532   5.159  0.2070  0.6093 -0.0855
 1980SOL    HW117402   2.896   2.495   5.176  0.3588 -0.7571 -2.3201
 1980SOL    HW217403   2.991   2.502   5.068 -1.8685  0.0892 -0.1078
 1981SOL     OW17404   0.306   2.457   5.887  0.1069 -0.1285  0.2355
 1981SOL    HW117405   0.306   2.549   5.859  1.6121  0.0212  0.7385
 1981SOL    HW217406   0.271   2.483   5.973  0.5195  0.8049  0.1256
 1982SOL     OW17407   0.850   2.298   5.526  0.0120  0.4437  0.6550
 1982SOL    HW117408   0.881   2.301   5.617  3.0771 -2.0753 -0.2996
 1982SOL    HW217409   0.785   2.368   5.525 -0.5639 -0.0362  3.1620
 1983SOL     OW17410   0.737   3.436  15.070  0.6439 -0.3766  0.2105
 1983SOL    HW117411   0.700   3.402  15.151  0.0075  0.7659  0.4095
 1983SOL    HW217412   0.820   3.392  15.054  0.3490 -0.8990  0.1312
 1984SOL     OW17413   2.143   0.281   6.478  0.2287  0.4143  0.1714
 1984SOL    HW117414   2.198   0.204   6.464 -1.4173 -0.5770 -0.7494
 1984SOL    HW217415   2.073   0.241   6.530 -0.1605  1.8254  0.7313
 1985SOL     OW17416   3.404   2.468   4.737 -0.0405 -0.0346  0.0638
 1985SOL    HW117417   3.343   2.428   4.675 -0.1038 -0.2868  0.2900
 1985SOL    HW217418   3.345   2.539   4.762  2.0051  1.2408  1.2517
 1986SOL     OW17419   1.638   4.214   8.130  0.1974  0.2271 -0.6390
 1986SOL    HW117420   1.625   4.307   8.110  1.2913  0.5988  0.4112
 1986SOL    HW217421   1.662   4.174   8.046  2.3660  2.9546 -1.3302
 1987SOL     OW17422   2.465   0.351  16.570 -0.1707  0.5346 -0.4806
 1987SOL    HW117423   2.548   0.354  16.617  0.9043 -1.5546 -2.2564
 1987SOL    HW217424   2.500   0.376  16.484 -0.5755 -0.5175 -0.9516
 1988SOL     OW17425   1.092   2.096   3.387  0.3530  0.1767  0.1815
 1988SOL    HW117426   0.999   2.096   3.410  0.4206 -0.0284  0.4497
 1988SOL    HW217427   1.088   2.177   3.335 -0.1904  0.3637  0.5162
 1989SOL     OW17428   2.071   2.493  14.165 -0.1089 -0.4949 -0.1645
 1989SOL    HW117429   1.997   2.473  14.222  1.1952 -4.0817  0.2505
 1989SOL    HW217430   2.135   2.527  14.227  0.1257  0.6863 -1.0496
 1990SOL     OW17431   0.192   1.510   3.809 -0.6502 -0.5897  0.1050
 1990SOL    HW117432   0.115   1.460   3.784 -1.6246  1.2336 -0.4867
 1990SOL    HW217433   0.182   1.492   3.903  1.9670  0.4742  0.5900
 1991SOL     OW17434   0.146   1.134  11.315 -0.2171  0.4159  0.1342
 1991SOL    HW117435   0.226   1.185  11.304 -0.0378 -0.7289 -3.7071
 1991SOL    HW217436   0.120   1.170  11.400 -0.3759  1.0647 -0.1883
 1992SOL     OW17437   2.475   2.463  14.488 -0.7869  0.4232  0.1928
 1992SOL    HW117438   2.490   2.543  14.540 -0.2001  0.3558  0.1188
 1992SOL    HW217439   2.498   2.396  14.552  0.9003  0.8289 -0.0131
 1993SOL     OW17440   0.162   0.630  13.876 -1.1032 -0.2962  0.6012
 1993SOL    HW117441   0.150   0.723  13.858  0.3636 -0.4851 -1.3552
 1993SOL    HW217442   0.070   0.607  13.883 -1.5730  2.2303  2.5940
 1994SOL     OW17443   2.453   2.291   3.481 -0.4299 -0.6486 -0.4354
 1994SOL    HW117444   2.417   2.211   3.442  0.2565 -2.1384  2.0197
 1994SOL    HW217445   2.503   2.249   3.551  0.2096  0.6199 -0.1513
 1995SOL     OW17446   1.692   2.900  13.820  0.5588 -0.1129  0.1212
 1995SOL    HW117447   1.726   2.973  13.769 -1.7154 -0.6477 -2.1971
 1995SOL    HW217448   1.607   2.941  13.836 -0.4397 -2.2119  0.2568
 1996SOL     OW17449   0.752   1.066   8.516  0.1652 -0.3129 -0.6144
 1996SOL    HW117450   0.825   1.075   8.454 -0.1144 -0.8409 -1.0222
 1996SOL    HW217451   0.684   1.013   8.474  0.3118  0.8984 -2.3851
 1997SOL     OW17452   3.165   3.422  10.721  0.1556  0.3038 -0.2651
 1997SOL    HW117453   3.209   3.506  10.732 -0.0741  0.4206 -0.2392
 1997SOL    HW217454   3.203   3.368  10.790 -0.9726 -1.6804 -1.1935
 1998SOL     OW17455   0.313   0.187   4.355  0.8377 -0.2121 -0.5680
 1998SOL    HW117456   0.236   0.201   4.299  0.6337  1.0805  0.0304
 1998SOL    HW217457   0.313   0.092   4.355  3.5960 -0.1992  0.7009
 1999SOL     OW17458   3.550   4.613   5.923 -0.0438  0.0935 -0.0596
 1999SOL    HW117459   3.544   4.680   5.992  0.3904  0.5123 -0.4304
 1999SOL    HW217460   3.458   4.605   5.899 -0.4935 -2.6216  2.5513
 2000SOL     OW17461   3.729   0.828  14.605 -0.3576  0.1191  0.2772
 2000SOL    HW117462   3.651   0.773  14.597 -1.1292  1.0326  1.4934
 2000SOL    HW217463   3.782   0.798  14.531  0.3973  0.1623  0.8026
 2001SOL     OW17464   4.641   2.350   1.139  0.4056  0.3532 -0.4651
 2001SOL    HW117465   4.579   2.279   1.152  0.9463  0.2071  1.2997
 2001SOL    HW217466   4.634   2.389   1.226 -1.0584  0.9922 -0.8643
 2002SOL     OW17467   3.366   2.400   1.185 -0.2479  0.0895  0.3671
 2002SOL    HW117468   3.316   2.427   1.262  0.4809  1.4239  0.3671
 2002SOL    HW217469   3.439   2.367   1.237  1.5445  0.7963 -1.7282
 2003SOL     OW17470   2.048   0.230   8.100 -0.2590  0.2319 -0.6356
 2003SOL    HW117471   2.035   0.249   8.193 -1.9222  1.6272 -1.1565
 2003SOL    HW217472   1.959   0.210   8.072  0.1164  2.0686 -3.1581
 2004SOL     OW17473   1.960   4.064   7.216  0.7537 -0.0229  0.1399
 2004SOL    HW117474   2.032   4.047   7.277 -0.2592  3.3544  2.2602
 2004SOL    HW217475   1.942   3.986   7.164  0.9672 -0.8516  1.3000
 2005SOL     OW17476   3.435   3.676   3.829  0.5313 -0.3453  0.0402
 2005SOL    HW117477   3.475   3.741   3.771  0.4845 -0.3191  0.0372
 2005SOL    HW217478   3.364   3.730   3.865  1.1762 -0.7263  1.8658
 2006SOL     OW17479   4.581   0.154   2.507 -0.5328  0.7698 -0.3830
 2006SOL    HW117480   4.632   0.133   2.429 -0.7562  1.9613 -0.8493
 2006SOL    HW217481   4.644   0.147   2.579 -0.0438 -0.5702 -0.9336
 2007SOL     OW17482   2.576   3.902   2.130  0.1335 -0.3786 -0.2037
 2007SOL    HW117483   2.651   3.849   2.155 -0.1631 -0.5198  0.3889
 2007SOL    HW217484   2.593   3.977   2.187  0.4693  0.2397 -1.1239
 2008SOL     OW17485   2.326   0.258   3.019  0.0293  0.1072  0.3684
 2008SOL    HW117486   2.421   0.247   3.019  0.0966  0.6833  1.7277
 2008SOL    HW217487   2.326   0.338   2.968  0.7804 -0.5786 -0.7039
 2009SOL     OW17488   3.468   3.978   7.563  0.6083  0.0666 -0.3018
 2009SOL    HW117489   3.475   4.053   7.623 -1.4290  0.0013 -0.0060
 2009SOL    HW217490   3.555   3.938   7.565  0.7678  0.2449 -3.8815
 2010SOL     OW17491   1.632   2.262   9.847  0.3012  0.6414  0.1085
 2010SOL    HW117492   1.561   2.248   9.910  2.2578 -2.5663  1.5735
 2010SOL    HW217493   1.670   2.174   9.844  1.3745  1.1784 -1.8308
 2011SOL     OW17494   2.148   4.425   1.007 -0.3914  0.5934 -0.0756
 2011SOL    HW117495   2.055   4.400   1.007 -0.5967  1.3722  0.5635
 2011SOL    HW217496   2.159   4.428   0.912 -2.3601 -0.6813 -0.3448
 2012SOL     OW17497   2.449   1.933   0.998 -0.3344  0.0840  0.0385
 2012SOL    HW117498   2.399   1.855   1.021  0.8813 -0.4405  0.9094
 2012SOL    HW217499   2.523   1.914   1.056 -0.0534 -1.5322 -0.8632
 2013SOL     OW17500   1.045   2.258  11.660  0.9467  0.3414 -0.0371
 2013SOL    HW117501   1.034   2.198  11.734 -1.4449 -1.1499 -1.5896
 2013SOL    HW217502   0.974   2.317  11.685  1.2198  0.2839  0.8916
 2014SOL     OW17503   3.054   2.437  10.396  0.5908 -0.4860 -0.0001
 2014SOL    HW117504   3.039   2.519  10.442  0.2058 -0.3631 -0.3473
 2014SOL    HW217505   3.002   2.381  10.454 -0.9040 -0.5975 -1.4406
 2015SOL     OW17506   2.986   1.530  13.938  0.2949  0.4758  0.1594
 2015SOL    HW117507   3.067   1.490  13.971 -0.5231  0.3856  2.0262
 2015SOL    HW217508   3.001   1.625  13.937 -0.0254  0.5273  0.7835
 2016SOL     OW17509   0.893   1.045   9.627 -0.4811 -0.1776  0.3948
 2016SOL    HW117510   0.872   1.133   9.593 -1.4228 -0.9194 -0.9380
 2016SOL    HW217511   0.825   0.989   9.590 -0.4170  0.1249 -0.1868
 2017SOL     OW17512   0.984   3.006   6.911 -0.1305 -0.5857  0.1092
 2017SOL    HW117513   1.064   3.056   6.928 -0.1051  0.1209 -2.0018
 2017SOL    HW217514   0.940   3.023   6.994  1.0487 -0.2079  0.6572
 2018SOL     OW17515   0.568   2.490   4.904 -0.0495 -0.0618  0.0529
 2018SOL    HW117516   0.528   2.529   4.981  0.2194 -0.2078  0.2674
 2018SOL    HW217517   0.489   2.443   4.878 -1.4501  1.9751  0.6307
 2019SOL     OW17518   3.181   0.730   0.785  0.4556  0.0415 -0.3975
 2019SOL    HW117519   3.101   0.755   0.832  0.8279 -2.5894  1.6004
 2019SOL    HW217520   3.187   0.636   0.800 -1.5920 -0.1494 -0.6707
 2020SOL     OW17521   2.422   2.566   8.965  0.0777  0.3054 -0.0891
 2020SOL    HW117522   2.384   2.654   8.972 -1.0041 -0.1414 -0.2712
 2020SOL    HW217523   2.345   2.510   8.955  0.1606  0.0676  0.6021
 2021SOL     OW17524   2.864   2.553   3.718 -0.1358  0.2440  0.1487
 2021SOL    HW117525   2.907   2.636   3.697  2.1054 -0.9287  0.0889
 2021SOL    HW217526   2.905   2.529   3.801  1.1776 -0.9409 -0.8529
 2022SOL     OW17527   3.750   1.254   8.548 -0.5310  0.2493 -0.2659
 2022SOL    HW117528   3.658   1.280   8.547 -0.7134 -0.3324  2.2347
 2022SOL    HW217529   3.742   1.159   8.557  0.9808 -0.2152 -3.7659
 2023SOL     OW17530   0.442   1.510   4.117  0.2439  0.2942 -0.6952
 2023SOL    HW117531   0.523   1.464   4.096  0.3296  0.7087 -1.2654
 2023SOL    HW217532   0.456   1.599   4.085  0.7452  0.8058  0.9929
 2024SOL     OW17533   3.997   1.710   0.172  0.7414 -0.4391 -0.3673
 2024SOL    HW117534   3.902   1.725   0.173  1.1921  2.0347  3.3884
 2024SOL    HW217535   4.013   1.658   0.251  1.8789  1.4294  0.6318
 2025SOL     OW17536   2.469   3.223  13.333  0.1403  0.1699 -0.2687
 2025SOL    HW117537   2.555   3.243  13.371 -0.9696  0.2949  2.1623
 2025SOL    HW217538   2.486   3.206  13.240 -0.5210  1.4009 -0.6082
 2026SOL     OW17539   3.706   2.277   2.907  0.7317 -0.6908 -0.0239
 2026SOL    HW117540   3.691   2.197   2.957  0.5558 -0.1297  0.8254
 2026SOL    HW217541   3.637   2.274   2.840  3.0428  2.2838 -2.5889
 2027SOL     OW17542   0.752   0.105   2.426  0.3480  0.0843 -0.0604
 2027SOL    HW117543   0.778   0.190   2.461  0.6394 -0.4159  0.9553
 2027SOL    HW217544   0.733   0.126   2.335  1.4785  1.8477  0.1161
 2028SOL     OW17545   0.787   0.521   1.838 -0.1638 -0.6152  0.6157
 2028SOL    HW117546   0.754   0.437   1.869 -2.4290 -0.3358 -1.0446
 2028SOL    HW217547   0.868   0.525   1.889 -0.1302 -3.2261  0.7561
 2029SOL     OW17548   2.911   2.787   9.263 -0.1249 -0.0208  0.2986
 2029SOL    HW117549   2.949   2.839   9.334 -2.3692 -0.1714  1.5850
 2029SOL    HW217550   2.985   2.727   9.251  0.0375  0.2908 -0.2844
 2030SOL     OW17551   1.128   0.873   2.319  0.5372 -0.1568  0.4402
 2030SOL    HW117552   1.057   0.934   2.298  1.2808  0.7726  0.6523
 2030SOL    HW217553   1.180   0.853   2.242 -1.2332  1.7469 -1.2444
 2031SOL     OW17554   0.748   4.244   2.407  0.3596  0.1538 -0.7665
 2031SOL    HW117555   0.807   4.318   2.388  1.9091 -0.7680  0.3847
 2031SOL    HW217556   0.743   4.214   2.317 -3.1133 -2.3589  0.2704
 2032SOL     OW17557   2.139   3.275   5.467 -0.2177  0.2667  0.1875
 2032SOL    HW117558   2.113   3.234   5.550 -2.8103  1.7343  0.1078
 2032SOL    HW217559   2.192   3.346   5.503 -1.2700  0.0786  2.1179
 2033SOL     OW17560   2.624   3.093   2.504  0.1173  0.2066  0.0082
 2033SOL    HW117561   2.711   3.054   2.517 -0.0269  0.9701  3.3537
 2033SOL    HW217562   2.607   3.074   2.412  0.2118 -0.3240  0.0958
 2034SOL     OW17563   0.519   0.697   8.289  0.2364 -0.1298 -0.5017
 2034SOL    HW117564   0.520   0.602   8.274 -3.0753 -0.3144  0.4302
 2034SOL    HW217565   0.579   0.714   8.362 -0.3895 -0.5767  0.1165
 2035SOL     OW17566   2.481   3.310   2.992  0.0089  0.4166 -0.0818
 2035SOL    HW117567   2.478   3.229   2.941 -0.9210  0.9583 -0.8797
 2035SOL    HW217568   2.405   3.358   2.962 -1.0448  1.5484  4.4529
 2036SOL     OW17569   0.303   0.324  10.178  0.1624  0.0831 -1.0115
 2036SOL    HW117570   0.310   0.287  10.090  1.6712  1.1656 -1.3427
 2036SOL    HW217571   0.224   0.278  10.207  1.3266 -1.1499  0.1887
 2037SOL     OW17572   3.031   3.823  17.129  0.1427  0.0288 -0.0891
 2037SOL    HW117573   2.959   3.811  17.066  0.1848 -1.5374  0.1486
 2037SOL    HW217574   3.038   3.915  17.104  2.5169 -0.3347 -0.7357
 2038SOL     OW17575   0.143   4.460   4.431  0.1383  0.1563  0.0722
 2038SOL    HW117576   0.093   4.452   4.350 -1.9336  1.8002  1.2082
 2038SOL    HW217577   0.090   4.405   4.489 -1.5713  0.2523 -1.3920
 2039SOL     OW17578   1.467   2.276   2.749 -0.3522  0.2939  0.3707
 2039SOL    HW117579   1.496   2.221   2.677  2.6711  1.3940  0.7445
 2039SOL    HW217580   1.376   2.269   2.720 -0.4582  2.9828  0.0422
 2040SOL     OW17581   2.462   1.379   6.348  0.2226  0.3946 -0.9118
 2040SOL    HW117582   2.454   1.304   6.406  1.2714  0.8304 -0.2014
 2040SOL    HW217583   2.491   1.336   6.267 -2.0379  0.9223 -2.0097
 2041SOL     OW17584   4.302   3.955  17.048  0.0331  0.4157  0.2962
 2041SOL    HW117585   4.327   3.863  17.057  0.6025  0.5808  0.4425
 2041SOL    HW217586   4.319   3.982  16.958 -0.0534  0.2387  0.2271
 2042SOL     OW17587   2.468   3.719  15.802  0.2233  0.0563  0.2817
 2042SOL    HW117588   2.548   3.733  15.751  0.5575  0.5990  0.9648
 2042SOL    HW217589   2.499   3.768  15.878  1.7832 -0.5299  0.0263
 2043SOL     OW17590   4.584   1.443  14.778 -0.8396  0.4997 -0.4801
 2043SOL    HW117591   4.492   1.416  14.776 -1.7561  3.5263  1.4724
 2043SOL    HW217592   4.589   1.470  14.870  0.4431 -1.4113  0.0058
 2044SOL     OW17593   0.014   3.911  14.149 -0.1076 -0.8426  0.2730
 2044SOL    HW117594   0.021   3.997  14.108 -0.8315 -2.2296 -2.7455
 2044SOL    HW217595   4.670   3.873  14.094 -0.6658  0.0574  0.3375
 2045SOL     OW17596   4.415   0.370   3.931 -0.1378  0.2207 -0.4385
 2045SOL    HW117597   4.344   0.429   3.908 -2.0836 -1.5889  1.0051
 2045SOL    HW217598   4.414   0.324   3.847 -0.9337 -1.8627  0.7014
 2046SOL     OW17599   1.882   3.714   3.777 -0.3028 -0.2275 -0.2930
 2046SOL    HW117600   1.905   3.801   3.743  0.4088  0.4193  1.8266
 2046SOL    HW217601   1.876   3.662   3.697  1.1013  0.2557 -0.7106
 2047SOL     OW17602   4.391   1.100   4.595  0.3616  0.7248  0.1887
 2047SOL    HW117603   4.382   1.167   4.527 -0.2984 -0.1190 -0.5599
 2047SOL    HW217604   4.412   1.026   4.538 -0.2390  1.9959 -1.6653
 2048SOL     OW17605   0.900   2.437  10.870 -0.0266 -0.2161  0.0025
 2048SOL    HW117606   0.918   2.501  10.801  2.6348 -0.5724  0.3519
 2048SOL    HW217607   0.898   2.488  10.951  0.1078 -2.5479  1.4491
 2049SOL     OW17608   0.286   1.843   7.813 -0.1735  0.5025  0.1856
 2049SOL    HW117609   0.277   1.810   7.723 -2.0420 -1.6842  1.1796
 2049SOL    HW217610   0.373   1.810   7.836 -0.0279  0.7806  0.0331
 2050SOL     OW17611   0.803   3.976   8.696 -0.6486 -0.2263  0.0148
 2050SOL    HW117612   0.760   3.893   8.678  0.4317 -0.9975  0.9900
 2050SOL    HW217613   0.758   4.012   8.772 -1.7303 -0.1479 -0.6716
 2051SOL     OW17614   2.980   3.657   7.986  0.4978 -0.5393 -0.4892
 2051SOL    HW117615   2.990   3.664   8.081 -0.0035 -0.3198 -0.4509
 2051SOL    HW217616   3.020   3.573   7.963  1.2285  0.1429 -1.7110
 2052SOL     OW17617   2.149   4.078  13.055 -0.0729 -0.3866 -0.1020
 2052SOL    HW117618   2.200   4.011  13.101 -1.3291  0.4925  2.5847
 2052SOL    HW217619   2.185   4.042  12.974 -2.4840 -0.5031 -1.1100
 2053SOL     OW17620   1.350   3.360   5.541 -0.6475 -0.1399 -0.2523
 2053SOL    HW117621   1.368   3.326   5.629 -0.5231 -0.3338 -0.3512
 2053SOL    HW217622   1.334   3.452   5.562  0.8872  0.1374 -0.2708
 2054SOL     OW17623   0.810   4.623   1.078  0.3622  0.1613 -0.6563
 2054SOL    HW117624   0.809   4.555   1.010  0.7741 -1.6534  1.1639
 2054SOL    HW217625   0.716   4.643   1.085  0.7711  2.0146 -0.4824
 2055SOL     OW17626   2.699   0.988  15.901  0.4081  0.1882 -0.1198
 2055SOL    HW117627   2.609   0.987  15.932  0.3310 -0.8712 -0.3641
 2055SOL    HW217628   2.715   1.082  15.904 -1.1665  0.4572 -0.3124
 2056SOL     OW17629   2.720   4.405   7.263 -0.5714 -0.1636  0.5851
 2056SOL    HW117630   2.653   4.403   7.331 -1.5046 -1.7665 -0.3774
 2056SOL    HW217631   2.688   4.345   7.195 -0.5191 -0.4855  0.8457
 2057SOL     OW17632   1.352   1.866  12.418  0.0286  0.4767 -0.0009
 2057SOL    HW117633   1.425   1.826  12.464 -0.4286  1.0946  1.2759
 2057SOL    HW217634   1.335   1.799  12.352 -1.0658  0.4947  0.2519
 2058SOL     OW17635   4.351   1.405   2.961 -0.4275 -0.5241 -0.4155
 2058SOL    HW117636   4.290   1.331   2.953  1.8967 -2.3614 -1.3809
 2058SOL    HW217637   4.328   1.452   3.040  0.0954 -1.2904  0.1953
 2059SOL     OW17638   3.280   4.543   0.384  0.1541 -0.1077  0.1277
 2059SOL    HW117639   3.245   4.576   0.467  0.4301  0.0700  0.1720
 2059SOL    HW217640   3.203   4.498   0.349  0.8714 -0.8935 -0.4334
 2060SOL     OW17641   2.298   2.018   6.985 -0.2967 -0.3459  0.6706
 2060SOL    HW117642   2.390   1.993   6.971 -1.0210 -2.2804 -0.5365
 2060SOL    HW217643   2.256   1.947   7.033  1.1376  0.1083  2.6345
 2061SOL     OW17644   2.632   4.304   6.047 -0.1297 -0.1427 -0.5582
 2061SOL    HW117645   2.721   4.316   6.013 -0.6393  1.3289 -1.3477
 2061SOL    HW217646   2.638   4.345   6.133  1.0596 -2.2992  0.4049
 2062SOL     OW17647   2.822   2.031   5.414 -0.3655 -0.8862 -0.3972
 2062SOL    HW117648   2.818   1.957   5.353 -3.0505 -0.0160 -1.2573
 2062SOL    HW217649   2.867   2.088   5.352 -1.8028 -0.3540 -0.9426
 2063SOL     OW17650   1.249   0.526   5.027  0.0078  0.0686  0.2616
 2063SOL    HW117651   1.213   0.476   4.953  1.2861 -0.9250  0.3130
 2063SOL    HW217652   1.291   0.459   5.080 -0.3341 -0.3555  0.0003
 2064SOL     OW17653   0.457   1.063   8.288  0.0678  0.1468 -0.0336
 2064SOL    HW117654   0.427   0.993   8.230 -3.2714  0.3882  1.3497
 2064SOL    HW217655   0.466   1.018   8.372 -0.7437 -0.7032 -0.3993
 2065SOL     OW17656   3.932   0.063   3.139 -0.6576 -0.2853  0.5758
 2065SOL    HW117657   3.850   0.102   3.111 -0.3621  0.4266  0.7019
 2065SOL    HW217658   3.998   0.088   3.076 -2.5223 -0.0140 -1.2518
 2066SOL     OW17659   1.314   1.958   4.866 -0.3283  0.2830  0.0720
 2066SOL    HW117660   1.348   2.023   4.927 -2.3036  1.2547  0.1583
 2066SOL    HW217661   1.236   1.932   4.915 -1.3041  0.9630 -1.0983
 2067SOL     OW17662   3.170   1.518   7.071 -0.1657 -0.4373  0.3773
 2067SOL    HW117663   3.099   1.504   7.134  1.1950 -1.5430  1.6711
 2067SOL    HW217664   3.215   1.434   7.080  1.8618  0.6724  0.4991
 2068SOL     OW17665   2.074   0.267  15.846  0.0916  0.5679  0.1893
 2068SOL    HW117666   2.148   0.210  15.826  1.0054  1.9309 -0.2658
 2068SOL    HW217667   2.123   0.346  15.868  0.5653  0.0931  0.8274
 2069SOL     OW17668   4.339   3.132   7.606  0.8938  0.8326  0.0595
 2069SOL    HW117669   4.381   3.170   7.529  0.7482  0.0308 -0.4128
 2069SOL    HW217670   4.365   3.187   7.680  3.9741 -1.5152  0.7529
 2070SOL     OW17671   2.003   4.562   7.090 -0.5527  0.2558  0.4020
 2070SOL    HW117672   2.081   4.585   7.040  1.3960 -3.1145  1.9187
 2070SOL    HW217673   1.994   4.467   7.081  0.5975  0.1293  0.6623
 2071SOL     OW17674   3.250   2.770   4.728  0.4516 -0.1739 -0.5044
 2071SOL    HW117675   3.187   2.699   4.740 -0.2062  0.4254 -0.4583
 2071SOL    HW217676   3.239   2.811   4.814  1.2541 -0.3777 -0.3015
 2072SOL     OW17677   2.045   0.824  17.205  0.2770 -1.0715  0.2434
 2072SOL    HW117678   2.060   0.801  17.296  0.8434  0.3163  0.4987
 2072SOL    HW217679   1.964   0.875  17.211  1.5044  0.8860  0.3294
 2073SOL     OW17680   2.702   2.111   7.776 -0.1599 -0.3933  0.0148
 2073SOL    HW117681   2.780   2.099   7.831 -0.0487 -0.9091 -0.2516
 2073SOL    HW217682   2.727   2.190   7.727  0.7347  0.3585  1.6891
 2074SOL     OW17683   4.627   4.191   8.259  0.1983 -0.9929 -0.3503
 2074SOL    HW117684   4.666   4.279   8.259  0.5195 -1.1350 -0.6436
 2074SOL    HW217685   4.699   4.132   8.281  0.9412 -0.6361 -1.8334
 2075SOL     OW17686   2.238   4.122   4.032  0.5377  0.6303  0.4730
 2075SOL    HW117687   2.313   4.065   4.018 -0.7715 -1.0999  0.4834
 2075SOL    HW217688   2.250   4.189   3.965  0.6144  0.3058  0.1675
 2076SOL     OW17689   1.321   2.947   2.773 -0.2345  0.2547 -0.0772
 2076SOL    HW117690   1.302   2.871   2.827  1.0341  0.1748  0.2534
 2076SOL    HW217691   1.243   2.954   2.718 -1.5489 -0.3545  1.7097
 2077SOL     OW17692   0.366   1.887   3.244 -0.0428  0.0542 -0.3235
 2077SOL    HW117693   0.444   1.923   3.286  1.8844 -0.0681 -3.7819
 2077SOL    HW217694   0.293   1.947   3.260 -0.8488 -0.9595 -0.1617
 2078SOL     OW17695   1.041   3.148   8.523 -0.0495  0.3479  0.1414
 2078SOL    HW117696   0.988   3.101   8.458 -1.9088  2.8552 -0.1789
 2078SOL    HW217697   1.060   3.233   8.482  2.5374 -1.4641 -2.4600
 2079SOL     OW17698   1.013   1.516   6.836  0.3193  0.1990  0.4503
 2079SOL    HW117699   1.051   1.554   6.757 -0.3655 -0.7547 -0.3492
 2079SOL    HW217700   0.950   1.447   6.814  0.8283  0.0638 -0.5763
 2080SOL     OW17701   3.897   0.661   8.178  0.0414 -0.1576  0.0312
 2080SOL    HW117702   3.855   0.621   8.102  0.6139 -3.1877  1.2966
 2080SOL    HW217703   3.979   0.614   8.190  0.9842  1.7662  1.0990
 2081SOL     OW17704   2.655   3.935  11.328  0.1580 -0.2428 -0.1236
 2081SOL    HW117705   2.651   3.844  11.301 -0.7718 -0.6616  1.4416
 2081SOL    HW217706   2.562   3.956  11.322  0.4980  1.6693  0.9838
 2082SOL     OW17707   1.413   2.526   2.303 -0.4350 -0.3766  0.3641
 2082SOL    HW117708   1.455   2.446   2.272 -0.1491 -1.2711  2.9952
 2082SOL    HW217709   1.467   2.542   2.381 -0.3497  1.3504 -0.0575
 2083SOL     OW17710   2.381   2.731   3.586  0.8032 -0.4358 -0.1460
 2083SOL    HW117711   2.378   2.715   3.491 -2.9684  2.7181 -0.5181
 2083SOL    HW217712   2.331   2.652   3.603  0.4495 -0.0860  0.4241
 2084SOL     OW17713   0.072   1.818   3.252 -0.7504  0.1899  0.1710
 2084SOL    HW117714   0.142   1.764   3.290 -1.5777 -0.4293  0.8220
 2084SOL    HW217715   0.061   1.880   3.324  1.4035  2.1091 -1.1462
 2085SOL     OW17716   3.929   1.612   2.907  0.2219 -0.1580 -0.2684
 2085SOL    HW117717   3.916   1.589   2.999 -1.6725 -2.2571 -1.0590
 2085SOL    HW217718   3.912   1.706   2.901  0.7703  0.1527  2.8650
 2086SOL     OW17719   0.448   4.090  10.315  0.3328  0.1267 -0.1253
 2086SOL    HW117720   0.503   4.140  10.255  0.0367  0.2941 -0.2535
 2086SOL    HW217721   0.365   4.133  10.296 -1.3765 -2.5047  1.3018
 2087SOL     OW17722   4.151   0.003  12.041 -0.1408  0.7734 -0.1041
 2087SOL    HW117723   4.226   0.025  12.097 -0.4337  0.7910  0.2819
 2087SOL    HW217724   4.184   0.036  11.958  0.9541 -1.6486 -0.6538
 2088SOL     OW17725   3.975   1.018   5.123 -0.1910  0.2094 -0.2618
 2088SOL    HW117726   4.015   1.086   5.069  0.9396 -0.8633 -0.7532
 2088SOL    HW217727   3.967   0.950   5.056  1.5611  1.0681 -1.3495
 2089SOL     OW17728   1.866   4.409   3.618  0.3780 -0.5723  0.1174
 2089SOL    HW117729   1.894   4.388   3.707  0.9496 -1.1863 -0.2073
 2089SOL    HW217730   1.779   4.449   3.626  1.3599  1.6306 -0.4158
 2090SOL     OW17731   2.959   1.739   2.286 -0.4199  0.4859  0.0718
 2090SOL    HW117732   2.921   1.657   2.256 -0.7401  1.7309 -2.8922
 2090SOL    HW217733   2.956   1.788   2.204  3.0215 -1.6343 -1.3338
 2091SOL     OW17734   0.205   1.504   8.599  0.2902 -0.3740 -0.1594
 2091SOL    HW117735   0.276   1.440   8.601 -0.3268 -1.0593 -0.1751
 2091SOL    HW217736   0.145   1.458   8.658 -0.8386 -0.1673 -1.1322
 2092SOL     OW17737   2.397   0.415  14.621 -0.2261  0.5494 -0.0239
 2092SOL    HW117738   2.337   0.406  14.548 -0.9658 -1.5232  0.8635
 2092SOL    HW217739   2.416   0.509  14.628  0.4330  0.2111  2.7479
 2093SOL     OW17740   1.214   0.102  15.616  0.2462  0.1564 -0.2091
 2093SOL    HW117741   1.211   0.033  15.683 -0.4211 -1.0476 -1.4853
 2093SOL    HW217742   1.176   0.177  15.661  2.8017  0.7426  1.0039
 2094SOL     OW17743   0.871   4.233   6.927  0.2126 -0.4749  0.4663
 2094SOL    HW117744   0.912   4.161   6.976  0.0674 -2.3550 -2.1801
 2094SOL    HW217745   0.924   4.297   6.975  0.5980 -2.1635  2.3046
 2095SOL     OW17746   2.027   2.629   4.299 -0.5744 -0.1719  0.0429
 2095SOL    HW117747   2.044   2.610   4.206  0.3416  0.9409 -0.0235
 2095SOL    HW217748   2.104   2.589   4.340 -0.6249  0.0337  0.3364
 2096SOL     OW17749   0.701   2.922   7.358 -0.0769  0.1566 -0.0735
 2096SOL    HW117750   0.631   2.861   7.333  0.5852 -0.3517 -0.6890
 2096SOL    HW217751   0.662   2.959   7.437  4.5962  1.7990  1.4222
 2097SOL     OW17752   4.300   1.619   3.159 -0.7770  0.0105 -0.3102
 2097SOL    HW117753   4.372   1.675   3.187  1.8751 -3.1679 -0.8396
 2097SOL    HW217754   4.245   1.684   3.114  0.3545 -0.2566 -2.0662
 2098SOL     OW17755   4.051   0.407  12.565 -0.1260 -0.2034  0.4505
 2098SOL    HW117756   4.080   0.319  12.586  0.5156 -0.3195 -0.9135
 2098SOL    HW217757   4.000   0.432  12.643  0.3124 -2.2599  1.3951
 2099SOL     OW17758   3.691   1.417   5.686  0.3771  0.2697 -0.1124
 2099SOL    HW117759   3.741   1.494   5.662 -1.3137  0.3826 -3.2392
 2099SOL    HW217760   3.749   1.343   5.667  1.6265  1.3037 -0.3463
 2100SOL     OW17761   1.057   2.442   8.805  0.4439  0.0841  0.0258
 2100SOL    HW117762   1.011   2.381   8.747 -0.0525  0.0119  0.5052
 2100SOL    HW217763   1.064   2.398   8.889 -0.2125  0.1457  0.1141
 2101SOL     OW17764   3.046   3.911   7.861 -0.0278  0.1314 -0.0670
 2101SOL    HW117765   3.130   3.925   7.905 -1.8183  0.5331  3.2228
 2101SOL    HW217766   3.034   3.816   7.873 -0.5008  0.2655  0.5256
 2102SOL     OW17767   2.276   2.200   4.964 -0.4852 -0.0758 -0.1595
 2102SOL    HW117768   2.230   2.120   4.938  1.2014 -0.1635 -2.9719
 2102SOL    HW217769   2.343   2.173   5.027  0.6454  2.7327 -0.1879
 2103SOL     OW17770   3.903   0.014   8.272  0.5361  0.0728 -0.0284
 2103SOL    HW117771   3.880   4.677   8.342 -0.0699  2.2797  1.7014
 2103SOL    HW217772   3.923   0.087   8.331  0.4455  0.0047  0.0862
 2104SOL     OW17773   1.240   3.451   6.965 -0.0488  0.0991 -0.0587
 2104SOL    HW117774   1.333   3.460   6.984 -0.3765  1.4554  0.9247
 2104SOL    HW217775   1.244   3.516   6.895  0.0051 -2.4661 -2.4766
 2105SOL     OW17776   2.933   0.543  16.013 -0.3970  0.2037 -0.1671
 2105SOL    HW117777   2.906   0.601  15.943 -0.4408 -2.6703 -2.5586
 2105SOL    HW217778   2.905   0.461  15.972 -1.1130  0.1270  0.4583
 2106SOL     OW17779   1.127   2.981   7.492 -0.2039 -0.5940  0.3335
 2106SOL    HW117780   1.199   3.026   7.538 -0.5216 -0.2033  0.4447
 2106SOL    HW217781   1.065   3.048   7.466 -0.6598 -0.6089  1.3860
 2107SOL     OW17782   0.929   3.960  13.506 -0.0242  0.8610 -0.3632
 2107SOL    HW117783   0.835   3.964  13.491 -0.2131 -1.6251  0.1530
 2107SOL    HW217784   0.968   3.941  13.421  1.9731 -1.3826  1.0512
 2108SOL     OW17785   0.031   4.391  13.517  0.3706  0.4745 -0.3031
 2108SOL    HW117786   0.059   4.408  13.607 -2.2307 -0.1930  0.6414
 2108SOL    HW217787   4.665   4.363  13.532  0.3065  0.2316 -1.1474
 2109SOL     OW17788   2.197   2.668   8.513 -0.3198 -0.1023  0.0805
 2109SOL    HW117789   2.159   2.755   8.526 -0.7567 -0.3256  0.2910
 2109SOL    HW217790   2.261   2.689   8.445 -1.7140  2.8459 -0.3342
 2110SOL     OW17791   0.656   3.936   9.002 -0.4778 -0.0477  0.3777
 2110SOL    HW117792   0.659   3.892   9.086 -1.9660 -1.6224 -0.4088
 2110SOL    HW217793   0.575   3.911   8.958 -0.3905  1.1612 -0.4979
 2111SOL     OW17794   2.222   0.664  12.790 -0.6809 -0.4364 -0.5656
 2111SOL    HW117795   2.280   0.681  12.716 -0.1658 -1.4675 -0.3908
 2111SOL    HW217796   2.263   0.697  12.870 -0.0025 -1.6014 -0.4252
 2112SOL     OW17797   3.661   0.351   7.338 -0.1312  0.3399  0.0669
 2112SOL    HW117798   3.593   0.410   7.307  1.6643  2.5534  0.3305
 2112SOL    HW217799   3.610   0.298   7.399 -0.7055  0.2030 -0.5379
 2113SOL     OW17800   2.215   2.533  10.362 -0.4859 -0.0397  0.4978
 2113SOL    HW117801   2.213   2.585  10.281 -0.9020  0.1874  0.6543
 2113SOL    HW217802   2.189   2.447  10.330 -1.6571  0.0479  1.2254
 2114SOL     OW17803   0.567   3.318   5.170 -0.5850 -0.2135 -0.1387
 2114SOL    HW117804   0.632   3.359   5.227 -0.2577 -0.9002 -0.0216
 2114SOL    HW217805   0.621   3.281   5.100 -1.1909 -1.4416  0.0534
 2115SOL     OW17806   2.371   3.109   9.595  0.3022 -0.3632  0.3240
 2115SOL    HW117807   2.421   3.084   9.518 -0.9120 -0.4735 -0.4221
 2115SOL    HW217808   2.422   3.189   9.610  1.4359 -0.6265 -2.1909
 2116SOL     OW17809   3.227   0.042   5.403 -0.2519  0.3797  0.0165
 2116SOL    HW117810   3.315   0.043   5.367 -0.5227  3.1417 -0.5354
 2116SOL    HW217811   3.239   4.702   5.474 -0.4922 -0.2963 -0.5455
 2117SOL     OW17812   3.523   1.096   6.679 -0.7769 -0.0430 -0.8335
 2117SOL    HW117813   3.558   1.099   6.589  1.3510  0.5297  0.0103
 2117SOL    HW217814   3.552   1.185   6.701  0.0268 -0.3956 -0.4552
 2118SOL     OW17815   2.166   4.493   0.727 -0.1107 -0.2281 -0.2285
 2118SOL    HW117816   2.138   4.519   0.639  0.3959  2.2709  0.3478
 2118SOL    HW217817   2.185   4.580   0.762 -2.4546  0.1030  0.2393
 2119SOL     OW17818   3.055   3.153  16.038  0.6171  0.5027  0.1956
 2119SOL    HW117819   2.990   3.122  15.975  3.0432 -2.1234 -1.0217
 2119SOL    HW217820   3.096   3.221  15.984  0.8109 -1.4320 -2.1089
 2120SOL     OW17821   3.663   3.704  13.045  0.1612  0.1065  0.1986
 2120SOL    HW117822   3.642   3.770  13.111 -2.1743 -0.6729  0.2419
 2120SOL    HW217823   3.583   3.689  12.994 -1.0580 -1.4291  2.5765
 2121SOL     OW17824   2.242   4.302  13.242 -0.4297  0.1121  0.0730
 2121SOL    HW117825   2.153   4.336  13.250 -0.0692  0.8465  1.0007
 2121SOL    HW217826   2.220   4.230  13.301  0.1856  0.7596  1.1022
 2122SOL     OW17827   3.186   1.577   3.443  0.2440 -0.3672 -0.0303
 2122SOL    HW117828   3.255   1.541   3.387  0.0013 -1.0824  0.1340
 2122SOL    HW217829   3.109   1.526   3.415 -0.3399  0.7597 -0.4906
 2123SOL     OW17830   0.214   4.321  11.474 -0.1567 -0.4777  0.3732
 2123SOL    HW117831   0.214   4.381  11.549  0.6355  0.1812 -0.1469
 2123SOL    HW217832   0.176   4.239  11.504  1.2972 -1.3392 -0.1561
 2124SOL     OW17833   0.769   2.699   3.114  0.4078 -0.0144  0.0370
 2124SOL    HW117834   0.746   2.792   3.115 -1.6687 -0.5343 -1.1321
 2124SOL    HW217835   0.727   2.668   3.194 -1.3375 -1.1285 -1.3452
 2125SOL     OW17836   1.205   3.203  13.505 -0.0405  0.6444 -0.1004
 2125SOL    HW117837   1.121   3.244  13.485 -0.2843  1.1804  1.9624
 2125SOL    HW217838   1.204   3.122  13.454  3.2654 -0.8356  2.1874
 2126SOL     OW17839   0.341   1.233  17.347  0.1081  0.1722 -0.3681
 2126SOL    HW117840   0.368   1.141  17.353  2.0554  0.7950  0.2974
 2126SOL    HW217841   0.422   1.281  17.361  1.2410 -1.9263  0.3543
 2127SOL     OW17842   2.256   2.761  16.717  0.3818  0.2463  0.6233
 2127SOL    HW117843   2.222   2.762  16.627 -0.5162 -1.5434  0.9297
 2127SOL    HW217844   2.334   2.711  16.693  1.1390  0.8883  1.7538
 2128SOL     OW17845   3.925   0.245  13.721  0.5309  0.0220 -0.3721
 2128SOL    HW117846   3.853   0.298  13.757  0.4623  0.4777 -1.1777
 2128SOL    HW217847   3.906   0.158  13.755  1.5243  0.0882  0.3327
 2129SOL     OW17848   2.215   0.969   1.946 -0.2799  0.0019 -0.4199
 2129SOL    HW117849   2.267   0.902   1.903  0.9187  1.8826 -1.9325
 2129SOL    HW217850   2.280   1.017   1.997  0.9613 -2.2323  0.0671
 2130SOL     OW17851   3.717   0.670   3.087 -0.3395  0.2701  0.0061
 2130SOL    HW117852   3.652   0.610   3.052  0.7952 -1.4572  0.8452
 2130SOL    HW217853   3.665   0.750   3.089 -2.1106 -0.9038  0.3340
 2131SOL     OW17854   0.839   0.548   6.637  0.0511 -0.4087 -0.3680
 2131SOL    HW117855   0.851   0.556   6.731 -0.8091 -1.6313 -0.1609
 2131SOL    HW217856   0.744   0.548   6.626  0.1446 -0.4207 -1.2421
 2132SOL     OW17857   1.340   3.822   2.760 -0.6639  0.6853 -0.1737
 2132SOL    HW117858   1.336   3.874   2.841  0.5207  0.8759 -0.2295
 2132SOL    HW217859   1.268   3.764   2.786 -0.0953  0.2429  0.4331
 2133SOL     OW17860   0.463   0.484  15.637  0.7734 -0.4154  0.5788
 2133SOL    HW117861   0.530   0.497  15.569 -1.7930  0.5436 -1.7325
 2133SOL    HW217862   0.453   0.389  15.642 -0.3958 -0.4332 -2.1164
 2134SOL     OW17863   2.779   2.728   5.573 -0.0980  0.1778  0.5179
 2134SOL    HW117864   2.723   2.659   5.540 -0.2978  0.9399 -0.7497
 2134SOL    HW217865   2.866   2.713   5.537  0.1685  0.5002  1.0132
 2135SOL     OW17866   2.325   3.738   2.942  0.2655 -0.1621  0.3206
 2135SOL    HW117867   2.330   3.652   2.901 -1.2867 -0.2343  0.2921
 2135SOL    HW217868   2.415   3.770   2.934  0.2471 -0.3900 -0.7681
 2136SOL     OW17869   1.040   0.509   3.159  0.3070 -0.3926  0.7043
 2136SOL    HW117870   1.008   0.575   3.097  1.1171 -1.3800 -0.7686
 2136SOL    HW217871   1.135   0.507   3.144  0.0232 -1.0108 -1.0363
 2137SOL     OW17872   1.741   2.543   6.766  0.0145  0.2019  0.0281
 2137SOL    HW117873   1.785   2.464   6.795  0.2261  0.0882 -0.5895
 2137SOL    HW217874   1.658   2.543   6.813  0.3863  0.1719  0.6842
 2138SOL     OW17875   1.902   4.581   5.488 -0.5532 -0.2121  0.5015
 2138SOL    HW117876   1.907   4.531   5.407 -2.2618  3.0097 -1.5932
 2138SOL    HW217877   1.941   4.520   5.551 -2.1468 -0.7180  0.9905
 2139SOL     OW17878   3.071   0.772  13.943 -0.7185 -0.1658  0.3444
 2139SOL    HW117879   3.107   0.851  13.984 -1.6651  0.7048 -0.4885
 2139SOL    HW217880   3.152   0.727  13.924 -0.8999 -0.9773  1.5042
 2140SOL     OW17881   2.687   3.206   8.862  0.1680  0.8495  0.3597
 2140SOL    HW117882   2.740   3.275   8.823  1.4664  0.9015  2.2028
 2140SOL    HW217883   2.726   3.124   8.832 -3.5508 -1.1760  1.0833
 2141SOL     OW17884   4.473   3.246  13.002 -1.0257 -0.2526 -0.2723
 2141SOL    HW117885   4.550   3.266  12.949  0.2720  2.8080  2.7360
 2141SOL    HW217886   4.476   3.318  13.066  0.3457  0.8216 -1.5593
 2142SOL     OW17887   4.047   2.811   5.635  0.2879 -0.6721 -0.6130
 2142SOL    HW117888   3.998   2.739   5.676  0.6840  0.7107  2.3080
 2142SOL    HW217889   3.974   2.871   5.619  0.5461  0.0344  0.8532
 2143SOL     OW17890   1.300   0.500  10.357  0.2756  0.3165  0.0932
 2143SOL    HW117891   1.231   0.549  10.312  2.8336  1.1075 -2.9425
 2143SOL    HW217892   1.251   0.466  10.432  3.4453 -2.7173  0.8010
 2144SOL     OW17893   2.638   2.395   8.801  0.5483 -0.0688 -0.0226
 2144SOL    HW117894   2.592   2.376   8.883  0.0943 -0.9002 -0.4758
 2144SOL    HW217895   2.725   2.418   8.833  1.2485 -2.6351 -0.0461
 2145SOL     OW17896   0.846   1.295   5.537 -0.4723  0.4641  0.4899
 2145SOL    HW117897   0.791   1.326   5.609 -1.1216  1.8255 -0.5957
 2145SOL    HW217898   0.903   1.231   5.579  1.1735  0.1702 -2.2143
 2146SOL     OW17899   2.500   4.318   3.672  0.1447 -0.1394  0.3951
 2146SOL    HW117900   2.556   4.356   3.604  0.1217 -1.9176 -0.6171
 2146SOL    HW217901   2.563   4.298   3.741  1.9295  0.2374 -1.1454
 2147SOL     OW17902   0.772   1.265   7.845  1.0499  0.2808 -0.8095
 2147SOL    HW117903   0.745   1.288   7.934 -0.5585 -0.1243 -1.1911
 2147SOL    HW217904   0.700   1.210   7.815  0.2299  0.2385  1.2374
 2148SOL     OW17905   1.460   4.158   8.863 -0.3946  0.7190  0.1992
 2148SOL    HW117906   1.490   4.169   8.772 -1.0436  3.1218  0.2727
 2148SOL    HW217907   1.471   4.248   8.892  2.3880  0.4698 -0.1164
 2149SOL     OW17908   1.746   3.250   0.144  0.1960 -0.2127  0.1371
 2149SOL    HW117909   1.726   3.181   0.082 -1.7131  0.1102  0.3955
 2149SOL    HW217910   1.754   3.322   0.081  1.9233 -1.4101 -0.9860
 2150SOL     OW17911   1.415   3.258  15.204  0.0359 -0.0017  0.0471
 2150SOL    HW117912   1.431   3.169  15.171  0.9348 -0.2501  1.1373
 2150SOL    HW217913   1.405   3.222  15.292 -0.4073  0.1725  0.0644
 2151SOL     OW17914   4.221   4.578   0.013  0.0224 -1.3243  0.0875
 2151SOL    HW117915   4.140   4.529   0.024 -0.8011 -0.2461 -1.2060
 2151SOL    HW217916   4.217   4.629   0.094 -0.0697  0.7554 -1.2286
 2152SOL     OW17917   4.281   4.266   3.291 -0.2592  0.1122  0.1184
 2152SOL    HW117918   4.353   4.327   3.273  0.2455 -0.6031 -0.2605
 2152SOL    HW217919   4.226   4.319   3.349 -3.3910 -1.9633 -0.9837
 2153SOL     OW17920   2.628   3.684   8.185  0.1197  0.1183 -0.3832
 2153SOL    HW117921   2.549   3.683   8.238  0.4543  0.4405  0.1224
 2153SOL    HW217922   2.653   3.591   8.187  1.2749  0.4522  0.4329
 2154SOL     OW17923   2.728   0.307   4.389 -0.2117 -0.6794 -0.0035
 2154SOL    HW117924   2.759   0.255   4.463  0.0650 -0.1479  0.2493
 2154SOL    HW217925   2.813   0.314   4.345 -0.3951  1.7838  0.0370
 2155SOL     OW17926   4.305   2.997   1.603 -0.0170  0.1272 -0.3273
 2155SOL    HW117927   4.379   3.055   1.589  0.6043 -0.0383  2.2355
 2155SOL    HW217928   4.274   3.025   1.689  1.6292 -1.2454  0.7266
 2156SOL     OW17929   1.610   3.164   2.320 -0.5709 -0.3412  0.6229
 2156SOL    HW117930   1.662   3.085   2.306  0.9135  0.3147  2.5240
 2156SOL    HW217931   1.519   3.139   2.337 -1.4282  1.6946 -0.9156
 2157SOL     OW17932   3.397   3.780  17.122 -0.1049  0.3516 -0.1299
 2157SOL    HW117933   3.436   3.854  17.075  1.9223 -1.0415 -0.6353
 2157SOL    HW217934   3.369   3.829  17.199 -0.6315 -2.7131  1.5852
 2158SOL     OW17935   0.037   2.333   7.679  0.7533 -0.6729  1.0320
 2158SOL    HW117936   4.692   2.381   7.725 -0.3881 -0.4196 -0.9419
 2158SOL    HW217937   4.706   2.266   7.639  2.5677 -0.8189 -1.1966
 2159SOL     OW17938   0.220   0.629   5.687  0.4210 -0.1275 -0.7953
 2159SOL    HW117939   0.214   0.548   5.738  0.2049  0.1878 -0.3160
 2159SOL    HW217940   0.185   0.691   5.752  1.7141  0.9342 -1.1050
 2160SOL     OW17941   4.206   2.005   6.012 -0.3503 -0.2669  0.3801
 2160SOL    HW117942   4.128   2.028   5.961 -0.2821 -1.3597 -0.2111
 2160SOL    HW217943   4.188   2.017   6.106 -0.3410  2.9694 -0.0312
 2161SOL     OW17944   1.039   0.285  14.268 -0.5966 -1.1507 -0.2243
 2161SOL    HW117945   1.102   0.285  14.340 -1.6920 -0.1685  0.7274
 2161SOL    HW217946   1.092   0.254  14.195  0.1245 -0.1688 -0.1028
 2162SOL     OW17947   4.480   3.375   4.383  0.3685 -0.1479  0.1222
 2162SOL    HW117948   4.485   3.280   4.391  0.7116  0.0319  1.8461
 2162SOL    HW217949   4.526   3.391   4.301  1.1002  0.5550  0.6718
 2163SOL     OW17950   2.974   1.906  13.832 -0.5432  0.3545  0.0549
 2163SOL    HW117951   3.019   1.834  13.877  1.3010  1.2248 -0.4038
 2163SOL    HW217952   3.051   1.959  13.810  1.5669 -1.9322  1.8275
 2164SOL     OW17953   3.841   2.826   2.079  0.2745  0.0510 -0.2426
 2164SOL    HW117954   3.877   2.875   2.005  0.0326 -3.3310 -2.5869
 2164SOL    HW217955   3.766   2.779   2.044 -0.2755  0.5800  0.2187
 2165SOL     OW17956   1.506   1.705  14.106 -0.0586  0.2221 -0.7023
 2165SOL    HW117957   1.525   1.651  14.028  0.2904  1.0517 -1.1899
 2165SOL    HW217958   1.537   1.645  14.174 -0.2552 -0.4341 -1.1811
 2166SOL     OW17959   1.450   3.699  16.827  0.4683 -0.2334 -0.0933
 2166SOL    HW117960   1.505   3.621  16.813  0.6566  0.3010 -2.3181
 2166SOL    HW217961   1.504   3.763  16.781  2.3838 -0.9234  1.1714
 2167SOL     OW17962   1.165   3.331   6.580  0.2437  0.0299 -0.3989
 2167SOL    HW117963   1.175   3.243   6.544  2.4933 -0.3704  1.2191
 2167SOL    HW217964   1.241   3.382   6.552  0.7949 -0.8464 -0.4904
 2168SOL     OW17965   1.584   3.420   5.992 -0.2613 -1.2422 -0.2010
 2168SOL    HW117966   1.639   3.497   5.978 -1.5564 -0.0724  1.1375
 2168SOL    HW217967   1.606   3.406   6.084  0.8268 -2.3174 -0.6253
 2169SOL     OW17968   1.077   1.718   6.646 -0.7352 -0.1749 -0.0976
 2169SOL    HW117969   0.994   1.732   6.600 -2.1622  0.6672  2.7431
 2169SOL    HW217970   1.133   1.708   6.569 -0.8922  0.0220 -0.2372
 2170SOL     OW17971   3.490   0.452   6.014 -0.5323  0.0474 -0.1566
 2170SOL    HW117972   3.552   0.489   5.951 -1.1770 -1.2370 -1.5302
 2170SOL    HW217973   3.522   0.366   6.039  1.7290  0.2457 -2.4129
 2171SOL     OW17974   3.613   2.357   2.019  0.2103 -0.0515 -0.1603
 2171SOL    HW117975   3.698   2.329   1.985  0.0899  1.2600 -1.5453
 2171SOL    HW217976   3.607   2.444   1.979 -0.7394  0.3737  0.9236
 2172SOL     OW17977   0.873   1.120   2.313  0.1232 -0.2964 -0.0947
 2172SOL    HW117978   0.933   1.185   2.276  0.2881 -1.0194 -1.1107
 2172SOL    HW217979   0.876   1.053   2.245 -2.4232 -2.3491  1.8221
 2173SOL     OW17980   4.419   3.843   0.280 -0.3783  0.1631 -0.2756
 2173SOL    HW117981   4.506   3.805   0.265 -0.8497 -0.5654 -1.1827
 2173SOL    HW217982   4.433   3.925   0.231  0.1689 -1.1180 -2.2791
 2174SOL     OW17983   0.217   4.206   1.914  0.8159 -0.1616 -0.0515
 2174SOL    HW117984   0.222   4.114   1.887 -2.6271 -1.0644  2.2868
 2174SOL    HW217985   0.299   4.238   1.877  1.0927 -1.2804 -0.4190
 2175SOL     OW17986   3.690   1.776  17.322 -0.2223  0.1761  0.0409
 2175SOL    HW117987   3.599   1.802  17.338 -0.7200 -1.2750 -0.4531
 2175SOL    HW217988   3.712   1.779  17.229 -0.5855 -1.0774 -0.0794
 2176SOL     OW17989   4.254   4.014  10.276  0.5526  0.3074  0.0334
 2176SOL    HW117990   4.336   4.007  10.326  0.5342 -2.3206 -0.3156
 2176SOL    HW217991   4.221   3.924  10.266 -1.6810  0.7304  3.5296
 2177SOL     OW17992   3.529   4.631   9.268 -0.1904  0.4536  0.5157
 2177SOL    HW117993   3.460   4.592   9.214 -1.3539 -0.1931  2.4905
 2177SOL    HW217994   3.524   0.001   9.247  0.9721  0.2351 -0.7525
 2178SOL     OW17995   1.267   2.326   5.926 -0.2632 -0.5402  0.3731
 2178SOL    HW117996   1.318   2.265   5.873 -0.5994 -0.1881 -0.3504
 2178SOL    HW217997   1.334   2.383   5.964 -0.8637  1.2623 -1.3169
 2179SOL     OW17998   2.567   4.161   0.220  0.4161  0.0379 -0.0645
 2179SOL    HW117999   2.630   4.203   0.161  2.6823  0.6643  2.8247
 2179SOL    HW218000   2.487   4.213   0.211 -0.7690 -1.8224 -0.2336
 2180SOL     OW18001   2.761   0.743  14.170 -0.3040 -1.2651 -0.1042
 2180SOL    HW118002   2.691   0.724  14.232 -1.1519 -2.3294 -1.4003
 2180SOL    HW218003   2.812   0.807  14.221  2.8011 -0.4927 -4.1797
 2181SOL     OW18004   1.378   0.579   6.037  0.2485 -0.2559 -0.4143
 2181SOL    HW118005   1.345   0.563   5.949  0.7718 -1.3029 -0.4242
 2181SOL    HW218006   1.336   0.505   6.080 -0.5315 -0.4920 -1.6078
 2182SOL     OW18007   0.338   3.581   8.178 -0.7988  0.3433  0.1050
 2182SOL    HW118008   0.337   3.544   8.090 -0.4531 -0.4288  0.4323
 2182SOL    HW218009   0.330   3.506   8.237 -1.4108  0.8119  0.6278
 2183SOL     OW18010   1.734   0.231   7.662 -0.4067  0.0616 -0.4807
 2183SOL    HW118011   1.760   0.314   7.621  0.1999  0.2545  0.2916
 2183SOL    HW218012   1.661   0.256   7.719  0.4779  1.3161  0.1022
 2184SOL     OW18013   3.525   1.490   9.883  0.0562  0.2663  0.2216
 2184SOL    HW118014   3.505   1.404   9.921  1.7601  0.0234  0.6093
 2184SOL    HW218015   3.477   1.488   9.800 -0.4776  0.1596  0.5358
 2185SOL     OW18016   2.933   3.344  10.007  0.5923  0.1544  0.3292
 2185SOL    HW118017   2.948   3.397   9.929  1.3922 -0.0425  0.3486
 2185SOL    HW218018   3.015   3.359  10.055  1.0034  2.6487 -1.1590
 2186SOL     OW18019   3.474   0.718   7.245 -0.2265 -0.1251  0.0317
 2186SOL    HW118020   3.429   0.712   7.329 -1.1215 -0.5464 -0.4837
 2186SOL    HW218021   3.449   0.633   7.209  0.5932 -0.9505  1.4203
 2187SOL     OW18022   2.343   4.132  16.608 -0.3437  0.0400  0.4010
 2187SOL    HW118023   2.406   4.169  16.670 -0.2372  0.7230 -0.1192
 2187SOL    HW218024   2.281   4.084  16.663  1.1757 -0.7309  1.4470
 2188SOL     OW18025   0.151   4.313   8.380 -0.2523  0.1756 -0.0366
 2188SOL    HW118026   0.172   4.385   8.439  2.1526 -0.4647 -0.1314
 2188SOL    HW218027   0.132   4.240   8.438 -0.3198  1.0368  1.0338
 2189SOL     OW18028   2.072   0.454   5.574  0.1952  0.4007  0.1113
 2189SOL    HW118029   2.123   0.458   5.493 -1.6877  1.8470 -1.0017
 2189SOL    HW218030   2.121   0.388   5.623 -2.1184 -1.2317  0.2345
 2190SOL     OW18031   1.646   4.608   7.720  0.3253 -0.0219 -0.1409
 2190SOL    HW118032   1.632   4.585   7.628  1.0992 -0.3664 -0.1756
 2190SOL    HW218033   1.579   4.676   7.727 -1.5522 -1.8864 -0.0117
 2191SOL     OW18034   2.388   1.588   3.813 -0.2893  0.1634 -0.0414
 2191SOL    HW118035   2.376   1.556   3.903 -2.4491 -2.4264 -1.2717
 2191SOL    HW218036   2.381   1.681   3.836 -0.4687 -0.2526  1.5880
 2192SOL     OW18037   2.197   0.115   5.928 -0.1162 -0.4198  0.1250
 2192SOL    HW118038   2.159   0.180   5.988  2.9362 -0.4365  2.0725
 2192SOL    HW218039   2.283   0.107   5.969 -1.2099 -1.0370  2.2552
 2193SOL     OW18040   1.758   1.348   8.615  0.3658  0.3531  0.3726
 2193SOL    HW118041   1.835   1.371   8.668  0.2566  0.8413  0.3185
 2193SOL    HW218042   1.696   1.323   8.683  2.1266 -1.1778  1.3941
 2194SOL     OW18043   4.554   0.970   7.546  0.1737 -0.1751  0.0865
 2194SOL    HW118044   4.482   1.029   7.526  1.0535  1.0603  0.5104
 2194SOL    HW218045   4.600   0.967   7.461  1.0935 -0.7248  0.5994
 2195SOL     OW18046   0.464   2.475  15.476  0.1224  0.3706 -0.2059
 2195SOL    HW118047   0.496   2.475  15.566 -1.1750 -1.2215  0.2482
 2195SOL    HW218048   0.479   2.390  15.434  3.3283  1.1391 -0.6299
 2196SOL     OW18049   2.565   1.929   7.033  0.2634  0.1765 -0.0277
 2196SOL    HW118050   2.525   1.883   7.107 -2.5825 -1.1511 -2.4290
 2196SOL    HW218051   2.659   1.916   7.046  0.3662  0.2260 -0.7152
 2197SOL     OW18052   2.947   2.509  10.143 -0.0677 -0.5364 -0.0139
 2197SOL    HW118053   2.972   2.440  10.205 -0.8104  0.5529  1.5069
 2197SOL    HW218054   2.896   2.567  10.200 -0.9910 -2.0452  0.6960
 2198SOL     OW18055   3.846   2.995   1.844 -0.6399  0.0660  0.0310
 2198SOL    HW118056   3.841   3.087   1.871  1.1866  0.5038 -1.1240
 2198SOL    HW218057   3.925   3.005   1.792 -0.8028  1.2145 -0.0098
 2199SOL     OW18058   1.412   3.162   9.066 -0.0738  0.1527 -0.6150
 2199SOL    HW118059   1.416   3.066   9.069  0.2414  0.1314 -1.4761
 2199SOL    HW218060   1.319   3.173   9.047 -0.3742 -0.1236  0.6872
 2200SOL     OW18061   2.266   1.603   5.159  0.3403  0.2012 -0.1165
 2200SOL    HW118062   2.275   1.509   5.150  2.5405  0.0853  3.0845
 2200SOL    HW218063   2.173   1.616   5.176  0.6734 -0.7337  2.5252
 2201SOL     OW18064   1.176   0.672   8.943 -0.2029 -0.1101  0.5858
 2201SOL    HW118065   1.260   0.636   8.974 -1.9062 -2.1551  2.8308
 2201SOL    HW218066   1.210   0.703   8.859 -4.3175 -1.5692 -1.5726
 2202SOL     OW18067   3.104   2.436  11.852  0.2891 -0.2699  0.0346
 2202SOL    HW118068   3.166   2.401  11.916  0.2162 -0.6011 -0.0732
 2202SOL    HW218069   3.149   2.516  11.827 -0.5736  0.4192  0.7045
 2203SOL     OW18070   0.151   0.217   4.152 -0.1590  0.3233  0.0724
 2203SOL    HW118071   0.074   0.165   4.129  0.2577 -0.8532  1.3621
 2203SOL    HW218072   0.122   0.308   4.156 -2.0306 -0.1882 -2.0577
 2204SOL     OW18073   4.108   1.641   9.136 -0.2979 -0.1532  0.1713
 2204SOL    HW118074   4.087   1.563   9.085 -0.4304 -0.4590  0.6921
 2204SOL    HW218075   4.158   1.611   9.212  1.2980 -3.9826 -2.3822
 2205SOL     OW18076   4.024   0.902   3.846  0.1385  0.1130 -0.3871
 2205SOL    HW118077   4.070   0.835   3.898 -0.8465  0.7414  1.2913
 2205SOL    HW218078   4.018   0.862   3.759 -0.4883 -2.1352  0.6888
 2206SOL     OW18079   2.448   3.587   4.764 -0.2725  0.5098 -0.3533
 2206SOL    HW118080   2.372   3.624   4.718  0.3826  0.4774 -1.4577
 2206SOL    HW218081   2.514   3.574   4.696  0.6379 -0.6997  0.7672
 2207SOL     OW18082   3.161   4.219   5.447  0.1144 -0.3702  0.0877
 2207SOL    HW118083   3.246   4.229   5.490  1.3088  0.8645 -2.5813
 2207SOL    HW218084   3.123   4.304   5.426 -0.1931 -0.8160 -1.1571
 2208SOL     OW18085   1.987   2.130   5.314  0.1790  0.0972  0.3179
 2208SOL    HW118086   2.017   2.163   5.399 -0.1502 -0.7152  0.7442
 2208SOL    HW218087   1.898   2.163   5.318  0.1444  0.1802 -1.0924
 2209SOL     OW18088   0.265   3.983  10.494  0.2383  0.1766 -0.1430
 2209SOL    HW118089   0.345   4.005  10.445 -1.4185 -0.9656 -3.3556
 2209SOL    HW218090   0.271   4.048  10.564  1.4335  1.2515 -1.2192
 2210SOL     OW18091   4.089   1.826   3.568 -0.6371  0.1201  0.3769
 2210SOL    HW118092   4.177   1.801   3.596 -0.6890  2.6509  2.7266
 2210SOL    HW218093   4.057   1.883   3.637 -1.6242  0.6323 -0.4988
 2211SOL     OW18094   2.184   0.428  15.567  0.0794  0.3649  0.2509
 2211SOL    HW118095   2.125   0.358  15.538 -0.7790  1.3356 -0.3809
 2211SOL    HW218096   2.209   0.407  15.657 -1.9830  0.7639  0.9232
 2212SOL     OW18097   2.326   4.661   7.294 -0.0336 -0.2146 -0.0484
 2212SOL    HW118098   2.295   0.026   7.276  2.0720  0.1637 -1.7828
 2212SOL    HW218099   2.411   4.664   7.338 -1.0932 -0.8641  2.0681
 2213SOL     OW18100   4.029   2.918   1.628  0.1117 -0.3408 -0.7162
 2213SOL    HW118101   4.116   2.911   1.590  2.1660  1.0034  3.8191
 2213SOL    HW218102   4.002   3.003   1.594  2.3911 -0.2817 -2.3930
 2214SOL     OW18103   1.475   0.653   8.511  0.0035  0.8062 -0.1811
 2214SOL    HW118104   1.523   0.585   8.558 -0.8303 -1.0699 -2.0702
 2214SOL    HW218105   1.544   0.720   8.516 -0.4814  1.4216 -2.0609
 2215SOL     OW18106   3.193   0.743  11.393  0.1583 -0.0084 -0.1172
 2215SOL    HW118107   3.190   0.800  11.470  3.6720 -0.9650  0.7223
 2215SOL    HW218108   3.115   0.781  11.352  1.1464  1.1823 -0.9017
 2216SOL     OW18109   3.968   0.260   4.167 -0.3771 -0.2449 -0.1449
 2216SOL    HW118110   3.925   0.218   4.242  3.1744 -0.1575  1.9478
 2216SOL    HW218111   4.038   0.202   4.138 -0.0771 -0.3788  0.8322
 2217SOL     OW18112   2.919   2.697  14.619 -0.1526  0.1077  0.4089
 2217SOL    HW118113   2.858   2.650  14.676  0.3182  0.1879  0.9793
 2217SOL    HW218114   2.935   2.617  14.570 -0.4916 -0.8990  1.9604
 2218SOL     OW18115   2.502   3.086  13.026 -0.4342 -0.1791 -0.3490
 2218SOL    HW118116   2.408   3.106  13.028  0.0149  1.5066  3.7979
 2218SOL    HW218117   2.535   3.160  12.975 -0.9129 -0.4263 -1.0104
 2219SOL     OW18118   1.124   0.047  15.196 -0.2212  0.3166  0.1125
 2219SOL    HW118119   1.202   0.054  15.251  0.2786  2.0695 -0.8439
 2219SOL    HW218120   1.138   4.678  15.175 -0.2846 -0.3282  2.9149
 2220SOL     OW18121   0.012   4.069   7.926 -0.0314  0.2030 -0.4920
 2220SOL    HW118122   4.683   3.991   7.907 -0.7811  0.5740  0.0589
 2220SOL    HW218123   0.050   4.039   8.009  0.0870  0.3510 -0.4947
 2221SOL     OW18124   3.675   0.612   3.932 -0.2620  0.3481 -0.0831
 2221SOL    HW118125   3.713   0.525   3.922 -2.0794 -0.1393 -2.5722
 2221SOL    HW218126   3.706   0.628   4.022 -0.0960 -0.5714  0.0239
 2222SOL     OW18127   2.622   3.425   3.789 -0.0560 -0.0490 -0.3902
 2222SOL    HW118128   2.615   3.520   3.787  0.4412  0.0024  0.5527
 2222SOL    HW218129   2.611   3.406   3.696  1.7709 -1.0008 -0.4249
 2223SOL     OW18130   2.097   4.403   4.557 -0.2589  0.2278  0.3244
 2223SOL    HW118131   2.177   4.451   4.575  0.7932 -1.2204 -0.4435
 2223SOL    HW218132   2.124   4.329   4.502  0.0387 -0.4220  1.3415
 2224SOL     OW18133   3.524   0.687   9.125  0.0912 -0.0916 -0.7913
 2224SOL    HW118134   3.486   0.621   9.183  0.3563  3.8603  3.9300
 2224SOL    HW218135   3.607   0.651   9.093  0.7041  0.2944  0.3719
 2225SOL     OW18136   2.986   0.156  13.385 -0.0330 -0.0421  0.1504
 2225SOL    HW118137   2.950   0.244  13.385 -0.3020 -0.1367 -3.1785
 2225SOL    HW218138   3.078   0.176  13.401 -0.1241 -1.2473  2.1482
 2226SOL     OW18139   2.765   2.940   7.796  0.0813 -0.1366 -0.8029
 2226SOL    HW118140   2.715   2.886   7.858 -1.2433  0.9137 -0.9724
 2226SOL    HW218141   2.795   2.866   7.744  1.1200 -1.6800  1.9696
 2227SOL     OW18142   3.503   4.460   6.938 -0.0111 -0.4596 -0.8476
 2227SOL    HW118143   3.494   4.519   7.013 -1.9478  0.9440 -2.1954
 2227SOL    HW218144   3.422   4.409   6.941  0.2135 -0.6338  2.5363
 2228SOL     OW18145   1.496   3.138   2.007 -0.1467  0.1362  0.2105
 2228SOL    HW118146   1.523   3.054   1.971  2.5925  1.6386 -1.1613
 2228SOL    HW218147   1.572   3.195   2.007 -0.9310  1.1930  0.7211
 2229SOL     OW18148   1.991   0.691   2.507 -0.2120 -0.6584  0.3571
 2229SOL    HW118149   1.974   0.648   2.424  0.2264  1.1609 -0.6760
 2229SOL    HW218150   1.918   0.754   2.512 -0.9233 -1.5108  0.7810
 2230SOL     OW18151   0.701   1.698   3.237  0.2381 -0.9089  0.0570
 2230SOL    HW118152   0.629   1.688   3.299 -2.5100  0.1085 -2.9668
 2230SOL    HW218153   0.769   1.743   3.287 -1.2119 -1.9463  2.9453
 2231SOL     OW18154   2.420   2.817   4.346 -0.1940  0.2239  0.2802
 2231SOL    HW118155   2.348   2.812   4.283 -0.0126  3.8584 -0.2550
 2231SOL    HW218156   2.497   2.816   4.289 -0.3825 -1.0474  0.0483
 2232SOL     OW18157   2.591   0.686   0.239 -0.0276  0.1430  0.1704
 2232SOL    HW118158   2.542   0.671   0.158 -1.1383 -0.6823  0.9880
 2232SOL    HW218159   2.581   0.781   0.245  0.1386  0.1192  0.7527
 2233SOL     OW18160   3.910   2.928   1.086 -0.4828  0.2359 -0.2357
 2233SOL    HW118161   3.940   3.008   1.043  3.4703  0.4228  2.8662
 2233SOL    HW218162   3.821   2.944   1.117 -0.6185 -0.1994 -0.4015
 2234SOL     OW18163   2.972   2.674   3.432  0.3815  0.5593  0.1816
 2234SOL    HW118164   2.988   2.696   3.340  1.1535  0.4049  0.2778
 2234SOL    HW218165   3.030   2.599   3.442 -0.7786 -0.4276 -0.5763
 2235SOL     OW18166   3.185   4.471  17.237  0.3268 -0.1455 -0.2174
 2235SOL    HW118167   3.118   4.457  17.171  1.0759 -1.8412 -0.6225
 2235SOL    HW218168   3.256   4.417  17.202 -2.1528 -4.3303  1.2017
 2236SOL     OW18169   3.663   4.554   5.220  0.4279  0.5397 -0.0845
 2236SOL    HW118170   3.658   4.494   5.146  2.1528 -0.5323  0.6755
 2236SOL    HW218171   3.756   4.547   5.241 -0.0264 -1.2718  1.3566
 2237SOL     OW18172   1.670   1.565   7.970 -0.1415 -0.1074 -0.0066
 2237SOL    HW118173   1.581   1.593   7.989  0.0926  0.6407 -0.0129
 2237SOL    HW218174   1.651   1.482   7.927  0.3770  0.4881 -1.3897
 2238SOL     OW18175   0.421   2.696   5.759 -0.3520 -0.1343  0.3959
 2238SOL    HW118176   0.352   2.744   5.713 -0.6904 -1.9466 -0.9630
 2238SOL    HW218177   0.462   2.768   5.808  1.4392 -0.2190 -0.9923
 2239SOL     OW18178   0.308   2.454   3.953  0.0737 -0.4970 -0.4060
 2239SOL    HW118179   0.298   2.548   3.963 -2.5886 -0.8222 -0.0525
 2239SOL    HW218180   0.332   2.427   4.041  0.8129 -0.8190 -0.7056
 2240SOL     OW18181   4.043   0.135  12.799 -0.1099  0.0406 -0.4471
 2240SOL    HW118182   4.125   0.136  12.847 -0.1932 -1.5204 -0.2768
 2240SOL    HW218183   4.076   0.119  12.711 -0.5277 -0.4766 -0.5115
 2241SOL     OW18184   0.227   3.959   1.850  0.0136  0.5190 -0.0730
 2241SOL    HW118185   0.222   3.909   1.931  0.0623  0.0168 -0.3787
 2241SOL    HW218186   0.142   3.941   1.810 -0.5030  0.9714  0.8377
 2242SOL     OW18187   3.131   1.645   5.098 -0.2945 -0.0282 -0.0652
 2242SOL    HW118188   3.168   1.732   5.088  0.7566 -0.6730 -1.8011
 2242SOL    HW218189   3.050   1.659   5.049 -0.8255  1.9091  1.3983
 2243SOL     OW18190   2.146   2.708   5.115 -0.2165 -0.4148 -0.2105
 2243SOL    HW118191   2.209   2.646   5.080  1.4550 -0.9210  3.6862
 2243SOL    HW218192   2.147   2.763   5.036  2.2406 -0.0291  0.0934
 2244SOL     OW18193   0.721   2.070   0.787 -0.3583  0.4085 -0.3064
 2244SOL    HW118194   0.675   2.072   0.703 -3.6325 -1.1626  1.4297
 2244SOL    HW218195   0.661   2.096   0.857  0.3261  0.8267  0.1205
 2245SOL     OW18196   0.924   3.533   7.609  0.4135 -0.1624 -0.2682
 2245SOL    HW118197   0.960   3.610   7.565  0.8679  0.2036  0.7400
 2245SOL    HW218198   0.952   3.541   7.700 -1.9501  2.0188  0.2881
 2246SOL     OW18199   0.987   4.603  13.290  0.1533 -0.2467 -0.4710
 2246SOL    HW118200   0.927   4.626  13.361  1.3550 -2.7103  1.3327
 2246SOL    HW218201   0.948   4.533  13.239  1.5931 -1.6341  0.3179
 2247SOL     OW18202   2.314   0.828  11.309 -0.3886 -0.1688  0.4094
 2247SOL    HW118203   2.251   0.859  11.373 -0.5115  1.0089 -0.2783
 2247SOL    HW218204   2.377   0.900  11.310  0.8755 -1.2857  1.4474
 2248SOL     OW18205   0.649   2.285   9.284  0.0501  0.1809  0.5439
 2248SOL    HW118206   0.723   2.229   9.307  0.3064 -0.2085 -1.2282
 2248SOL    HW218207   0.685   2.356   9.230  1.8114  1.8347  3.9177
 2249SOL     OW18208   3.748   0.881   2.358  0.4678  0.8888 -0.1586
 2249SOL    HW118209   3.834   0.885   2.318  1.9149 -2.0212  2.6385
 2249SOL    HW218210   3.764   0.802   2.410  1.2200  1.2600  0.1810
 2250SOL     OW18211   3.857   3.891   1.233 -0.0436  0.0301 -0.3763
 2250SOL    HW118212   3.913   3.824   1.272  1.0138  1.6281  0.8528
 2250SOL    HW218213   3.927   3.942   1.192 -0.9344 -0.3603 -2.3636
 2251SOL     OW18214   2.331   0.402  16.144  0.2609 -0.2361  0.3045
 2251SOL    HW118215   2.373   0.395  16.059 -0.3792  2.0786 -0.2050
 2251SOL    HW218216   2.239   0.406  16.118 -0.7437 -0.2092  3.8108
 2252SOL     OW18217   3.147   2.692   6.273  0.2697  0.2476 -0.1218
 2252SOL    HW118218   3.180   2.603   6.259 -1.7369 -0.3771 -0.9743
 2252SOL    HW218219   3.061   2.672   6.310 -0.6217  1.7431 -1.4218
 2253SOL     OW18220   3.980   0.724   8.574  0.0082  0.8203  0.4091
 2253SOL    HW118221   3.905   0.716   8.515  0.6215  1.2014 -0.4165
 2253SOL    HW218222   4.014   0.809   8.545  0.2844 -0.2570 -2.4205
 2254SOL     OW18223   3.952   0.075  14.733 -0.0257  0.3398 -0.0206
 2254SOL    HW118224   3.978   0.106  14.647 -0.4409 -1.9243 -0.9552
 2254SOL    HW218225   4.013   0.129  14.784  0.8524 -0.4734 -0.2039
 2255SOL     OW18226   2.704   3.817   4.303  0.7567  0.5182  0.4042
 2255SOL    HW118227   2.799   3.804   4.311  0.9308  1.4730 -0.1182
 2255SOL    HW218228   2.680   3.733   4.265 -2.3901  1.7726 -0.3710
 2256SOL     OW18229   0.001   0.493  11.106 -0.1767  0.3451 -0.2557
 2256SOL    HW118230   4.717   0.398  11.096  1.4329  0.0625  1.1045
 2256SOL    HW218231   0.055   0.518  11.032  0.4964 -2.4277 -0.6901
 2257SOL     OW18232   1.294   0.786   2.827  0.0670  0.5694 -0.2334
 2257SOL    HW118233   1.275   0.817   2.738  1.8705  0.4617 -0.6528
 2257SOL    HW218234   1.384   0.758   2.813 -0.0570  0.3129 -0.5391
 2258SOL     OW18235   3.415   1.843  10.687  0.5214  0.2552  0.2701
 2258SOL    HW118236   3.496   1.886  10.714 -0.7107  1.4649  1.9947
 2258SOL    HW218237   3.361   1.866  10.763  2.3560  3.6835  0.5036
 2259SOL     OW18238   1.612   1.057   6.149  0.1745  0.3822 -0.1064
 2259SOL    HW118239   1.596   0.963   6.141  0.9973  0.1538  0.9844
 2259SOL    HW218240   1.525   1.091   6.168  0.7266  1.4158  0.5317
 2260SOL     OW18241   3.164   0.462   0.659 -0.2009  0.1197 -0.7660
 2260SOL    HW118242   3.159   0.368   0.676 -1.6109 -0.3395 -3.7892
 2260SOL    HW218243   3.254   0.488   0.676 -0.7472  1.1151  0.6379
 2261SOL     OW18244   0.569   3.662  14.096 -0.6426  0.3727 -0.1185
 2261SOL    HW118245   0.636   3.721  14.062 -1.5336  0.4552 -1.6910
 2261SOL    HW218246   0.557   3.608  14.018 -1.8181  1.5605 -0.7537
 2262SOL     OW18247   3.148   0.595   5.616 -0.3192  0.2178  0.5943
 2262SOL    HW118248   3.101   0.678   5.612 -1.0084 -0.2468 -0.8321
 2262SOL    HW218249   3.134   0.568   5.526 -0.3463  0.8720  0.4028
 2263SOL     OW18250   1.703   3.028   7.390  0.2150  0.1573  0.2946
 2263SOL    HW118251   1.621   3.076   7.393 -0.1498 -0.5274  1.3201
 2263SOL    HW218252   1.749   3.086   7.329 -0.0504 -1.2043 -1.2030
 2264SOL     OW18253   3.521   2.661   9.343  0.5583 -0.4656 -0.5350
 2264SOL    HW118254   3.529   2.747   9.301 -2.1529  0.3992  0.6872
 2264SOL    HW218255   3.545   2.687   9.432 -1.7663  0.1285 -0.0760
 2265SOL     OW18256   2.327   1.016  14.337  0.0798 -0.3373 -0.0676
 2265SOL    HW118257   2.413   1.052  14.315 -0.2854  0.2456 -0.5383
 2265SOL    HW218258   2.300   0.979  14.253 -0.8156 -0.2308  0.1728
 2266SOL     OW18259   1.605   3.457  17.323 -0.2233  0.4974 -0.0981
 2266SOL    HW118260   1.607   3.366  17.353 -3.1788  0.5646  0.2426
 2266SOL    HW218261   1.555   3.505  17.388 -1.0687 -1.1382  0.4564
 2267SOL     OW18262   3.245   1.063  14.362 -0.3120  0.9363 -0.5049
 2267SOL    HW118263   3.234   1.025  14.449 -0.8119  2.3173  0.0449
 2267SOL    HW218264   3.180   1.133  14.367  0.4800  1.6563 -0.3203
 2268SOL     OW18265   0.587   2.375   8.833  0.1877 -0.3342  0.1882
 2268SOL    HW118266   0.656   2.331   8.783  0.0389  1.0470 -1.2534
 2268SOL    HW218267   0.627   2.389   8.918 -1.5884  1.9673  0.6275
 2269SOL     OW18268   4.196   4.157   3.040  0.3442  0.0648  0.1972
 2269SOL    HW118269   4.228   4.183   3.126  2.4947 -0.9461 -0.2859
 2269SOL    HW218270   4.116   4.107   3.057  0.3935  0.1437  0.6613
 2270SOL     OW18271   3.191   3.337   3.529 -0.2567  0.0881 -0.6346
 2270SOL    HW118272   3.171   3.417   3.579 -1.4313 -0.7010  0.1408
 2270SOL    HW218273   3.269   3.352   3.476 -0.0709 -1.8758 -0.8882
 2271SOL     OW18274   0.868   2.642   0.452  0.5299 -0.3061  0.3812
 2271SOL    HW118275   0.902   2.709   0.393  0.4288 -0.6711 -0.0903
 2271SOL    HW218276   0.815   2.588   0.394  2.2341  0.7340 -2.1358
 2272SOL     OW18277   3.197   1.769  12.515 -0.0003  0.7236  0.1774
 2272SOL    HW118278   3.129   1.763  12.581  0.4572  4.1482  0.9679
 2272SOL    HW218279   3.178   1.858  12.483 -0.1943  0.1603 -1.2806
 2273SOL     OW18280   0.474   1.620   7.292  0.4753 -0.7566  0.0730
 2273SOL    HW118281   0.426   1.560   7.235 -1.0527  1.2993 -0.8023
 2273SOL    HW218282   0.558   1.578   7.307  0.5300 -0.8194 -0.4226
 2274SOL     OW18283   0.977   2.374   5.076  0.3672  0.2000 -0.3640
 2274SOL    HW118284   0.907   2.341   5.131  1.7014  0.1482  1.3012
 2274SOL    HW218285   1.034   2.415   5.141 -2.2579  1.7917  0.9417
 2275SOL     OW18286   0.991   1.050   8.733 -0.1134 -0.3493 -0.1847
 2275SOL    HW118287   1.058   1.079   8.795  0.1935 -0.1834 -0.5945
 2275SOL    HW218288   0.927   1.019   8.798 -1.3236  1.2924 -0.6116
 2276SOL     OW18289   2.044   3.114   7.084 -0.3383  0.2859 -0.4929
 2276SOL    HW118290   1.967   3.166   7.062 -1.1747 -0.9608 -0.5366
 2276SOL    HW218291   2.051   3.050   7.013 -3.3632 -1.0491  0.3965
 2277SOL     OW18292   2.946   1.117   8.762  0.4492  0.3701 -0.3182
 2277SOL    HW118293   3.014   1.110   8.828 -1.4351 -0.2848  1.5691
 2277SOL    HW218294   2.920   1.025   8.759  2.4159 -0.0795 -3.2411
 2278SOL     OW18295   3.805   1.677   6.114  0.5659 -0.2402 -0.0974
 2278SOL    HW118296   3.712   1.654   6.116 -0.1761  2.6281 -2.2370
 2278SOL    HW218297   3.806   1.764   6.154  0.8243 -0.4823  0.4180
 2279SOL     OW18298   1.313   2.061   5.154  0.2752 -0.0369  0.1298
 2279SOL    HW118299   1.259   2.003   5.101  0.4401  0.0512 -0.1350
 2279SOL    HW218300   1.260   2.112   5.214  1.3311  2.0076 -0.6446
 2280SOL     OW18301   4.248   0.410   1.258 -0.0074 -0.5310 -0.4536
 2280SOL    HW118302   4.223   0.501   1.241  1.0174 -0.3141 -0.8585
 2280SOL    HW218303   4.281   0.380   1.173  1.9901 -0.1760  0.1908
 2281SOL     OW18304   1.692   0.381   5.526  0.0400  0.0819  0.1948
 2281SOL    HW118305   1.632   0.323   5.572 -0.3773  0.8591  0.6235
 2281SOL    HW218306   1.781   0.351   5.548 -1.0720 -3.4956 -0.3386
 2282SOL     OW18307   0.264   1.706   5.824  0.5884  0.2112  0.0858
 2282SOL    HW118308   0.181   1.696   5.871 -0.9040 -0.1684 -2.6140
 2282SOL    HW218309   0.301   1.792   5.840  1.0689 -0.0908  0.5966
 2283SOL     OW18310   0.029   4.347   7.935 -0.6229  0.2906  0.3215
 2283SOL    HW118311   0.060   4.388   8.016 -0.6270 -1.1222  1.0418
 2283SOL    HW218312   0.019   4.254   7.956  0.3667 -0.1850 -1.2719
 2284SOL     OW18313   4.453   1.445   0.227  0.1443 -0.7626 -1.1279
 2284SOL    HW118314   4.479   1.370   0.279  0.2238 -0.7739 -1.1853
 2284SOL    HW218315   4.379   1.409   0.178  0.4960  1.1143 -3.1011
 2285SOL     OW18316   1.026   4.533  10.063  0.4508 -0.4990  0.3805
 2285SOL    HW118317   1.015   4.569  10.151 -1.4418 -0.1093  0.0032
 2285SOL    HW218318   1.058   4.609  10.014 -0.4208 -0.9413 -0.8686
 2286SOL     OW18319   0.177   0.089   4.638  0.1965 -0.8932 -0.1663
 2286SOL    HW118320   0.098   0.122   4.594  1.9769  1.9004 -1.2967
 2286SOL    HW218321   0.220   0.060   4.558  1.2149  0.4186 -0.1059
 2287SOL     OW18322   3.197   2.433   3.131  0.1256 -0.0748  0.3163
 2287SOL    HW118323   3.239   2.519   3.144 -1.3978  0.8997 -1.1245
 2287SOL    HW218324   3.123   2.439   3.191 -0.2176  0.6775 -0.1805
 2288SOL     OW18325   2.761   3.234   8.498  0.5519  0.7853 -0.4729
 2288SOL    HW118326   2.706   3.292   8.445  0.5182  0.4951 -0.7509
 2288SOL    HW218327   2.845   3.280   8.498  1.0952 -0.2098 -0.4014
 2289SOL     OW18328   3.527   1.202   1.167 -0.1121 -0.4756  0.6433
 2289SOL    HW118329   3.517   1.293   1.194  0.2707 -0.6111  1.2240
 2289SOL    HW218330   3.494   1.210   1.077  0.0194 -1.4906  0.5026
 2290SOL     OW18331   1.129   1.636   5.687  0.1804 -0.0472 -0.0051
 2290SOL    HW118332   1.185   1.697   5.735  0.3340  0.9329 -1.4332
 2290SOL    HW218333   1.074   1.701   5.643  0.4711  0.8003  0.8616
 2291SOL     OW18334   4.485   2.313   7.454 -0.7314 -0.1125  0.0651
 2291SOL    HW118335   4.419   2.261   7.409 -1.6612 -0.3175  1.6658
 2291SOL    HW218336   4.560   2.254   7.458 -0.7952 -0.2705 -0.9543
 2292SOL     OW18337   1.284   4.703   3.678  0.5099  0.5813 -0.6689
 2292SOL    HW118338   1.364   0.029   3.664  1.6005 -0.9144  0.2847
 2292SOL    HW218339   1.257   4.685   3.588  0.6754 -1.3878 -0.3260
 2293SOL     OW18340   2.034   1.436   3.780  0.3932 -0.2185 -0.5453
 2293SOL    HW118341   2.022   1.446   3.875 -1.3043 -1.0140 -0.6905
 2293SOL    HW218342   2.091   1.361   3.796 -1.2397 -1.5223 -0.9059
 2294SOL     OW18343   0.668   1.189   5.200 -0.2736 -0.1751 -0.0163
 2294SOL    HW118344   0.615   1.204   5.278  0.4270 -0.9172  0.5988
 2294SOL    HW218345   0.752   1.231   5.220 -1.2248  0.2026  3.1570
 2295SOL     OW18346   2.344   2.821   9.433  0.1704  0.1951 -0.3040
 2295SOL    HW118347   2.429   2.866   9.432  0.6308 -0.6725 -0.7118
 2295SOL    HW218348   2.285   2.888   9.399 -0.6473  0.7110  2.1397
 2296SOL     OW18349   1.743   3.463   0.627 -0.5072  0.6382  0.0408
 2296SOL    HW118350   1.673   3.426   0.573  0.6160 -0.3781 -0.7121
 2296SOL    HW218351   1.694   3.486   0.706 -0.6948  2.0934 -0.5178
 2297SOL     OW18352   0.366   0.305   6.823  0.2670 -0.3412  0.2497
 2297SOL    HW118353   0.329   0.351   6.898 -0.6310  0.4638 -0.6764
 2297SOL    HW218354   0.287   0.295   6.771  0.1779  1.7119 -0.0388
 2298SOL     OW18355   2.239   1.760   9.516  0.1263 -0.6484  0.2801
 2298SOL    HW118356   2.232   1.665   9.502 -0.7998 -0.8545  2.1989
 2298SOL    HW218357   2.243   1.780   9.422  0.5411 -1.4406  0.1214
 2299SOL     OW18358   0.311   0.252   7.513  0.2703  0.6913 -0.0537
 2299SOL    HW118359   0.274   0.230   7.428 -0.9430 -2.5991  1.3200
 2299SOL    HW218360   0.387   0.195   7.507  0.2450  0.6602 -0.0760
 2300SOL     OW18361   1.771   1.516   8.230  0.0385 -1.1513 -0.1332
 2300SOL    HW118362   1.712   1.474   8.167 -0.0802 -0.7489 -0.2921
 2300SOL    HW218363   1.711   1.532   8.302  0.9114 -0.9271  0.5430
 2301SOL     OW18364   1.930   0.331   2.981  0.4554 -0.3193 -0.4063
 2301SOL    HW118365   1.863   0.278   2.938 -1.3915 -0.1206  2.2733
 2301SOL    HW218366   2.015   0.293   2.957  0.6216  1.3878 -2.5817
 2302SOL     OW18367   1.372   1.455   2.686  0.0496  0.2255 -0.7442
 2302SOL    HW118368   1.419   1.379   2.721 -1.2880 -1.1326 -1.8781
 2302SOL    HW218369   1.351   1.499   2.768 -0.1218 -0.4807 -0.4156
 2303SOL     OW18370   2.757   3.826   9.193 -0.4313  0.0595  0.2730
 2303SOL    HW118371   2.747   3.736   9.224 -1.3015  0.3194  0.7593
 2303SOL    HW218372   2.819   3.856   9.259  1.2333  1.1306 -1.8017
 2304SOL     OW18373   1.514   3.832   6.741  0.5383 -0.1423 -0.2096
 2304SOL    HW118374   1.491   3.918   6.774  0.6899 -0.9150  1.9294
 2304SOL    HW218375   1.540   3.860   6.654 -2.9555 -1.0266 -1.5534
 2305SOL     OW18376   3.507   0.181   9.186 -0.6536  0.0398  0.0323
 2305SOL    HW118377   3.505   0.256   9.126 -2.6566  0.2183  0.3215
 2305SOL    HW218378   3.501   0.214   9.275  0.2865  0.3450 -0.0139
 2306SOL     OW18379   2.347   0.480   4.529  0.0703 -0.0788 -0.0326
 2306SOL    HW118380   2.344   0.462   4.623 -1.9589  1.6447  0.2332
 2306SOL    HW218381   2.402   0.559   4.521  0.4108 -0.1664  1.3691
 2307SOL     OW18382   4.219   1.142  16.729 -0.5852  0.2734  0.0829
 2307SOL    HW118383   4.253   1.189  16.805  2.8269 -2.1652  0.1007
 2307SOL    HW218384   4.221   1.215  16.668  2.4827  0.0445 -0.1053
 2308SOL     OW18385   3.721   2.464   3.621  0.2705  0.2467 -0.4720
 2308SOL    HW118386   3.655   2.462   3.552 -0.9639 -0.6826  0.7207
 2308SOL    HW218387   3.668   2.450   3.700 -0.4959  2.0752 -0.6581
 2309SOL     OW18388   3.325   4.026  14.232  0.0226 -0.4680  0.0930
 2309SOL    HW118389   3.367   4.089  14.174  0.4857 -0.4694  0.4214
 2309SOL    HW218390   3.346   3.944  14.186 -2.9592 -1.6997  0.9472
 2310SOL     OW18391   3.316   2.705   9.837 -0.0379 -0.4058  0.0854
 2310SOL    HW118392   3.265   2.701   9.918  0.4609  3.8614  0.6522
 2310SOL    HW218393   3.301   2.799   9.823 -1.1481 -0.5908  0.0248
 2311SOL     OW18394   4.218   4.690  11.584 -0.0787  0.6494  0.1737
 2311SOL    HW118395   4.183   4.609  11.623  2.0080 -0.8408 -1.0927
 2311SOL    HW218396   4.243   4.666  11.495 -0.4947 -1.3285  0.5899
 2312SOL     OW18397   0.616   4.413   2.598  0.0039  0.3931  0.4595
 2312SOL    HW118398   0.709   4.392   2.586 -0.3499 -1.9743  1.7965
 2312SOL    HW218399   0.622   4.480   2.667  0.6679  2.2596 -1.4118
 2313SOL     OW18400   2.981   3.387   9.029 -0.2921  0.4579 -0.1395
 2313SOL    HW118401   2.934   3.351   8.954  1.2836 -1.6957 -0.0986
 2313SOL    HW218402   2.914   3.374   9.096  1.3155 -0.7103  1.2748
 2314SOL     OW18403   3.818   4.355   3.998 -0.4443 -0.4689 -0.6496
 2314SOL    HW118404   3.883   4.288   4.020 -0.8457 -0.8133 -0.5168
 2314SOL    HW218405   3.865   4.401   3.929 -0.3233  1.1837  0.5337
 2315SOL     OW18406   1.833   0.052   5.018  0.3665 -0.1440 -0.2522
 2315SOL    HW118407   1.791   0.091   5.095  2.9336 -0.7899  1.4728
 2315SOL    HW218408   1.897   4.717   5.056  0.2682  0.3583  0.7020
 2316SOL     OW18409   2.359   3.686   9.359  0.8018 -0.4323  0.4117
 2316SOL    HW118410   2.389   3.598   9.377 -2.5997 -1.8460 -0.7243
 2316SOL    HW218411   2.429   3.737   9.399 -0.9559 -0.2441  3.2281
 2317SOL     OW18412   4.258   2.904   2.757  0.4192 -0.2257  0.8059
 2317SOL    HW118413   4.228   2.991   2.730  2.5085 -0.6081 -2.7576
 2317SOL    HW218414   4.319   2.926   2.828  0.7917 -0.4835  0.5660
 2318SOL     OW18415   4.607   1.048   4.809  0.0713 -0.4351  0.0608
 2318SOL    HW118416   4.578   1.043   4.718 -1.8769 -1.3288  0.7246
 2318SOL    HW218417   4.567   1.132   4.829 -0.0321 -0.3939 -0.3230
 2319SOL     OW18418   0.944   1.685   3.812 -0.2133 -0.4083 -0.4316
 2319SOL    HW118419   1.003   1.732   3.753 -0.6236  1.4199  0.6070
 2319SOL    HW218420   1.005   1.628   3.858 -0.0695 -0.6939 -0.9792
 2320SOL     OW18421   1.993   1.850  12.380 -0.3904  0.6741  0.3766
 2320SOL    HW118422   2.059   1.848  12.449 -0.5302  1.1422  0.5286
 2320SOL    HW218423   1.925   1.904  12.420  1.1902  0.2855  3.6006
 2321SOL     OW18424   1.128   2.770   2.883 -0.0757 -0.3494  0.1335
 2321SOL    HW118425   1.037   2.795   2.867  0.0100 -2.2917 -3.4417
 2321SOL    HW218426   1.136   2.796   2.975 -1.1965  0.2013  0.0673
 2322SOL     OW18427   3.436   3.236   8.664  0.2437 -0.0645 -0.3565
 2322SOL    HW118428   3.492   3.183   8.606  1.8904  2.6627 -1.2509
 2322SOL    HW218429   3.433   3.319   8.616  1.7053 -0.2477 -0.7865
 2323SOL     OW18430   2.197   0.858   4.929  0.0846  0.0183 -0.4860
 2323SOL    HW118431   2.208   0.793   4.859 -5.1639 -0.6043 -0.7202
 2323SOL    HW218432   2.240   0.820   5.006 -0.2386 -3.3746 -1.9572
 2324SOL     OW18433   2.015   1.075  14.590  0.3301  0.3249 -0.4246
 2324SOL    HW118434   2.031   1.112  14.503 -1.6874 -0.9822 -1.3551
 2324SOL    HW218435   2.059   1.140  14.645 -3.4196  1.0711  1.7150
 2325SOL     OW18436   1.248   4.173   8.450  0.0677  0.5722 -0.2875
 2325SOL    HW118437   1.159   4.145   8.470  0.5964  0.7955  2.5060
 2325SOL    HW218438   1.235   4.257   8.406  0.3555  0.8975  0.2408
 2326SOL     OW18439   3.237   0.448  11.304  0.0595 -0.0057 -0.1255
 2326SOL    HW118440   3.158   0.402  11.275  0.6166  1.0997 -3.4330
 2326SOL    HW218441   3.206   0.530  11.343  0.2426  0.0308 -0.0580
 2327SOL     OW18442   4.392   3.875   4.387 -0.5504  0.3546 -0.5003
 2327SOL    HW118443   4.378   3.784   4.362  2.1713  0.2385 -1.5722
 2327SOL    HW218444   4.380   3.872   4.482  0.1958 -1.9574 -0.4666
 2328SOL     OW18445   2.130   4.711   3.672 -0.1298 -0.2132 -0.8349
 2328SOL    HW118446   2.135   4.656   3.750  1.0396 -0.0793 -0.8173
 2328SOL    HW218447   2.159   0.072   3.705  1.9722 -0.4964 -1.9769
 2329SOL     OW18448   0.048   0.509  11.806  0.1130 -0.1472 -0.3229
 2329SOL    HW118449   0.073   0.489  11.715 -1.9254 -2.8042 -0.3140
 2329SOL    HW218450   0.083   0.436  11.857  0.5888 -0.1306 -0.6190
 2330SOL     OW18451   4.661   1.590   7.635  0.0773  0.9208 -0.1720
 2330SOL    HW118452   4.672   1.572   7.729 -0.6981  0.9174 -0.0781
 2330SOL    HW218453   0.030   1.605   7.617  0.6729 -3.1119 -0.4659
 2331SOL     OW18454   0.371   0.957   3.748  0.2638 -0.4581 -0.1235
 2331SOL    HW118455   0.287   0.985   3.783  0.2293 -3.7713  2.3799
 2331SOL    HW218456   0.409   1.044   3.743 -2.6938  0.7667 -1.2183
 2332SOL     OW18457   3.122   2.545   4.765  0.4308 -0.0280 -0.2001
 2332SOL    HW118458   3.127   2.454   4.735  0.6977 -1.4137  4.0995
 2332SOL    HW218459   3.031   2.537   4.794  0.5728 -1.1223 -0.0604
 2333SOL     OW18460   3.183   2.416   2.148 -0.5080  0.2699  0.0098
 2333SOL    HW118461   3.216   2.357   2.215 -0.4659 -0.0731 -0.3184
 2333SOL    HW218462   3.097   2.378   2.129 -0.6579  0.9014 -0.5665
 2334SOL     OW18463   4.454   3.360   8.068  0.5366 -0.0704 -0.2302
 2334SOL    HW118464   4.543   3.381   8.097  0.5378  0.0515 -0.3289
 2334SOL    HW218465   4.439   3.442   8.023  1.0046  0.1555  0.0161
 2335SOL     OW18466   1.229   2.727   6.934 -0.1035 -0.3764  0.1844
 2335SOL    HW118467   1.186   2.709   7.017  0.2367 -1.0796  0.2037
 2335SOL    HW218468   1.257   2.638   6.913 -0.7265 -0.4572 -0.3072
 2336SOL     OW18469   1.199   4.249   9.172 -0.4504  0.4360  1.0673
 2336SOL    HW118470   1.230   4.317   9.231  2.7268 -0.7924  0.8014
 2336SOL    HW218471   1.198   4.165   9.218  2.1433  0.3328  0.9494
 2337SOL     OW18472   0.229   0.491   4.466  0.2000  0.2430 -0.3707
 2337SOL    HW118473   0.260   0.400   4.467 -2.0006 -0.4874  0.2257
 2337SOL    HW218474   0.192   0.500   4.554  0.4895 -1.0886 -0.1197
 2338SOL     OW18475   0.897   3.461   4.389  0.3520 -0.2773  0.2059
 2338SOL    HW118476   0.912   3.555   4.400 -1.3292 -0.2351  2.0962
 2338SOL    HW218477   0.818   3.440   4.438  0.6983 -2.3713 -0.1651
 2339SOL     OW18478   1.101   2.371   9.052 -0.9604 -0.2678 -0.0589
 2339SOL    HW118479   1.173   2.433   9.066  1.1751 -2.4552 -1.2459
 2339SOL    HW218480   1.156   2.298   9.082  0.6683 -0.6871 -4.0943
 2340SOL     OW18481   3.935   3.446   2.454 -0.1015  0.6439 -0.5266
 2340SOL    HW118482   3.940   3.482   2.365  0.1942 -2.4693 -1.7709
 2340SOL    HW218483   3.949   3.352   2.446 -1.2036  0.4244  0.1390
 2341SOL     OW18484   2.734   3.948   4.580  0.1935 -0.0235  0.4719
 2341SOL    HW118485   2.736   3.910   4.492  2.3506  0.6791  0.2195
 2341SOL    HW218486   2.641   3.930   4.596 -0.9336  2.2020 -3.8171
 2342SOL     OW18487   0.187   3.706   6.460  0.3289 -0.1251 -0.0698
 2342SOL    HW118488   0.159   3.614   6.459  1.1059 -0.3521 -0.8465
 2342SOL    HW218489   0.247   3.707   6.385  1.2173  1.7229  0.6718
 2343SOL     OW18490   1.430   4.289  10.340 -0.3381  0.1788 -0.6658
 2343SOL    HW118491   1.374   4.288  10.418 -1.1440 -0.7289 -1.2587
 2343SOL    HW218492   1.451   4.198  10.320 -2.2310 -0.3802 -0.1046
 2344SOL     OW18493   1.838   4.525   2.656  0.2485 -0.1895 -0.2228
 2344SOL    HW118494   1.765   4.479   2.614  0.4090  1.2720 -2.1187
 2344SOL    HW218495   1.816   4.615   2.632 -1.1651 -0.2980  0.6881
 2345SOL     OW18496   0.864   2.164   7.790  0.6079  0.3845  0.4810
 2345SOL    HW118497   0.854   2.193   7.880 -0.0226  1.5356  0.0440
 2345SOL    HW218498   0.808   2.087   7.780  0.9625 -0.0566  1.8999
 2346SOL     OW18499   3.007   3.757  14.267  0.4535 -0.5781 -0.1041
 2346SOL    HW118500   2.934   3.794  14.315  1.2565 -1.0449  1.4868
 2346SOL    HW218501   3.062   3.760  14.345 -0.3282 -1.7223  0.4874
 2347SOL     OW18502   2.628   0.515  17.227  0.1724 -0.0732  0.5732
 2347SOL    HW118503   2.589   0.463  17.297 -0.5181 -0.2865  0.0339
 2347SOL    HW218504   2.664   0.589  17.275  0.0650  0.7055 -0.5386
 2348SOL     OW18505   0.277   4.361  17.364 -0.2009  0.1246 -0.3572
 2348SOL    HW118506   0.270   4.330  17.273 -0.9879  0.0916 -0.2876
 2348SOL    HW218507   0.220   4.437  17.362  0.0867  0.2962 -1.8057
 2349SOL     OW18508   2.857   3.893  13.458 -0.1699 -0.1401 -0.5180
 2349SOL    HW118509   2.859   3.906  13.553 -1.2110 -1.6657 -0.2874
 2349SOL    HW218510   2.882   3.800  13.460 -0.4114 -0.2131 -1.0770
 2350SOL     OW18511   0.466   3.552   8.892  0.3182 -0.3365  0.7207
 2350SOL    HW118512   0.514   3.631   8.916 -0.6009  0.5588 -0.4147
 2350SOL    HW218513   0.516   3.519   8.817  0.4678  1.8172 -0.1365
 2351SOL     OW18514   1.760   1.091   5.627  0.2450  0.1320 -0.1651
 2351SOL    HW118515   1.821   1.034   5.673  0.1517 -1.2965 -1.8291
 2351SOL    HW218516   1.803   1.175   5.643 -2.0279  1.2748 -0.0150
 2352SOL     OW18517   2.808   0.490   9.649 -0.2281 -0.3425 -0.5374
 2352SOL    HW118518   2.848   0.410   9.615 -0.5102 -0.8573  0.3493
 2352SOL    HW218519   2.872   0.522   9.713  0.2640 -2.6253  0.0958
 2353SOL     OW18520   2.120   3.788   6.033 -0.2166  0.3242  0.1945
 2353SOL    HW118521   2.107   3.881   6.052 -0.8082 -0.2739  2.7402
 2353SOL    HW218522   2.200   3.797   5.982  0.6076 -1.3510  1.2034
 2354SOL     OW18523   4.668   0.107   6.629 -0.4999 -0.5857 -0.2709
 2354SOL    HW118524   4.575   0.129   6.632 -0.3767 -0.3616  1.6975
 2354SOL    HW218525   4.681   0.026   6.580 -0.5684  0.0248 -1.2911
 2355SOL     OW18526   3.935   0.272   8.444  0.0764  0.3842 -0.0794
 2355SOL    HW118527   4.002   0.333   8.411  1.6751 -0.2736  2.0124
 2355SOL    HW218528   3.950   0.289   8.537 -0.1278  0.8330 -0.1265
 2356SOL     OW18529   1.671   3.515   1.959 -0.2795 -0.0566 -0.3938
 2356SOL    HW118530   1.582   3.513   1.992  0.3011 -0.1056  1.1545
 2356SOL    HW218531   1.673   3.427   1.921  1.2950 -0.0579 -0.3067
 2357SOL     OW18532   0.604   3.930   3.899  0.1695 -0.7207 -0.3623
 2357SOL    HW118533   0.555   3.873   3.839 -0.7113 -0.3677  0.0223
 2357SOL    HW218534   0.693   3.930   3.864  0.6436 -0.1802  0.8500
 2358SOL     OW18535   3.456   2.708   7.687  0.2239 -0.2162  0.5390
 2358SOL    HW118536   3.395   2.722   7.760 -0.7181  0.0275 -0.2968
 2358SOL    HW218537   3.539   2.728   7.728  0.5717  1.2851 -0.9161
 2359SOL     OW18538   2.673   2.093   9.567  0.0479  0.2441  0.4165
 2359SOL    HW118539   2.693   2.001   9.549 -0.9642  0.1792 -0.3544
 2359SOL    HW218540   2.764   2.122   9.579 -0.7390  2.8097  0.1393
 2360SOL     OW18541   3.656   4.561  14.265  0.3017 -0.4049  0.0666
 2360SOL    HW118542   3.585   4.499  14.251  0.5958 -0.6886 -0.1467
 2360SOL    HW218543   3.735   4.516  14.236  2.1540  1.2808  2.4628
 2361SOL     OW18544   4.135   0.388   2.783 -0.6287  0.1834  0.1787
 2361SOL    HW118545   4.158   0.345   2.701  0.9366  0.1848  0.6207
 2361SOL    HW218546   4.214   0.439   2.799 -0.9804  0.1922  1.8969
 2362SOL     OW18547   1.527   2.338   9.577 -0.2257 -0.2597 -0.1921
 2362SOL    HW118548   1.613   2.378   9.567 -0.8996  1.5875  1.4415
 2362SOL    HW218549   1.526   2.320   9.671  0.2964  0.4797 -0.0525
 2363SOL     OW18550   1.195   0.901   3.075 -0.1023 -0.2224  0.4316
 2363SOL    HW118551   1.200   0.819   3.124 -1.5482  0.0847  1.0613
 2363SOL    HW218552   1.197   0.871   2.984  2.3849  2.1667 -0.3079
 2364SOL     OW18553   2.426   3.262   8.791  0.0624  0.3246 -0.0721
 2364SOL    HW118554   2.500   3.216   8.831 -1.1429 -0.0300  1.7532
 2364SOL    HW218555   2.427   3.346   8.837 -0.2110 -0.0967  0.7092
 2365SOL     OW18556   1.333   0.970   7.425  0.0787  0.1094  0.5167
 2365SOL    HW118557   1.280   1.032   7.474  0.1332  0.1878  0.4769
 2365SOL    HW218558   1.273   0.900   7.401 -0.4378  0.5275  0.5784
 2366SOL     OW18559   3.860   4.249  14.913  0.3032 -0.3540 -0.4196
 2366SOL    HW118560   3.880   4.166  14.869  0.9375  0.4280 -1.6293
 2366SOL    HW218561   3.766   4.231  14.922  0.2689  0.2333  0.4057
 2367SOL     OW18562   3.413   2.933  10.389 -0.2167 -0.1156  0.4431
 2367SOL    HW118563   3.341   2.887  10.346  1.0351 -0.8218 -0.9133
 2367SOL    HW218564   3.436   3.004  10.329 -1.7620  0.4606  0.5238
 2368SOL     OW18565   1.610   4.598  12.642 -0.3087 -0.4946 -0.4651
 2368SOL    HW118566   1.515   4.590  12.639 -0.0143 -2.7571 -3.2966
 2368SOL    HW218567   1.630   4.505  12.656  0.6262  0.1324  2.5035
 2369SOL     OW18568   3.256   3.942   2.550 -0.1945 -0.2509  0.1122
 2369SOL    HW118569   3.290   4.011   2.607 -1.4764  0.6316 -0.1811
 2369SOL    HW218570   3.311   3.954   2.472  0.2166 -0.2280  0.4099
 2370SOL     OW18571   1.784   0.741   8.996  0.0928  0.3588 -0.0480
 2370SOL    HW118572   1.818   0.675   9.057 -1.6145 -0.2838  0.2145
 2370SOL    HW218573   1.856   0.802   8.983 -0.5686  0.7016 -1.9574
 2371SOL     OW18574   4.354   1.904  13.146  0.1446  1.0063 -0.0899
 2371SOL    HW118575   4.295   1.938  13.213  0.5673 -0.6885  1.1220
 2371SOL    HW218576   4.407   1.838  13.190 -1.2033 -1.2760 -1.9053
 2372SOL     OW18577   3.943   2.270   3.638 -0.3196 -0.1056 -0.4953
 2372SOL    HW118578   3.896   2.211   3.580 -1.8224 -0.9719  1.6016
 2372SOL    HW218579   3.874   2.336   3.646 -0.7171 -0.8958  2.4034
 2373SOL     OW18580   2.150   0.100  14.624 -0.4424  0.2739  0.0546
 2373SOL    HW118581   2.080   0.125  14.684 -1.2346 -1.5168 -0.1378
 2373SOL    HW218582   2.214   0.063  14.686  2.3551  1.7122 -1.9733
 2374SOL     OW18583   2.014   1.776   3.215 -0.7032  0.1510 -0.1284
 2374SOL    HW118584   2.057   1.693   3.239 -0.4239 -0.0304 -1.2354
 2374SOL    HW218585   1.956   1.783   3.291 -0.1210 -3.3066  0.6779
 2375SOL     OW18586   1.467   4.459   0.869 -0.1520 -0.2536  0.9880
 2375SOL    HW118587   1.375   4.451   0.844 -0.2152 -1.2906  1.5459
 2375SOL    HW218588   1.509   4.460   0.783 -0.0280  2.5211  1.0909
 2376SOL     OW18589   2.213   0.293   5.732 -0.0040  0.1303 -0.5657
 2376SOL    HW118590   2.304   0.285   5.758  0.4340  0.0020 -2.1490
 2376SOL    HW218591   2.186   0.209   5.769  1.7831  0.4713  1.4787
 2377SOL     OW18592   2.473   0.253   5.805  0.4520  0.3100 -0.0254
 2377SOL    HW118593   2.463   0.221   5.895  1.6167 -1.1509 -0.4215
 2377SOL    HW218594   2.564   0.279   5.814  0.6609 -1.0660  2.1441
 2378SOL     OW18595   4.240   0.711  16.454  0.0586 -0.0573  0.0502
 2378SOL    HW118596   4.267   0.791  16.500 -0.1419 -0.5448  1.0200
 2378SOL    HW218597   4.316   0.714  16.397 -1.6163 -0.2484 -2.1643
 2379SOL     OW18598   3.407   1.357   7.162  0.5551 -0.1491  0.2274
 2379SOL    HW118599   3.479   1.295   7.149  0.1010 -0.1065 -2.5959
 2379SOL    HW218600   3.468   1.427   7.188  0.5291  0.2624 -0.7895
 2380SOL     OW18601   4.111   2.190   4.601 -0.0245 -0.1400  0.4985
 2380SOL    HW118602   4.157   2.133   4.662 -0.0184 -1.1404 -0.4434
 2380SOL    HW218603   4.051   2.231   4.663  1.1705  1.1645  0.7894
 2381SOL     OW18604   2.967   1.193   0.159  0.1816 -0.1826  0.4695
 2381SOL    HW118605   3.061   1.186   0.146 -0.3501 -1.3224 -2.8532
 2381SOL    HW218606   2.934   1.145   0.082 -0.1645 -0.8019  0.9982
 2382SOL     OW18607   1.629   2.529   8.122 -0.4250  0.2403  0.7010
 2382SOL    HW118608   1.582   2.479   8.055 -1.8466 -0.6054  2.3682
 2382SOL    HW218609   1.600   2.472   8.192  2.0363 -1.7514  0.1006
 2383SOL     OW18610   2.130   2.844   4.886  0.2354 -0.1730  0.0515
 2383SOL    HW118611   2.108   2.918   4.829  2.3199  1.1809  1.0254
 2383SOL    HW218612   2.145   2.771   4.826 -0.2805 -0.8405  0.7383
 2384SOL     OW18613   1.492   0.182   7.298 -0.5459  0.1378  0.5155
 2384SOL    HW118614   1.537   0.159   7.217  2.7120  1.4140  2.0078
 2384SOL    HW218615   1.467   0.272   7.277 -0.7174  0.0169  0.1932
 2385SOL     OW18616   0.078   0.174  17.243 -0.1007  0.0536 -0.5934
 2385SOL    HW118617   0.092   0.111  17.173  2.3530 -1.1619  1.0222
 2385SOL    HW218618   0.171   0.184  17.261  0.1499 -1.3531 -1.1483
 2386SOL     OW18619   1.125   3.195   9.039  0.4587 -0.2386 -0.0793
 2386SOL    HW118620   1.041   3.152   9.055  0.1649  0.1039 -0.6903
 2386SOL    HW218621   1.147   3.165   8.951 -2.8950 -1.4157 -0.5404
 2387SOL     OW18622   4.506   1.777   1.343 -0.0339 -0.4717 -0.0638
 2387SOL    HW118623   4.500   1.730   1.426  1.2551 -0.4127  0.0566
 2387SOL    HW218624   4.589   1.741   1.313  1.0216  1.8055  0.1437
 2388SOL     OW18625   0.970   0.913   6.602  0.7184 -0.0959  0.2259
 2388SOL    HW118626   1.012   0.985   6.649  0.9071 -1.1997  1.7247
 2388SOL    HW218627   1.029   0.885   6.532 -0.6275 -0.1538 -0.9013
 2389SOL     OW18628   3.665   3.085   9.950  0.9037  0.0353  0.7146
 2389SOL    HW118629   3.683   3.175   9.975 -1.2037  0.6113  0.2114
 2389SOL    HW218630   3.725   3.042  10.011  0.6852 -2.8763 -1.1275
 2390SOL     OW18631   3.841   0.434   7.502  0.3299  0.1711 -0.0414
 2390SOL    HW118632   3.776   0.397   7.442  0.2371  1.0290 -0.4634
 2390SOL    HW218633   3.893   0.356   7.521  0.0994 -0.2630 -1.2492
 2391SOL     OW18634   4.228   2.328   0.217 -0.4443  0.0177 -0.0788
 2391SOL    HW118635   4.141   2.321   0.178  0.9356 -1.3517 -2.8685
 2391SOL    HW218636   4.207   2.316   0.310  0.8220 -1.1301  0.0703
 2392SOL     OW18637   1.672   0.575   9.386  0.0321 -0.3085 -0.2732
 2392SOL    HW118638   1.682   0.666   9.414  0.5028  0.8087 -4.0828
 2392SOL    HW218639   1.748   0.574   9.327  0.7450  0.6383  0.6361
 2393SOL     OW18640   0.372   4.351   7.023 -0.2394  0.2674 -0.5553
 2393SOL    HW118641   0.389   4.257   7.024 -1.4142  0.0551  0.3552
 2393SOL    HW218642   0.460   4.373   6.993 -0.1602  0.2990 -0.3040
 2394SOL     OW18643   3.051   2.738   2.644 -0.2031 -0.3582  0.1723
 2394SOL    HW118644   3.012   2.666   2.594 -0.6969  0.2543 -0.3238
 2394SOL    HW218645   2.978   2.768   2.697  0.0345 -2.7831  1.8811
 2395SOL     OW18646   4.277   0.781   8.409  0.4950 -0.3836  0.6438
 2395SOL    HW118647   4.284   0.725   8.487  0.8929 -0.2871  0.6792
 2395SOL    HW218648   4.200   0.834   8.426  0.3862 -0.5081  0.5375
 2396SOL     OW18649   0.616   4.216   7.554  0.3703 -0.7531  0.2356
 2396SOL    HW118650   0.626   4.136   7.503 -2.2988 -0.2230 -1.1431
 2396SOL    HW218651   0.578   4.277   7.490 -1.3092 -2.3738 -0.2805
 2397SOL     OW18652   1.582   0.875   1.263  0.3593  0.3801 -0.6231
 2397SOL    HW118653   1.659   0.818   1.251 -0.1807  0.1588 -2.9935
 2397SOL    HW218654   1.589   0.891   1.357  0.3641 -0.7781 -0.4168
 2398SOL     OW18655   3.553   2.767   9.599 -0.2148  0.4621  0.0299
 2398SOL    HW118656   3.571   2.742   9.690  1.2656 -0.2327 -0.4529
 2398SOL    HW218657   3.540   2.859   9.623 -1.1483 -0.3494  2.6144
 2399SOL     OW18658   1.103   0.731  14.894  0.0295 -0.1280 -0.0503
 2399SOL    HW118659   1.088   0.753  14.986  0.0369  1.2188 -0.3742
 2399SOL    HW218660   1.067   0.644  14.879 -0.2551  0.4960 -2.9688
 2400SOL     OW18661   0.703   3.239   3.127  0.1246  0.9275 -0.8448
 2400SOL    HW118662   0.687   3.256   3.034 -1.7147 -0.1401 -0.7383
 2400SOL    HW218663   0.630   3.288   3.164 -0.4636 -0.1903 -0.5348
 2401SOL     OW18664   0.850   3.834   5.382 -0.2869 -0.3800  0.3437
 2401SOL    HW118665   0.908   3.874   5.446  0.5178 -0.2755 -0.4520
 2401SOL    HW218666   0.909   3.768   5.347  0.1240 -0.7356  1.7180
 2402SOL     OW18667   0.460   3.635   1.634 -0.0237  0.5595  0.5930
 2402SOL    HW118668   0.401   3.685   1.577  2.1903  2.3785 -0.0820
 2402SOL    HW218669   0.536   3.632   1.577  0.4117  1.7828  1.1017
 2403SOL     OW18670   0.331   3.352   3.885  0.2878  0.0794  0.0725
 2403SOL    HW118671   0.361   3.339   3.794  0.0748 -0.0921  0.0270
 2403SOL    HW218672   0.413   3.372   3.929 -1.0335 -0.8405  2.9228
 2404SOL     OW18673   2.205   2.224   3.744  0.1879  1.0517  0.0692
 2404SOL    HW118674   2.154   2.283   3.798  0.2399 -0.4343  1.7439
 2404SOL    HW218675   2.280   2.202   3.800 -1.6815 -0.6272  1.8739
 2405SOL     OW18676   1.419   4.550   6.712 -0.2505 -0.3048 -0.6354
 2405SOL    HW118677   1.376   4.464   6.708 -0.4072 -0.2235 -0.7033
 2405SOL    HW218678   1.358   4.616   6.680  0.8783  0.5404 -1.0426
 2406SOL     OW18679   3.319   0.898   8.757 -0.9315  0.0862  0.1220
 2406SOL    HW118680   3.322   0.815   8.805 -1.5168  0.5535  0.9649
 2406SOL    HW218681   3.263   0.868   8.686  0.9928 -2.5929 -0.2656
 2407SOL     OW18682   1.976   1.594   5.184  0.7486 -0.4534  0.5531
 2407SOL    HW118683   1.944   1.678   5.151  0.7711  0.1460  2.0722
 2407SOL    HW218684   1.959   1.529   5.116  1.7051  0.6350 -0.7380
 2408SOL     OW18685   0.016   0.761   3.633 -0.1967  0.1205  0.3582
 2408SOL    HW118686   0.057   0.691   3.684  1.9404  0.2982 -1.1066
 2408SOL    HW218687   0.051   0.744   3.545 -2.9537 -1.3000 -0.4697
 2409SOL     OW18688   0.082   0.448  11.558  0.2399  0.1679  0.2001
 2409SOL    HW118689   0.148   0.489  11.502 -0.5067  0.4745 -0.4471
 2409SOL    HW218690   0.005   0.450  11.502  1.7061  1.4933 -1.7811
 2410SOL     OW18691   2.905   2.578  15.139  0.4605 -0.8005  0.3044
 2410SOL    HW118692   2.958   2.549  15.064  1.9874 -0.2621  1.1776
 2410SOL    HW218693   2.818   2.561  15.103  0.4801  0.8642 -0.5068
 2411SOL     OW18694   3.112   0.573  16.220 -0.5394  0.1122 -0.0718
 2411SOL    HW118695   3.140   0.491  16.180 -1.5910  0.0550 -0.7016
 2411SOL    HW218696   3.027   0.577  16.176 -0.8786 -0.7075  0.5117
 2412SOL     OW18697   3.012   3.364   8.582 -0.2160  0.0666 -0.3800
 2412SOL    HW118698   3.060   3.382   8.663 -1.6161  0.6404  0.3055
 2412SOL    HW218699   3.081   3.340   8.520 -1.6151 -2.3838 -0.9918
 2413SOL     OW18700   3.391   3.695  12.958 -0.0445  0.5804  0.2988
 2413SOL    HW118701   3.345   3.667  12.879 -0.4926 -2.2856  1.5740
 2413SOL    HW218702   3.442   3.764  12.915  1.5192  0.9102  2.7110
 2414SOL     OW18703   2.799   0.239  12.839  0.4296  0.6482  0.1471
 2414SOL    HW118704   2.800   0.232  12.935 -2.6055  0.8389  0.2187
 2414SOL    HW218705   2.841   0.323  12.822  0.6117 -0.0143 -2.6141
 2415SOL     OW18706   1.783   3.318   4.302 -0.0978 -0.2338  0.3587
 2415SOL    HW118707   1.802   3.390   4.363 -1.9203  1.9032 -1.5979
 2415SOL    HW218708   1.694   3.338   4.271 -0.0364  0.9941  0.9802
 2416SOL     OW18709   4.693   1.063  17.608  0.1523 -0.2787 -0.3967
 2416SOL    HW118710   4.626   1.048  17.675  2.1255  0.0681  1.6668
 2416SOL    HW218711   4.714   1.155  17.624 -4.0145  0.1412  2.6717
 2417SOL     OW18712   2.029   0.077   6.671  0.7167  0.2962 -0.0619
 2417SOL    HW118713   2.062   4.714   6.691 -0.7948 -0.1604  0.4127
 2417SOL    HW218714   2.048   0.111   6.758 -0.4226  3.1748 -0.9324
 2418SOL     OW18715   2.737   3.064   9.681  0.1806  0.1453  0.4597
 2418SOL    HW118716   2.702   3.108   9.758 -1.7634 -0.6762  0.0550
 2418SOL    HW218717   2.818   3.114   9.666  0.8403 -1.7462 -2.3860
 2419SOL     OW18718   2.230   1.650   4.132  0.6404 -0.2800 -0.3383
 2419SOL    HW118719   2.145   1.608   4.146  0.4109 -0.3361 -1.8410
 2419SOL    HW218720   2.292   1.577   4.124 -0.4949 -1.1723 -1.0865
 2420SOL     OW18721   1.441   1.060   6.580  0.5321  0.8084 -0.0764
 2420SOL    HW118722   1.527   1.057   6.539  0.1237  2.8115 -1.0836
 2420SOL    HW218723   1.450   1.125   6.650 -1.5881  1.1794 -0.1464
 2421SOL     OW18724   1.353   3.596   8.012 -0.0799  0.3055  0.3779
 2421SOL    HW118725   1.410   3.670   8.035 -1.5854  2.0230 -1.4428
 2421SOL    HW218726   1.370   3.538   8.087 -2.7122 -1.0018 -0.0554
 2422SOL     OW18727   2.041   0.524   6.242  0.1411 -0.0034  0.4368
 2422SOL    HW118728   2.084   0.515   6.326  1.3951  0.5947 -0.1537
 2422SOL    HW218729   2.113   0.533   6.180 -0.6703 -0.0905 -0.5184
 2423SOL     OW18730   1.643   3.749   3.007  0.5838 -0.0080 -0.6535
 2423SOL    HW118731   1.575   3.723   3.070 -0.0300  0.8268 -0.9670
 2423SOL    HW218732   1.675   3.834   3.039  2.7181 -0.5994 -1.2235
 2424SOL     OW18733   4.218   1.175   0.456 -0.0316 -0.3983  0.1937
 2424SOL    HW118734   4.146   1.192   0.396 -0.2483 -4.4841 -0.6943
 2424SOL    HW218735   4.221   1.256   0.507  1.8262  0.1638 -0.7964
 2425SOL     OW18736   3.905   4.267  15.499  0.0439  0.2654 -0.0602
 2425SOL    HW118737   3.965   4.320  15.550  1.1788 -2.2480  1.2322
 2425SOL    HW218738   3.825   4.319  15.498  0.2698  0.6071 -0.8156
 2426SOL     OW18739   0.531   3.824   8.607  0.0612  0.1654 -0.2384
 2426SOL    HW118740   0.491   3.798   8.690 -1.4197  1.1012 -0.6584
 2426SOL    HW218741   0.522   3.743   8.557  3.7212  1.1488 -2.5268
 2427SOL     OW18742   0.935   0.487  14.107 -0.0361  0.7133 -0.3532
 2427SOL    HW118743   0.969   0.421  14.168 -2.4117 -1.2275 -1.1445
 2427SOL    HW218744   0.965   0.457  14.021 -0.0853  2.1760 -0.8783
 2428SOL     OW18745   1.802   3.639   7.205  0.3148 -0.0358  0.4189
 2428SOL    HW118746   1.709   3.635   7.185  0.6078  2.0170 -1.3492
 2428SOL    HW218747   1.811   3.589   7.286 -1.2902  0.3161  0.8233
 2429SOL     OW18748   0.537   2.682  10.091  0.0409  0.3358 -0.5165
 2429SOL    HW118749   0.630   2.661  10.090 -0.1163 -0.3572 -0.9348
 2429SOL    HW218750   0.510   2.591  10.082  1.6242 -0.2784  1.1375
 2430SOL     OW18751   2.387   4.077   5.455 -0.3051 -0.1030  0.1980
 2430SOL    HW118752   2.424   4.097   5.540 -1.5111  0.5299  0.5850
 2430SOL    HW218753   2.299   4.053   5.485  0.9476 -1.2117  2.9109
 2431SOL     OW18754   2.071   1.077  11.078 -0.4143  0.2284 -0.0773
 2431SOL    HW118755   2.163   1.057  11.093 -0.3868  0.0441 -0.4902
 2431SOL    HW218756   2.021   1.040  11.151 -0.9103 -1.6003 -1.3547
 2432SOL     OW18757   0.239   0.652  11.884  0.1785 -0.0001  0.0834
 2432SOL    HW118758   0.160   0.613  11.848  0.1555  0.5256 -0.4341
 2432SOL    HW218759   0.204   0.723  11.937 -0.4684 -0.6765  0.5517
 2433SOL     OW18760   0.608   2.535  13.574  0.5817 -0.0038  0.4039
 2433SOL    HW118761   0.652   2.479  13.637 -1.7948 -1.1805  0.9916
 2433SOL    HW218762   0.520   2.526  13.609  0.4102 -2.9066 -0.7897
 2434SOL     OW18763   3.584   3.751   8.621  0.2024 -0.0011 -0.2003
 2434SOL    HW118764   3.535   3.814   8.568 -0.4924  0.3177  0.8205
 2434SOL    HW218765   3.591   3.810   8.697  2.2893 -0.7532  0.1979
 2435SOL     OW18766   0.516   4.111   7.072  0.1170 -0.6458  0.6624
 2435SOL    HW118767   0.559   4.030   7.098 -0.3207 -1.6939 -1.8989
 2435SOL    HW218768   0.538   4.103   6.979 -1.6700  0.3326  0.1590
 2436SOL     OW18769   2.890   2.249   1.458  0.2264 -0.1410 -0.2204
 2436SOL    HW118770   2.913   2.172   1.509 -0.5395 -0.9136 -1.0353
 2436SOL    HW218771   2.849   2.209   1.381 -0.3342  1.4309 -0.7456
 2437SOL     OW18772   2.540   4.130  16.407  0.3204 -0.6990 -0.0771
 2437SOL    HW118773   2.477   4.121  16.478  2.0497 -0.3826  1.4899
 2437SOL    HW218774   2.487   4.078  16.346  0.6714  1.8985 -2.5947
 2438SOL     OW18775   2.429   0.157   7.558 -0.4129 -0.5701 -0.7285
 2438SOL    HW118776   2.484   0.202   7.623  0.5954  1.8727 -3.2699
 2438SOL    HW218777   2.342   0.182   7.590  0.0284 -0.9301  0.7768
 2439SOL     OW18778   4.718   1.405  13.749  0.2206  0.3501  0.4201
 2439SOL    HW118779   4.642   1.460  13.734  0.2918  0.5071  0.6327
 2439SOL    HW218780   4.688   1.365  13.831  0.5969  1.9845  1.3591
 2440SOL     OW18781   1.264   4.591  11.965  0.0246 -0.3711 -0.2445
 2440SOL    HW118782   1.249   4.607  11.871  0.0798  0.4894 -0.1038
 2440SOL    HW218783   1.172   4.564  11.973 -0.2620  0.5004 -0.5507
 2441SOL     OW18784   0.651   0.456   0.773 -0.0450  0.7646 -0.0614
 2441SOL    HW118785   0.730   0.435   0.822  1.0498  1.6057 -1.5067
 2441SOL    HW218786   0.669   0.423   0.685  2.2633  1.1426  0.2865
 2442SOL     OW18787   3.900   2.703  10.072 -0.1062  0.1916 -0.3059
 2442SOL    HW118788   3.923   2.760   9.998 -0.5791 -0.8435 -1.2474
 2442SOL    HW218789   3.878   2.768  10.138 -0.8244 -0.5255  0.1589
 2443SOL     OW18790   3.972   0.366   6.374 -0.0958 -0.1003 -0.6193
 2443SOL    HW118791   4.027   0.442   6.391  0.0548 -0.8678  2.3174
 2443SOL    HW218792   3.995   0.347   6.283  0.5559 -3.2281  0.1943
 2444SOL     OW18793   2.677   2.073   5.971  0.3195  0.0444  0.2745
 2444SOL    HW118794   2.687   2.163   5.941 -0.4763 -0.0880 -0.3992
 2444SOL    HW218795   2.642   2.027   5.895  1.9246  2.7566 -2.0625
 2445SOL     OW18796   2.437   1.901  12.395  0.0199  0.1980 -0.8042
 2445SOL    HW118797   2.354   1.931  12.431  1.0378  0.2278  1.5256
 2445SOL    HW218798   2.495   1.961  12.442  0.6229 -0.4709 -0.6969
 2446SOL     OW18799   1.304   3.651   6.755 -0.1449 -0.2389  0.4127
 2446SOL    HW118800   1.392   3.689   6.758 -1.2695  2.4339 -0.2899
 2446SOL    HW218801   1.255   3.733   6.760 -0.7762 -0.5638 -0.5576
 2447SOL     OW18802   4.380   2.939   6.040 -0.5098  0.1684  0.5514
 2447SOL    HW118803   4.343   2.899   6.118 -2.1169  4.5007  2.0038
 2447SOL    HW218804   4.308   3.001   6.029 -0.9836 -0.2396  1.3710
 2448SOL     OW18805   0.957   0.110   0.955  0.0495 -0.7732 -0.4744
 2448SOL    HW118806   0.915   0.034   0.995  1.0210 -0.1275  1.7658
 2448SOL    HW218807   1.043   0.100   0.996  1.3114  1.2219 -2.6088
 2449SOL     OW18808   1.090   1.726   4.219 -0.4305  0.2483  0.1973
 2449SOL    HW118809   1.070   1.676   4.298 -1.7638 -0.4039 -0.5517
 2449SOL    HW218810   1.014   1.707   4.164 -2.7524 -0.7047  3.7482
 2450SOL     OW18811   2.084   4.339   2.201 -0.0603  0.2585 -0.1635
 2450SOL    HW118812   2.153   4.369   2.261 -0.9247  0.8665  0.5171
 2450SOL    HW218813   2.115   4.382   2.121 -1.9904  1.5454 -0.2145
 2451SOL     OW18814   2.307   2.148   7.602 -0.6418  0.0712 -0.4530
 2451SOL    HW118815   2.251   2.080   7.564 -0.1249 -0.3829 -0.4035
 2451SOL    HW218816   2.324   2.124   7.693  0.9959  4.0024  0.2336
 2452SOL     OW18817   2.883   2.149   4.607  0.2258 -0.7575  0.0683
 2452SOL    HW118818   2.794   2.122   4.626 -1.4896  4.5858 -0.2697
 2452SOL    HW218819   2.895   2.101   4.525 -1.0753 -0.8083 -0.0952
 2453SOL     OW18820   1.756   1.072   7.876 -0.2938  0.0426  0.4326
 2453SOL    HW118821   1.803   1.091   7.957  1.8122  0.7048 -0.9646
 2453SOL    HW218822   1.775   1.146   7.819 -1.9836  0.9054  0.9970
 2454SOL     OW18823   0.220   3.058  16.775 -0.0501  0.0775  0.6477
 2454SOL    HW118824   0.243   3.148  16.753 -0.2671 -0.7732 -3.0543
 2454SOL    HW218825   0.164   3.029  16.703 -0.6882  2.2549  0.2487
 2455SOL     OW18826   1.687   2.386   6.526 -0.2391 -0.0598  0.6604
 2455SOL    HW118827   1.619   2.330   6.564 -1.2518  1.8564  1.6766
 2455SOL    HW218828   1.717   2.438   6.601  1.2422 -0.1864  0.1521
 2456SOL     OW18829   2.649   0.624   4.408 -0.1378  0.1043  0.0607
 2456SOL    HW118830   2.672   0.632   4.315 -0.5415  1.6146  0.0892
 2456SOL    HW218831   2.727   0.589   4.450 -0.1520 -0.1328 -0.1100
 2457SOL     OW18832   3.606   3.620   8.326 -0.3361  0.5566  1.2788
 2457SOL    HW118833   3.608   3.534   8.367  0.3291  0.2189  0.5507
 2457SOL    HW218834   3.636   3.666   8.405  0.9335  3.1485 -0.6933
 2458SOL     OW18835   2.327   3.014   2.301 -0.3831  0.0454  0.0661
 2458SOL    HW118836   2.331   2.927   2.262 -1.7251  0.7636 -1.6632
 2458SOL    HW218837   2.328   2.996   2.395 -0.3742 -0.5031 -0.0383
 2459SOL     OW18838   1.627   1.067  12.633 -0.0895 -0.0823  0.0125
 2459SOL    HW118839   1.635   1.098  12.543  0.2378 -0.2152 -0.0016
 2459SOL    HW218840   1.542   1.104  12.659  0.1882 -1.0330  2.2661
 2460SOL     OW18841   1.694   4.603   4.340 -0.2240  0.2808 -0.0495
 2460SOL    HW118842   1.704   4.676   4.279  0.3323 -0.6606 -1.0848
 2460SOL    HW218843   1.719   4.642   4.424  0.3061 -0.5749  0.1860
 2461SOL     OW18844   1.935   0.794   3.671  0.0625  0.2747 -0.3459
 2461SOL    HW118845   1.924   0.803   3.765 -2.4908  2.5748 -0.8814
 2461SOL    HW218846   1.974   0.879   3.655  0.1243  0.5345  1.2256
 2462SOL     OW18847   4.511   1.866   4.154 -0.2388 -0.0789 -0.1786
 2462SOL    HW118848   4.443   1.931   4.171 -1.2898 -0.7349 -1.8723
 2462SOL    HW218849   4.572   1.886   4.226  0.9619 -1.5959 -0.7938
 2463SOL     OW18850   2.836   4.468  11.090  0.0934 -0.2881  0.2248
 2463SOL    HW118851   2.743   4.491  11.094 -0.0737 -1.1450  1.4852
 2463SOL    HW218852   2.819   4.380  11.125  0.9753 -0.8459 -0.7792
 2464SOL     OW18853   3.998   2.414   3.956  0.3767  0.1004 -0.2003
 2464SOL    HW118854   3.917   2.458   3.983  0.6583  0.6112 -0.1955
 2464SOL    HW218855   4.051   2.411   4.035 -2.0123  0.2679  1.4199
 2465SOL     OW18856   1.929   4.512   4.155 -0.2542 -0.0550 -0.0581
 2465SOL    HW118857   1.985   4.435   4.162 -0.3161 -0.0654  0.3177
 2465SOL    HW218858   1.856   4.485   4.212  0.7110  0.4410  1.4028
 2466SOL     OW18859   4.462   0.485   6.482  0.9387 -0.4425  0.4589
 2466SOL    HW118860   4.509   0.406   6.510 -0.3772 -1.9664 -1.5565
 2466SOL    HW218861   4.520   0.512   6.411 -0.8143 -0.4382 -0.9791
 2467SOL     OW18862   4.379   3.274  16.867  0.3523 -0.5269 -0.2541
 2467SOL    HW118863   4.315   3.333  16.828  1.2902  0.3474 -0.4750
 2467SOL    HW218864   4.388   3.322  16.950  2.5564  0.4458 -1.0329
 2468SOL     OW18865   2.158   1.279   5.104 -0.4902  0.0747 -0.6101
 2468SOL    HW118866   2.111   1.202   5.069 -0.6980 -0.7542  1.5277
 2468SOL    HW218867   2.195   1.259   5.189 -0.6390 -1.3273 -0.8709
 2469SOL     OW18868   2.208   2.262   6.916 -0.2681  0.2321  0.2706
 2469SOL    HW118869   2.244   2.189   6.967  1.7924 -0.3050 -1.9902
 2469SOL    HW218870   2.116   2.237   6.904  0.9086 -2.5976 -2.9751
 2470SOL     OW18871   0.608   1.454   3.463 -0.1180 -0.1636 -0.0612
 2470SOL    HW118872   0.635   1.545   3.450  0.6557 -0.5330 -0.9959
 2470SOL    HW218873   0.512   1.450   3.464 -0.1424  0.2442 -0.5928
 2471SOL     OW18874   0.469   0.705   3.900 -0.4726 -0.2065  0.1696
 2471SOL    HW118875   0.551   0.699   3.850 -0.8916 -0.4470 -0.4922
 2471SOL    HW218876   0.423   0.774   3.851  3.1003  1.4053 -0.8980
 2472SOL     OW18877   4.009   0.883   2.296 -0.0297  0.4856 -0.0962
 2472SOL    HW118878   4.078   0.823   2.324 -1.0035  0.2161  1.6923
 2472SOL    HW218879   4.051   0.966   2.321  1.4874 -0.5465  0.8065
 2473SOL     OW18880   3.253   1.086   6.840  0.3800  0.3350 -0.3354
 2473SOL    HW118881   3.319   1.079   6.909  0.0227  1.2671  0.1042
 2473SOL    HW218882   3.309   1.113   6.767  0.6189  0.8354  0.0308
 2474SOL     OW18883   4.522   3.945   0.614 -0.3055 -0.1192  0.5537
 2474SOL    HW118884   4.474   4.001   0.553 -0.4742  0.8214  1.5588
 2474SOL    HW218885   4.597   3.909   0.567  1.0161  1.9896  1.0400
 2475SOL     OW18886   3.756   4.489   9.125 -0.0870 -0.0211 -0.2217
 2475SOL    HW118887   3.746   4.414   9.183 -1.2731  0.8557  0.6982
 2475SOL    HW218888   3.708   4.562   9.163  0.4876 -0.0232  0.5020
 2476SOL     OW18889   3.982   1.363   6.012  0.0899 -0.5169 -0.5275
 2476SOL    HW118890   4.069   1.400   5.992 -0.5073  0.6299 -1.0207
 2476SOL    HW218891   4.000   1.309   6.088 -0.7137 -1.6846 -1.1688
 2477SOL     OW18892   0.815   3.606   5.165 -0.1781  0.3749 -0.5104
 2477SOL    HW118893   0.841   3.654   5.087  1.3068 -1.2984 -1.0636
 2477SOL    HW218894   0.743   3.654   5.205 -0.2134 -0.1576  0.0686
 2478SOL     OW18895   3.589   3.243   6.081 -0.8522 -0.3424 -0.2194
 2478SOL    HW118896   3.641   3.280   6.009  1.7099 -1.5917  0.9723
 2478SOL    HW218897   3.612   3.305   6.151  0.5738 -0.9809 -0.1199
 2479SOL     OW18898   3.927   2.832   8.362 -0.5929  0.0355  0.4236
 2479SOL    HW118899   3.899   2.778   8.436 -0.0791  0.3158  0.8190
 2479SOL    HW218900   3.984   2.896   8.405 -2.3435  2.0442 -0.2144
 2480SOL     OW18901   2.420   0.952  13.808 -0.8344 -0.4991  0.0456
 2480SOL    HW118902   2.501   0.959  13.858 -0.6413  1.3996 -0.5356
 2480SOL    HW218903   2.428   1.034  13.760 -0.0539 -1.3307 -1.2730
 2481SOL     OW18904   4.450   0.037   1.796 -0.0049  0.3003 -0.4441
 2481SOL    HW118905   4.382   4.703   1.761  0.4146 -0.5770  0.2126
 2481SOL    HW218906   4.479   0.072   1.712 -0.8834  0.0326 -0.8555
 2482SOL     OW18907   2.696   4.395   8.433  0.4118  0.1412  0.0230
 2482SOL    HW118908   2.730   4.340   8.363 -1.0485  0.0429 -0.6129
 2482SOL    HW218909   2.722   4.346   8.511 -2.3178 -0.4469  0.5611
 2483SOL     OW18910   3.774   4.324   0.001 -0.0251 -0.7516  0.1795
 2483SOL    HW118911   3.796   4.385   0.070  1.2106 -0.4102 -0.5189
 2483SOL    HW218912   3.743   4.373  17.622  0.8596 -0.2986  0.1111
 2484SOL     OW18913   3.319   1.996   3.343 -0.5838 -0.2479  0.2750
 2484SOL    HW118914   3.372   1.922   3.313 -0.5398 -0.1108  0.0051
 2484SOL    HW218915   3.233   1.965   3.316 -1.2671  3.0745 -1.3326
 2485SOL     OW18916   2.017   0.508   0.089 -0.1759  0.2080  0.0166
 2485SOL    HW118917   2.040   0.431   0.037 -0.3197  0.0518  0.1858
 2485SOL    HW218918   2.106   0.542   0.099 -0.3511  0.4354  0.8252
 2486SOL     OW18919   3.111   4.339   0.592  0.3358 -0.1494 -0.3978
 2486SOL    HW118920   3.164   4.260   0.605  0.9247  0.2732 -0.2485
 2486SOL    HW218921   3.030   4.293   0.569  0.7902 -1.4112  0.5471
 2487SOL     OW18922   1.247   3.672  12.350  0.4847  0.5861 -0.2531
 2487SOL    HW118923   1.202   3.588  12.342  0.9696  0.2023  1.0771
 2487SOL    HW218924   1.282   3.667  12.439 -1.3378  0.9865  0.5074
 2488SOL     OW18925   2.308   2.829   4.039 -0.1231 -0.5345 -0.7545
 2488SOL    HW118926   2.313   2.924   4.045 -1.9048 -0.6115  1.6864
 2488SOL    HW218927   2.327   2.817   3.946  0.3827  2.1225 -0.9900
 2489SOL     OW18928   2.205   1.046   0.638  0.7325  0.4107  0.3240
 2489SOL    HW118929   2.146   1.087   0.701 -1.0223 -2.1506  0.3519
 2489SOL    HW218930   2.240   1.123   0.594  0.2603  0.0498 -0.6742
 2490SOL     OW18931   0.870   3.947   5.680 -1.0922 -0.7643 -0.8644
 2490SOL    HW118932   0.876   4.014   5.748  0.3117 -1.4619 -0.2899
 2490SOL    HW218933   0.906   3.992   5.604 -0.0505 -0.6596 -0.3109
 2491SOL     OW18934   3.055   1.684  13.508  0.5603  0.2585  0.6087
 2491SOL    HW118935   3.119   1.754  13.492 -0.9872  1.6385  0.5225
 2491SOL    HW218936   3.052   1.643  13.421  1.0512  1.7168 -0.1048
 2492SOL     OW18937   1.229   3.481  13.275 -0.3329 -0.3671  0.1098
 2492SOL    HW118938   1.287   3.557  13.273  1.2538 -1.5704  0.5835
 2492SOL    HW218939   1.212   3.463  13.182 -0.0925 -3.7966  0.7168
 2493SOL     OW18940   3.322   1.026   5.477 -0.0461 -0.0915  0.6485
 2493SOL    HW118941   3.246   1.039   5.533 -2.4549  1.0649 -2.8734
 2493SOL    HW218942   3.308   0.934   5.453 -1.3461 -0.0018  1.1102
 2494SOL     OW18943   2.071   2.755   4.571  0.3665 -0.4741 -0.5248
 2494SOL    HW118944   2.003   2.690   4.552 -0.8378  1.3918 -2.5955
 2494SOL    HW218945   2.134   2.693   4.608  1.1093 -0.5614 -1.9568
 2495SOL     OW18946   4.401   1.826   6.273  0.4283  0.3476  0.0641
 2495SOL    HW118947   4.422   1.920   6.274 -1.5652  0.7658  2.2586
 2495SOL    HW218948   4.329   1.819   6.335 -1.1872 -0.3219 -1.9062
 2496SOL     OW18949   0.402   2.383   3.177  0.1975 -0.4187  0.2302
 2496SOL    HW118950   0.368   2.363   3.264 -4.3891 -2.1741 -1.9907
 2496SOL    HW218951   0.461   2.307   3.176 -1.6276 -1.8229  0.9774
 2497SOL     OW18952   2.622   2.639   9.979 -0.1599  0.0508  0.2762
 2497SOL    HW118953   2.676   2.563   9.959 -0.4303 -0.0767  0.0385
 2497SOL    HW218954   2.670   2.700   9.923 -0.9987  1.5413  1.1676
 2498SOL     OW18955   2.146   1.497   6.502  0.4862  0.3898 -0.0048
 2498SOL    HW118956   2.195   1.507   6.584  0.7059  0.6122 -0.1614
 2498SOL    HW218957   2.054   1.478   6.520  0.8600 -2.4475 -1.1047
 2499SOL     OW18958   0.544   1.770   6.079 -0.6506 -0.4219  0.2495
 2499SOL    HW118959   0.558   1.758   6.173  0.8727  1.4877  0.2535
 2499SOL    HW218960   0.456   1.808   6.078  0.2022  1.4654 -2.0411
 2500SOL     OW18961   1.065   2.116  16.670 -0.7755 -0.1136  0.1330
 2500SOL    HW118962   0.996   2.067  16.625 -0.1476 -1.2541  0.4202
 2500SOL    HW218963   1.146   2.075  16.640 -1.9351 -1.2373 -1.4837
 2501SOL     OW18964   2.591   3.759   6.687  0.4417  0.2115  0.3739
 2501SOL    HW118965   2.646   3.818   6.737  2.3990 -2.3715  1.2495
 2501SOL    HW218966   2.550   3.716   6.761 -0.3519 -3.2034 -2.0417
 2502SOL     OW18967   1.689   4.678   9.178  0.4937  0.3036 -0.2350
 2502SOL    HW118968   1.706   4.589   9.148  1.4623  0.3604  0.1585
 2502SOL    HW218969   1.700   4.675   9.273  0.5890  0.8412 -0.2313
 2503SOL     OW18970   3.488   0.709   8.605 -0.2720  0.0386 -0.1368
 2503SOL    HW118971   3.465   0.728   8.514 -0.8488 -1.7349 -0.3641
 2503SOL    HW218972   3.521   0.792   8.637 -1.5934  0.7024 -0.4703
 2504SOL     OW18973   3.402   0.132  15.951 -0.4484 -0.1619  0.0550
 2504SOL    HW118974   3.328   0.182  15.916 -1.0422 -0.5537  0.7426
 2504SOL    HW218975   3.470   0.192  15.921 -0.0250 -0.9372 -0.5057
 2505SOL     OW18976   2.218   2.272   7.285  0.0021  0.1095 -0.0458
 2505SOL    HW118977   2.128   2.303   7.286 -0.2977 -0.7576 -0.8398
 2505SOL    HW218978   2.200   2.181   7.265  3.3674  0.1665 -3.3099
 2506SOL     OW18979   1.985   1.735   8.609 -0.8523  0.2078  0.1756
 2506SOL    HW118980   1.934   1.663   8.647  0.7979 -0.8665  0.3794
 2506SOL    HW218981   1.911   1.795   8.613  0.0284  1.2346  0.9224
 2507SOL     OW18982   1.151   2.028  12.526 -0.3711  0.0895 -0.1578
 2507SOL    HW118983   1.059   2.019  12.504  0.6778 -0.8710 -4.2864
 2507SOL    HW218984   1.192   1.952  12.484 -2.2166 -0.8133 -0.2902
 2508SOL     OW18985   1.151   4.105   3.574 -0.3886  0.3039 -0.0564
 2508SOL    HW118986   1.194   4.025   3.605  0.0786  0.4930 -0.2153
 2508SOL    HW218987   1.116   4.077   3.489 -2.0543 -1.4248  1.2009
 2509SOL     OW18988   3.883   4.581   4.875 -0.0233 -0.2081 -0.1960
 2509SOL    HW118989   3.826   4.546   4.806 -1.6699  0.5509  0.7948
 2509SOL    HW218990   3.829   4.651   4.911 -1.0333  0.0942 -2.3112
 2510SOL     OW18991   4.648   1.868   8.652 -0.0388 -0.8585 -0.2155
 2510SOL    HW118992   4.662   1.875   8.746  0.0577  1.4572 -0.4004
 2510SOL    HW218993   0.014   1.892   8.626 -0.3304 -1.4449 -1.8073
 2511SOL     OW18994   0.260   1.448  12.370  0.3973 -0.3161 -0.9202
 2511SOL    HW118995   0.220   1.390  12.304 -0.1560 -0.6084 -0.3252
 2511SOL    HW218996   0.183   1.491  12.407  0.9704  1.1917 -1.5039
 2512SOL     OW18997   4.145   4.391   7.432  0.5238 -0.0924  0.0281
 2512SOL    HW118998   4.088   4.382   7.509 -0.1070 -1.9169 -0.6529
 2512SOL    HW218999   4.232   4.399   7.471  1.5973 -2.0011 -2.0134
 2513SOL     OW19000   0.281   1.301   6.369 -0.9269 -0.6793  0.0996
 2513SOL    HW119001   0.222   1.226   6.376 -1.1081 -0.5214  0.2487
 2513SOL    HW219002   0.281   1.328   6.461 -0.7311 -1.4068  0.3170
 2514SOL     OW19003   2.302   4.005  10.393  0.7974  0.2429  0.8450
 2514SOL    HW119004   2.383   3.984  10.347  1.3791  0.4836  1.7475
 2514SOL    HW219005   2.321   4.095  10.421  1.0458  0.8822 -1.4286
 2515SOL     OW19006   3.369   1.741   8.572 -0.3377 -0.1273  0.6364
 2515SOL    HW119007   3.351   1.669   8.632  0.5730 -1.7355 -1.0134
 2515SOL    HW219008   3.419   1.694   8.505  1.5251 -0.2738  2.0981
 2516SOL     OW19009   3.413   2.692   7.073  0.1565 -0.3670 -0.2124
 2516SOL    HW119010   3.460   2.643   7.006  1.3997  0.1145  0.3231
 2516SOL    HW219011   3.483   2.728   7.127  0.0856 -1.6115  0.7147
 2517SOL     OW19012   4.484   1.051   7.934  0.2368 -0.3967  0.0308
 2517SOL    HW119013   4.426   1.041   8.010 -1.9898 -3.6336 -2.1245
 2517SOL    HW219014   4.485   0.964   7.895  0.9623  0.3361 -1.5631
 2518SOL     OW19015   3.491   0.831   6.802  0.4844 -0.4409  0.0863
 2518SOL    HW119016   3.528   0.912   6.766 -0.7054 -0.0220 -0.1853
 2518SOL    HW219017   3.463   0.853   6.891 -0.4412 -1.6913  0.0947
 2519SOL     OW19018   2.017   4.255   1.232 -0.3580 -0.1452 -0.3655
 2519SOL    HW119019   2.090   4.224   1.179 -0.3635 -2.0914  0.7573
 2519SOL    HW219020   1.984   4.321   1.171  1.0044  0.2391 -0.6759
 2520SOL     OW19021   2.905   4.125   4.643 -0.2103 -0.1266 -0.1278
 2520SOL    HW119022   2.870   4.163   4.724  0.3512  1.5653 -0.6738
 2520SOL    HW219023   2.838   4.061   4.620  0.7840 -0.2688 -2.6252
 2521SOL     OW19024   3.162   1.574   7.407 -0.1867 -0.0121 -0.0452
 2521SOL    HW119025   3.136   1.650   7.356 -1.5484  0.0150  0.6900
 2521SOL    HW219026   3.076   1.560   7.445 -0.1867 -1.0476 -0.4182
 2522SOL     OW19027   1.733   0.664   4.596 -0.4830  0.1994  0.2281
 2522SOL    HW119028   1.688   0.696   4.518 -1.7682  1.3385  1.4291
 2522SOL    HW219029   1.723   0.744   4.648  3.5215  1.1189 -0.4100
 2523SOL     OW19030   2.374   2.591   1.309  0.2505 -0.2727  0.2194
 2523SOL    HW119031   2.465   2.573   1.330  0.1299 -0.4186  0.6207
 2523SOL    HW219032   2.375   2.679   1.346  1.6559 -0.4038  0.4627
 2524SOL     OW19033   0.068   4.067   5.283  0.2858 -0.3413  0.1980
 2524SOL    HW119034   0.016   4.034   5.357  0.7118 -1.3739  0.0417
 2524SOL    HW219035   0.145   4.104   5.326 -1.2026  1.6712  1.1283
 2525SOL     OW19036   2.107   0.348   7.372 -0.4153  0.3916 -0.2771
 2525SOL    HW119037   2.047   0.276   7.395 -1.5901  2.6940  3.8246
 2525SOL    HW219038   2.076   0.404   7.443  0.0265 -2.7545  2.3735
 2526SOL     OW19039   4.441   3.582   1.328  0.0554  0.2530  0.1455
 2526SOL    HW119040   4.408   3.656   1.277  1.6169 -0.0169 -1.2730
 2526SOL    HW219041   4.433   3.615   1.417 -0.6798 -2.6788  1.1504
 2527SOL     OW19042   4.206   4.055   9.976  0.0571  0.1300 -0.2134
 2527SOL    HW119043   4.280   3.998   9.954  2.2717  2.0098  2.4724
 2527SOL    HW219044   4.217   4.085  10.066 -1.2692  0.3752 -0.1311
 2528SOL     OW19045   4.481   3.524   4.106 -0.1820  0.2818 -0.2020
 2528SOL    HW119046   4.456   3.585   4.176  0.7711  1.3553 -0.8005
 2528SOL    HW219047   4.441   3.566   4.029  1.9985  0.2134 -1.3873
 2529SOL     OW19048   2.925   4.434  12.888  0.1848 -0.5464 -0.6485
 2529SOL    HW119049   2.971   4.362  12.932  0.8273  0.2124 -0.0924
 2529SOL    HW219050   3.003   4.471  12.846 -1.1046  1.0833 -1.5824
 2530SOL     OW19051   4.543   0.422   7.070 -0.4182  0.2247 -0.0341
 2530SOL    HW119052   4.499   0.390   6.992  1.2456 -2.3318  0.0943
 2530SOL    HW219053   4.528   0.354   7.136 -2.7084  0.9857  0.2192
 2531SOL     OW19054   1.777   1.632   6.121 -0.0800  0.2693 -0.4108
 2531SOL    HW119055   1.829   1.658   6.045  1.9612 -2.3969  0.0702
 2531SOL    HW219056   1.688   1.632   6.087 -0.3940 -1.6709  0.4092
 2532SOL     OW19057   2.402   2.469   0.023 -0.1971 -0.1629  0.8632
 2532SOL    HW119058   2.487   2.499   0.054  0.7547  0.1428 -2.0143
 2532SOL    HW219059   2.375   2.520  17.644  1.9259  0.1824  0.3413
 2533SOL     OW19060   3.952   3.617   7.079 -0.7001 -0.0540 -0.2009
 2533SOL    HW119061   3.863   3.582   7.075 -1.2905  1.1951  1.6277
 2533SOL    HW219062   3.955   3.664   6.996  1.8314 -0.4276 -0.3100
 2534SOL     OW19063   1.504   2.480   3.713 -0.4975  0.4452 -0.0961
 2534SOL    HW119064   1.467   2.488   3.625 -1.3849 -0.0525  0.2345
 2534SOL    HW219065   1.473   2.394   3.741  1.4398 -0.2453 -0.0972
 2535SOL     OW19066   1.108   0.800   3.735  0.3568  0.0052  0.1327
 2535SOL    HW119067   1.021   0.828   3.761  0.6430  1.6284 -0.6652
 2535SOL    HW219068   1.130   0.866   3.669  1.0648 -1.3824 -1.0272
 2536SOL     OW19069   4.050   3.544   3.206 -0.3782 -0.1912 -0.0644
 2536SOL    HW119070   3.976   3.548   3.266  0.8731 -2.6176  1.6363
 2536SOL    HW219071   4.045   3.630   3.165  0.4415 -1.2103 -2.3190
 2537SOL     OW19072   1.171   2.373   4.880  0.2585 -0.1814 -0.0325
 2537SOL    HW119073   1.125   2.449   4.845 -2.3947 -1.1071  1.4730
 2537SOL    HW219074   1.138   2.360   4.969 -0.6624  0.1419 -0.3259
 2538SOL     OW19075   2.291   4.259   4.302 -0.0952  0.2255  0.2220
 2538SOL    HW119076   2.245   4.194   4.355 -1.0994 -0.4231 -1.4154
 2538SOL    HW219077   2.314   4.217   4.219  0.0777 -0.6564  0.7266
 2539SOL     OW19078   1.462   2.007   4.081  0.9708  0.1017  0.0881
 2539SOL    HW119079   1.467   2.008   4.176 -1.3783 -1.0185  0.2230
 2539SOL    HW219080   1.522   2.073   4.045  0.6522  0.8002  0.8319
 2540SOL     OW19081   2.207   0.481   8.115 -0.0107  0.4678 -0.7085
 2540SOL    HW119082   2.299   0.475   8.089  0.3076 -1.6627  0.9788
 2540SOL    HW219083   2.171   0.394   8.096 -1.0064  0.6026  0.6094
 2541SOL     OW19084   1.394   2.094   3.318 -0.8325  0.1108  0.4781
 2541SOL    HW119085   1.310   2.048   3.324 -1.9002  2.0152 -0.0412
 2541SOL    HW219086   1.445   2.054   3.389  0.8696  2.1064  0.3711
 2542SOL     OW19087   1.357   3.786  10.352 -0.2616  0.0969 -0.1947
 2542SOL    HW119088   1.270   3.751  10.332 -0.0220 -1.3039  1.1914
 2542SOL    HW219089   1.407   3.704  10.357 -0.1376  0.2401  0.8315
 2543SOL     OW19090   1.611   3.300   7.415  0.2868 -0.5186 -0.0445
 2543SOL    HW119091   1.551   3.316   7.487 -1.2184 -1.2998 -1.1306
 2543SOL    HW219092   1.691   3.332   7.456  2.9348 -1.7670 -4.1839
 2544SOL     OW19093   0.203   2.805   5.628 -0.0345 -0.2507  0.4478
 2544SOL    HW119094   0.202   2.813   5.533 -1.4504 -0.3899  0.4432
 2544SOL    HW219095   0.110   2.795   5.650  0.1801 -1.4299  0.8151
 2545SOL     OW19096   3.479   1.477   8.874 -1.0800  0.0959 -0.6761
 2545SOL    HW119097   3.476   1.382   8.873 -0.6737  0.0654  1.2859
 2545SOL    HW219098   3.506   1.507   8.787 -0.3621  0.3949 -0.3498
 2546SOL     OW19099   1.733   1.274  13.474 -0.0301  0.3231 -0.2005
 2546SOL    HW119100   1.736   1.212  13.547 -1.8645  0.0869 -0.3155
 2546SOL    HW219101   1.761   1.350  13.524  0.9932 -1.6888  2.2783
 2547SOL     OW19102   0.237   4.556   4.049 -0.1314 -0.5407 -0.2967
 2547SOL    HW119103   0.285   4.488   4.001  0.7417  0.6595 -1.1586
 2547SOL    HW219104   0.187   4.498   4.106  1.4727 -1.1640  0.4839
 2548SOL     OW19105   2.109   3.799  10.332 -0.7147 -0.1934  0.2383
 2548SOL    HW119106   2.080   3.716  10.294  1.7525 -2.1142  2.5081
 2548SOL    HW219107   2.204   3.784  10.336 -0.8948 -0.5210  2.8408
 2549SOL     OW19108   3.091   3.967  10.373  0.0412 -0.4066 -0.0891
 2549SOL    HW119109   3.019   3.930  10.323  0.9597 -1.5530 -0.5599
 2549SOL    HW219110   3.043   4.013  10.442 -0.5649 -0.5061 -0.4509
 2550SOL     OW19111   4.228   3.442   5.442  0.0093 -0.0399  0.3613
 2550SOL    HW119112   4.177   3.446   5.361  0.4842  0.3723  0.0822
 2550SOL    HW219113   4.168   3.483   5.505 -0.7786 -0.6198 -0.0174
 2551SOL     OW19114   1.369   0.148   8.304 -0.1053  0.0712 -0.0968
 2551SOL    HW119115   1.286   0.107   8.330 -0.7320  2.2983  1.4083
 2551SOL    HW219116   1.424   0.071   8.290 -0.5857 -0.7575  2.4856
 2552SOL     OW19117   3.998   0.504   3.461 -0.2739  0.0271 -0.2812
 2552SOL    HW119118   3.960   0.571   3.404 -0.9664 -0.7353 -0.7309
 2552SOL    HW219119   4.089   0.530   3.456 -0.6015  1.5584  2.1716
 2553SOL     OW19120   1.541   3.981  16.168  0.5298 -0.4323  0.2269
 2553SOL    HW119121   1.608   4.045  16.194 -0.6256 -0.2523  2.7995
 2553SOL    HW219122   1.522   4.010  16.079  1.1806  1.7074  0.7719
 2554SOL     OW19123   4.095   0.071   0.365  0.3191 -0.1567  0.1493
 2554SOL    HW119124   4.066   0.004   0.426 -3.1257 -0.7134 -2.1364
 2554SOL    HW219125   4.066   0.153   0.406  1.2776 -0.8929  2.3133
 2555SOL     OW19126   3.950   2.650   4.287 -0.2514 -0.2629 -0.1577
 2555SOL    HW119127   3.997   2.583   4.336  0.0635 -1.2526 -1.8460
 2555SOL    HW219128   4.023   2.712   4.277 -0.4954 -0.2826 -2.0136
 2556SOL     OW19129   0.465   1.309  15.220  0.2096 -0.1654  0.3166
 2556SOL    HW119130   0.409   1.233  15.206 -0.7787  0.4266  1.1500
 2556SOL    HW219131   0.492   1.322  15.129  1.8857 -0.2684  0.7952
 2557SOL     OW19132   1.589   3.627   3.513  0.3079  0.1370 -0.4328
 2557SOL    HW119133   1.549   3.636   3.600 -1.1345 -2.0405 -0.8554
 2557SOL    HW219134   1.679   3.606   3.536 -0.1621 -1.4441  0.0036
 2558SOL     OW19135   3.808   4.567   2.307  0.1673 -0.5967 -0.4912
 2558SOL    HW119136   3.811   4.651   2.352  0.8694 -0.5416 -0.6420
 2558SOL    HW219137   3.870   4.587   2.236 -2.2549  0.5545 -2.2850
 2559SOL     OW19138   1.678   3.352   1.626  0.0515  0.2589 -0.1830
 2559SOL    HW119139   1.682   3.388   1.538 -0.9278 -0.0439 -0.3433
 2559SOL    HW219140   1.583   3.357   1.629  0.0024 -0.6858 -0.0648
 2560SOL     OW19141   4.223   1.064   6.075 -0.0868 -0.2989  0.2672
 2560SOL    HW119142   4.300   1.042   6.127  0.7918 -0.8987 -1.2843
 2560SOL    HW219143   4.259   1.130   6.016  1.9497  0.9018  2.8744
 2561SOL     OW19144   1.971   2.360   7.272  0.4180 -0.1449 -0.6779
 2561SOL    HW119145   1.947   2.371   7.180  1.2040  2.4982 -0.5530
 2561SOL    HW219146   1.883   2.345   7.307  0.7667 -0.3973  0.1050
 2562SOL     OW19147   1.556   0.866   8.020 -0.1536  0.1428  0.1449
 2562SOL    HW119148   1.532   0.823   8.102  2.3723  1.1788  1.4131
 2562SOL    HW219149   1.531   0.958   8.034 -0.4133  0.3291 -1.5045
 2563SOL     OW19150   0.776   0.101  13.344 -0.2911  0.4848 -0.2527
 2563SOL    HW119151   0.742   0.175  13.295 -0.3046 -0.3031 -1.4506
 2563SOL    HW219152   0.729   0.034  13.294 -1.3120  0.1497  1.1677
 2564SOL     OW19153   3.243   1.322   5.315 -0.2813 -0.1932  0.0862
 2564SOL    HW119154   3.267   1.230   5.310  0.1523 -0.1333  1.0571
 2564SOL    HW219155   3.166   1.321   5.258 -0.7604  0.1926  0.7344
 2565SOL     OW19156   1.574   3.524   5.611 -0.2536 -0.0554 -0.6798
 2565SOL    HW119157   1.507   3.504   5.675 -0.5467  1.2127 -0.5891
 2565SOL    HW219158   1.513   3.577   5.559 -0.1444  1.3719  0.6211
 2566SOL     OW19159   4.716   3.790   0.021 -0.4719  0.1509 -0.2693
 2566SOL    HW119160   4.704   3.755   0.109 -0.0703 -2.9020 -1.4238
 2566SOL    HW219161   4.669   3.874   0.024 -0.8645 -0.0542 -0.6258
 2567SOL     OW19162   2.364   2.220  12.952  0.2324  0.1779  0.2062
 2567SOL    HW119163   2.424   2.146  12.951 -0.3481 -0.2981  1.7422
 2567SOL    HW219164   2.312   2.182  13.023  1.0462  1.0504  1.2682
 2568SOL     OW19165   2.909   0.384   6.899 -0.1028  0.2337 -0.2757
 2568SOL    HW119166   2.994   0.381   6.855  0.3215  0.4632  0.5314
 2568SOL    HW219167   2.900   0.478   6.914 -0.8115  0.7143 -3.5761
 2569SOL     OW19168   0.458   1.937  12.088 -0.0657  1.2010 -0.7845
 2569SOL    HW119169   0.396   1.900  12.150  0.3811  1.6836 -0.0556
 2569SOL    HW219170   0.498   1.854  12.061 -0.7148  1.3051 -2.0551
 2570SOL     OW19171   3.055   0.243  11.255  0.4790  0.3256 -0.1242
 2570SOL    HW119172   3.097   0.170  11.211  1.1354 -0.0943  1.2002
 2570SOL    HW219173   3.028   0.199  11.336 -1.6105  0.3729 -0.7866
 2571SOL     OW19174   3.494   1.671  11.664  0.0121 -0.0497 -0.3391
 2571SOL    HW119175   3.580   1.710  11.680  0.1098 -0.1853 -0.5443
 2571SOL    HW219176   3.459   1.738  11.605 -0.0462 -0.4114 -0.7089
 2572SOL     OW19177   1.832   3.571   6.046 -0.1060  0.1501  0.2043
 2572SOL    HW119178   1.803   3.652   6.087  0.9393  0.6364 -0.0351
 2572SOL    HW219179   1.880   3.596   5.967 -1.9372  1.8750 -0.3889
 2573SOL     OW19180   3.089   1.574  14.957  0.1967  0.2046 -0.3269
 2573SOL    HW119181   3.077   1.480  14.944  2.1944 -0.2137  0.7739
 2573SOL    HW219182   3.181   1.582  14.932  0.3684 -0.4281  0.0903
 2574SOL     OW19183   3.858   1.661   7.822 -0.1029 -0.3681 -0.2470
 2574SOL    HW119184   3.773   1.650   7.865 -0.3646 -0.9643 -0.9173
 2574SOL    HW219185   3.927   1.622   7.876 -0.6784  0.5356  1.1375
 2575SOL     OW19186   1.693   2.634   7.202  0.3157 -0.6686 -0.0926
 2575SOL    HW119187   1.650   2.563   7.249 -2.3806  0.9202 -0.1418
 2575SOL    HW219188   1.740   2.680   7.271 -0.4433  0.3534 -0.2537
 2576SOL     OW19189   1.279   1.877   5.755 -0.7092 -0.3324  0.1370
 2576SOL    HW119190   1.203   1.865   5.811  0.3524 -0.8335  1.4581
 2576SOL    HW219191   1.360   1.853   5.799 -0.2916 -0.7578 -0.8561
 2577SOL     OW19192   1.008   1.542   7.982 -0.4267  0.3430 -0.0037
 2577SOL    HW119193   1.043   1.625   7.951 -0.3195  0.0124 -0.7649
 2577SOL    HW219194   1.080   1.496   8.027  1.6721  2.0832 -1.6281
 2578SOL     OW19195   1.971   3.055   8.252  0.1308 -0.3624 -0.1043
 2578SOL    HW119196   2.040   3.121   8.249 -1.2321  1.0141 -1.0848
 2578SOL    HW219197   1.929   3.071   8.337  0.7704 -3.7761  0.8822
 2579SOL     OW19198   0.069   4.689   1.655 -0.0874 -0.3755 -0.4784
 2579SOL    HW119199   0.057   4.595   1.674 -0.7869 -0.2637 -0.3744
 2579SOL    HW219200   4.702   4.719   1.654  0.3411  0.8981 -0.5981
 2580SOL     OW19201   3.446   2.578   2.190  0.7199 -0.2133 -0.1989
 2580SOL    HW119202   3.541   2.566   2.192  0.7760 -0.1854 -2.8566
 2580SOL    HW219203   3.432   2.544   2.102 -0.5596 -2.1175  0.7432
 2581SOL     OW19204   1.968   4.522  14.763  0.8227 -0.4974 -0.0209
 2581SOL    HW119205   2.011   4.463  14.701  0.7902 -1.7884  1.1939
 2581SOL    HW219206   2.051   4.552  14.800 -0.2515  1.6880  0.6680
 2582SOL     OW19207   2.158   4.353   8.400 -0.0258  0.3376  0.4354
 2582SOL    HW119208   2.111   4.389   8.475 -0.6337  0.9813 -0.2484
 2582SOL    HW219209   2.249   4.371   8.425 -0.1050  0.1708  0.8376
 2583SOL     OW19210   2.623   0.420   8.725 -0.2454 -0.0124 -0.2638
 2583SOL    HW119211   2.606   0.514   8.717 -1.3193 -0.3447 -1.8196
 2583SOL    HW219212   2.713   0.410   8.756 -0.8597 -0.8560  1.2581
 2584SOL     OW19213   0.901   3.783   4.975  0.0051  0.1596 -0.0832
 2584SOL    HW119214   0.896   3.876   4.996  1.0610 -0.7177  4.0240
 2584SOL    HW219215   0.841   3.767   4.902  0.7491  2.1611 -1.1111
 2585SOL     OW19216   4.195   1.323   7.311  0.0135 -0.4473  0.1018
 2585SOL    HW119217   4.215   1.253   7.250 -0.4013  0.8476 -1.5204
 2585SOL    HW219218   4.102   1.306   7.330 -1.0049  2.2773 -2.2838
 2586SOL     OW19219   3.887   4.205   5.649 -0.8081  0.4354 -0.2881
 2586SOL    HW119220   3.920   4.251   5.726  1.5659 -0.4563 -0.7895
 2586SOL    HW219221   3.849   4.130   5.695 -0.1747  0.9329  1.0592
 2587SOL     OW19222   3.494   3.226   2.731  0.4218  0.3534 -0.0634
 2587SOL    HW119223   3.555   3.294   2.703 -0.7623  0.8023 -1.5342
 2587SOL    HW219224   3.491   3.243   2.825 -2.1505  1.0158 -0.2594
 2588SOL     OW19225   3.675   3.279   4.077 -0.5833 -0.2335 -0.0713
 2588SOL    HW119226   3.685   3.221   4.152 -0.4557 -0.6343 -0.3938
 2588SOL    HW219227   3.633   3.219   4.015  1.2546 -0.3947 -1.1737
 2589SOL     OW19228   3.498   0.029   5.266 -0.0603  0.0131 -0.7169
 2589SOL    HW119229   3.554   0.104   5.284  0.1109 -0.2564 -0.1332
 2589SOL    HW219230   3.556   4.677   5.265  0.9359  0.7828 -2.1874
 2590SOL     OW19231   1.733   0.544   0.009  0.1267 -0.4932 -0.6725
 2590SOL    HW119232   1.827   0.533   0.024  0.2716  0.2202 -1.1036
 2590SOL    HW219233   1.694   0.460  17.682  1.5852 -1.2799 -0.2994
 2591SOL     OW19234   1.663   1.381   3.936  0.2217 -0.0755  1.0873
 2591SOL    HW119235   1.606   1.312   3.969 -0.8523 -0.1531 -0.9277
 2591SOL    HW219236   1.739   1.370   3.992  0.4465  1.4372  1.0780
 2592SOL     OW19237   4.343   1.122  15.473  0.1379 -0.5770 -0.2650
 2592SOL    HW119238   4.377   1.178  15.404  2.2753 -2.0181 -0.3870
 2592SOL    HW219239   4.426   1.091  15.510  0.6057  0.0536 -0.7814
 2593SOL     OW19240   4.617   3.815  13.936 -0.1302 -0.2085  0.1977
 2593SOL    HW119241   4.654   3.897  13.904  2.2905 -1.3574  0.0419
 2593SOL    HW219242   4.586   3.771  13.858 -0.2370 -1.2274  0.8179
 2594SOL     OW19243   1.272   2.453   9.567 -0.2378 -0.1992  0.0759
 2594SOL    HW119244   1.296   2.544   9.550 -0.5801 -0.3424 -1.2263
 2594SOL    HW219245   1.356   2.409   9.574  0.1440  0.1985 -2.0905
 2595SOL     OW19246   2.708   2.509   6.230 -0.0873 -0.0470  0.0021
 2595SOL    HW119247   2.692   2.594   6.189 -1.6481 -0.2524  0.1863
 2595SOL    HW219248   2.630   2.455   6.221 -0.4234  0.5941 -0.9156
 2596SOL     OW19249   1.961   1.521  13.769 -0.1817 -0.4213  0.1699
 2596SOL    HW119250   2.023   1.570  13.824 -0.0537 -1.9399  1.3856
 2596SOL    HW219251   2.028   1.473  13.719 -0.4831  0.0246 -0.6523
 2597SOL     OW19252   1.216   0.111   5.272 -0.5564 -0.0558  0.1890
 2597SOL    HW119253   1.127   0.101   5.239 -0.8221  1.3746  0.4652
 2597SOL    HW219254   1.239   0.018   5.275  0.1300  0.1417  1.2390
 2598SOL     OW19255   2.951   1.593  12.722 -0.3209  0.2252  0.0666
 2598SOL    HW119256   2.858   1.573  12.721  0.5939 -3.9976  0.9050
 2598SOL    HW219257   2.950   1.673  12.669 -1.9678 -0.4741 -0.9699
 2599SOL     OW19258   3.750   1.859   4.104  0.5918  0.0957  0.3238
 2599SOL    HW119259   3.792   1.939   4.071 -2.0248  1.3343  0.0070
 2599SOL    HW219260   3.790   1.798   4.042  0.1623 -0.9990  1.1353
 2600SOL     OW19261   0.122   4.588  17.346  0.6722 -0.7165  0.5762
 2600SOL    HW119262   0.177   4.646  17.294 -0.0142  0.0125  0.6617
 2600SOL    HW219263   0.051   4.567  17.285 -2.2976 -1.7162  4.2960
 2601SOL     OW19264   3.742   4.325   6.874  0.5769  0.4657  0.0034
 2601SOL    HW119265   3.717   4.263   6.806  1.0308  0.2281  0.0499
 2601SOL    HW219266   3.664   4.330   6.928 -1.1535 -0.6325 -2.4299
 2602SOL     OW19267   4.479   0.804   1.203  0.2951 -0.5025  0.0697
 2602SOL    HW119268   4.554   0.749   1.181 -0.7423 -1.1017 -1.9343
 2602SOL    HW219269   4.466   0.839   1.115 -0.0786 -1.1522 -0.1341
 2603SOL     OW19270   1.485   0.813  16.144  0.3278  0.1534  0.1416
 2603SOL    HW119271   1.526   0.876  16.085 -0.2169 -0.1508 -0.5495
 2603SOL    HW219272   1.457   0.871  16.214  1.1091  1.1941 -0.4154
 2604SOL     OW19273   2.189   0.518   3.350 -0.3811 -0.2109 -0.3045
 2604SOL    HW119274   2.279   0.496   3.323 -0.8989 -2.9717  0.2710
 2604SOL    HW219275   2.137   0.438   3.342 -0.2496 -0.1885 -1.4003
 2605SOL     OW19276   3.806   2.912   4.918  0.0479 -0.5695 -0.1851
 2605SOL    HW119277   3.873   2.947   4.977 -0.7829  2.8684 -1.3131
 2605SOL    HW219278   3.821   2.974   4.847  2.3712 -0.0313  0.7752
 2606SOL     OW19279   0.786   2.112   0.114  0.0749 -0.4772 -0.2239
 2606SOL    HW119280   0.702   2.122   0.070 -0.5751 -1.7407  0.7353
 2606SOL    HW219281   0.849   2.098   0.043  1.3719  0.5877  0.7016
 2607SOL     OW19282   0.677   3.926   7.681 -0.5863  0.2166 -0.5548
 2607SOL    HW119283   0.736   3.999   7.664 -1.9851  1.5722  0.4646
 2607SOL    HW219284   0.605   3.957   7.736  0.1577 -0.6936  0.9281
 2608SOL     OW19285   0.802   2.111   0.518 -0.3787  0.4419  0.4922
 2608SOL    HW119286   0.855   2.177   0.561  1.2533  0.1116 -1.0096
 2608SOL    HW219287   0.813   2.034   0.572 -0.3832  0.9710  1.2465
 2609SOL     OW19288   3.742   0.337   2.324 -0.4022  0.4259 -0.1593
 2609SOL    HW119289   3.770   0.427   2.341  0.5652 -0.0911  0.9752
 2609SOL    HW219290   3.665   0.352   2.269 -2.1779 -1.0415  1.8787
 2610SOL     OW19291   1.049   1.660  11.533  0.0571  0.1823 -0.3224
 2610SOL    HW119292   1.145   1.666  11.539 -0.1925  1.7128  2.0324
 2610SOL    HW219293   1.043   1.570  11.566 -0.8870  0.2857 -0.2247
 2611SOL     OW19294   1.755   3.083  13.262  0.7434  0.3732 -0.7839
 2611SOL    HW119295   1.664   3.099  13.236 -0.4464 -1.6162  2.2283
 2611SOL    HW219296   1.799   3.156  13.218 -0.6202  0.3011 -2.2582
 2612SOL     OW19297   2.926   4.184   6.371 -0.3933  0.2588  0.3150
 2612SOL    HW119298   2.921   4.199   6.466 -0.2982  0.3231  0.3104
 2612SOL    HW219299   2.836   4.199   6.343 -1.0497 -1.1319  1.6757
 2613SOL     OW19300   4.285   2.994   5.275  0.6737 -0.0329  0.0560
 2613SOL    HW119301   4.214   3.041   5.319 -0.9136 -1.2105 -1.2373
 2613SOL    HW219302   4.259   2.905   5.301  2.1454 -1.0158 -1.8478
 2614SOL     OW19303   4.043   4.487   3.188 -0.5514  0.0624 -0.1545
 2614SOL    HW119304   4.005   4.574   3.175 -1.4935 -0.6005 -1.9671
 2614SOL    HW219305   4.134   4.500   3.164 -0.0928 -1.4849  0.7519
 2615SOL     OW19306   4.377   1.242   3.291  0.5888  0.0336  0.0786
 2615SOL    HW119307   4.328   1.161   3.306 -0.0347  0.2947 -0.5501
 2615SOL    HW219308   4.309   1.301   3.257 -0.2824 -1.1525 -0.2097
 2616SOL     OW19309   3.861   1.597   8.976  0.0135  0.1973  0.6808
 2616SOL    HW119310   3.810   1.661   8.926  2.4907  0.8872 -0.9655
 2616SOL    HW219311   3.844   1.624   9.066  1.6099  1.5900  0.5629
 2617SOL     OW19312   2.668   1.398   7.426  0.0854 -0.0608  0.4225
 2617SOL    HW119313   2.618   1.335   7.478 -0.3398  0.2233  0.3649
 2617SOL    HW219314   2.614   1.413   7.349  1.2486 -1.3715 -0.6378
 2618SOL     OW19315   1.113   1.670   8.692 -0.0162  0.5930 -0.3634
 2618SOL    HW119316   1.186   1.610   8.707  1.8880  3.4253  1.9532
 2618SOL    HW219317   1.075   1.639   8.610 -0.6670 -2.7142  1.2047
 2619SOL     OW19318   3.735   4.093  10.732  0.1489 -0.1934  0.2645
 2619SOL    HW119319   3.649   4.092  10.690  1.2877  1.1885 -2.0662
 2619SOL    HW219320   3.721   4.173  10.783  0.8545 -0.6514  1.1880
 2620SOL     OW19321   1.010   1.695  15.904 -0.3893  0.4698  0.2538
 2620SOL    HW119322   1.076   1.657  15.847 -2.0974 -1.6268 -0.3260
 2620SOL    HW219323   1.038   1.785  15.889  1.4096 -0.0749  0.3764
 2621SOL     OW19324   0.674   1.592  10.514 -0.3701  0.6522 -0.2200
 2621SOL    HW119325   0.644   1.670  10.467 -0.4628  1.1518  0.6737
 2621SOL    HW219326   0.627   1.534  10.455 -2.0022  2.4740 -0.7164
 2622SOL     OW19327   0.235   4.222  10.041  0.2003  0.2476  0.3492
 2622SOL    HW119328   0.293   4.214   9.966  0.7094  1.3333  0.6177
 2622SOL    HW219329   0.242   4.137  10.085 -0.0717  1.0628  1.9804
 2623SOL     OW19330   4.614   2.284   2.848 -0.1498 -0.1872  0.1139
 2623SOL    HW119331   4.657   2.320   2.769 -1.8333  0.1315 -0.6483
 2623SOL    HW219332   4.591   2.370   2.883 -1.1878 -0.9963  1.3766
 2624SOL     OW19333   0.019   3.101  12.341  0.0986 -0.1526 -0.6300
 2624SOL    HW119334   4.710   3.012  12.355 -0.8962  0.4792  0.9937
 2624SOL    HW219335   0.100   3.095  12.392 -0.7907 -0.6858  0.7355
 2625SOL     OW19336   1.639   2.960   9.254  0.3246 -0.0471 -0.5924
 2625SOL    HW119337   1.582   2.897   9.211 -1.4436  0.2423  1.3248
 2625SOL    HW219338   1.593   2.956   9.338  0.9243 -3.1387 -0.4127
 2626SOL     OW19339   3.254   4.547   2.809  0.1036 -0.0382 -0.1224
 2626SOL    HW119340   3.185   4.481   2.810  0.3652 -0.2857  2.3169
 2626SOL    HW219341   3.298   4.538   2.893 -0.0711 -0.8588 -0.1229
 2627SOL     OW19342   4.151   0.831   3.182  0.0288 -0.3362 -0.2147
 2627SOL    HW119343   4.210   0.756   3.181 -0.7099 -0.9012 -1.6713
 2627SOL    HW219344   4.079   0.794   3.132 -1.8065  2.7207  0.1287
 2628SOL     OW19345   1.039   1.632   4.499 -0.0335 -0.3460  0.3146
 2628SOL    HW119346   0.949   1.608   4.521 -0.3204 -0.8580 -1.4408
 2628SOL    HW219347   1.087   1.580   4.563  1.7486 -0.9500 -1.5208
 2629SOL     OW19348   4.070   2.880   2.348 -0.1939 -0.5138  0.2861
 2629SOL    HW119349   4.140   2.872   2.413  0.9458  1.1871 -0.7460
 2629SOL    HW219350   4.098   2.953   2.293 -0.8635 -0.7581 -0.3669
 2630SOL     OW19351   1.012   1.195   4.421 -0.0938  0.2226 -0.2410
 2630SOL    HW119352   0.980   1.108   4.398  0.1755 -0.4055  1.7010
 2630SOL    HW219353   0.933   1.226   4.465  1.2800  0.7597  1.8443
 2631SOL     OW19354   1.266   0.667  12.516 -0.1278 -0.0410 -0.0862
 2631SOL    HW119355   1.335   0.725  12.548  0.4794 -1.4437  1.1730
 2631SOL    HW219356   1.263   0.703  12.428 -0.3885  0.6060  0.1841
 2632SOL     OW19357   1.664   1.328   4.237  0.5936  0.5020  0.1981
 2632SOL    HW119358   1.615   1.300   4.313 -3.0028  2.9705 -1.2296
 2632SOL    HW219359   1.612   1.403   4.206  0.0567 -0.3911 -1.0659
 2633SOL     OW19360   1.736   4.309   2.046 -0.3776 -0.6368 -0.6051
 2633SOL    HW119361   1.660   4.266   2.006 -0.9531  0.4364 -0.6602
 2633SOL    HW219362   1.801   4.329   1.979 -0.5761  1.2896 -0.2135
 2634SOL     OW19363   2.090   4.376   6.716  0.1242 -0.3985 -0.4109
 2634SOL    HW119364   2.140   4.396   6.796 -0.6271  1.2070 -0.3439
 2634SOL    HW219365   2.067   4.283   6.727 -1.3859  0.1431  0.9839
 2635SOL     OW19366   2.525   4.008   8.631 -0.5031  0.3625  0.1647
 2635SOL    HW119367   2.541   4.049   8.716  0.1053 -3.5608  1.9696
 2635SOL    HW219368   2.460   3.943   8.659  0.5372 -0.5372  0.4987
 2636SOL     OW19369   0.568   1.026   4.980  0.0955  0.3506 -0.1489
 2636SOL    HW119370   0.568   0.940   5.022 -0.3866 -0.7007 -2.2930
 2636SOL    HW219371   0.600   1.081   5.051 -0.2314  1.1550 -0.6263
 2637SOL     OW19372   0.069   4.588   3.767  0.0315  0.0708 -0.1520
 2637SOL    HW119373   0.006   4.587   3.694 -1.6415  0.7485  1.2579
 2637SOL    HW219374   0.073   4.493   3.776 -0.5871  0.0704  0.1459
 2638SOL     OW19375   3.216   1.498   9.186  0.3580  0.1947  0.5964
 2638SOL    HW119376   3.122   1.483   9.178  0.6901 -2.0370  0.7537
 2638SOL    HW219377   3.223   1.564   9.117  1.2648 -0.7457 -0.2107
 2639SOL     OW19378   4.038   2.408   3.053  0.7117  0.3949  0.4649
 2639SOL    HW119379   4.065   2.387   3.143  2.6904 -1.4850 -0.5711
 2639SOL    HW219380   4.110   2.360   3.012 -0.4619  0.2983 -1.4472
 2640SOL     OW19381   2.094   4.652  14.409 -0.0453  0.7068  0.9179
 2640SOL    HW119382   2.095   4.700  14.326 -0.0040 -0.2704  0.3596
 2640SOL    HW219383   2.135   4.712  14.471  0.4760  1.3912 -0.0731
 2641SOL     OW19384   4.366   0.147   2.036  0.2413 -0.8297 -0.5774
 2641SOL    HW119385   4.401   0.086   1.972 -2.5880 -1.1334 -1.8275
 2641SOL    HW219386   4.332   0.215   1.978 -0.1039  0.6935  1.3707
 2642SOL     OW19387   1.261   1.931   5.466 -0.1761  0.1161 -0.3113
 2642SOL    HW119388   1.254   1.918   5.561  0.5280  1.3874 -0.0911
 2642SOL    HW219389   1.311   2.012   5.475  2.3865 -1.5545  0.7827
 2643SOL     OW19390   2.400   2.362   9.622 -0.8424  0.2027  0.4312
 2643SOL    HW119391   2.399   2.355   9.718  1.1682 -3.4699  0.1841
 2643SOL    HW219392   2.390   2.456   9.607  1.3490  0.1668 -1.2837
 2644SOL     OW19393   3.720   3.381   5.797  0.9655 -0.2828 -0.1272
 2644SOL    HW119394   3.774   3.343   5.727  1.6888  2.1599 -0.8853
 2644SOL    HW219395   3.635   3.389   5.754  0.8226  0.7518  0.3395
 2645SOL     OW19396   1.682   2.999   4.788  0.0495  0.3553  0.1777
 2645SOL    HW119397   1.731   2.926   4.827  0.4339  0.0952 -0.7825
 2645SOL    HW219398   1.642   2.943   4.722  2.5443  0.9324 -1.8120
 2646SOL     OW19399   2.055   1.786   2.190  0.4904 -0.1282 -0.2204
 2646SOL    HW119400   2.099   1.869   2.206  2.0022 -0.9248 -0.1559
 2646SOL    HW219401   1.962   1.806   2.190  0.6191  0.4500 -2.1507
 2647SOL     OW19402   2.444   2.330  16.113 -0.2329 -0.1972  0.3366
 2647SOL    HW119403   2.429   2.336  16.019  1.9589 -0.0795 -0.0099
 2647SOL    HW219404   2.525   2.279  16.111  0.5262  1.0614 -1.1863
 2648SOL     OW19405   4.470   0.745   3.739 -0.3547  0.2507 -0.2741
 2648SOL    HW119406   4.497   0.749   3.831 -0.7043 -2.1400 -0.0767
 2648SOL    HW219407   4.554   0.744   3.692 -0.6506 -3.0920 -0.7259
 2649SOL     OW19408   1.573   1.788   0.964  0.3191  0.2372  0.0197
 2649SOL    HW119409   1.533   1.709   0.998 -1.6123  1.2504  0.0852
 2649SOL    HW219410   1.561   1.746   0.879  1.3603 -0.3591  0.1615
 2650SOL     OW19411   3.880   4.326   6.019  0.2768  0.2323 -0.8609
 2650SOL    HW119412   3.804   4.337   5.962 -0.9276 -1.9010  0.3253
 2650SOL    HW219413   3.952   4.355   5.963  0.1493 -0.4317 -1.3804
 2651SOL     OW19414   3.077   3.908   8.240  0.3343  0.3392  0.0686
 2651SOL    HW119415   3.169   3.891   8.261 -0.4233  0.6038  3.7357
 2651SOL    HW219416   3.042   3.820   8.226 -0.1819  0.2737  1.7392
 2652SOL     OW19417   3.372   1.836  17.058  0.5720  0.1671  0.2039
 2652SOL    HW119418   3.294   1.877  17.096  0.5905 -2.2668  2.9528
 2652SOL    HW219419   3.360   1.855  16.965 -0.2644  1.4953  0.5882
 2653SOL     OW19420   2.021   3.209   4.150  0.8068  0.0191  0.8199
 2653SOL    HW119421   2.044   3.286   4.097  3.5900  0.1345  2.1768
 2653SOL    HW219422   1.929   3.221   4.174  0.0722 -0.1736 -1.9092
 2654SOL     OW19423   2.352   3.508  14.350  0.4274 -0.1724 -0.3504
 2654SOL    HW119424   2.435   3.554  14.347  0.9296 -0.9566  1.5306
 2654SOL    HW219425   2.368   3.430  14.298  0.4085  0.4078 -1.2239
 2655SOL     OW19426   3.265   3.537   7.821 -0.4244  0.7793 -0.1519
 2655SOL    HW119427   3.338   3.482   7.793 -0.2523  1.3721 -0.8608
 2655SOL    HW219428   3.297   3.626   7.810 -0.8841  1.0355  0.5257
 2656SOL     OW19429   4.231   0.130   1.020 -0.2355 -0.1020  0.2716
 2656SOL    HW119430   4.324   0.150   1.027 -0.1443 -0.3575 -0.2157
 2656SOL    HW219431   4.226   0.095   0.931 -2.0827 -0.6039  0.5680
 2657SOL     OW19432   2.312   3.420   9.507 -0.0772  0.4765  0.4787
 2657SOL    HW119433   2.381   3.390   9.566 -0.1919  0.3925  0.5688
 2657SOL    HW219434   2.232   3.398   9.555 -0.3668 -1.3256 -0.8293
 2658SOL     OW19435   4.678   2.710  12.672 -0.8009  0.0271  0.6438
 2658SOL    HW119436   4.665   2.749  12.758 -0.2905 -0.8500  1.1199
 2658SOL    HW219437   4.622   2.762  12.615  1.7840  2.4092  0.2684
 2659SOL     OW19438   2.997   2.193   2.149  0.1911 -0.2565 -0.0620
 2659SOL    HW119439   2.926   2.249   2.116  0.7921 -0.6942 -2.1012
 2659SOL    HW219440   2.963   2.188   2.238  0.5512 -2.6719 -0.0570
 2660SOL     OW19441   3.678   3.189   4.325  0.1050 -0.4747 -0.3124
 2660SOL    HW119442   3.597   3.208   4.373  0.7872 -1.3788  1.1989
 2660SOL    HW219443   3.705   3.102   4.354  1.9490 -0.2892 -1.4831
 2661SOL     OW19444   4.687   2.072  13.094  0.5554  0.3908 -0.2592
 2661SOL    HW119445   0.040   2.091  13.148  1.1295 -0.5725 -0.7310
 2661SOL    HW219446   4.720   2.049  13.007  0.0746 -1.0084 -0.0676
 2662SOL     OW19447   2.737   4.207  12.808 -0.6521  0.3893 -0.0479
 2662SOL    HW119448   2.711   4.143  12.873 -2.3526  0.6923 -0.4356
 2662SOL    HW219449   2.796   4.155  12.753  0.4666  0.2140  1.3278
 2663SOL     OW19450   0.579   2.567  14.705  0.5667  0.3310 -0.2914
 2663SOL    HW119451   0.626   2.615  14.637  1.4735  0.3539  0.3450
 2663SOL    HW219452   0.553   2.640  14.761  0.1581  0.2281 -0.3438
 2664SOL     OW19453   0.060   2.434   5.080 -0.4885 -0.6888  0.1182
 2664SOL    HW119454   0.064   2.427   4.985 -1.9124  0.1663  0.0063
 2664SOL    HW219455   0.117   2.364   5.112  2.2915  1.8243  0.7320
 2665SOL     OW19456   4.293   2.154   7.341 -0.0675 -0.1226 -0.3560
 2665SOL    HW119457   4.287   2.118   7.252  0.4259 -2.4320  0.5334
 2665SOL    HW219458   4.267   2.078   7.393  2.2921 -0.4290  0.4151
 2666SOL     OW19459   1.067   3.887   6.844  0.1684  0.4150 -0.1279
 2666SOL    HW119460   1.053   3.792   6.842 -1.5257  0.6693 -1.4392
 2666SOL    HW219461   0.990   3.920   6.797  0.1438  0.0890 -0.3215
 2667SOL     OW19462   1.267   1.361   7.384 -0.1785 -0.0710  0.8919
 2667SOL    HW119463   1.261   1.310   7.465 -1.1778 -1.3570  0.0000
 2667SOL    HW219464   1.184   1.335   7.344  0.7802 -1.2161 -0.3236
 2668SOL     OW19465   2.577   3.946   8.184  0.4195  0.4026  0.0068
 2668SOL    HW119466   2.621   3.871   8.222  0.1520  0.3103  0.1385
 2668SOL    HW219467   2.589   4.006   8.258 -1.4978 -1.4197  1.7999
 2669SOL     OW19468   4.013   3.874   4.057  0.0032  0.1600  0.4959
 2669SOL    HW119469   4.076   3.909   4.120  1.3076 -1.7481  0.2610
 2669SOL    HW219470   3.983   3.799   4.108 -1.7865  1.7017  1.6901
 2670SOL     OW19471   3.138   4.087  16.073 -0.2698 -0.2439  0.2492
 2670SOL    HW119472   3.061   4.032  16.062  0.0424 -1.0152  1.8835
 2670SOL    HW219473   3.200   4.050  16.010  0.7946  0.2298  1.0078
 2671SOL     OW19474   1.609   3.892   8.750 -0.0317 -0.2360  0.7284
 2671SOL    HW119475   1.576   3.933   8.671 -1.5970  1.5084  2.3151
 2671SOL    HW219476   1.612   3.800   8.723  0.3933  0.4083 -1.4083
 2672SOL     OW19477   1.951   4.441  12.138 -0.1833 -0.2993 -0.3934
 2672SOL    HW119478   1.937   4.378  12.067  0.4972 -0.7626 -0.1154
 2672SOL    HW219479   1.876   4.492  12.108  0.8147 -0.1947 -2.7227
 2673SOL     OW19480   0.326   1.941   6.071  0.1555  0.2848 -0.2349
 2673SOL    HW119481   0.271   2.000   6.123  0.3972  0.1193  0.2116
 2673SOL    HW219482   0.344   1.997   5.996 -0.1679 -0.8246 -1.1267
 2674SOL     OW19483   3.535   1.836   3.266 -0.6293 -0.2044  0.3183
 2674SOL    HW119484   3.553   1.780   3.190 -1.8839  1.0169 -0.8883
 2674SOL    HW219485   3.560   1.790   3.346 -1.3960  0.4614  0.9386
 2675SOL     OW19486   2.055   2.991   6.042 -0.0954  0.5538 -0.1621
 2675SOL    HW119487   2.090   3.071   6.003 -0.6405  0.8498 -0.0411
 2675SOL    HW219488   2.135   2.959   6.084 -0.8661 -0.1504  0.7568
 2676SOL     OW19489   3.073   4.228   7.234 -0.4968 -0.6398 -0.0812
 2676SOL    HW119490   3.095   4.315   7.267  0.2823 -0.3282 -1.4611
 2676SOL    HW219491   3.154   4.207   7.188  1.1371  1.0219  2.0353
 2677SOL     OW19492   1.229   4.104   2.058 -0.6977 -0.6388  0.1405
 2677SOL    HW119493   1.251   4.109   1.965  1.1716  0.2336  0.6253
 2677SOL    HW219494   1.170   4.030   2.072 -0.5071 -1.1600 -1.8147
 2678SOL     OW19495   3.504   0.789  12.006  0.6958  0.0757  0.2185
 2678SOL    HW119496   3.492   0.883  12.020 -1.1020 -0.2129  0.5672
 2678SOL    HW219497   3.561   0.765  12.079 -1.2826  0.4028  1.8586
 2679SOL     OW19498   2.431   4.153   7.305  0.4255  0.1053  0.0157
 2679SOL    HW119499   2.496   4.198   7.359  1.5451 -0.6158 -0.7231
 2679SOL    HW219500   2.379   4.215   7.254 -2.1286 -0.0144  2.5013
 2680SOL     OW19501   3.882   1.077   6.890 -0.7971 -0.1802 -0.3080
 2680SOL    HW119502   3.903   0.986   6.870  0.0276  0.6360 -3.1931
 2680SOL    HW219503   3.935   1.088   6.969 -1.0552  0.2944 -0.2009
 2681SOL     OW19504   2.124   1.169   3.807  0.2545  0.4089 -0.1729
 2681SOL    HW119505   2.154   1.078   3.806 -0.9854 -0.0348  1.3291
 2681SOL    HW219506   2.167   1.189   3.890  0.1523 -1.2674  0.3032
 2682SOL     OW19507   4.535   3.326   3.626  0.2418  0.5615 -0.3269
 2682SOL    HW119508   4.540   3.419   3.604  4.0479  0.3173 -0.4045
 2682SOL    HW219509   4.466   3.303   3.564  0.4213 -0.2873 -0.2212
 2683SOL     OW19510   0.592   1.734  16.347  0.3572  0.6727  0.6775
 2683SOL    HW119511   0.554   1.714  16.433  1.6874 -0.1643  1.0796
 2683SOL    HW219512   0.526   1.686  16.296  1.0597  0.8522 -0.3871
 2684SOL     OW19513   1.539   0.471   6.729 -0.2570 -0.0741  0.0849
 2684SOL    HW119514   1.585   0.554   6.742  0.7304 -0.2983 -1.9589
 2684SOL    HW219515   1.481   0.497   6.657  0.8778 -1.0979 -1.2228
 2685SOL     OW19516   3.009   2.758   9.654  0.2866 -0.4740  0.3920
 2685SOL    HW119517   3.062   2.680   9.668  1.8996  0.4761 -0.3545
 2685SOL    HW219518   3.070   2.810   9.601 -1.3076 -0.6480 -1.6100
 2686SOL     OW19519   1.984   0.049  17.423  0.3604  0.0560 -0.7999
 2686SOL    HW119520   2.074   0.043  17.455 -0.0128 -1.9015 -0.0937
 2686SOL    HW219521   1.992   0.097  17.341 -1.8480 -1.4969 -1.9125
 2687SOL     OW19522   1.136   0.171   3.813  0.0756  0.0423  0.3884
 2687SOL    HW119523   1.131   0.244   3.751  0.6107 -1.0118 -0.9068
 2687SOL    HW219524   1.142   0.099   3.750 -3.6660  0.4316 -0.4507
 2688SOL     OW19525   1.802   2.766  16.208 -0.1431  0.4454 -0.0100
 2688SOL    HW119526   1.731   2.827  16.188  0.2385  1.2076  0.9488
 2688SOL    HW219527   1.886   2.809  16.199 -1.0340  1.6620 -2.2815
 2689SOL     OW19528   0.948   1.253  10.189 -0.1087  0.9436  0.4386
 2689SOL    HW119529   0.994   1.192  10.247  1.5886  1.4805 -0.3432
 2689SOL    HW219530   1.012   1.267  10.119  0.8388 -0.1338  1.0786
 2690SOL     OW19531   2.431   3.990   1.942 -0.6451 -0.2147 -0.1583
 2690SOL    HW119532   2.376   4.052   1.990  1.4706  0.7353  1.0743
 2690SOL    HW219533   2.493   3.951   2.003  0.9726  0.4655 -1.3760
 2691SOL     OW19534   4.537   2.504   4.656  0.0024  0.0950  0.3228
 2691SOL    HW119535   4.464   2.560   4.631 -0.9709 -1.6053 -0.6206
 2691SOL    HW219536   4.544   2.516   4.751 -0.1034 -0.5604  0.4136
 2692SOL     OW19537   3.799   2.102   9.562 -0.2496  0.0377  0.2086
 2692SOL    HW119538   3.869   2.168   9.563  0.6097 -0.8704  0.6459
 2692SOL    HW219539   3.836   2.037   9.622  1.2267 -0.1225 -0.8554
 2693SOL     OW19540   3.964   4.154  16.104 -0.2157 -0.3318  0.0689
 2693SOL    HW119541   3.932   4.232  16.148 -1.5174 -0.1233 -1.2497
 2693SOL    HW219542   3.910   4.155  16.025 -0.1065 -0.4199 -0.0072
 2694SOL     OW19543   2.732   0.870  11.354 -0.4086  0.6886 -0.3193
 2694SOL    HW119544   2.743   0.815  11.432  0.7131  2.9698  1.1278
 2694SOL    HW219545   2.670   0.810  11.312 -0.2788 -0.1091  0.6336
 2695SOL     OW19546   0.059   3.333  17.528  0.7781 -0.1081 -0.1004
 2695SOL    HW119547   0.016   3.252  17.501  1.2448 -0.5697  0.5270
 2695SOL    HW219548   0.140   3.320  17.478 -0.8241 -2.7849 -2.0257
 2696SOL     OW19549   0.635   2.636   7.929  0.9219 -0.2487 -0.0232
 2696SOL    HW119550   0.623   2.563   7.868 -0.9836 -0.2932  0.4067
 2696SOL    HW219551   0.583   2.625   8.009  2.1792  1.0055  0.9861
 2697SOL     OW19552   0.090   1.436   9.846  0.7619 -0.3524  0.2440
 2697SOL    HW119553   0.086   1.359   9.789  0.6669 -1.6348  1.9726
 2697SOL    HW219554   0.087   1.400   9.935 -2.3542  0.5796  0.4990
 2698SOL     OW19555   1.653   2.544   2.086  0.3652  0.2137  0.2431
 2698SOL    HW119556   1.736   2.504   2.111  0.3832  0.1178  0.0317
 2698SOL    HW219557   1.601   2.464   2.088  1.5139 -0.5428 -0.2215
 2699SOL     OW19558   1.059   0.733   4.773 -0.1295 -0.3446  0.1510
 2699SOL    HW119559   1.047   0.810   4.718 -3.1724 -1.2440 -0.4407
 2699SOL    HW219560   1.151   0.720   4.794  0.4880  1.3858 -1.4429
 2700SOL     OW19561   0.761   1.321  11.116  0.3344  0.0309 -0.1029
 2700SOL    HW119562   0.724   1.381  11.052 -2.0414 -0.6631  0.5956
 2700SOL    HW219563   0.825   1.381  11.154  0.1359  0.6590 -0.7595
 2701SOL     OW19564   2.313   0.052   6.440 -0.5180  0.0746 -0.0584
 2701SOL    HW119565   2.267   0.010   6.367 -0.5349  0.4851 -0.2852
 2701SOL    HW219566   2.386   0.083   6.386  0.2001 -0.5668  0.5433
 2702SOL     OW19567   3.698   4.055  17.295 -0.4243 -0.5666 -0.4094
 2702SOL    HW119568   3.703   3.989  17.365  3.0865  1.3171  1.1304
 2702SOL    HW219569   3.612   4.094  17.313 -0.5155  0.8024 -3.9591
 2703SOL     OW19570   4.526   1.443  11.692  0.4551  0.0201 -0.4254
 2703SOL    HW119571   4.500   1.514  11.751  2.6129  1.7135 -1.5312
 2703SOL    HW219572   4.609   1.415  11.730  1.0786  0.7826 -1.2295
 2704SOL     OW19573   0.832   2.367   6.399  0.0799  0.0779  0.3334
 2704SOL    HW119574   0.788   2.319   6.469 -2.2856  2.7652  0.7304
 2704SOL    HW219575   0.762   2.426   6.368 -0.3454 -0.0632  1.0280
 2705SOL     OW19576   3.538   0.699   4.797  1.0035  0.2532 -0.1364
 2705SOL    HW119577   3.630   0.709   4.774  0.9056 -0.6564 -0.9211
 2705SOL    HW219578   3.529   0.613   4.756 -0.2381  0.6319 -0.6554
 2706SOL     OW19579   3.809   3.260  13.217 -0.4228  0.0834  0.5247
 2706SOL    HW119580   3.844   3.340  13.177  3.8183 -1.3746  1.2992
 2706SOL    HW219581   3.800   3.293  13.306 -0.4791 -1.0560  0.9317
 2707SOL     OW19582   1.371   3.336  16.729 -0.2953  0.3394  0.1291
 2707SOL    HW119583   1.362   3.334  16.825 -0.0073 -0.3280  0.1449
 2707SOL    HW219584   1.279   3.314  16.715  0.3701 -1.8574 -0.7761
 2708SOL     OW19585   4.519   4.687   5.664  0.7611  0.0749 -0.0769
 2708SOL    HW119586   4.435   0.007   5.677 -0.2730 -1.3963 -1.6578
 2708SOL    HW219587   4.575   0.029   5.623  1.5563  0.7625  2.1513
 2709SOL     OW19588   3.136   0.149   0.488 -0.4094 -0.2602  0.5065
 2709SOL    HW119589   3.109   0.067   0.530  0.3339 -1.3811 -1.2139
 2709SOL    HW219590   3.051   0.194   0.490 -0.2197  0.1597 -0.8909
 2710SOL     OW19591   4.160   4.719   7.612 -0.6550  0.7774 -0.4498
 2710SOL    HW119592   4.214   4.644   7.639 -0.8110  1.6290  2.1549
 2710SOL    HW219593   4.081   4.679   7.574  0.4672 -0.0246 -1.9227
 2711SOL     OW19594   1.792   2.941   7.782  0.1145 -0.1974  0.1794
 2711SOL    HW119595   1.815   2.966   7.872  2.2267 -0.9155 -0.1690
 2711SOL    HW219596   1.875   2.964   7.740  0.0692  0.1069  0.2598
 2712SOL     OW19597   2.093   1.958   6.625  0.0018 -0.2892 -0.0086
 2712SOL    HW119598   2.040   1.997   6.556 -1.2156  0.0496  1.1170
 2712SOL    HW219599   2.033   1.955   6.699  0.2263 -0.7709  0.1544
 2713SOL     OW19600   3.872   2.070   5.207  0.4040  0.1464  0.5396
 2713SOL    HW119601   3.864   1.975   5.212 -0.5772 -0.0569 -4.5879
 2713SOL    HW219602   3.791   2.090   5.159  0.0091  1.1241  1.6271
 2714SOL     OW19603   0.857   1.675   7.683 -0.3073 -0.1048  0.0705
 2714SOL    HW119604   0.919   1.735   7.642 -1.3443  0.4233 -0.7183
 2714SOL    HW219605   0.846   1.706   7.773  1.7838 -2.4000  1.1058
 2715SOL     OW19606   3.441   1.436   6.357  0.6589 -0.3176 -0.4123
 2715SOL    HW119607   3.527   1.398   6.339 -0.1083 -0.9010 -2.8072
 2715SOL    HW219608   3.392   1.356   6.375  0.5649 -0.1797 -0.0369
 2716SOL     OW19609   4.634   0.390   1.667  0.0180  0.2139 -0.4085
 2716SOL    HW119610   4.556   0.439   1.643  0.6581  1.6764  0.5069
 2716SOL    HW219611   4.700   0.457   1.687  0.4974 -0.3140 -0.1956
 2717SOL     OW19612   1.795   4.314   6.466 -0.6177  0.6346  0.2902
 2717SOL    HW119613   1.868   4.257   6.443  0.3333  2.0077 -0.0565
 2717SOL    HW219614   1.781   4.304   6.560 -2.5221  0.9637  0.0396
 2718SOL     OW19615   2.680   2.003   6.662  0.4921  0.1454 -0.6859
 2718SOL    HW119616   2.612   2.063   6.692 -0.0039 -0.6442 -0.2083
 2718SOL    HW219617   2.758   2.042   6.701 -1.1726  2.1493  0.6222
 2719SOL     OW19618   1.737   0.434  13.974  0.0965 -0.5498 -0.2686
 2719SOL    HW119619   1.689   0.511  13.942  1.3096  1.4241  2.6475
 2719SOL    HW219620   1.803   0.476  14.029 -0.1159  0.5624 -0.8665
 2720SOL     OW19621   4.093   4.458  16.577  0.3729 -0.0301  0.5496
 2720SOL    HW119622   4.155   4.517  16.532 -0.3172 -0.3713 -0.8459
 2720SOL    HW219623   4.145   4.402  16.634  1.3386 -0.8834 -1.1519
 2721SOL     OW19624   4.569   1.622   2.232  0.0099  0.5200 -0.0198
 2721SOL    HW119625   4.652   1.634   2.185 -1.0312  1.6286 -1.5335
 2721SOL    HW219626   4.526   1.707   2.223 -0.0156  0.6150  1.0016
 2722SOL     OW19627   2.825   1.114   7.383  0.1330 -0.0904 -0.2594
 2722SOL    HW119628   2.826   1.123   7.478 -1.7146  0.1830 -0.2602
 2722SOL    HW219629   2.729   1.112   7.378 -0.0513  1.7615  2.6067
 2723SOL     OW19630   4.657   3.430  15.044 -0.1228  0.3997  0.3561
 2723SOL    HW119631   4.604   3.363  15.001  2.4951 -1.2093 -0.3819
 2723SOL    HW219632   4.713   3.461  14.972 -0.1031  0.7805  0.5340
 2724SOL     OW19633   0.006   4.405   4.208  0.1069 -0.1462  0.3001
 2724SOL    HW119634   4.707   4.313   4.199  0.8256 -0.3891  0.8643
 2724SOL    HW219635   4.641   4.440   4.210  0.8170  1.6084  1.2410
 2725SOL     OW19636   0.028   0.706   3.345  0.1478 -0.3331 -0.4071
 2725SOL    HW119637   0.030   0.760   3.266  1.6332 -0.3524 -0.3830
 2725SOL    HW219638   0.101   0.644   3.333  0.4817 -0.6353  3.1353
 2726SOL     OW19639   1.845   2.634   3.202 -0.5913  0.7190  0.2089
 2726SOL    HW119640   1.923   2.582   3.221  0.1140  1.2265 -1.2977
 2726SOL    HW219641   1.856   2.678   3.118  2.0058  0.9103  0.6686
 2727SOL     OW19642   1.381   3.209  17.399  0.3807  0.0523  0.1018
 2727SOL    HW119643   1.375   3.280  17.463  2.2125  0.2199  0.0740
 2727SOL    HW219644   1.471   3.178  17.411  0.8150  1.2466 -0.0395
 2728SOL     OW19645   3.442   2.930   3.298 -0.1505  0.0961  0.1923
 2728SOL    HW119646   3.356   2.971   3.294 -0.5254 -0.6458  0.8818
 2728SOL    HW219647   3.409   2.858   3.245  1.2220 -1.1624  1.0567
 2729SOL     OW19648   1.763   1.966   2.876 -0.2320  0.3394  0.7974
 2729SOL    HW119649   1.736   1.984   2.966 -1.7802 -0.0599  0.3950
 2729SOL    HW219650   1.774   1.871   2.868 -2.6091  0.1641 -0.2470
 2730SOL     OW19651   0.825   3.064   6.406  0.0205  0.0820 -0.1032
 2730SOL    HW119652   0.842   3.063   6.501  2.8849  0.1462 -0.6306
 2730SOL    HW219653   0.887   3.129   6.374 -0.1113  1.8799  3.2581
 2731SOL     OW19654   2.803   2.175   5.651  0.0314 -0.3724  0.4092
 2731SOL    HW119655   2.708   2.167   5.665  0.4233  0.4303  3.4796
 2731SOL    HW219656   2.801   2.132   5.566  1.1351  0.3595  0.0178
 2732SOL     OW19657   3.512   1.323  11.058 -0.1602  0.0047  0.1263
 2732SOL    HW119658   3.603   1.290  11.056 -1.2872 -3.2957  3.2715
 2732SOL    HW219659   3.522   1.362  11.145  2.5321 -0.5925  0.1096
 2733SOL     OW19660   3.553   0.256   8.015 -0.0087 -0.1384  0.2366
 2733SOL    HW119661   3.554   0.277   8.108  2.9697 -0.3107  0.2542
 2733SOL    HW219662   3.493   0.182   8.014  1.5746 -1.4424  3.5470
 2734SOL     OW19663   1.609   2.789   5.657 -0.2220  0.1294 -0.1534
 2734SOL    HW119664   1.577   2.698   5.660 -2.1509  0.7981 -0.6356
 2734SOL    HW219665   1.656   2.780   5.575 -0.5506  1.9455 -0.5311
 2735SOL     OW19666   3.104   4.093   9.320 -0.1562 -0.3672 -0.0805
 2735SOL    HW119667   3.128   4.023   9.258 -1.8533 -0.0423 -1.1132
 2735SOL    HW219668   3.072   4.032   9.387 -0.4755  0.5351  0.5848
 2736SOL     OW19669   1.767   4.473   3.051 -0.2099  0.7238 -0.2250
 2736SOL    HW119670   1.768   4.439   3.140  0.1752  0.1149 -0.4573
 2736SOL    HW219671   1.861   4.492   3.046 -0.0746 -0.0473 -0.6040
 2737SOL     OW19672   4.503   3.911   4.100  0.4648  0.2698 -0.4564
 2737SOL    HW119673   4.462   3.835   4.058  0.0872  1.7101 -2.6830
 2737SOL    HW219674   4.467   3.905   4.189  3.4214 -1.4523  0.6458
 2738SOL     OW19675   3.404   0.390   2.505 -0.2088  0.0028  0.5381
 2738SOL    HW119676   3.357   0.357   2.582  0.4981 -0.1503  0.9052
 2738SOL    HW219677   3.379   0.322   2.444 -2.1528  2.8162 -1.8223
 2739SOL     OW19678   4.026   0.704  12.625  0.0479 -0.3744  0.7666
 2739SOL    HW119679   3.938   0.702  12.588  0.1519  0.9661  0.4624
 2739SOL    HW219680   4.010   0.732  12.716 -2.5590 -0.4510  0.3334
 2740SOL     OW19681   2.807   4.093   1.525  0.6709  0.1268 -0.1495
 2740SOL    HW119682   2.715   4.110   1.545  0.7504  0.1976  0.1570
 2740SOL    HW219683   2.835   4.175   1.486  1.0709  0.3779  0.6499
 2741SOL     OW19684   1.343   0.571   6.917  0.3416 -0.4657  0.4525
 2741SOL    HW119685   1.294   0.611   6.989 -2.6107  1.8343 -2.8523
 2741SOL    HW219686   1.291   0.598   6.842 -0.0889 -2.4501  0.0284
 2742SOL     OW19687   1.625   0.555   1.863 -0.1922 -0.1127  0.3600
 2742SOL    HW119688   1.673   0.625   1.819  0.1344 -0.2858  0.4437
 2742SOL    HW219689   1.667   0.478   1.824  0.9622  0.8996 -0.3868
 2743SOL     OW19690   1.535   3.658   7.127  0.5985  0.1356 -0.2245
 2743SOL    HW119691   1.476   3.728   7.100 -1.2401 -1.6737 -0.9367
 2743SOL    HW219692   1.527   3.605   7.047 -0.0640  1.4459 -1.0375
 2744SOL     OW19693   4.518   1.286  15.284  0.0500  0.0514 -0.1111
 2744SOL    HW119694   4.609   1.262  15.271 -0.0340 -1.1747  1.5332
 2744SOL    HW219695   4.523   1.370  15.330 -1.8138  0.0143  0.1567
 2745SOL     OW19696   1.668   2.485   2.554 -0.1130 -0.2418 -0.3362
 2745SOL    HW119697   1.693   2.495   2.646  0.7148 -0.2361 -0.5561
 2745SOL    HW219698   1.726   2.415   2.521  0.7538  0.2740  0.0951
 2746SOL     OW19699   3.777   3.951   8.306  0.3296 -0.1991 -0.0649
 2746SOL    HW119700   3.762   4.028   8.361 -0.0008  0.5631 -1.2299
 2746SOL    HW219701   3.869   3.951   8.281  1.0760 -2.7102  2.6001
 2747SOL     OW19702   1.227   3.539  13.822 -0.4412 -0.0071 -0.9012
 2747SOL    HW119703   1.228   3.621  13.773 -0.8663  0.8088  0.4542
 2747SOL    HW219704   1.296   3.492  13.776  0.4283 -0.7307  1.1342
 2748SOL     OW19705   4.668   0.212   2.063 -0.2564  0.1759  0.6192
 2748SOL    HW119706   4.580   0.244   2.045 -0.9777 -2.6997 -0.9037
 2748SOL    HW219707   4.712   0.236   1.981 -1.2511 -0.5266 -0.1229
 2749SOL     OW19708   1.599   0.249   4.364 -0.0094  0.1245 -0.5839
 2749SOL    HW119709   1.667   0.294   4.414  0.5440 -0.2103 -1.0382
 2749SOL    HW219710   1.662   0.207   4.306 -0.8455  0.0737 -1.4547
 2750SOL     OW19711   2.092   3.045   8.863 -0.3392 -0.2906  0.2686
 2750SOL    HW119712   2.021   3.104   8.840  0.8944  1.3579  0.7219
 2750SOL    HW219713   2.140   3.113   8.910  1.3485 -2.0810  1.1734
 2751SOL     OW19714   2.081   3.276   2.951  0.0314  0.0541  0.4414
 2751SOL    HW119715   2.125   3.236   3.026  2.1675  0.3519 -0.6528
 2751SOL    HW219716   2.021   3.205   2.927 -0.9010 -0.0037  2.8635
 2752SOL     OW19717   0.690   2.249  15.955 -0.0617 -0.9052 -0.6609
 2752SOL    HW119718   0.765   2.255  15.896  1.0101  1.9388  1.0084
 2752SOL    HW219719   0.736   2.264  16.037 -3.4137 -0.8630  1.2053
 2753SOL     OW19720   2.227   1.554  10.539  0.0016  0.5963 -0.3976
 2753SOL    HW119721   2.208   1.461  10.527 -0.3474  0.5383  0.6856
 2753SOL    HW219722   2.209   1.602  10.458  0.1314 -0.3489 -0.9931
 2754SOL     OW19723   2.229   4.483   4.167  0.1919 -0.3062 -0.3446
 2754SOL    HW119724   2.269   4.551   4.223  0.3841 -1.1973  0.6084
 2754SOL    HW219725   2.261   4.411   4.222 -2.2002 -0.1286  1.2828
 2755SOL     OW19726   1.713   2.005   5.964 -0.2140 -0.6570 -0.6487
 2755SOL    HW119727   1.712   2.087   5.915 -0.4560 -0.1577  0.1881
 2755SOL    HW219728   1.772   2.027   6.036  1.3970 -1.0435 -1.8617
 2756SOL     OW19729   3.909   4.007   7.531 -0.0881 -0.5215  0.2907
 2756SOL    HW119730   3.954   4.036   7.452 -1.9042 -3.1941 -1.7422
 2756SOL    HW219731   3.874   4.086   7.572  3.0298  0.1014  1.7252
 2757SOL     OW19732   2.914   1.958   4.096  0.3957  0.9923  0.1694
 2757SOL    HW119733   2.945   1.872   4.067 -0.5079  0.6390  0.2540
 2757SOL    HW219734   2.836   1.958   4.041  0.5709  0.0697 -0.0851
 2758SOL     OW19735   1.145   2.088  12.981  0.7211 -0.5194  0.5572
 2758SOL    HW119736   1.232   2.051  12.992  1.3160  0.8151  0.3274
 2758SOL    HW219737   1.108   2.024  13.041  1.1555  0.3981  1.7931
 2759SOL     OW19738   4.425   4.267  12.321 -0.4403 -0.4913  0.0244
 2759SOL    HW119739   4.403   4.179  12.292  2.6083 -0.2830 -2.9577
 2759SOL    HW219740   4.349   4.287  12.376  0.4113  0.3962  0.8795
 2760SOL     OW19741   4.032   0.044   5.127 -0.5539 -0.3132 -0.1029
 2760SOL    HW119742   4.094   0.071   5.195 -1.1802  1.2375 -0.1623
 2760SOL    HW219743   4.088   0.039   5.049  0.3035 -0.6510  0.5273
 2761SOL     OW19744   0.618   3.529  10.088  0.1169  0.5227 -0.6439
 2761SOL    HW119745   0.661   3.486  10.162  1.2665  1.8218 -0.5646
 2761SOL    HW219746   0.555   3.460  10.067  0.5016 -0.0598  0.0919
 2762SOL     OW19747   2.345   2.771   9.898  0.6310 -0.2364 -0.1663
 2762SOL    HW119748   2.397   2.851   9.904  2.1500 -1.1822 -0.6557
 2762SOL    HW219749   2.255   2.801   9.886  0.9194  0.8764  0.4168
 2763SOL     OW19750   3.693   3.393   8.809 -0.4652 -0.2237  0.3176
 2763SOL    HW119751   3.636   3.463   8.841 -0.6463  0.7046 -2.0367
 2763SOL    HW219752   3.646   3.343   8.743 -2.2351 -2.4474  3.2756
 2764SOL     OW19753   4.562   0.987   9.806 -0.0422  0.4759 -0.4407
 2764SOL    HW119754   4.639   0.992   9.749  1.0415  1.7828  1.1523
 2764SOL    HW219755   4.614   0.962   9.882  0.6999  0.2700 -1.0101
 2765SOL     OW19756   2.809   1.988   2.454  0.1236 -0.2177  0.3171
 2765SOL    HW119757   2.714   1.977   2.456  0.0962  0.3040  1.8871
 2765SOL    HW219758   2.842   1.899   2.442  1.0313  0.3284 -1.2539
 2766SOL     OW19759   0.445   1.051  14.355 -0.5459 -0.5816  0.3402
 2766SOL    HW119760   0.458   1.049  14.260  1.2135  0.5251  0.5570
 2766SOL    HW219761   0.399   1.134  14.367 -0.8838 -1.3834  4.4672
 2767SOL     OW19762   3.525   3.035   9.708  0.5202  0.0089  0.1706
 2767SOL    HW119763   3.560   3.066   9.792 -0.7462  0.6319  0.4724
 2767SOL    HW219764   3.543   3.117   9.661  0.2471 -0.3248 -0.5130
 2768SOL     OW19765   3.790   3.210   3.055  0.2632  0.0024 -0.1811
 2768SOL    HW119766   3.808   3.158   3.134  0.6741 -0.5442 -0.6318
 2768SOL    HW219767   3.705   3.237   3.091 -0.2329 -2.0476  0.1946
 2769SOL     OW19768   0.874   2.289  17.124  0.3980 -0.1701  0.1257
 2769SOL    HW119769   0.955   2.339  17.132  1.3663 -1.2386 -2.8635
 2769SOL    HW219770   0.894   2.231  17.050  0.1222  1.6870 -1.4101
 2770SOL     OW19771   1.861   0.049   3.186  0.1891  0.1632 -0.7175
 2770SOL    HW119772   1.789   0.065   3.125 -0.2507  0.8468 -0.0182
 2770SOL    HW219773   1.826   0.106   3.254 -1.2672 -0.6909 -0.7631
 2771SOL     OW19774   1.138   4.586  16.079  0.1513  0.3456  0.5090
 2771SOL    HW119775   1.233   4.575  16.078  0.1171  0.5476 -3.9581
 2771SOL    HW219776   1.118   4.517  16.142  0.9967 -0.6479 -0.3067
 2772SOL     OW19777   1.709   3.021  17.683 -0.1974 -0.0176 -0.2578
 2772SOL    HW119778   1.661   2.964   0.045  2.8621 -1.6786  0.6157
 2772SOL    HW219779   1.801   2.995  17.689 -0.8240 -2.2507 -0.2944
 2773SOL     OW19780   1.215   4.172  10.090 -0.0731  0.5759  0.2713
 2773SOL    HW119781   1.244   4.174  10.181 -2.0056 -0.4141  0.9163
 2773SOL    HW219782   1.233   4.081  10.064  0.2195 -0.2532  3.2898
 2774SOL     OW19783   1.075   0.834   9.574  0.0927 -0.0257 -0.0061
 2774SOL    HW119784   1.023   0.753   9.565  0.0271 -0.2281  2.2900
 2774SOL    HW219785   1.002   0.891   9.600  0.5640  0.7590 -0.4014
 2775SOL     OW19786   2.924   4.109   4.220 -0.4775 -0.0350 -0.1622
 2775SOL    HW119787   2.985   4.139   4.153 -1.3213 -0.4041 -1.0921
 2775SOL    HW219788   2.981   4.105   4.297 -1.5682  2.5416  0.7642
 2776SOL     OW19789   3.235   2.124  16.909 -0.1017  0.5628  0.3152
 2776SOL    HW119790   3.284   2.166  16.980  0.8133 -0.7680  0.4588
 2776SOL    HW219791   3.192   2.054  16.958 -2.6769  1.8201 -0.1115
 2777SOL     OW19792   4.315   1.017  14.199  0.2377  0.4302  0.1132
 2777SOL    HW119793   4.227   0.985  14.214  0.1690 -0.2254 -1.7282
 2777SOL    HW219794   4.345   1.010  14.290  1.8632 -0.0868 -0.4459
 2778SOL     OW19795   0.028   0.651   6.599 -0.5428 -0.4902  0.1795
 2778SOL    HW119796   0.059   0.707   6.670  0.0877 -1.0150  0.3171
 2778SOL    HW219797   4.659   0.652   6.624 -0.3615  0.7724  0.8386
 2779SOL     OW19798   3.122   0.972   4.849 -0.0770  0.3836 -0.1514
 2779SOL    HW119799   3.214   0.969   4.875  0.2542 -0.3835 -1.4329
 2779SOL    HW219800   3.090   0.968   4.939  0.3385 -0.1302 -0.0254
 2780SOL     OW19801   2.250   0.678   6.473  0.0828  0.1308 -0.1714
 2780SOL    HW119802   2.253   0.771   6.493  1.5997 -0.2210  1.2079
 2780SOL    HW219803   2.249   0.685   6.377  1.0104  0.8912 -0.1218
 2781SOL     OW19804   0.555   2.105   5.051  0.2939 -0.7934  0.1958
 2781SOL    HW119805   0.596   2.087   4.966  0.4403 -0.5930  0.2244
 2781SOL    HW219806   0.483   2.042   5.056 -0.1881 -0.0035  2.9063
 2782SOL     OW19807   4.526   0.286  15.696 -0.1172  0.0531 -0.2179
 2782SOL    HW119808   4.592   0.356  15.695 -1.7434  1.6076  0.2680
 2782SOL    HW219809   4.543   0.260  15.786  0.1405  2.7927  0.5375
 2783SOL     OW19810   2.896   0.622   7.241 -0.2197 -0.1345 -0.2514
 2783SOL    HW119811   2.904   0.638   7.147  0.5924 -1.5198 -0.4090
 2783SOL    HW219812   2.931   0.708   7.267  0.3587  0.0479 -1.6153
 2784SOL     OW19813   1.524   0.346   8.171  0.2583 -0.3534  0.0436
 2784SOL    HW119814   1.443   0.396   8.173  0.0027 -0.7248 -1.1373
 2784SOL    HW219815   1.485   0.262   8.196  0.4478 -0.2091  0.8260
 2785SOL     OW19816   0.445   0.085   2.359 -0.6239  0.2263  0.5426
 2785SOL    HW119817   0.513   0.044   2.413 -1.9638 -2.0213  0.5166
 2785SOL    HW219818   0.494   0.110   2.281  0.6140  2.9158  2.1877
 2786SOL     OW19819   3.505   2.483   3.225  0.6396  0.1251 -0.4302
 2786SOL    HW119820   3.505   2.388   3.226  3.5397  0.1388 -0.0319
 2786SOL    HW219821   3.519   2.502   3.318 -0.1966  3.4256 -0.9768
 2787SOL     OW19822   3.246   1.030   4.501 -0.0431  0.2268  0.0407
 2787SOL    HW119823   3.323   0.973   4.507 -1.1266 -1.0519  1.7686
 2787SOL    HW219824   3.180   0.971   4.540 -1.4799  0.8460 -1.4845
 2788SOL     OW19825   2.482   3.836   6.429  0.3495 -0.1046  0.2078
 2788SOL    HW119826   2.569   3.871   6.410 -0.4216  2.1672  0.8041
 2788SOL    HW219827   2.502   3.798   6.514 -2.3791 -0.5674  0.6501
 2789SOL     OW19828   1.440   2.838   5.948 -0.3432  0.4384 -0.4744
 2789SOL    HW119829   1.355   2.795   5.954 -0.1192  0.0979  0.3119
 2789SOL    HW219830   1.492   2.765   5.982 -0.0923 -0.0576 -1.9377
 2790SOL     OW19831   1.386   1.980   4.592  0.1627  0.0188 -0.0249
 2790SOL    HW119832   1.354   1.942   4.674 -0.8447  0.3974 -0.2523
 2790SOL    HW219833   1.314   1.957   4.534  0.3691  0.4097 -0.4408
 2791SOL     OW19834   1.194   4.347   2.229  0.3943 -0.0003  0.1066
 2791SOL    HW119835   1.216   4.411   2.161  1.0422  0.4905  0.7900
 2791SOL    HW219836   1.209   4.270   2.175 -0.1708  2.3202 -3.3814
 2792SOL     OW19837   2.090   2.745   2.728 -0.4617 -0.2201  0.2327
 2792SOL    HW119838   2.091   2.759   2.823  0.4165  0.9863  0.0444
 2792SOL    HW219839   2.035   2.667   2.714 -0.9227  0.7974 -3.7020
 2793SOL     OW19840   0.273   1.211   0.640  0.3087  0.4171 -0.1152
 2793SOL    HW119841   0.273   1.296   0.684  1.7123  0.2123  0.2611
 2793SOL    HW219842   0.312   1.147   0.699 -0.2994  0.2277  0.0800
 2794SOL     OW19843   3.824   1.953  12.613  0.1046  0.1587  0.1587
 2794SOL    HW119844   3.833   2.036  12.659 -1.6722 -0.4868  1.6556
 2794SOL    HW219845   3.911   1.954  12.572  0.8263 -0.9295  1.6710
 2795SOL     OW19846   1.384   4.259  11.583 -0.1528 -0.0985 -0.3991
 2795SOL    HW119847   1.479   4.261  11.593 -0.4132  0.5029  1.9882
 2795SOL    HW219848   1.369   4.176  11.629  0.2364  1.0255  1.7564
 2796SOL     OW19849   1.361   4.275   6.706 -0.1228 -0.1089  1.1066
 2796SOL    HW119850   1.272   4.256   6.733 -0.0190 -0.2740  1.3278
 2796SOL    HW219851   1.360   4.251   6.613 -1.7430 -2.7098  1.8205
 2797SOL     OW19852   3.539   1.050   4.397  0.4905 -0.2455  0.2989
 2797SOL    HW119853   3.496   0.967   4.418  0.8508 -0.5680 -0.2397
 2797SOL    HW219854   3.588   1.018   4.322  1.7581  2.1157  0.1148
 2798SOL     OW19855   4.481   0.775   6.525 -0.6282 -0.0042 -0.0982
 2798SOL    HW119856   4.566   0.816   6.539  0.2642 -2.1778  0.7496
 2798SOL    HW219857   4.495   0.682   6.541 -2.0429 -0.5218 -1.9528
 2799SOL     OW19858   2.195   1.137  13.732  0.4935  0.4690 -0.2576
 2799SOL    HW119859   2.268   1.095  13.687  0.7029 -0.6814  1.1435
 2799SOL    HW219860   2.186   1.226  13.697  2.5191  0.7210 -0.1404
 2800SOL     OW19861   0.438   2.910  10.203  0.3735  0.3174 -0.1776
 2800SOL    HW119862   0.471   2.885  10.289 -1.0922 -1.5308 -0.1565
 2800SOL    HW219863   0.486   2.839  10.160  0.5427  0.0686  0.4255
 2801SOL     OW19864   0.729   0.128   3.326 -0.2268  0.1980 -0.2252
 2801SOL    HW119865   0.687   0.156   3.407  0.2225  0.2878 -0.0273
 2801SOL    HW219866   0.799   0.193   3.321  1.2230 -1.3080  0.3377
 2802SOL     OW19867   0.276   0.592   6.267  0.0618  0.1857  0.2364
 2802SOL    HW119868   0.224   0.659   6.223 -0.0719 -0.0313  0.0694
 2802SOL    HW219869   0.211   0.558   6.328  0.6508 -2.3561 -0.5693
 2803SOL     OW19870   4.704   0.457  10.501  0.2146 -0.1988  0.2593
 2803SOL    HW119871   4.663   0.473  10.415 -1.7558 -1.7998  0.9066
 2803SOL    HW219872   4.684   0.542  10.541 -1.4361 -0.3033 -0.3216
 2804SOL     OW19873   4.624   0.283   6.430  0.4112  0.0260 -0.2280
 2804SOL    HW119874   4.653   0.225   6.501  1.5353 -0.1510 -0.8322
 2804SOL    HW219875   4.618   0.222   6.357  0.5758 -0.9544  0.5754
 2805SOL     OW19876   0.171   1.627   3.043  0.1982  0.2653  0.3688
 2805SOL    HW119877   0.212   1.588   3.120 -0.2868  4.5132  2.7991
 2805SOL    HW219878   0.091   1.665   3.080 -0.2584 -0.3662  0.0345
 2806SOL     OW19879   0.421   2.762   6.386 -0.0624  0.4080 -0.6276
 2806SOL    HW119880   0.450   2.762   6.295 -0.8283 -0.6879 -0.8627
 2806SOL    HW219881   0.392   2.671   6.387  1.5367 -0.0986  0.5193
 2807SOL     OW19882   3.702   2.249   6.374  0.2437 -0.6144  0.1200
 2807SOL    HW119883   3.705   2.345   6.382 -0.0847 -0.6310  0.4247
 2807SOL    HW219884   3.744   2.228   6.291  3.2371  2.3096  0.8548
 2808SOL     OW19885   4.352   0.989   0.306  0.6185 -0.9235 -0.0756
 2808SOL    HW119886   4.363   1.032   0.220  0.0385 -0.0403  0.2944
 2808SOL    HW219887   4.285   1.035   0.356 -2.0377 -1.4588 -3.1039
 2809SOL     OW19888   4.178   2.881   6.883 -0.1229  0.0390  0.2304
 2809SOL    HW119889   4.183   2.819   6.956  1.5817 -0.0717  0.0304
 2809SOL    HW219890   4.159   2.820   6.812 -0.5397  0.5672 -0.1132
 2810SOL     OW19891   2.895   1.355   3.161 -0.4225  0.0994 -0.6199
 2810SOL    HW119892   2.814   1.396   3.132 -0.6337  0.7721  0.9700
 2810SOL    HW219893   2.913   1.286   3.096  0.4437  1.8541 -2.2472
 2811SOL     OW19894   1.625   2.546   8.631 -0.5567 -0.3598  0.3877
 2811SOL    HW119895   1.599   2.638   8.625  0.8039  0.0583  0.8818
 2811SOL    HW219896   1.716   2.548   8.660 -0.6034  0.5620  0.4690
 2812SOL     OW19897   2.773   2.726  16.758  0.2375  0.0584 -0.0872
 2812SOL    HW119898   2.765   2.682  16.843  2.0828  0.9117  0.5098
 2812SOL    HW219899   2.850   2.782  16.758 -0.9043  1.6172 -2.1438
 2813SOL     OW19900   0.639   3.827   5.786 -0.1882  0.2256 -0.5554
 2813SOL    HW119901   0.722   3.851   5.744 -0.0049  1.5095  0.5604
 2813SOL    HW219902   0.646   3.734   5.807  1.8251  0.7401  1.1285
 2814SOL     OW19903   0.480   2.390   1.755 -0.1630 -0.3466  0.0568
 2814SOL    HW119904   0.473   2.352   1.842  4.2984 -1.0911  0.0784
 2814SOL    HW219905   0.398   2.440   1.756  0.7082  1.0818  0.2309
 2815SOL     OW19906   2.754   0.604  16.220  0.5062  0.3843  0.1973
 2815SOL    HW119907   2.694   0.615  16.146  0.5090 -2.8405 -0.2834
 2815SOL    HW219908   2.826   0.593  16.159  0.2650 -1.2177  0.2050
 2816SOL     OW19909   2.146   0.847   6.904  0.2450  0.6838 -0.0935
 2816SOL    HW119910   2.095   0.894   6.970  0.7707  0.3690  0.5356
 2816SOL    HW219911   2.101   0.764   6.893 -0.2616  1.2891 -2.6107
 2817SOL     OW19912   0.339   2.981   3.400 -0.0200 -0.9992 -0.2413
 2817SOL    HW119913   0.340   2.943   3.312 -0.3189  1.9496 -1.5196
 2817SOL    HW219914   0.426   3.019   3.409  0.8645 -3.0824  0.0232
 2818SOL     OW19915   3.231   4.395   4.754 -0.6389 -0.1951  0.0381
 2818SOL    HW119916   3.275   4.480   4.751 -1.6872  0.3889  0.8359
 2818SOL    HW219917   3.168   4.422   4.687  1.2574  3.7271 -0.1619
 2819SOL     OW19918   1.907   0.635  16.901 -0.4105  0.2871 -0.2703
 2819SOL    HW119919   1.973   0.688  16.947 -0.1252 -0.5464  0.2757
 2819SOL    HW219920   1.963   0.586  16.841 -0.4567  0.7606 -0.7003
 2820SOL     OW19921   2.979   2.679   5.397  0.1347  0.6866  0.6650
 2820SOL    HW119922   3.007   2.592   5.369  1.9292  1.4268  0.1851
 2820SOL    HW219923   3.059   2.707   5.441  0.4932 -0.1169  0.5298
 2821SOL     OW19924   2.249   1.477   2.919  0.1585 -0.0975 -0.1423
 2821SOL    HW119925   2.221   1.389   2.893  0.6631  0.3520 -2.2296
 2821SOL    HW219926   2.221   1.524   2.841  1.9112  0.1638 -0.6178
 2822SOL     OW19927   2.234   4.543  14.876 -0.4385 -0.2305  0.4586
 2822SOL    HW119928   2.281   4.625  14.895 -1.1719  0.7389 -1.8817
 2822SOL    HW219929   2.290   4.506  14.807  0.3646  0.7866  0.5586
 2823SOL     OW19930   2.255   0.288  14.424  0.6252  0.1680  0.5633
 2823SOL    HW119931   2.182   0.344  14.451 -1.1608 -2.3315  0.9658
 2823SOL    HW219932   2.237   0.225  14.493  0.2388 -0.9077 -0.5175
 2824SOL     OW19933   0.272   0.909  14.753 -0.4404 -0.2231  0.1431
 2824SOL    HW119934   0.228   0.972  14.694  0.6261  1.3656  1.0338
 2824SOL    HW219935   0.356   0.952  14.767 -1.7813  2.9510 -1.2666
 2825SOL     OW19936   2.807   0.264   3.858 -1.0742 -0.2073  0.0069
 2825SOL    HW119937   2.796   0.179   3.901 -0.5217  0.0327  0.6166
 2825SOL    HW219938   2.769   0.236   3.774 -1.0152  1.5081 -0.5953
 2826SOL     OW19939   1.294   3.251   1.874 -0.3441 -1.0284  0.2764
 2826SOL    HW119940   1.367   3.202   1.910  2.0750  3.2898  1.2382
 2826SOL    HW219941   1.344   3.312   1.820 -1.1126  0.7806  1.6047
 2827SOL     OW19942   1.717   1.543   6.721  0.1424 -0.0866  0.5604
 2827SOL    HW119943   1.751   1.503   6.642  2.7534  1.0210  1.1023
 2827SOL    HW219944   1.755   1.479   6.782  0.0194 -0.6462  0.0441
 2828SOL     OW19945   0.935   1.618  13.139 -0.5982  0.0923  0.3760
 2828SOL    HW119946   0.919   1.571  13.057 -0.0591  0.5559 -0.0021
 2828SOL    HW219947   0.854   1.667  13.152 -0.0019  1.4193 -0.8975
 2829SOL     OW19948   2.991   0.612  16.647 -0.2113  0.5333 -0.0501
 2829SOL    HW119949   3.038   0.683  16.604  0.8853 -0.4321 -0.4604
 2829SOL    HW219950   2.912   0.608  16.593 -0.7027  0.1584  0.6900
 2830SOL     OW19951   0.140   3.087   7.263 -0.0117  0.3956  0.0768
 2830SOL    HW119952   0.075   3.024   7.233  0.2741 -0.5907  1.5268
 2830SOL    HW219953   0.091   3.169   7.263  1.3859  1.2286 -0.7344
 2831SOL     OW19954   0.007   0.018  12.354  0.2501 -0.3312 -0.4187
 2831SOL    HW119955   0.056   0.034  12.273 -0.8555 -1.2362 -1.2694
 2831SOL    HW219956   0.066   4.682  12.400  0.3889  1.4144  1.6291
 2832SOL     OW19957   3.562   3.080  11.339  0.0911 -0.0412 -0.8968
 2832SOL    HW119958   3.547   3.174  11.335  1.7062  0.2896  0.7537
 2832SOL    HW219959   3.604   3.060  11.255  1.6384 -0.6061  0.0181
 2833SOL     OW19960   4.362   1.019   8.172 -0.4489  0.2965 -0.3784
 2833SOL    HW119961   4.349   0.953   8.241 -0.3440 -0.8162 -1.4265
 2833SOL    HW219962   4.364   1.099   8.225 -1.0846  1.1964 -1.7252
 2834SOL     OW19963   1.828   0.577   0.431  0.0601 -0.1130 -0.1222
 2834SOL    HW119964   1.909   0.533   0.405  0.6585  0.6662  0.4324
 2834SOL    HW219965   1.762   0.529   0.382 -0.6197 -0.3874  1.0766
 2835SOL     OW19966   2.346   3.022  10.980  0.3307 -0.2760  0.2450
 2835SOL    HW119967   2.268   3.076  10.995  0.5880 -0.2253  1.3528
 2835SOL    HW219968   2.418   3.084  10.987  0.2902 -0.2923  0.7999
 2836SOL     OW19969   4.349   0.523   0.964  0.1413 -0.3910 -0.0295
 2836SOL    HW119970   4.441   0.524   0.992 -0.3571  0.8680  1.5567
 2836SOL    HW219971   4.363   0.569   0.882  1.8478 -2.6420 -1.0103
 2837SOL     OW19972   0.321   3.825  11.396  0.3904 -0.1586 -0.0020
 2837SOL    HW119973   0.310   3.860  11.485 -0.9150  1.3663 -0.7623
 2837SOL    HW219974   0.234   3.794  11.372  1.1518  0.3282 -3.3261
 2838SOL     OW19975   4.599   3.196   1.277 -0.3941 -0.1667 -0.0395
 2838SOL    HW119976   4.641   3.282   1.268  0.0615 -0.1868  1.8926
 2838SOL    HW219977   4.607   3.155   1.191 -1.5505 -1.4950  0.4931
 2839SOL     OW19978   1.517   4.668   8.950  0.7192  0.4213 -0.2539
 2839SOL    HW119979   1.578   4.676   9.024  1.2705  1.1242 -0.7835
 2839SOL    HW219980   1.451   0.013   8.962 -2.3123 -2.0386 -3.0749
 2840SOL     OW19981   2.014   4.647   2.984 -0.2304  0.1762 -0.0489
 2840SOL    HW119982   2.000   4.699   3.064  2.2027 -1.4971  1.4576
 2840SOL    HW219983   1.963   4.702   2.924 -1.3762 -1.4331 -0.5395
 2841SOL     OW19984   1.689   0.901   7.631  0.0253  0.1070 -0.0293
 2841SOL    HW119985   1.656   0.813   7.652  0.8842  0.3646  2.4307
 2841SOL    HW219986   1.746   0.921   7.706 -2.1731 -2.5148  2.3355
 2842SOL     OW19987   2.526   3.656  15.243 -0.3526  0.4275  0.0990
 2842SOL    HW119988   2.604   3.606  15.220 -0.2736  0.1880  0.8904
 2842SOL    HW219989   2.472   3.614  15.176  0.4053  1.5771 -1.2406
 2843SOL     OW19990   1.520   3.301   4.547 -0.2697 -0.3747  0.5151
 2843SOL    HW119991   1.437   3.329   4.508 -1.0014 -3.3497 -0.0331
 2843SOL    HW219992   1.540   3.211   4.522 -1.5839 -0.7251  0.7107
 2844SOL     OW19993   2.748   3.180   2.054 -0.0544 -0.0136 -0.1532
 2844SOL    HW119994   2.720   3.102   2.104  0.0214  0.6505  0.9246
 2844SOL    HW219995   2.839   3.181   2.083 -0.6488  0.6568  1.6956
 2845SOL     OW19996   0.482   2.610   8.151  0.5907  0.2158  0.1946
 2845SOL    HW119997   0.490   2.541   8.216  0.2247  0.1471  0.1677
 2845SOL    HW219998   0.416   2.571   8.094 -0.4722 -0.2376  1.7291
 2846SOL     OW19999   2.512   2.074   5.416 -0.3848 -0.0306 -0.3052
 2846SOL    HW120000   2.582   2.032   5.466 -0.1530  1.6477  0.7683
 2846SOL    HW220001   2.537   2.065   5.325  0.8836  0.9643 -0.0541
 2847SOL     OW20002   1.690   2.610   5.419  0.3156 -0.5196  0.1251
 2847SOL    HW120003   1.695   2.563   5.336  1.8906  0.1389 -0.1493
 2847SOL    HW220004   1.783   2.610   5.442  0.4587  0.2222 -0.4604
 2848SOL     OW20005   0.339   1.715   2.555 -0.5988 -0.2179  0.3955
 2848SOL    HW120006   0.270   1.655   2.526  0.4303 -0.8342 -0.8187
 2848SOL    HW220007   0.357   1.759   2.471  2.8291 -3.8031 -0.7705
 2849SOL     OW20008   2.624   1.475   2.674 -0.0363 -0.6309 -0.2471
 2849SOL    HW120009   2.703   1.522   2.648 -1.6352  1.6291 -1.0179
 2849SOL    HW220010   2.554   1.516   2.624 -0.8434 -0.9354  0.6419
 2850SOL     OW20011   0.354   0.989   7.093  0.0360  0.0614 -0.0109
 2850SOL    HW120012   0.313   0.911   7.132  1.6580 -1.5869 -1.6115
 2850SOL    HW220013   0.277   1.043   7.074 -1.0488 -1.3948  0.2042
 2851SOL     OW20014   3.471   1.710  12.466  0.3271  0.0335  0.3044
 2851SOL    HW120015   3.496   1.687  12.555 -1.1914  1.0702  1.0058
 2851SOL    HW220016   3.379   1.737  12.475  0.5569  0.5621  1.0217
 2852SOL     OW20017   2.633   2.380  11.645 -0.3229  0.2741  1.0052
 2852SOL    HW120018   2.658   2.348  11.732  0.9966 -0.8699  0.2041
 2852SOL    HW220019   2.717   2.383  11.600 -1.3524  0.7767 -0.9164
 2853SOL     OW20020   0.192   4.053   7.732 -0.2592 -0.2362  0.1448
 2853SOL    HW120021   0.126   4.047   7.801 -0.4794  0.4413 -0.0069
 2853SOL    HW220022   0.130   4.073   7.662 -0.6979 -2.0664  0.0200
 2854SOL     OW20023   1.817   1.174   7.248 -0.1039  0.1251  0.1226
 2854SOL    HW120024   1.855   1.254   7.286 -2.2048  0.6972  1.0393
 2854SOL    HW220025   1.773   1.129   7.320  2.9874 -0.7446  1.4638
 2855SOL     OW20026   2.273   4.044   2.466  0.1200 -0.0559  0.1143
 2855SOL    HW120027   2.309   3.956   2.461  1.5493  0.3856  2.3947
 2855SOL    HW220028   2.347   4.099   2.492 -0.7675  0.6217  1.2919
 2856SOL     OW20029   3.832   3.905   1.514 -0.3290 -0.6888  0.5824
 2856SOL    HW120030   3.738   3.921   1.526 -0.3921 -0.6352  0.0426
 2856SOL    HW220031   3.846   3.900   1.419  0.9810 -0.7627  0.7716
 2857SOL     OW20032   3.452   1.812   9.082 -0.1804  0.6237  0.0197
 2857SOL    HW120033   3.497   1.732   9.109 -0.1081  0.3502 -0.9230
 2857SOL    HW220034   3.461   1.863   9.163  1.7275 -0.1593  0.3078
 2858SOL     OW20035   2.700   1.688   3.116  0.4612 -0.4958 -0.3158
 2858SOL    HW120036   2.661   1.635   3.046 -3.0801  0.0945  1.2116
 2858SOL    HW220037   2.742   1.754   3.061 -2.7067  0.3446 -1.7862
 2859SOL     OW20038   1.271   3.535   3.174  0.1099 -0.2712  0.0367
 2859SOL    HW120039   1.321   3.456   3.157  0.6443  0.3684 -1.3723
 2859SOL    HW220040   1.345   3.591   3.202 -0.3036  1.0849 -1.5741
 2860SOL     OW20041   3.426   2.558   1.886 -0.3286 -0.2694 -0.1525
 2860SOL    HW120042   3.333   2.573   1.900  0.2170  2.5041  0.5825
 2860SOL    HW220043   3.425   2.554   1.790 -0.1758  0.3201 -0.1835
 2861SOL     OW20044   3.485   2.710   3.919 -0.1653 -0.1614 -0.6465
 2861SOL    HW120045   3.527   2.751   3.995 -1.1152 -1.1845  0.4314
 2861SOL    HW220046   3.405   2.681   3.963  0.2898  0.9406  0.9110
 2862SOL     OW20047   1.328   1.340  15.851 -0.2407 -0.4501 -0.1503
 2862SOL    HW120048   1.384   1.266  15.828  1.2861  0.3300  1.0787
 2862SOL    HW220049   1.246   1.299  15.880 -1.3221  0.5419 -1.8160
 2863SOL     OW20050   0.734   2.584   1.886 -0.3687 -0.4178 -0.3069
 2863SOL    HW120051   0.792   2.598   1.961  0.0138 -1.1071 -0.4734
 2863SOL    HW220052   0.796   2.581   1.813  1.8755 -0.3109  1.5908
 2864SOL     OW20053   3.031   0.273  16.162  0.4247  0.5542  0.3608
 2864SOL    HW120054   3.004   0.311  16.079  0.5361  4.2026  2.0291
 2864SOL    HW220055   2.957   0.287  16.221 -0.9276 -1.1647 -0.9126
 2865SOL     OW20056   4.479   0.178   5.192 -0.1429 -0.2660  0.0065
 2865SOL    HW120057   4.409   0.242   5.177  0.2469  0.0175 -0.5772
 2865SOL    HW220058   4.490   0.152   5.100 -2.3644 -0.5090 -0.2082
 2866SOL     OW20059   2.653   2.721   9.270 -0.3883  0.7835 -0.2549
 2866SOL    HW120060   2.669   2.682   9.356 -0.4858  0.7845 -0.2362
 2866SOL    HW220061   2.743   2.749   9.251  0.4297 -1.3057  0.4408
 2867SOL     OW20062   3.162   2.581   1.919 -0.5028  0.2768 -0.5459
 2867SOL    HW120063   3.137   2.671   1.937 -0.1811  0.1977  0.2893
 2867SOL    HW220064   3.145   2.544   2.005  0.4921 -1.9879 -1.2893
 2868SOL     OW20065   3.400   2.614  13.422  0.3086 -0.1179  0.2648
 2868SOL    HW120066   3.462   2.678  13.458 -1.1879  0.6114  1.5709
 2868SOL    HW220067   3.429   2.536  13.470  0.7270  1.0558  1.9030
 2869SOL     OW20068   0.152   1.427   5.750 -0.0761 -0.1966  0.3175
 2869SOL    HW120069   0.144   1.478   5.669  0.0284 -0.7181 -0.0214
 2869SOL    HW220070   0.083   1.361   5.740 -1.1534  1.0353 -0.4156
 2870SOL     OW20071   3.852   1.888   9.367 -0.1459  0.7283  0.2315
 2870SOL    HW120072   3.818   1.940   9.294  1.0124  1.3639  0.1533
 2870SOL    HW220073   3.847   1.954   9.436 -1.7295 -1.6878  2.4424
 2871SOL     OW20074   0.742   1.968   6.302  0.3885 -0.1482 -0.3406
 2871SOL    HW120075   0.755   2.058   6.273 -1.6409  0.2805  0.0411
 2871SOL    HW220076   0.648   1.950   6.301  0.1606  1.0839 -0.8977
 2872SOL     OW20077   3.939   2.470   4.689  0.2340  0.1353  0.4735
 2872SOL    HW120078   3.980   2.553   4.667  1.2559 -0.2711  0.8689
 2872SOL    HW220079   3.946   2.461   4.784  1.1156 -1.9090  0.2115
 2873SOL     OW20080   0.922   3.337   9.442  0.1184 -0.3028 -0.0594
 2873SOL    HW120081   0.958   3.248   9.449 -0.5466 -0.5806 -0.1095
 2873SOL    HW220082   0.984   3.377   9.382 -1.8355 -0.1611 -1.9604
 2874SOL     OW20083   0.581   0.861   6.558  0.1156  0.1652 -0.7573
 2874SOL    HW120084   0.565   0.804   6.633  1.4767 -0.5380 -1.0074
 2874SOL    HW220085   0.561   0.797   6.490  0.1527 -1.5133  0.8236
 2875SOL     OW20086   3.538   2.427  15.985  0.2068  0.1931  0.4872
 2875SOL    HW120087   3.487   2.452  16.061 -0.0273  0.9790  0.0660
 2875SOL    HW220088   3.475   2.365  15.945  0.0784 -0.4423  1.6847
 2876SOL     OW20089   0.773   3.656   8.398  0.5286 -0.2381  0.5598
 2876SOL    HW120090   0.680   3.646   8.415  0.6101 -0.8713  0.6457
 2876SOL    HW220091   0.780   3.660   8.303  0.0655 -0.8988  0.4976
 2877SOL     OW20092   2.788   2.156   1.762  0.4042 -0.8931 -0.0400
 2877SOL    HW120093   2.807   2.074   1.717  1.9514  0.3641 -1.6844
 2877SOL    HW220094   2.860   2.164   1.825 -0.7914 -1.8791  1.4434
 2878SOL     OW20095   3.143   1.305  10.883 -0.1327  0.1977  0.1711
 2878SOL    HW120096   3.087   1.229  10.898  1.1433 -0.9284 -0.7644
 2878SOL    HW220097   3.224   1.254  10.878 -0.5980 -0.6882  1.5224
 2879SOL     OW20098   2.201   1.477   3.185  0.4746  0.0970 -0.6739
 2879SOL    HW120099   2.278   1.533   3.194  0.8084 -0.2070 -1.6054
 2879SOL    HW220100   2.193   1.484   3.090 -2.0728 -0.6346 -0.5153
 2880SOL     OW20101   0.806   3.332   8.528 -0.1659 -0.0074 -0.0822
 2880SOL    HW120102   0.896   3.365   8.535 -0.4726  0.7072  0.4728
 2880SOL    HW220103   0.813   3.267   8.458  1.0992 -0.1152  0.1414
 2881SOL     OW20104   1.084   4.229   6.692 -0.3424 -0.6936  0.3910
 2881SOL    HW120105   1.064   4.303   6.634 -0.0324 -1.6192 -0.9037
 2881SOL    HW220106   1.070   4.267   6.779 -1.6708  1.1598 -0.6235
 2882SOL     OW20107   3.239   4.080   6.559  0.8197  0.3155  0.0108
 2882SOL    HW120108   3.223   4.126   6.477  0.4877 -2.2351 -1.3426
 2882SOL    HW220109   3.175   4.008   6.556 -1.0471  1.8433  2.8947
 2883SOL     OW20110   4.070   2.512   8.917 -0.8405 -0.4129 -0.0052
 2883SOL    HW120111   4.143   2.452   8.933 -0.0840  0.6130  0.3626
 2883SOL    HW220112   4.064   2.573   8.991  1.4198 -1.0283  0.6866
 2884SOL     OW20113   1.611   3.409  12.680  0.5835 -0.1503  0.0517
 2884SOL    HW120114   1.682   3.361  12.721  1.7324 -0.2289 -1.9977
 2884SOL    HW220115   1.656   3.442  12.602  1.7189 -0.0933  0.7463
 2885SOL     OW20116   4.712   2.177   3.717  0.7863 -0.3552 -0.3194
 2885SOL    HW120117   4.706   2.190   3.622 -0.9231  2.4819  0.1609
 2885SOL    HW220118   4.631   2.216   3.751  1.2851 -1.3249  1.9405
 2886SOL     OW20119   2.434   4.161   5.711 -0.2905 -0.4834  0.3594
 2886SOL    HW120120   2.368   4.139   5.778  1.2728  0.2740  2.1615
 2886SOL    HW220121   2.450   4.248   5.747  0.4913 -0.3471 -0.3429
 2887SOL     OW20122   3.048   1.596  15.751 -0.2506 -0.3148 -0.4999
 2887SOL    HW120123   3.102   1.598  15.829 -0.2723 -0.3442 -0.4840
 2887SOL    HW220124   2.976   1.648  15.786  1.0640  1.0291  0.2061
 2888SOL     OW20125   2.578   2.399   3.265  0.6496 -0.3277  0.6255
 2888SOL    HW120126   2.618   2.460   3.328  0.5325 -0.4762  0.8456
 2888SOL    HW220127   2.542   2.342   3.333 -1.6498  1.1003  0.6112
 2889SOL     OW20128   3.434   2.102   5.425 -0.3892 -0.2131 -0.8503
 2889SOL    HW120129   3.394   2.079   5.508  1.5704  0.0601  0.1579
 2889SOL    HW220130   3.499   2.033   5.412 -0.0987 -0.3483  1.4188
 2890SOL     OW20131   3.433   0.029  14.535  0.3668  0.0700 -0.2238
 2890SOL    HW120132   3.524   0.037  14.504  0.4509 -2.1411 -0.5594
 2890SOL    HW220133   3.438   0.066  14.623 -4.3190  0.9427 -0.3631
 2891SOL     OW20134   4.506   0.622  13.705  0.2432 -0.4163  0.4011
 2891SOL    HW120135   4.563   0.620  13.783 -0.4382  0.3009  0.9156
 2891SOL    HW220136   4.552   0.694  13.662 -2.1429  0.9409  0.1762
 2892SOL     OW20137   2.934   1.336   5.812 -0.7278  0.3179 -0.1349
 2892SOL    HW120138   2.915   1.380   5.895 -1.9721  2.0180 -1.3156
 2892SOL    HW220139   3.004   1.397   5.788  0.6214 -1.1063  0.2143
 2893SOL     OW20140   3.545   2.512   2.973 -0.0756  0.4584 -0.2382
 2893SOL    HW120141   3.545   2.419   2.951 -0.3530  0.0973  1.3490
 2893SOL    HW220142   3.508   2.504   3.061 -0.6919  1.5573 -0.4011
 2894SOL     OW20143   0.195   2.810  14.316 -0.4733  0.1035 -0.5697
 2894SOL    HW120144   0.205   2.842  14.226  0.6514 -1.6025 -1.0665
 2894SOL    HW220145   0.216   2.892  14.360  1.3622 -0.4797 -0.3232
 2895SOL     OW20146   1.626   2.391   5.581 -0.7125  0.1136  0.0790
 2895SOL    HW120147   1.646   2.463   5.522 -0.9382  0.2799  0.2049
 2895SOL    HW220148   1.558   2.430   5.635  0.9757  1.0824  1.5071
 2896SOL     OW20149   2.145   1.943   4.931 -0.0749 -0.0860 -0.3770
 2896SOL    HW120150   2.105   1.886   4.865 -0.7991 -1.3596  1.1448
 2896SOL    HW220151   2.078   1.943   4.999 -0.5507 -1.7683 -0.8281
 2897SOL     OW20152   1.230   2.923   9.298  0.1956  0.2889  0.1317
 2897SOL    HW120153   1.192   2.838   9.276 -1.2482  0.6312  1.3352
 2897SOL    HW220154   1.286   2.941   9.222 -0.2104  3.8346  0.7008
 2898SOL     OW20155   1.445   1.683   7.407 -0.4707  0.1562  0.4477
 2898SOL    HW120156   1.361   1.669   7.452  0.3701  0.5399  2.1375
 2898SOL    HW220157   1.424   1.703   7.316  2.5366 -0.8329 -0.4759
 2899SOL     OW20158   3.528   4.535   3.850 -0.2822 -0.3552  0.1081
 2899SOL    HW120159   3.456   4.492   3.897 -1.6830  3.2130  1.2327
 2899SOL    HW220160   3.522   4.488   3.767 -1.6576  0.8755 -0.5103
 2900SOL     OW20161   3.037   3.210   6.201  0.5644  0.3076 -0.5228
 2900SOL    HW120162   3.035   3.114   6.205  0.1871  0.3076 -0.6708
 2900SOL    HW220163   3.028   3.218   6.106  1.9499  1.9485 -0.5028
 2901SOL     OW20164   2.514   4.335   4.498  0.0728  0.1263  0.2431
 2901SOL    HW120165   2.436   4.316   4.447 -1.1746  1.8941  1.4562
 2901SOL    HW220166   2.475   4.378   4.575 -1.4390 -1.4851  0.3783
 2902SOL     OW20167   4.106   0.747   6.377 -0.3611  0.2575 -0.0341
 2902SOL    HW120168   4.153   0.810   6.432  1.8096 -3.0372  1.8755
 2902SOL    HW220169   4.019   0.786   6.384  0.9494  3.3046 -0.6122
 2903SOL     OW20170   2.917   1.767   5.937  0.4222 -0.0994 -0.0781
 2903SOL    HW120171   2.984   1.816   5.890 -0.6951  1.4815 -0.0230
 2903SOL    HW220172   2.923   1.811   6.021 -2.9098  0.1886  0.0102
 2904SOL     OW20173   3.441   2.176  10.185  0.4719  0.7072  0.5945
 2904SOL    HW120174   3.471   2.086  10.196  1.1433  0.8138 -0.4105
 2904SOL    HW220175   3.384   2.163  10.109  0.1667 -0.9944  1.1106
 2905SOL     OW20176   2.800   0.571   3.870  0.0028 -0.0854 -0.0213
 2905SOL    HW120177   2.805   0.475   3.870  0.4791 -0.0622  0.4340
 2905SOL    HW220178   2.819   0.585   3.777 -0.5466 -0.2736 -0.1607
 2906SOL     OW20179   1.944   3.713   2.772  0.0081 -0.3594 -0.0323
 2906SOL    HW120180   2.016   3.675   2.720  1.3420  1.3854  0.5527
 2906SOL    HW220181   1.901   3.760   2.701  0.0408 -1.0881 -0.5367
 2907SOL     OW20182   3.105   4.163   5.187  0.4616  0.3218 -0.1750
 2907SOL    HW120183   3.136   4.162   5.278  0.0930  1.5684 -0.0359
 2907SOL    HW220184   3.084   4.256   5.180 -0.7452  0.1692  1.3045
 2908SOL     OW20185   3.806   4.649   4.256  0.0402 -0.3883  0.0327
 2908SOL    HW120186   3.817   0.014   4.290  0.7364 -0.9613  1.3316
 2908SOL    HW220187   3.758   4.598   4.321  0.0074  0.1175  0.4073
 2909SOL     OW20188   4.691   1.355   6.743 -0.1054 -0.3957  0.2486
 2909SOL    HW120189   4.638   1.350   6.822  1.7070  0.3717  1.5168
 2909SOL    HW220190   4.642   1.422   6.694 -0.4192  0.6821  2.0355
 2910SOL     OW20191   3.728   2.558   2.278 -0.0639  0.7709  0.0734
 2910SOL    HW120192   3.819   2.538   2.255  0.3167  2.4978  0.1083
 2910SOL    HW220193   3.758   2.619   2.346 -1.9729  1.8661 -0.0875
 2911SOL     OW20194   2.499   2.366  13.988 -0.1156  0.4281  0.2822
 2911SOL    HW120195   2.513   2.367  14.083 -0.2570 -1.3274  0.3109
 2911SOL    HW220196   2.505   2.459  13.967 -0.0491  0.1511 -0.8984
 2912SOL     OW20197   4.405   4.165   1.504  0.1946 -0.1416 -0.5256
 2912SOL    HW120198   4.497   4.182   1.523  0.3267  0.6202 -1.8535
 2912SOL    HW220199   4.362   4.168   1.589  1.4735 -0.6404  0.1361
 2913SOL     OW20200   4.450   1.648   6.059  0.6655  0.1059  0.3565
 2913SOL    HW120201   4.485   1.711   6.122 -0.1576 -1.0115  1.9392
 2913SOL    HW220202   4.366   1.688   6.036  1.0789  0.0208 -1.2921
 2914SOL     OW20203   3.511   2.499  11.768 -0.1994  0.2368 -0.2190
 2914SOL    HW120204   3.479   2.572  11.714  0.3299 -0.1452 -1.0457
 2914SOL    HW220205   3.443   2.438  11.739 -0.4955  1.4257 -2.0146
 2915SOL     OW20206   4.459   2.307   7.946 -0.2981  0.9876  0.1328
 2915SOL    HW120207   4.477   2.378   8.007  0.1321  1.2730 -0.3258
 2915SOL    HW220208   4.487   2.349   7.865 -0.7931  1.6900  0.3278
 2916SOL     OW20209   3.649   3.042   0.867 -0.2790 -1.2099  0.1605
 2916SOL    HW120210   3.622   3.132   0.851 -0.0559 -1.0950  0.4460
 2916SOL    HW220211   3.737   3.058   0.901  0.5421 -0.2318 -2.3995
 2917SOL     OW20212   2.550   0.336   8.476 -0.1899  0.3683  0.4550
 2917SOL    HW120213   2.587   0.364   8.559 -1.0832  0.0281  0.9623
 2917SOL    HW220214   2.566   0.242   8.481  0.1262  0.3787 -0.3046
 2918SOL     OW20215   3.075   3.561   1.464  0.0608 -0.2497 -0.1140
 2918SOL    HW120216   3.006   3.580   1.401 -1.3029 -1.5926  0.9782
 2918SOL    HW220217   3.030   3.494   1.515 -0.9676  0.6600  0.1780
 2919SOL     OW20218   1.225   0.580   0.933 -0.3896  0.2382 -0.4912
 2919SOL    HW120219   1.262   0.650   0.878 -0.5008  0.5185 -0.2110
 2919SOL    HW220220   1.196   0.632   1.008 -0.1342 -0.5745  0.1666
 2920SOL     OW20221   1.081   2.871   2.178 -0.1351 -0.9603 -0.6654
 2920SOL    HW120222   1.155   2.812   2.195  0.6285  0.1117 -0.2253
 2920SOL    HW220223   1.120   2.958   2.187 -3.6802  0.5298 -0.0416
 2921SOL     OW20224   2.515   3.051   0.439 -0.8096 -0.2906 -0.2532
 2921SOL    HW120225   2.574   3.107   0.387 -0.8806 -0.5979 -0.6706
 2921SOL    HW220226   2.494   2.983   0.375 -0.8996 -0.3706 -0.1369
 2922SOL     OW20227   2.910   0.574   7.687 -0.5303 -0.2336  0.6828
 2922SOL    HW120228   2.962   0.628   7.746  1.0112  1.3607 -2.1280
 2922SOL    HW220229   2.976   0.534   7.630 -2.0682 -1.2936 -0.3594
 2923SOL     OW20230   2.738   3.162  10.060  0.2439  0.2326  0.2852
 2923SOL    HW120231   2.819   3.211  10.043  0.7022 -0.6938 -0.2428
 2923SOL    HW220232   2.691   3.178   9.978  2.2699  3.5795 -0.2258
 2924SOL     OW20233   0.630   1.057  14.570  0.3862 -0.3182 -0.2501
 2924SOL    HW120234   0.705   1.036  14.515  1.9012 -0.7884  2.0120
 2924SOL    HW220235   0.556   1.040  14.511  0.2539 -1.8691  0.3720
 2925SOL     OW20236   1.901   2.445   8.906  0.2237  0.2055  0.9808
 2925SOL    HW120237   1.970   2.407   8.960  0.6562 -2.5826 -1.5253
 2925SOL    HW220238   1.953   2.469   8.829  0.1937 -1.0141  0.5686
 2926SOL     OW20239   4.143   2.495   7.616 -0.0666  0.7752  0.1733
 2926SOL    HW120240   4.160   2.402   7.633  3.6666  1.5672  0.6428
 2926SOL    HW220241   4.109   2.487   7.526  1.7069  1.0733 -0.5228
 2927SOL     OW20242   1.098   1.322  17.644 -0.7448 -0.4953  0.1170
 2927SOL    HW120243   1.174   1.268  17.625 -0.2075 -0.3097  1.7587
 2927SOL    HW220244   1.074   1.294   0.034  2.4060  1.6618  1.6245
 2928SOL     OW20245   2.561   3.121  12.640  0.0296 -0.0289  0.4038
 2928SOL    HW120246   2.559   3.176  12.718 -3.8298 -0.0457  0.3354
 2928SOL    HW220247   2.594   3.182  12.574  1.9619 -1.6843 -0.1591
 2929SOL     OW20248   2.860   2.440   9.418 -0.4638 -0.0987  0.0494
 2929SOL    HW120249   2.953   2.458   9.430  0.0258 -2.0128 -0.9275
 2929SOL    HW220250   2.810   2.512   9.456 -0.0558 -0.7450  1.7874
 2930SOL     OW20251   4.391   1.867   6.605 -0.5438  0.6736 -0.2856
 2930SOL    HW120252   4.457   1.933   6.587  0.7873  0.1701  2.7395
 2930SOL    HW220253   4.447   1.799   6.643 -1.5554 -0.6445 -1.1122
 2931SOL     OW20254   1.882   4.252  12.396  0.3238 -0.7246 -0.2596
 2931SOL    HW120255   1.901   4.341  12.369 -0.9065  0.4682  2.7855
 2931SOL    HW220256   1.968   4.209  12.387 -0.0841 -1.6801  0.3342
 2932SOL     OW20257   1.681   4.345   7.060  0.5342 -0.2387 -0.5090
 2932SOL    HW120258   1.732   4.272   7.025 -0.8799 -1.5251  0.1155
 2932SOL    HW220259   1.753   4.372   7.117 -0.5750  0.3479  0.6251
 2933SOL     OW20260   2.931   2.220   8.119 -0.1958 -0.1925  0.2779
 2933SOL    HW120261   3.027   2.226   8.119 -0.1385 -0.7882 -3.3046
 2933SOL    HW220262   2.928   2.154   8.050 -3.0540 -0.6411  0.8259
 2934SOL     OW20263   0.750   4.292   3.648  0.0855  0.0729  0.3134
 2934SOL    HW120264   0.750   4.342   3.566 -0.2613  0.0743  0.3168
 2934SOL    HW220265   0.839   4.313   3.675  0.4659 -0.1081 -0.7838
 2935SOL     OW20266   3.901   0.580   4.914  0.0139  0.1666 -0.3486
 2935SOL    HW120267   3.856   0.501   4.885 -0.2762 -0.8121  2.7240
 2935SOL    HW220268   3.840   0.600   4.986  0.5561  2.3740 -0.4869
 2936SOL     OW20269   3.486   1.786   9.862 -0.0960 -0.1899  0.2111
 2936SOL    HW120270   3.515   1.701   9.895 -2.4149 -1.3472 -0.7208
 2936SOL    HW220271   3.397   1.761   9.839 -0.2453 -0.3100  0.9344
 2937SOL     OW20272   2.907   0.867   4.549 -0.0201 -0.4568 -1.1337
 2937SOL    HW120273   2.914   0.960   4.572  1.9212 -0.6044 -1.0989
 2937SOL    HW220274   2.815   0.860   4.524 -0.3960  1.6820 -0.3874
 2938SOL     OW20275   2.810   0.314   8.976  0.1000  0.2619 -0.1449
 2938SOL    HW120276   2.861   0.354   9.046 -1.9624 -1.5727  2.3896
 2938SOL    HW220277   2.725   0.314   9.020 -0.2948 -3.2654 -0.8731
 2939SOL     OW20278   0.946   3.410   8.238 -0.0567  0.3553  0.5218
 2939SOL    HW120279   0.997   3.449   8.308  0.4694 -2.3889  1.6636
 2939SOL    HW220280   1.003   3.338   8.210  0.5042 -0.2908  3.3787
 2940SOL     OW20281   4.691   3.647  12.236  0.2053  0.2289 -0.2097
 2940SOL    HW120282   4.650   3.678  12.317 -2.3833 -0.1097 -1.3833
 2940SOL    HW220283   0.057   3.643  12.269  0.9632 -0.2026 -2.3271
 2941SOL     OW20284   2.664   4.293  11.634 -0.3036  0.0194 -0.3231
 2941SOL    HW120285   2.602   4.329  11.698  1.6603  2.5221  0.2205
 2941SOL    HW220286   2.602   4.267  11.566 -1.3406 -1.1602  1.0695
 2942SOL     OW20287   3.373   1.627  15.169 -0.2516  0.6547  0.6201
 2942SOL    HW120288   3.411   1.583  15.093 -3.9753 -1.3729 -0.0510
 2942SOL    HW220289   3.395   1.719  15.157  1.2858  0.7267  3.9784
 2943SOL     OW20290   0.075   2.174   0.171  0.0594  0.4916 -0.1045
 2943SOL    HW120291   0.067   2.094   0.120  0.8746 -0.7793  1.7929
 2943SOL    HW220292   0.045   2.152   0.259  0.2457  1.0304  0.0979
 2944SOL     OW20293   1.868   4.112   4.498  0.1650 -0.2471  0.5340
 2944SOL    HW120294   1.814   4.094   4.420 -0.5418 -0.5451  1.0932
 2944SOL    HW220295   1.821   4.189   4.530  1.1789  1.3135 -1.6802
 2945SOL     OW20296   2.598   1.208  12.329  0.1353  0.7954 -0.2661
 2945SOL    HW120297   2.534   1.144  12.360  0.3421  1.1673  0.9211
 2945SOL    HW220298   2.629   1.223  12.418 -0.0691  2.0176 -0.3980
 2946SOL     OW20299   4.311   1.151  12.976  0.6771 -0.2062  0.0013
 2946SOL    HW120300   4.241   1.204  13.011 -0.3306 -1.2211 -0.4704
 2946SOL    HW220301   4.300   1.165  12.882  0.2610 -0.4361  0.0154
 2947SOL     OW20302   1.813   0.995   0.544  0.8006 -0.2689  0.5699
 2947SOL    HW120303   1.813   0.961   0.634  0.2787  2.2632  1.5183
 2947SOL    HW220304   1.746   0.937   0.507 -1.2375  2.0588  0.5806
 2948SOL     OW20305   0.182   2.856   0.282 -0.4383  0.6593  0.2407
 2948SOL    HW120306   0.232   2.777   0.299 -1.3228 -0.2193 -1.1716
 2948SOL    HW220307   0.093   2.824   0.264 -0.7460  1.5333  0.1834
 2949SOL     OW20308   0.548   2.270   5.494  0.2366 -0.0753 -0.0413
 2949SOL    HW120309   0.583   2.332   5.557 -0.1831 -1.1637  1.2556
 2949SOL    HW220310   0.518   2.323   5.421  1.2784 -0.1358 -0.5128
 2950SOL     OW20311   0.490   0.579  14.969  0.4252 -0.3250  0.1618
 2950SOL    HW120312   0.544   0.504  14.947  0.5587 -1.0250  2.8151
 2950SOL    HW220313   0.420   0.532  15.016 -0.4988  0.4664 -0.4271
 2951SOL     OW20314   4.239   0.021   1.443  0.5291 -0.6838  0.0329
 2951SOL    HW120315   4.273   0.111   1.435 -4.3975  1.0437 -1.5391
 2951SOL    HW220316   4.170   0.027   1.376 -0.7354 -1.1444  1.3065
 2952SOL     OW20317   3.257   1.709   4.402  0.1682  0.7028 -0.6244
 2952SOL    HW120318   3.252   1.660   4.320  3.1936 -2.4658  1.0703
 2952SOL    HW220319   3.335   1.663   4.432 -0.5038  0.7321  1.1813
 2953SOL     OW20320   1.609   3.930   5.485  0.1309 -0.6171  0.2252
 2953SOL    HW120321   1.618   3.858   5.422 -1.2954 -0.9877  0.4493
 2953SOL    HW220322   1.645   3.891   5.564  1.0187 -0.6672 -0.2031
 2954SOL     OW20323   2.638   0.946  14.009 -0.4832  0.1123  0.5593
 2954SOL    HW120324   2.692   0.880  14.051 -0.4257  0.5233  1.1228
 2954SOL    HW220325   2.699   1.020  14.009 -2.0891  1.4291 -0.4770
 2955SOL     OW20326   1.534   3.060   9.661  0.0038 -0.4056 -0.8923
 2955SOL    HW120327   1.450   3.105   9.655  0.1356  0.0675  0.8727
 2955SOL    HW220328   1.523   3.006   9.583 -1.6090  0.8774 -1.5448
 2956SOL     OW20329   3.418   2.700  15.394 -0.2375 -0.3730 -0.2553
 2956SOL    HW120330   3.448   2.786  15.363  3.4608 -2.3733 -2.1818
 2956SOL    HW220331   3.324   2.720  15.392 -0.0406  0.5143 -0.5099
 2957SOL     OW20332   4.252   4.273   5.905  0.0001 -0.0548 -0.3891
 2957SOL    HW120333   4.266   4.179   5.911 -0.6784 -0.1133  0.3093
 2957SOL    HW220334   4.174   4.271   5.849 -1.4809  4.1341  1.5099
 2958SOL     OW20335   0.896   0.958   4.378 -0.3599  0.3597 -0.4955
 2958SOL    HW120336   0.893   0.871   4.416 -3.4342  0.3089 -0.8333
 2958SOL    HW220337   0.850   0.939   4.296  1.9290 -2.3445 -1.1371
 2959SOL     OW20338   1.239   4.648   0.644  0.4829  0.4724 -0.0752
 2959SOL    HW120339   1.162   4.698   0.669 -0.4706 -0.9943 -0.0898
 2959SOL    HW220340   1.238   4.571   0.702 -0.6342  0.2469 -0.4027
 2960SOL     OW20341   2.281   4.380   5.048 -0.1596  0.1090 -0.5788
 2960SOL    HW120342   2.340   4.435   5.099 -0.9711  0.8337 -0.4233
 2960SOL    HW220343   2.199   4.420   5.075  0.2029 -1.4267  2.7874
 2961SOL     OW20344   0.697   3.165   4.363 -0.1749  0.0880  0.1611
 2961SOL    HW120345   0.712   3.154   4.269  3.2716  2.0452  0.4784
 2961SOL    HW220346   0.614   3.117   4.371 -0.3124  0.0240 -1.6085
 2962SOL     OW20347   0.195   3.395   5.906 -0.5582  0.1166  0.1436
 2962SOL    HW120348   0.170   3.306   5.880 -1.4164  0.8066 -1.3913
 2962SOL    HW220349   0.288   3.377   5.915 -0.6160 -0.0653  0.3704
 2963SOL     OW20350   1.436   2.497  10.446 -0.1096  0.2026 -0.3617
 2963SOL    HW120351   1.450   2.590  10.466 -1.4710  0.7160 -1.7499
 2963SOL    HW220352   1.393   2.471  10.528  0.3023 -1.5346 -0.6989
 2964SOL     OW20353   3.174   3.782   4.503 -0.7147 -0.0142 -0.0823
 2964SOL    HW120354   3.163   3.854   4.565 -0.6710 -1.0196  1.0725
 2964SOL    HW220355   3.150   3.712   4.563  0.3348  0.3095  0.7088
 2965SOL     OW20356   1.328   0.595   3.197  0.3888 -0.3205  0.0354
 2965SOL    HW120357   1.420   0.616   3.208  0.6425 -1.6830  0.5375
 2965SOL    HW220358   1.291   0.617   3.282 -0.9893 -3.9706  0.3839
 2966SOL     OW20359   1.970   2.189  11.303  0.0277  0.4200  0.4912
 2966SOL    HW120360   2.022   2.115  11.336 -0.5397  1.5528  3.9879
 2966SOL    HW220361   1.933   2.236  11.378 -1.0227 -0.1717  0.3425
 2967SOL     OW20362   4.004   0.203   9.488 -0.6881  0.0028  0.3390
 2967SOL    HW120363   3.927   0.154   9.517 -0.4015 -0.8932 -0.4222
 2967SOL    HW220364   4.069   0.137   9.464  1.1555  1.4539  1.3189
 2968SOL     OW20365   1.599   4.501   2.220 -0.0950  0.6087 -0.1533
 2968SOL    HW120366   1.672   4.463   2.172  0.4728 -0.6270  1.6703
 2968SOL    HW220367   1.609   4.596   2.221 -1.0908  0.7235 -1.1948
 2969SOL     OW20368   4.228   2.113   2.561 -0.1882 -0.2722  0.1800
 2969SOL    HW120369   4.208   2.101   2.654  1.2789  3.7731  1.0322
 2969SOL    HW220370   4.139   2.124   2.528 -0.3651  0.4728  0.8934
 2970SOL     OW20371   3.948   2.305   9.899 -0.2787  0.8079  0.0011
 2970SOL    HW120372   3.907   2.388   9.873  0.5585  1.0917 -0.4369
 2970SOL    HW220373   4.032   2.344   9.922  0.5656 -1.6636  1.0626
 2971SOL     OW20374   1.650   3.894   7.851  0.0408  0.1597 -0.1946
 2971SOL    HW120375   1.558   3.917   7.863 -0.3966 -0.3160 -2.6150
 2971SOL    HW220376   1.686   3.982   7.839 -0.1676  0.6709  2.9233
 2972SOL     OW20377   1.524   4.682   1.201  0.0332  0.1050  0.2500
 2972SOL    HW120378   1.472   4.649   1.274 -0.9134 -0.2267 -0.5876
 2972SOL    HW220379   1.599   4.624   1.209  0.8589  0.9006 -1.6634
 2973SOL     OW20380   2.695   3.374   9.474  0.1350 -0.1884 -0.9576
 2973SOL    HW120381   2.619   3.364   9.532  0.8883  2.9567  0.5918
 2973SOL    HW220382   2.744   3.297   9.501 -0.4923 -0.4384 -0.5177
 2974SOL     OW20383   1.264   4.450   6.405  0.0931  0.6423 -0.3580
 2974SOL    HW120384   1.171   4.433   6.417  0.4920  0.4372  2.4761
 2974SOL    HW220385   1.294   4.360   6.415  0.6340  1.0133  1.4268
 2975SOL     OW20386   1.631   4.576   6.442 -0.2879 -0.0073  0.0317
 2975SOL    HW120387   1.691   4.507   6.414  1.1691  1.1243  0.4024
 2975SOL    HW220388   1.627   4.571   6.537  0.5304 -1.6530 -0.0263
 2976SOL     OW20389   3.397   0.044   8.562  0.6062  0.1363  0.8857
 2976SOL    HW120390   3.306   0.073   8.557  1.2847  2.2884  0.8251
 2976SOL    HW220391   3.397   0.032   8.657 -1.9437 -3.3111  0.4535
 2977SOL     OW20392   0.467   2.334  13.799 -0.2202 -0.4103 -0.3644
 2977SOL    HW120393   0.559   2.327  13.823  0.0735  0.4544 -1.2090
 2977SOL    HW220394   0.440   2.415  13.842 -0.4449  0.0650 -1.3947
 2978SOL     OW20395   0.569   4.700   8.762 -0.3977 -0.5773 -0.1888
 2978SOL    HW120396   0.595   0.042   8.827 -1.4775  0.2568 -0.6127
 2978SOL    HW220397   0.480   0.006   8.744 -0.0896  1.8650  2.4408
 2979SOL     OW20398   2.877   1.146   4.656 -0.0136  0.6520 -0.8310
 2979SOL    HW120399   2.932   1.193   4.718 -2.4615  1.8934  0.3821
 2979SOL    HW220400   2.833   1.217   4.609 -0.5081 -0.3492 -1.8856
 2980SOL     OW20401   3.948   4.477   8.123 -0.6131  0.8471 -0.2621
 2980SOL    HW120402   3.874   4.512   8.073 -2.0591 -0.5001  0.9134
 2980SOL    HW220403   3.937   4.536   8.198  0.2837  0.0921  0.4639
 2981SOL     OW20404   2.824   3.181   7.916 -0.4438 -0.2568  0.5591
 2981SOL    HW120405   2.917   3.186   7.938 -0.7095 -4.2732  2.4331
 2981SOL    HW220406   2.819   3.107   7.856 -0.5705 -0.1376  0.4201
 2982SOL     OW20407   1.212   2.001  17.414 -0.2811 -0.2958 -0.2040
 2982SOL    HW120408   1.130   2.014  17.462 -1.3800 -1.4906 -1.7770
 2982SOL    HW220409   1.272   1.962  17.477  0.1026 -1.7955 -1.4929
 2983SOL     OW20410   1.886   2.601   8.218 -0.6324  0.6517  0.3023
 2983SOL    HW120411   1.817   2.543   8.189 -1.0804  1.7090 -0.7563
 2983SOL    HW220412   1.833   2.679   8.237 -0.9161  0.1941  1.3870
 2984SOL     OW20413   1.629   2.881   3.348  0.2578 -0.0359 -0.7304
 2984SOL    HW120414   1.556   2.941   3.335 -2.3096 -2.9170  0.1879
 2984SOL    HW220415   1.584   2.797   3.334  1.3010 -0.4739 -1.5137
 2985SOL     OW20416   1.235   2.747  14.465  0.2477 -0.3114 -0.5958
 2985SOL    HW120417   1.288   2.698  14.527 -1.4379 -0.6293  0.5834
 2985SOL    HW220418   1.256   2.838  14.484 -0.7243 -0.2332  0.0820
 2986SOL     OW20419   4.310   0.987   3.001  0.1051 -0.3624 -0.1223
 2986SOL    HW120420   4.257   1.066   2.987  1.8345  0.3745 -2.6021
 2986SOL    HW220421   4.251   0.926   3.044 -0.8925 -1.5673 -3.2028
 2987SOL     OW20422   4.094   0.385   6.974  0.1787 -0.0079  0.1324
 2987SOL    HW120423   4.186   0.400   6.953  0.1840 -0.3654 -0.1102
 2987SOL    HW220424   4.097   0.353   7.064 -0.7855 -0.8155 -0.1117
 2988SOL     OW20425   3.126   3.837   8.761 -0.2961  0.3056  0.1183
 2988SOL    HW120426   3.083   3.894   8.825 -2.0462  1.0373 -1.6589
 2988SOL    HW220427   3.080   3.866   8.682  0.7767  1.1412 -0.1962
 2989SOL     OW20428   4.460   1.030  14.446 -0.3522  0.0005  0.2178
 2989SOL    HW120429   4.486   1.116  14.414 -3.6403  1.1492  0.5821
 2989SOL    HW220430   4.521   1.013  14.518  1.3880  0.8275 -1.0787
 2990SOL     OW20431   1.258   3.516   8.664  0.0997 -0.5226  0.1336
 2990SOL    HW120432   1.346   3.487   8.641  0.4645  0.5899  0.0863
 2990SOL    HW220433   1.260   3.573   8.741 -0.5980 -1.0405  0.5385
 2991SOL     OW20434   1.831   2.647   9.141 -0.8163  0.2744  0.1871
 2991SOL    HW120435   1.832   2.562   9.098  0.1059  0.1463  0.4486
 2991SOL    HW220436   1.902   2.693   9.095  0.3753  1.1465  2.8955
 2992SOL     OW20437   0.343   0.921   4.675  0.6431  0.5985  0.2179
 2992SOL    HW120438   0.401   0.844   4.678  0.5077  0.4563 -0.7413
 2992SOL    HW220439   0.416   0.981   4.684  0.1696  1.4149 -1.3867
 2993SOL     OW20440   3.159   3.414   2.380  0.2212  0.1142 -1.0094
 2993SOL    HW120441   3.118   3.357   2.445 -0.6438 -0.7483 -2.3100
 2993SOL    HW220442   3.230   3.362   2.343  0.9558 -1.3041  2.3686
 2994SOL     OW20443   1.197   1.866   4.438  0.3083 -0.4480 -0.1099
 2994SOL    HW120444   1.150   1.787   4.463  1.8454 -1.5878 -0.8460
 2994SOL    HW220445   1.262   1.835   4.375 -0.3466 -3.1965  0.5972
 2995SOL     OW20446   2.425   2.603   7.246 -0.3664 -0.2283  0.1031
 2995SOL    HW120447   2.361   2.650   7.191 -0.2321 -0.2337 -0.0588
 2995SOL    HW220448   2.418   2.628   7.338 -1.1062 -1.3368  0.3397
 2996SOL     OW20449   3.220   4.376  13.242  0.1868  0.6827 -0.4084
 2996SOL    HW120450   3.291   4.326  13.282  0.2285 -0.9780 -2.5236
 2996SOL    HW220451   3.168   4.396  13.320 -1.5704 -0.9867 -1.1367
 2997SOL     OW20452   4.685   4.018  15.806 -0.4163 -0.1505  0.1208
 2997SOL    HW120453   4.721   3.935  15.776 -0.4673 -0.2090  0.2228
 2997SOL    HW220454   0.037   4.062  15.844  1.4610  0.5983 -4.5268
 2998SOL     OW20455   1.828   2.951   2.290  0.6994  0.2144  0.1022
 2998SOL    HW120456   1.880   3.030   2.274  1.1087 -0.1224 -0.2101
 2998SOL    HW220457   1.886   2.876   2.285  1.8307  1.2263 -1.9945
 2999SOL     OW20458   3.497   3.219   3.030  0.0143 -0.0008 -0.0920
 2999SOL    HW120459   3.439   3.223   3.106 -0.0542  0.2740 -0.1599
 2999SOL    HW220460   3.529   3.129   3.033 -1.3903 -0.5161 -0.4964
 3000SOL     OW20461   1.335   0.418   5.369  0.1070  0.1158 -0.2994
 3000SOL    HW120462   1.343   0.471   5.449  3.8689 -1.5645  0.4095
 3000SOL    HW220463   1.379   0.339   5.399 -0.1525 -0.6027 -1.8484
 3001SOL     OW20464   1.908   0.836   1.162  0.8111 -0.7583  0.2578
 3001SOL    HW120465   1.967   0.834   1.086  0.5098  1.7820 -0.0373
 3001SOL    HW220466   1.849   0.767   1.132 -2.1286  1.1842  1.6431
 3002SOL     OW20467   3.520   2.556  17.104  0.2511 -0.1008 -0.4171
 3002SOL    HW120468   3.604   2.514  17.118 -0.9427 -1.5578  2.5451
 3002SOL    HW220469   3.534   2.607  17.025  1.6407  0.7567  0.3802
 3003SOL     OW20470   1.690   3.869   7.382  0.2809 -0.4801  0.6525
 3003SOL    HW120471   1.723   3.860   7.472  1.0133 -2.1538  0.2080
 3003SOL    HW220472   1.747   3.814   7.330  0.4579 -0.9909  1.3837
 3004SOL     OW20473   2.728   3.118   2.817 -0.5777  0.5982  0.0333
 3004SOL    HW120474   2.801   3.179   2.809  1.6500 -2.1650 -0.8660
 3004SOL    HW220475   2.655   3.171   2.786 -1.0023 -0.8570 -1.4825
 3005SOL     OW20476   1.136   2.942   0.308  0.0199  0.2635  0.6338
 3005SOL    HW120477   1.056   2.951   0.358 -0.3511 -1.2098  0.3236
 3005SOL    HW220478   1.200   2.953   0.378 -1.0137  1.7507  1.3291
 3006SOL     OW20479   4.253   2.879   7.243  0.3293 -0.1168 -0.8159
 3006SOL    HW120480   4.217   2.801   7.202 -0.6740 -1.2843  2.3054
 3006SOL    HW220481   4.244   2.861   7.337 -0.3902  1.7672 -0.5218
 3007SOL     OW20482   4.698   3.520   7.882  0.5453  0.3627  0.3669
 3007SOL    HW120483   4.602   3.521   7.887  0.4340  0.4678 -1.6531
 3007SOL    HW220484   4.722   3.497   7.971 -0.4783  1.6758  0.9779
 3008SOL     OW20485   1.876   2.059   8.852  0.0093 -0.5171 -0.5521
 3008SOL    HW120486   1.915   2.090   8.770 -0.0578 -0.9605 -0.7493
 3008SOL    HW220487   1.901   1.967   8.846 -0.4889 -0.8598  2.6367
 3009SOL     OW20488   3.798   3.990   2.371  0.5741  0.3578  0.1269
 3009SOL    HW120489   3.719   4.021   2.416 -0.7677 -0.2931 -1.7453
 3009SOL    HW220490   3.756   3.966   2.289  1.7582 -1.2369  0.0034
 3010SOL     OW20491   2.356   3.584  11.009 -0.3553 -0.2521 -0.5075
 3010SOL    HW120492   2.321   3.622  11.089 -2.1863 -2.3433 -0.3041
 3010SOL    HW220493   2.432   3.537  11.042 -1.3593  0.0950  2.2514
 3011SOL     OW20494   3.385   2.467   0.525  0.0105 -0.3369 -0.3742
 3011SOL    HW120495   3.359   2.550   0.565 -0.3249 -1.6737  2.1619
 3011SOL    HW220496   3.338   2.472   0.441 -1.0295  1.0873  0.2888
 3012SOL     OW20497   3.239   1.212   0.668  0.0601  0.2853 -0.3309
 3012SOL    HW120498   3.152   1.203   0.628 -0.6612  0.0969  1.2721
 3012SOL    HW220499   3.249   1.126   0.708 -2.4072  0.3692  0.5243
 3013SOL     OW20500   3.269   3.666   8.937  0.1327 -0.7123 -0.7498
 3013SOL    HW120501   3.218   3.651   9.017 -0.1054 -1.0739 -0.9697
 3013SOL    HW220502   3.212   3.730   8.893 -0.1489 -0.8600 -0.6011
 3014SOL     OW20503   3.285   3.094  11.350  0.2006  0.8045  0.0413
 3014SOL    HW120504   3.364   3.040  11.349  0.2946  0.9625 -2.7733
 3014SOL    HW220505   3.223   3.039  11.303 -0.0545  0.8456  0.3351
 3015SOL     OW20506   2.480   0.789   7.203 -0.1652  0.5978 -0.1308
 3015SOL    HW120507   2.547   0.738   7.249 -0.9080 -0.2917 -0.0413
 3015SOL    HW220508   2.429   0.721   7.158  1.1529 -0.6571  0.2503
 3016SOL     OW20509   2.949   1.164   2.716  0.1828 -0.4590 -0.0384
 3016SOL    HW120510   2.892   1.240   2.729 -0.2950 -1.0484  1.2830
 3016SOL    HW220511   3.005   1.177   2.792 -1.6883 -0.6179  1.3547
 3017SOL     OW20512   3.505   4.609  17.282  0.0009 -0.3738  0.0912
 3017SOL    HW120513   3.478   4.601  17.190  1.8295  1.2335 -0.6102
 3017SOL    HW220514   3.556   4.530  17.297  1.8753  0.3277 -2.5587
 3018SOL     OW20515   2.605   1.350  16.097 -0.3612  0.4251 -0.1015
 3018SOL    HW120516   2.595   1.304  16.013 -1.2404  0.5045 -0.0423
 3018SOL    HW220517   2.525   1.322  16.141 -0.0418 -2.1053 -1.0925
 3019SOL     OW20518   2.568   0.268   7.178  0.0513  0.7305  0.1396
 3019SOL    HW120519   2.522   0.206   7.122 -0.1194  0.0646  1.0182
 3019SOL    HW220520   2.507   0.300   7.243 -2.0258 -3.6115  0.3047
 3020SOL     OW20521   3.822   0.161   4.374  0.0175 -0.3378  0.0853
 3020SOL    HW120522   3.737   0.201   4.391 -0.6974 -1.2381 -1.3246
 3020SOL    HW220523   3.850   0.129   4.460 -1.2518  1.2283  1.0815
 3021SOL     OW20524   3.455   0.403   7.820 -0.6988 -0.0347 -0.1115
 3021SOL    HW120525   3.373   0.414   7.868  0.0071 -0.2850  1.1657
 3021SOL    HW220526   3.512   0.365   7.887  0.0626 -0.0745 -0.7815
 3022SOL     OW20527   3.681   0.071  14.416  0.3837  0.2812 -0.5768
 3022SOL    HW120528   3.723   0.113  14.341 -0.7498  1.8272 -0.3566
 3022SOL    HW220529   3.676   4.705  14.387  0.3021  0.5817 -1.4745
 3023SOL     OW20530   1.074   1.333   4.192 -0.2893 -0.1085  0.1473
 3023SOL    HW120531   1.026   1.413   4.214 -0.2539 -0.3337  1.0194
 3023SOL    HW220532   1.049   1.278   4.266  0.2198  0.7550  0.9663
 3024SOL     OW20533   2.962   2.278   0.339 -0.1640  0.0306  0.3448
 3024SOL    HW120534   2.919   2.209   0.391  0.1373  0.0752  0.6555
 3024SOL    HW220535   3.005   2.332   0.406 -1.5667 -0.0843  1.3392
 3025SOL     OW20536   1.342   4.039   7.310  0.1520  0.3325 -0.2291
 3025SOL    HW120537   1.367   3.983   7.237  3.6951 -0.5396  1.6938
 3025SOL    HW220538   1.376   3.995   7.387 -1.0711  1.3403  0.9009
 3026SOL     OW20539   2.409   1.712   2.016 -0.0451 -0.3447  0.1908
 3026SOL    HW120540   2.359   1.771   2.072  3.0536  1.4434  1.0913
 3026SOL    HW220541   2.352   1.712   1.939  1.8335 -3.1579 -1.2101
 3027SOL     OW20542   3.142   0.031  15.573  0.0831 -0.2525  0.3589
 3027SOL    HW120543   3.225   0.072  15.599  0.1074  1.4264 -2.2475
 3027SOL    HW220544   3.091   0.108  15.547  0.7428 -0.0238 -0.3007
 3028SOL     OW20545   1.279   4.590   2.946 -0.5999 -0.3258 -0.1243
 3028SOL    HW120546   1.252   4.550   3.028  0.7214 -3.0718 -1.0590
 3028SOL    HW220547   1.363   4.549   2.924  0.3123  0.8419  1.2079
 3029SOL     OW20548   1.269   4.611   4.962 -0.5104 -0.2243 -0.5425
 3029SOL    HW120549   1.342   4.646   5.013 -2.7375 -1.1144  3.2637
 3029SOL    HW220550   1.227   4.556   5.028 -0.6332  0.3209 -0.1708
 3030SOL     OW20551   2.741   3.987   6.037  0.4592  0.3222 -0.0452
 3030SOL    HW120552   2.705   4.011   5.951 -0.6949  0.8001  0.5796
 3030SOL    HW220553   2.667   3.970   6.094 -0.4192 -0.9547 -1.5744
 3031SOL     OW20554   0.567   4.522  12.523 -0.2158 -0.0470  0.0106
 3031SOL    HW120555   0.575   4.470  12.603 -0.1493  0.3948  0.2886
 3031SOL    HW220556   0.609   4.601  12.555  1.5721 -0.3178 -1.6212
 3032SOL     OW20557   0.074   2.988   9.818  0.1320  0.3126  0.4912
 3032SOL    HW120558   0.075   3.083   9.813  2.4059 -0.0430 -5.9989
 3032SOL    HW220559   0.165   2.971   9.796 -0.1485 -2.2018  1.2147
 3033SOL     OW20560   3.478   0.340  14.348 -0.6210  0.0972  0.0927
 3033SOL    HW120561   3.559   0.315  14.391  1.7650  1.3031 -3.6831
 3033SOL    HW220562   3.462   0.420  14.399  1.2862  1.9927 -2.2737
 3034SOL     OW20563   2.621   2.081   8.641  0.6229  0.8951  0.0415
 3034SOL    HW120564   2.690   2.147   8.634 -0.0359  1.6216  0.4048
 3034SOL    HW220565   2.639   2.023   8.567  0.3126  1.3552 -0.3913
 3035SOL     OW20566   1.795   1.246   8.368  0.4175  0.0201  0.6753
 3035SOL    HW120567   1.750   1.327   8.345 -1.5110 -1.1391  0.3180
 3035SOL    HW220568   1.821   1.265   8.458  3.8238 -0.0355 -0.2961
 3036SOL     OW20569   3.549   0.130   8.349  0.3031  0.2113 -0.0538
 3036SOL    HW120570   3.474   0.118   8.407  0.4854  2.0610  0.5591
 3036SOL    HW220571   3.616   0.159   8.411  1.3654 -2.2631 -0.0378
 3037SOL     OW20572   4.456   0.815   7.749  0.5488  0.0548  0.2122
 3037SOL    HW120573   4.500   0.869   7.683  0.0690  1.0868  0.7283
 3037SOL    HW220574   4.456   0.728   7.711 -0.4704  1.1295 -2.2395
 3038SOL     OW20575   0.183   0.440  17.105  0.2712 -0.1446  0.1767
 3038SOL    HW120576   0.236   0.377  17.155  1.1612  1.4630  1.2820
 3038SOL    HW220577   0.239   0.442  17.028  1.4669  0.2635  1.0427
 3039SOL     OW20578   3.276   1.135   7.252  0.8754 -0.2330  0.4204
 3039SOL    HW120579   3.193   1.181   7.268  0.9125  0.1644 -0.5578
 3039SOL    HW220580   3.328   1.210   7.222  1.4204 -1.1623 -0.9449
 3040SOL     OW20581   1.633   2.821   2.430 -0.3155 -0.5631  0.4242
 3040SOL    HW120582   1.621   2.734   2.391 -1.5343  0.3526 -1.1976
 3040SOL    HW220583   1.709   2.849   2.380 -0.0883  0.1503  1.1646
 3041SOL     OW20584   3.082   1.527   6.243  0.6793 -0.1969 -0.5940
 3041SOL    HW120585   3.014   1.528   6.175 -1.7362  0.0212  1.8108
 3041SOL    HW220586   3.113   1.438   6.223  0.1453 -0.6181  0.4474
 3042SOL     OW20587   0.862   3.175   2.427 -0.6011  0.1314 -0.2315
 3042SOL    HW120588   0.835   3.187   2.336  0.8516  1.3161 -0.5099
 3042SOL    HW220589   0.956   3.191   2.433 -0.4792 -0.7514  0.2819
 3043SOL     OW20590   4.714   4.275  12.367  0.2434  0.1318 -0.1333
 3043SOL    HW120591   4.619   4.267  12.363  0.1444 -0.3981  3.0357
 3043SOL    HW220592   0.006   4.323  12.286  1.6700 -0.4273 -0.1893
 3044SOL     OW20593   2.313   4.624   5.191 -0.1344 -0.7206 -0.5312
 3044SOL    HW120594   2.402   4.608   5.158  0.3091  2.0955 -0.7225
 3044SOL    HW220595   2.341   4.701   5.240  0.2413 -0.1863 -1.5690
 3045SOL     OW20596   2.367   2.076   4.393  0.2406 -0.0046  0.3107
 3045SOL    HW120597   2.399   2.102   4.307  1.0818  0.3405  0.7355
 3045SOL    HW220598   2.345   1.983   4.386  1.3632 -0.3981  2.0917
 3046SOL     OW20599   0.215   4.415   5.703 -0.0974  0.0127 -0.2457
 3046SOL    HW120600   0.240   4.488   5.646 -0.4539 -0.0384 -0.4637
 3046SOL    HW220601   0.299   4.385   5.739 -0.7578 -0.9503  0.4997
 3047SOL     OW20602   1.014   2.544   3.448 -0.0654 -0.0312 -0.0501
 3047SOL    HW120603   1.060   2.516   3.527  2.1831  0.8252 -1.0526
 3047SOL    HW220604   1.042   2.632   3.422  0.2930 -0.7670 -2.2031
 3048SOL     OW20605   0.553   1.485   4.371  0.4640 -0.3121 -0.1048
 3048SOL    HW120606   0.618   1.549   4.343  0.9605 -0.3582  0.9511
 3048SOL    HW220607   0.489   1.480   4.299 -0.5924  0.6919  0.7756
 3049SOL     OW20608   0.717   0.685   3.732  0.1324 -0.4503  0.3357
 3049SOL    HW120609   0.707   0.608   3.676 -0.5329 -0.1487  0.0474
 3049SOL    HW220610   0.715   0.764   3.677 -0.0799  0.0307  1.0409
 3050SOL     OW20611   3.662   2.772   3.237  0.3389  0.1713  0.4823
 3050SOL    HW120612   3.714   2.696   3.265 -0.6372 -0.1953  1.2932
 3050SOL    HW220613   3.608   2.789   3.314 -0.7133 -0.0298 -0.2225
 3051SOL     OW20614   1.098   2.336  14.180  0.0276 -0.7855 -0.8344
 3051SOL    HW120615   1.073   2.417  14.225  0.2473 -0.6666 -0.9258
 3051SOL    HW220616   1.048   2.346  14.099 -0.9411  0.5115 -0.0855
 3052SOL     OW20617   2.455   0.971   6.377 -0.2708 -0.0346  0.0525
 3052SOL    HW120618   2.467   0.890   6.328 -1.2263 -1.3333  1.9746
 3052SOL    HW220619   2.363   0.965   6.403 -0.7378  0.3281 -1.5662
 3053SOL     OW20620   2.590   0.620   2.170 -0.6489  0.3827 -0.2340
 3053SOL    HW120621   2.529   0.693   2.178 -0.0442  0.6658  1.7153
 3053SOL    HW220622   2.634   0.634   2.085 -1.2118  1.1952 -0.3902
 3054SOL     OW20623   3.418   3.492   8.617 -0.1987 -0.1032  0.2585
 3054SOL    HW120624   3.493   3.547   8.639  0.9384 -2.0407  1.2164
 3054SOL    HW220625   3.355   3.553   8.579 -0.2528 -1.0174 -1.0967
 3055SOL     OW20626   2.683   2.565   6.841 -0.6312 -0.2236 -0.1750
 3055SOL    HW120627   2.726   2.511   6.908  1.9413  0.7121 -1.0863
 3055SOL    HW220628   2.665   2.637   6.901 -2.0435 -1.4447  0.8734
 3056SOL     OW20629   4.592   2.075   4.315 -0.2638 -0.1011 -0.0070
 3056SOL    HW120630   4.632   2.098   4.231  0.3849  0.9973  0.6151
 3056SOL    HW220631   4.624   2.145   4.372 -3.2283 -0.4379  2.0604
 3057SOL     OW20632   2.039   4.110   2.678  0.0716  0.1891  0.8114
 3057SOL    HW120633   2.075   4.110   2.589  0.2189  0.2716  0.8710
 3057SOL    HW220634   2.072   4.027   2.712 -0.8836 -0.9338 -1.0099
 3058SOL     OW20635   1.493   2.726   6.260  0.4898  0.3900  0.2244
 3058SOL    HW120636   1.404   2.734   6.292 -0.2667 -1.3985 -1.4823
 3058SOL    HW220637   1.544   2.764   6.332 -2.4152 -1.2873  3.1277
 3059SOL     OW20638   4.258   2.296   3.345  0.5014 -0.4835  0.2248
 3059SOL    HW120639   4.297   2.282   3.259 -2.2580  0.9591 -1.2621
 3059SOL    HW220640   4.255   2.205   3.374 -2.6393 -0.2549  0.6148
 3060SOL     OW20641   4.663   1.278   0.821  0.6684  0.2230  0.0165
 3060SOL    HW120642   4.685   1.204   0.878  0.5426 -0.2852 -0.6020
 3060SOL    HW220643   0.020   1.328   0.834  0.1739  1.2479 -0.8855
 3061SOL     OW20644   2.639   4.482   8.900 -0.0717  0.0935  0.4198
 3061SOL    HW120645   2.577   4.426   8.853  0.5123  2.1428 -2.7980
 3061SOL    HW220646   2.684   4.540   8.838 -2.2586  1.8872  0.5131
 3062SOL     OW20647   2.903   0.307  15.901  0.3764 -0.5345  0.6126
 3062SOL    HW120648   2.954   0.343  15.828 -0.3479 -0.0489  0.3505
 3062SOL    HW220649   2.867   0.229  15.859  1.6422 -0.4656 -0.6060
 3063SOL     OW20650   2.770   1.743  10.139  0.3405  0.1923  0.0767
 3063SOL    HW120651   2.763   1.799  10.216  2.7326 -0.5531  0.8568
 3063SOL    HW220652   2.716   1.790  10.075 -1.0555 -1.7081 -0.1334
 3064SOL     OW20653   1.509   1.304   0.972 -0.7995  0.3691  0.0666
 3064SOL    HW120654   1.469   1.219   0.991 -1.7174  0.4853 -1.2901
 3064SOL    HW220655   1.584   1.286   1.028 -1.2510 -3.0913 -0.4113
 3065SOL     OW20656   1.945   2.913   4.282 -0.4051 -0.0153  0.3777
 3065SOL    HW120657   1.921   2.965   4.205  1.8956  2.0579  1.0524
 3065SOL    HW220658   1.910   2.833   4.242  1.5117 -1.2981  1.2914
 3066SOL     OW20659   3.865   3.090  16.866  0.6536 -0.2815  0.4158
 3066SOL    HW120660   3.956   3.081  16.895  0.1080 -1.3050  1.7974
 3066SOL    HW220661   3.821   3.132  16.939  0.1835 -0.8173  0.4345
 3067SOL     OW20662   1.083   1.115   8.485 -0.6295 -0.0799  0.0150
 3067SOL    HW120663   1.048   1.103   8.573 -0.3623  0.2449  0.1676
 3067SOL    HW220664   1.085   1.024   8.456 -0.4287 -0.0426 -0.0890
 3068SOL     OW20665   2.099   2.222   5.592  0.5864  0.5221 -0.0836
 3068SOL    HW120666   2.115   2.280   5.666 -1.3183  0.0905  0.6833
 3068SOL    HW220667   2.180   2.228   5.542  0.0611 -0.0173 -1.0109
 3069SOL     OW20668   2.207   3.967   9.448  0.0643  0.0282 -0.2321
 3069SOL    HW120669   2.221   3.897   9.512 -1.0489  0.5479  0.5763
 3069SOL    HW220670   2.111   3.968   9.449  0.0462 -0.9969 -0.3716
 3070SOL     OW20671   4.440   0.697  11.360  0.0101 -0.2899  0.6381
 3070SOL    HW120672   4.353   0.674  11.328 -0.2023  0.2273  0.8486
 3070SOL    HW220673   4.462   0.785  11.328  0.0607 -0.8904 -0.9864
 3071SOL     OW20674   4.331   0.034   5.413  0.4646 -0.0566  0.1998
 3071SOL    HW120675   4.392   0.084   5.359 -1.1327 -1.2523 -2.6810
 3071SOL    HW220676   4.285   4.708   5.346 -1.9180 -1.0135  2.5663
 3072SOL     OW20677   1.189   0.242  16.053 -0.1252  0.0265  0.1080
 3072SOL    HW120678   1.270   0.235  16.003  0.3178 -0.0094  0.8250
 3072SOL    HW220679   1.122   0.217  15.989 -0.4378  1.3543 -0.1007
 3073SOL     OW20680   3.654   1.355   6.787 -0.0975 -0.2349  0.0235
 3073SOL    HW120681   3.604   1.429   6.752 -3.2644 -1.2297  2.4521
 3073SOL    HW220682   3.676   1.384   6.875  0.9745 -1.2735  0.1000
 3074SOL     OW20683   2.489   0.918   5.055  0.5729  0.8559  0.0649
 3074SOL    HW120684   2.443   0.999   5.076 -2.3285 -1.4256  2.5389
 3074SOL    HW220685   2.522   0.932   4.966  2.7639  2.0439  1.0750
 3075SOL     OW20686   2.275   2.886   3.113  0.0735  0.1809  0.3344
 3075SOL    HW120687   2.298   2.808   3.063 -0.3481  0.0883  0.2909
 3075SOL    HW220688   2.308   2.950   3.049 -2.5087 -0.6263 -1.7690
 3076SOL     OW20689   3.865   3.975  12.065 -0.1629 -0.3574 -0.2441
 3076SOL    HW120690   3.848   4.046  12.003 -2.4943 -1.0884 -0.4756
 3076SOL    HW220691   3.927   3.922  12.014  1.7693 -1.0772  2.8947
 3077SOL     OW20692   4.418   2.539   3.329 -0.3738 -0.2415 -0.2327
 3077SOL    HW120693   4.386   2.451   3.351 -2.1713  0.8831  1.7057
 3077SOL    HW220694   4.465   2.514   3.250 -0.8258 -0.1003 -0.5444
 3078SOL     OW20695   0.585   1.682  13.928  0.1811  0.3521  0.5118
 3078SOL    HW120696   0.667   1.728  13.944  0.2299 -0.1014  1.6345
 3078SOL    HW220697   0.619   1.607  13.879 -1.8547 -2.6475  3.5777
 3079SOL     OW20698   2.352   3.006   7.035 -0.1205  0.3581  0.4829
 3079SOL    HW120699   2.280   3.067   7.049 -1.0306 -1.2862  2.9960
 3079SOL    HW220700   2.305   2.924   7.052 -1.6359  0.8314 -1.4407
 3080SOL     OW20701   2.112   3.537   7.722 -0.9332  0.1710  0.1664
 3080SOL    HW120702   2.050   3.465   7.735 -1.1415  0.2377 -0.4634
 3080SOL    HW220703   2.189   3.503   7.768 -0.6185 -1.9424 -1.9601
 3081SOL     OW20704   1.952   3.034   2.851 -0.0926  0.3755  0.1197
 3081SOL    HW120705   1.878   3.047   2.792 -0.5118  1.3553  0.8553
 3081SOL    HW220706   2.025   3.044   2.790  1.9152 -1.5079  2.2034
 3082SOL     OW20707   0.983   0.019   8.104 -0.3520 -0.5516  0.3422
 3082SOL    HW120708   0.987   4.683   8.179 -0.4139 -0.6103  0.2979
 3082SOL    HW220709   0.914   0.076   8.139  1.3956  1.2021  0.9469
 3083SOL     OW20710   2.764   4.678   7.904  0.3922  0.4889  0.7589
 3083SOL    HW120711   2.779   0.030   7.960  0.4915  0.5522  0.6457
 3083SOL    HW220712   2.824   4.611   7.936  2.2513  1.3946 -0.7907
 3084SOL     OW20713   0.851   0.209   3.048 -0.1560  0.4125  0.1585
 3084SOL    HW120714   0.928   0.177   3.096 -0.1001  0.8483  0.3584
 3084SOL    HW220715   0.864   0.177   2.958 -1.6383 -0.0874  0.1173
 3085SOL     OW20716   2.768   4.026   8.514 -0.3731  0.4283 -0.2061
 3085SOL    HW120717   2.749   4.071   8.431  0.5249  0.2712 -0.4945
 3085SOL    HW220718   2.681   4.003   8.547 -0.4552  1.2005  0.1243
 3086SOL     OW20719   1.824   1.876   8.277  0.5233  0.2553  0.2932
 3086SOL    HW120720   1.760   1.820   8.322  1.0182  1.2183  2.1622
 3086SOL    HW220721   1.906   1.830   8.293  0.8464  0.0249 -2.0297
 3087SOL     OW20722   1.267   1.823   3.145 -0.1358 -0.0770 -0.4697
 3087SOL    HW120723   1.348   1.785   3.111  0.3748 -0.7117  1.4550
 3087SOL    HW220724   1.245   1.876   3.068  2.2274 -3.1703 -3.2771
 3088SOL     OW20725   3.475   2.481  10.429 -0.2854  0.2443  0.5179
 3088SOL    HW120726   3.449   2.389  10.437 -4.3586  1.4975  1.7668
 3088SOL    HW220727   3.438   2.497  10.342  0.7297 -2.3241 -0.3913
 3089SOL     OW20728   1.673   2.511   5.160 -0.0443  0.0587 -0.0398
 3089SOL    HW120729   1.714   2.424   5.161 -2.4688 -1.0611  3.4181
 3089SOL    HW220730   1.653   2.528   5.069 -0.0386  0.1321 -0.0271
 3090SOL     OW20731   4.103   1.346   5.179 -0.2792 -0.0168 -0.3475
 3090SOL    HW120732   4.069   1.281   5.118 -1.6968 -0.8154  1.3059
 3090SOL    HW220733   4.046   1.311   5.247 -0.0186  0.6885  0.2364
 3091SOL     OW20734   0.067   2.595   3.773  0.0113  0.1206  0.1643
 3091SOL    HW120735   0.112   2.677   3.791 -0.6854  0.4739  0.3047
 3091SOL    HW220736   0.018   2.584   3.854 -1.6681 -0.8527 -0.9560
 3092SOL     OW20737   4.035   3.945   8.113  0.3971 -0.4346 -0.3559
 3092SOL    HW120738   3.997   3.906   8.035 -1.3882  0.4659  0.0365
 3092SOL    HW220739   4.025   4.038   8.093 -0.6485 -0.3125  0.6534
 3093SOL     OW20740   0.374   4.325   5.240 -0.0174 -0.1056  0.2449
 3093SOL    HW120741   0.327   4.279   5.171 -2.2507  2.3863  0.0591
 3093SOL    HW220742   0.318   4.399   5.267  0.3230  0.1538  0.2334
 3094SOL     OW20743   3.322   3.549  16.932 -0.1291 -0.4099 -0.0814
 3094SOL    HW120744   3.358   3.587  16.851  0.4241  0.3078  0.5055
 3094SOL    HW220745   3.361   3.463  16.919  0.4835 -0.1197 -0.1401
 3095SOL     OW20746   1.812   0.106  16.527 -0.6308  0.1409  0.5886
 3095SOL    HW120747   1.830   0.012  16.524 -2.3503 -0.2589  2.6360
 3095SOL    HW220748   1.880   0.151  16.477 -1.2485 -0.4730 -0.8044
 3096SOL     OW20749   2.466   1.441   3.620 -0.2164  0.4574  0.5378
 3096SOL    HW120750   2.392   1.391   3.586  1.1962 -0.9466 -0.5098
 3096SOL    HW220751   2.426   1.489   3.692 -1.1045 -1.7654  1.5276
 3097SOL     OW20752   1.478   1.636   6.055 -0.4172 -0.5113  0.2261
 3097SOL    HW120753   1.399   1.609   6.101 -0.4122 -0.7459  0.1004
 3097SOL    HW220754   1.490   1.557   6.003  0.4937 -0.3086  0.1253
 3098SOL     OW20755   3.749   0.317  15.434  0.2805 -0.3092 -0.5969
 3098SOL    HW120756   3.689   0.283  15.368  1.7927  0.0875 -2.1588
 3098SOL    HW220757   3.799   0.237  15.453 -1.6789 -1.2076  0.7843
 3099SOL     OW20758   4.418   4.439   7.486  0.8844  0.1507  0.0768
 3099SOL    HW120759   4.427   4.478   7.573 -0.0890 -0.5074  0.4622
 3099SOL    HW220760   4.486   4.485   7.437  0.4290  0.4186 -0.2913
 3100SOL     OW20761   1.602   3.979   3.751  0.5363  0.6071  0.7514
 3100SOL    HW120762   1.622   3.974   3.658  0.9957 -0.7066  0.9244
 3100SOL    HW220763   1.691   3.971   3.785  0.7059 -1.0775 -0.0882
 3101SOL     OW20764   2.505   3.992   4.265  0.5684  0.0350 -0.2784
 3101SOL    HW120765   2.556   4.073   4.273  0.1730  0.1759  0.7515
 3101SOL    HW220766   2.570   3.923   4.281  0.6145 -0.1651 -1.3335
 3102SOL     OW20767   0.838   4.090  10.220 -0.0952 -0.6392  0.6834
 3102SOL    HW120768   0.779   4.036  10.166  1.4145 -0.9211 -0.6905
 3102SOL    HW220769   0.907   4.023  10.217 -0.6806 -1.2220  0.1275
 3103SOL     OW20770   2.865   0.187   7.119 -0.2989  0.0661 -0.2521
 3103SOL    HW120771   2.788   0.202   7.174  1.2411  0.4607  1.7642
 3103SOL    HW220772   2.843   0.254   7.054 -0.6497 -0.0519 -0.2564
 3104SOL     OW20773   3.610   1.732  16.762 -0.4396 -0.1371  0.3464
 3104SOL    HW120774   3.534   1.674  16.758  1.6626 -2.8865  0.9111
 3104SOL    HW220775   3.562   1.815  16.771 -1.3017 -0.7901  1.7150
 3105SOL     OW20776   1.377   3.462   5.807  0.1769 -0.4180 -0.3436
 3105SOL    HW120777   1.292   3.442   5.845  1.3905 -0.4990  2.3882
 3105SOL    HW220778   1.435   3.442   5.881 -1.2438  1.5935  1.3156
 3106SOL     OW20779   3.672   0.223   3.125 -0.1841 -0.1250  0.3896
 3106SOL    HW120780   3.699   0.307   3.161  0.8086 -1.1584  2.0198
 3106SOL    HW220781   3.596   0.194   3.175 -0.0920 -0.6311  0.2321
 3107SOL     OW20782   4.377   0.560   5.896 -0.6573  0.4530 -0.5128
 3107SOL    HW120783   4.346   0.609   5.972  0.5688 -1.6267  1.3730
 3107SOL    HW220784   4.454   0.613   5.874  1.1414 -2.1995 -0.7209
 3108SOL     OW20785   4.537   0.508  10.284 -0.2198  0.4719  0.2900
 3108SOL    HW120786   4.520   0.597  10.314  0.5632  0.3634  1.0406
 3108SOL    HW220787   4.459   0.499  10.229  0.2803 -0.6078 -0.2470
 3109SOL     OW20788   0.855   3.581   9.177  0.0068  0.0898  0.1488
 3109SOL    HW120789   0.808   3.664   9.186  0.4147  0.2657  0.6517
 3109SOL    HW220790   0.875   3.562   9.269 -1.9878 -3.2376 -0.1205
 3110SOL     OW20791   1.977   2.465   8.487 -0.0747 -0.6654  0.0205
 3110SOL    HW120792   2.047   2.527   8.466 -0.7201 -0.1462 -0.5837
 3110SOL    HW220793   1.910   2.515   8.441 -0.0571 -0.5018  0.1742
 3111SOL     OW20794   1.548   1.455   8.972 -0.4152 -0.5280 -0.0091
 3111SOL    HW120795   1.521   1.547   8.966  0.3544 -0.2625  0.6971
 3111SOL    HW220796   1.637   1.461   8.937 -0.3730 -2.9150 -0.2980
 3112SOL     OW20797   2.726   0.195  15.702  0.1737  0.2354  0.2388
 3112SOL    HW120798   2.777   0.137  15.645  0.8298  0.4179  0.6485
 3112SOL    HW220799   2.642   0.182  15.659 -0.1453  3.0750  0.0445
 3113SOL     OW20800   4.058   4.075  10.863  0.6885  0.2382  0.1722
 3113SOL    HW120801   4.010   4.149  10.901  0.6538  0.0943  0.4095
 3113SOL    HW220802   4.088   4.021  10.937  0.2884 -1.6275 -1.0252
 3114SOL     OW20803   2.323   0.494   7.782  0.0029 -0.5510 -0.3833
 3114SOL    HW120804   2.374   0.488   7.862 -1.2325 -0.6423  0.3952
 3114SOL    HW220805   2.397   0.504   7.723 -1.0684 -2.0015 -1.9786
 3115SOL     OW20806   2.423   2.025   8.297  0.4988 -0.6152 -0.7997
 3115SOL    HW120807   2.383   2.043   8.382  1.9021  3.3549 -0.9681
 3115SOL    HW220808   2.517   2.014   8.306  0.4444 -2.0181 -2.0928
 3116SOL     OW20809   4.304   0.640   8.621 -0.3374 -0.0148 -0.1625
 3116SOL    HW120810   4.260   0.612   8.701 -1.6072 -0.1575 -0.9196
 3116SOL    HW220811   4.393   0.614   8.645  0.1511  0.4215 -1.5372
 3117SOL     OW20812   3.238   0.525   1.112  0.0996 -0.3585  0.0422
 3117SOL    HW120813   3.221   0.614   1.081 -0.3567 -1.4986 -2.9116
 3117SOL    HW220814   3.325   0.536   1.151  1.5895  1.1348 -3.6646
 3118SOL     OW20815   2.809   4.274   8.659 -0.3995 -0.1661  0.7522
 3118SOL    HW120816   2.828   4.187   8.622 -1.6146  0.6262 -1.7443
 3118SOL    HW220817   2.757   4.245   8.734 -0.7365  1.1352  1.0182
 3119SOL     OW20818   0.240   0.501   2.433  0.0913  0.1340 -0.2370
 3119SOL    HW120819   0.174   0.545   2.486  0.1685 -3.0554  2.4776
 3119SOL    HW220820   0.174   0.455   2.382  0.5932  1.8636 -2.4493
 3120SOL     OW20821   4.696   3.983   0.331 -0.0201  0.2289  0.2050
 3120SOL    HW120822   4.694   3.888   0.317  2.2381  0.5871 -2.4927
 3120SOL    HW220823   4.641   4.017   0.261 -2.7100  0.9261  2.6418
 3121SOL     OW20824   1.117   4.351   3.414  0.2433 -0.2690  0.6655
 3121SOL    HW120825   1.139   4.269   3.457 -0.5020 -2.1828 -2.5654
 3121SOL    HW220826   1.022   4.347   3.420  0.0094  3.4162 -0.8679
 3122SOL     OW20827   3.115   2.933   7.396 -0.3276 -0.1240  0.5466
 3122SOL    HW120828   3.027   2.969   7.393 -0.5825 -0.7427  0.4821
 3122SOL    HW220829   3.144   2.968   7.480  2.3413 -3.7160  1.1432
 3123SOL     OW20830   2.222   3.536   8.931 -0.3986  0.1813 -0.2657
 3123SOL    HW120831   2.200   3.452   8.973  2.2929  0.7500  2.3158
 3123SOL    HW220832   2.315   3.523   8.914 -0.3630  1.5499 -1.0452
 3124SOL     OW20833   0.026   2.408   4.222  0.2416  0.0208  0.0471
 3124SOL    HW120834   0.017   2.464   4.300 -0.7117 -2.2775  1.5804
 3124SOL    HW220835   0.025   2.478   4.157  0.8137 -0.0568 -0.0514
 3125SOL     OW20836   4.483   3.627   3.052 -0.0095 -0.2223  0.0173
 3125SOL    HW120837   4.521   3.665   2.973 -0.7133 -0.0111 -0.2199
 3125SOL    HW220838   4.482   3.535   3.026 -0.8411  0.1893 -1.3781
 3126SOL     OW20839   1.817   4.108   9.177  0.7363  0.4518  0.0644
 3126SOL    HW120840   1.843   4.017   9.192 -1.3836  0.3551  3.1394
 3126SOL    HW220841   1.722   4.104   9.184  0.8062 -0.1194  0.7332
 3127SOL     OW20842   0.836   0.456   5.776 -0.2842 -0.2007  0.1155
 3127SOL    HW120843   0.907   0.518   5.760  1.0788 -1.4211  1.4438
 3127SOL    HW220844   0.816   0.448   5.683  1.2298 -2.2849 -0.0417
 3128SOL     OW20845   4.025   0.530  13.814 -0.3329  0.4250  0.2906
 3128SOL    HW120846   4.049   0.437  13.817  0.5500  0.6987  2.2220
 3128SOL    HW220847   4.079   0.577  13.878 -0.6511 -0.1483  0.9802
 3129SOL     OW20848   3.155   2.357   2.503 -0.1212  0.2263  0.6495
 3129SOL    HW120849   3.211   2.295   2.455 -0.6775 -0.5737  1.0392
 3129SOL    HW220850   3.216   2.431   2.501 -1.0112  1.0021  2.8400
 3130SOL     OW20851   2.403   2.802   7.915 -0.4432  0.6796 -0.7593
 3130SOL    HW120852   2.450   2.856   7.979 -1.2031 -0.1476  0.4781
 3130SOL    HW220853   2.439   2.715   7.929  1.0976  1.0849 -2.1788
 3131SOL     OW20854   4.376   3.100   6.341  1.1588 -0.1969  0.3697
 3131SOL    HW120855   4.376   3.166   6.272 -0.1597 -0.4099  0.1680
 3131SOL    HW220856   4.353   3.152   6.417 -2.8084 -0.9338 -0.3406
 3132SOL     OW20857   2.529   1.022   7.043  0.0018 -0.6422  0.0984
 3132SOL    HW120858   2.492   0.999   6.958  0.6971 -2.1086  0.1917
 3132SOL    HW220859   2.487   0.964   7.107 -1.4355 -0.4360 -0.6448
 3133SOL     OW20860   4.170   0.430   8.458  0.3341  0.2667 -0.2903
 3133SOL    HW120861   4.123   0.420   8.541 -1.4329  2.4278 -1.0408
 3133SOL    HW220862   4.235   0.494   8.487  0.1198  0.1940  0.3492
 3134SOL     OW20863   0.498   0.760  17.123  0.9130  0.1454  0.3533
 3134SOL    HW120864   0.469   0.851  17.115  1.5770  0.1759 -1.9461
 3134SOL    HW220865   0.520   0.766  17.216  0.7726  2.4707  0.2325
 3135SOL     OW20866   4.581   4.641  16.495 -0.3970 -0.1715  0.2242
 3135SOL    HW120867   4.631   4.695  16.556  1.2245 -1.4100  0.0081
 3135SOL    HW220868   4.638   4.564  16.488 -0.3338 -0.1423  0.3988
 3136SOL     OW20869   2.217   0.921   3.733 -0.0201  0.4616 -0.1048
 3136SOL    HW120870   2.250   0.869   3.659  0.3953  1.3526 -0.5481
 3136SOL    HW220871   2.199   0.853   3.798  0.2499 -0.2262 -0.7502
 3137SOL     OW20872   0.748   2.967   3.088 -0.6604  0.0678  0.1921
 3137SOL    HW120873   0.734   3.055   3.051 -1.1579 -0.2069 -0.2703
 3137SOL    HW220874   0.812   2.986   3.157 -0.4460 -1.2209  0.3356
 3138SOL     OW20875   3.907   3.875  11.783 -0.6022 -0.3424 -0.3701
 3138SOL    HW120876   3.833   3.826  11.820 -1.3617 -1.1337 -2.9036
 3138SOL    HW220877   3.871   3.899  11.698 -0.1290 -1.1367 -0.7932
 3139SOL     OW20878   1.757   2.626  13.769  0.1915  0.1377 -0.2489
 3139SOL    HW120879   1.823   2.605  13.703  3.7718  0.8466  3.0972
 3139SOL    HW220880   1.738   2.719  13.756  0.1008  0.2603  0.7204
 3140SOL     OW20881   4.190   1.165   5.485 -0.0011 -0.0933 -0.2380
 3140SOL    HW120882   4.140   1.107   5.542 -0.8551 -0.2226 -1.1084
 3140SOL    HW220883   4.231   1.096   5.433 -0.3864 -0.8247  0.4220
 3141SOL     OW20884   4.595   2.519   3.006 -0.6951  0.1435 -0.0542
 3141SOL    HW120885   4.673   2.568   2.981  0.0489 -1.3260 -0.5665
 3141SOL    HW220886   4.525   2.569   2.962  1.3734  2.5784 -0.5717
 3142SOL     OW20887   0.188   1.133   8.651 -0.1040  0.0892  0.1531
 3142SOL    HW120888   0.256   1.199   8.637 -0.5079  0.2219 -1.2058
 3142SOL    HW220889   0.109   1.179   8.622  0.7914  1.4872 -0.0942
 3143SOL     OW20890   2.456   3.052   9.885  0.2355  0.2858  0.1229
 3143SOL    HW120891   2.425   3.080   9.799  0.7150  2.8136  0.7978
 3143SOL    HW220892   2.536   3.104   9.879 -0.1197  0.4707 -3.1337
 3144SOL     OW20893   4.600   2.454   1.397  0.7512  0.4481  0.0168
 3144SOL    HW120894   4.648   2.470   1.478 -0.1928 -0.4608  0.7391
 3144SOL    HW220895   4.580   2.545   1.374 -0.7168 -0.0554 -0.6974
 3145SOL     OW20896   1.275   2.492  15.431  0.4176 -0.5729  0.2750
 3145SOL    HW120897   1.304   2.491  15.340  0.2875  1.6609  0.2066
 3145SOL    HW220898   1.181   2.512  15.435  0.8842  1.5885  0.6705
 3146SOL     OW20899   3.670   0.232   6.041  0.0762 -0.0610 -0.3717
 3146SOL    HW120900   3.734   0.280   5.988  1.2714 -1.9886 -0.6730
 3146SOL    HW220901   3.718   0.202   6.118 -0.2422 -0.2444 -0.2460
 3147SOL     OW20902   0.403   2.199   6.516 -0.1321  0.2100 -0.1496
 3147SOL    HW120903   0.331   2.256   6.544 -1.1772 -1.3913  0.4387
 3147SOL    HW220904   0.373   2.109   6.532  2.1606 -0.4751  0.3293
 3148SOL     OW20905   0.506   3.927   4.226 -0.3234 -0.2479 -0.1345
 3148SOL    HW120906   0.465   4.011   4.205  0.0647 -0.4659 -1.7686
 3148SOL    HW220907   0.567   3.922   4.152 -1.0822 -1.3564 -0.6876
 3149SOL     OW20908   4.524   2.561   5.507  0.1878 -0.4356  0.4441
 3149SOL    HW120909   4.577   2.604   5.441  0.6070 -0.3380  0.8412
 3149SOL    HW220910   4.584   2.530   5.576  0.9813 -0.2109 -0.1513
 3150SOL     OW20911   0.675   0.866  14.289 -0.2635 -0.3571  0.2795
 3150SOL    HW120912   0.610   0.837  14.354 -1.0354  0.5854 -0.0744
 3150SOL    HW220913   0.634   0.839  14.207 -2.6854  0.0341  1.3564
 3151SOL     OW20914   4.070   2.948  12.533  0.1440  0.3137 -0.0228
 3151SOL    HW120915   4.136   2.889  12.570 -0.6695 -0.3267  0.4114
 3151SOL    HW220916   3.996   2.889  12.521  0.5374 -0.2969  0.5657
 3152SOL     OW20917   1.332   3.897   3.423  0.3469  0.6125  0.0293
 3152SOL    HW120918   1.411   3.871   3.471  0.3310 -0.6474 -0.6257
 3152SOL    HW220919   1.339   3.991   3.406 -2.2401  0.7758 -0.1542
 3153SOL     OW20920   4.072   4.446   0.508  0.2369  0.4884 -0.1449
 3153SOL    HW120921   3.994   4.406   0.471 -1.4016  2.6010  1.0638
 3153SOL    HW220922   4.134   4.451   0.435 -1.0155 -0.9346 -1.2912
 3154SOL     OW20923   4.462   4.529  12.254 -0.0773  0.0087  0.0780
 3154SOL    HW120924   4.468   4.442  12.295  0.6598 -0.2583 -0.6039
 3154SOL    HW220925   4.427   4.508  12.167  1.3878 -2.1796  0.0292
 3155SOL     OW20926   3.495   4.543  12.827 -0.0592 -0.2614 -0.8856
 3155SOL    HW120927   3.469   4.485  12.755  0.5743  0.0879 -1.4000
 3155SOL    HW220928   3.430   4.529  12.895  1.6642 -2.9079  0.2156
 3156SOL     OW20929   3.096   4.072   2.315 -0.7344 -0.2101  0.2103
 3156SOL    HW120930   3.065   3.992   2.272  0.4564 -0.1385 -0.7763
 3156SOL    HW220931   3.099   4.047   2.407  0.1741  0.3602  0.3347
 3157SOL     OW20932   4.584   0.530   1.064  1.1507 -0.2489  0.7682
 3157SOL    HW120933   4.671   0.545   1.029  0.5460 -0.2156 -0.7106
 3157SOL    HW220934   4.605   0.456   1.121  0.4761 -0.7494  0.3734
 3158SOL     OW20935   0.016   4.471   3.353 -0.6931  0.0209  0.3801
 3158SOL    HW120936   0.028   4.423   3.435 -2.1055  0.0389  0.6016
 3158SOL    HW220937   0.103   4.461   3.314 -1.1183 -0.6600 -0.4017
 3159SOL     OW20938   0.155   0.925   8.502 -0.5269  0.5111 -0.1466
 3159SOL    HW120939   0.099   0.952   8.430  0.2089  0.7393 -0.6382
 3159SOL    HW220940   0.154   0.998   8.564  2.7633  1.2638 -0.9855
 3160SOL     OW20941   0.776   1.502   8.699 -0.1344 -0.3187 -0.1172
 3160SOL    HW120942   0.707   1.515   8.634  0.4156  0.7138 -0.4914
 3160SOL    HW220943   0.773   1.410   8.725  2.0597 -0.8426 -1.6593
 3161SOL     OW20944   3.883   3.812  16.074 -0.4432  0.1352  0.0314
 3161SOL    HW120945   3.887   3.722  16.109  2.3194  0.4762  0.5928
 3161SOL    HW220946   3.919   3.865  16.145  1.1051  0.4945 -1.0310
 3162SOL     OW20947   4.140   4.150   4.764  0.4304 -0.1830  0.2725
 3162SOL    HW120948   4.206   4.117   4.825  1.0781 -0.4941 -0.5868
 3162SOL    HW220949   4.133   4.238   4.800 -0.2707 -0.1562  0.0797
 3163SOL     OW20950   2.879   4.313   7.500  0.1912 -0.2748 -0.0718
 3163SOL    HW120951   2.791   4.332   7.467 -0.4906 -0.3904  1.6923
 3163SOL    HW220952   2.850   4.315   7.591 -1.9419 -1.7253 -0.7201
 3164SOL     OW20953   1.209   2.419   4.163  0.5120  0.3046 -0.2270
 3164SOL    HW120954   1.126   2.403   4.208 -0.5633  0.3287 -2.1745
 3164SOL    HW220955   1.269   2.383   4.229 -1.5387  0.9961  1.9974
 3165SOL     OW20956   1.000   2.090   8.791 -0.0080 -0.4073 -0.3736
 3165SOL    HW120957   1.086   2.053   8.773  0.0948  0.5377 -1.7574
 3165SOL    HW220958   0.968   2.007   8.827 -0.6570  0.6583  1.5360
 3166SOL     OW20959   1.679   2.776   5.152 -0.4291  0.4748 -0.0310
 3166SOL    HW120960   1.613   2.742   5.091  0.8589 -0.6850 -0.8040
 3166SOL    HW220961   1.714   2.690   5.176  1.5485  1.5303  0.8691
 3167SOL     OW20962   3.968   3.218   0.643 -0.5013 -0.1249 -0.8471
 3167SOL    HW120963   3.984   3.296   0.589 -1.6169  1.0973  0.5909
 3167SOL    HW220964   3.904   3.170   0.591  1.0061 -2.6348 -0.4019
 3168SOL     OW20965   1.259   1.938  13.335  0.1221 -0.1397  0.1907
 3168SOL    HW120966   1.273   2.019  13.286 -2.6832  0.0030 -0.3759
 3168SOL    HW220967   1.350   1.910  13.339  0.1403 -0.0599  0.3377
 3169SOL     OW20968   3.185   4.323  16.530 -0.2334 -0.2500 -0.1535
 3169SOL    HW120969   3.257   4.261  16.546  1.3825  1.6169 -0.2788
 3169SOL    HW220970   3.111   4.264  16.512 -0.2113  1.0200 -4.5706
 3170SOL     OW20971   0.520   3.872   6.355 -0.4875 -0.1040 -0.3436
 3170SOL    HW120972   0.584   3.834   6.294 -3.2500 -1.3230 -2.5153
 3170SOL    HW220973   0.439   3.834   6.321 -1.2640  1.7817 -0.5793
 3171SOL     OW20974   1.100   0.985   3.533 -0.1209  0.1261  0.6765
 3171SOL    HW120975   1.151   1.063   3.511  1.7219 -1.5453 -1.0117
 3171SOL    HW220976   1.012   1.010   3.506  0.4439  0.1672 -1.1197
 3172SOL     OW20977   0.993   2.884   6.035 -0.0193  0.3487 -0.6675
 3172SOL    HW120978   0.911   2.931   6.023 -0.5246  0.1093  1.9635
 3172SOL    HW220979   1.050   2.959   6.051  0.4760 -0.2029  0.1225
 3173SOL     OW20980   2.870   0.023  12.681 -0.0849 -0.3477 -1.3417
 3173SOL    HW120981   2.836   0.093  12.736  1.6838 -0.1464 -0.4987
 3173SOL    HW220982   2.828   0.044  12.598 -0.2515  0.7780 -0.9782
 3174SOL     OW20983   3.416   1.140   6.360  0.0205  0.1927  0.0607
 3174SOL    HW120984   3.425   1.046   6.380 -0.3882  0.0568 -0.4016
 3174SOL    HW220985   3.477   1.134   6.287  1.5787  4.1980  1.0604
 3175SOL     OW20986   1.493   0.624   8.938 -0.1445  0.2867  0.0588
 3175SOL    HW120987   1.457   0.555   8.882 -1.4813  1.6178 -0.7159
 3175SOL    HW220988   1.549   0.570   8.995  0.3245  1.8262  1.0461
 3176SOL     OW20989   1.124   0.311   8.978 -0.5199  0.2640  0.3618
 3176SOL    HW120990   1.060   0.310   8.906 -0.6962 -1.3748  0.5221
 3176SOL    HW220991   1.068   0.322   9.055 -1.6072 -1.8106 -0.1092
 3177SOL     OW20992   2.139   3.784   4.854 -0.3581 -0.0076 -0.5521
 3177SOL    HW120993   2.065   3.842   4.834  0.2843 -0.0891 -3.1066
 3177SOL    HW220994   2.158   3.745   4.769 -3.1331  0.4303 -1.3804
 3178SOL     OW20995   1.370   0.526   2.556 -0.0270  0.0809  0.3426
 3178SOL    HW120996   1.276   0.519   2.571  0.6418 -3.5656  2.9657
 3178SOL    HW220997   1.388   0.611   2.596 -1.0792  1.1796 -1.5512
 3179SOL     OW20998   1.058   3.168   7.718  0.0282  0.0996 -0.2813
 3179SOL    HW120999   1.054   3.209   7.805 -0.6842 -0.9946  0.1988
 3179SOL    HW221000   1.112   3.222   7.661  1.5851  0.8775  1.9245
 3180SOL     OW21001   3.921   2.010   7.352 -0.6306  0.2163 -0.2531
 3180SOL    HW121002   3.853   2.017   7.419 -0.6286  1.6230 -0.3854
 3180SOL    HW221003   3.994   2.036   7.409  0.4514 -2.2296 -0.5544
 3181SOL     OW21004   0.593   1.861  14.890  0.4740 -0.4732 -0.2075
 3181SOL    HW121005   0.606   1.768  14.906  0.9181 -0.3514  0.1830
 3181SOL    HW221006   0.556   1.867  14.802 -1.0099  3.4482  0.6677
 3182SOL     OW21007   4.255   3.383   0.968 -0.4428  0.2715 -0.4611
 3182SOL    HW121008   4.299   3.299   0.980  2.4047  1.7726 -0.2827
 3182SOL    HW221009   4.279   3.401   0.877  0.2704 -0.7167 -0.4656
 3183SOL     OW21010   1.731   3.987   4.888 -0.1098 -0.0453 -0.1120
 3183SOL    HW121011   1.653   4.020   4.842 -0.7349  0.3323  1.2233
 3183SOL    HW221012   1.716   3.892   4.886 -0.4305  0.0262 -1.0400
 3184SOL     OW21013   2.802   3.887  13.179 -0.4168 -0.0708 -0.1263
 3184SOL    HW121014   2.884   3.930  13.155 -0.0034 -0.6928  0.1670
 3184SOL    HW221015   2.793   3.912  13.271  0.1817  1.0022 -0.3623
 3185SOL     OW21016   0.982   0.905  17.155  0.5678 -0.1397 -0.5762
 3185SOL    HW121017   0.916   0.957  17.202  0.8367 -0.1877 -0.1496
 3185SOL    HW221018   1.002   0.951  17.074 -1.3225  0.9840 -0.4049
 3186SOL     OW21019   1.643   0.301  10.899  0.1806  0.1945 -0.0889
 3186SOL    HW121020   1.577   0.266  10.838  0.5522  0.2748 -0.5410
 3186SOL    HW221021   1.651   0.386  10.855 -2.4803  1.1206  1.2544
 3187SOL     OW21022   2.995   3.751   9.751  0.5376 -0.5305 -0.2228
 3187SOL    HW121023   2.962   3.672   9.708 -0.4574 -1.2408  1.8286
 3187SOL    HW221024   3.083   3.728   9.779  0.5512  2.6294  2.3484
 3188SOL     OW21025   4.171   2.697   3.297  0.0075 -0.5110  0.1756
 3188SOL    HW121026   4.248   2.639   3.292  0.8347  0.4272  2.2508
 3188SOL    HW221027   4.125   2.669   3.376 -0.8696  0.7654  0.1169
 3189SOL     OW21028   4.369   1.854   3.895  0.4814  0.1901 -0.6138
 3189SOL    HW121029   4.426   1.845   3.971  0.8062  1.3296 -0.7270
 3189SOL    HW221030   4.287   1.847   3.945 -1.1551 -0.5768 -3.3757
 3190SOL     OW21031   3.957   1.243  16.881  0.6016 -0.1038 -0.2829
 3190SOL    HW121032   3.936   1.181  16.812  1.4872  0.5694 -1.1590
 3190SOL    HW221033   3.870   1.257  16.919  0.3365 -0.9407 -0.5914
 3191SOL     OW21034   3.638   2.796   4.128  0.3064  0.1179 -0.2563
 3191SOL    HW121035   3.607   2.813   4.217 -1.0605 -2.5863 -0.1887
 3191SOL    HW221036   3.708   2.861   4.123 -1.0646  1.6548  0.6554
 3192SOL     OW21037   0.544   1.461   6.489  0.2337 -0.4944  0.0454
 3192SOL    HW121038   0.458   1.459   6.532  1.4409  0.6031  2.4909
 3192SOL    HW221039   0.604   1.466   6.563 -0.0271 -1.9115  0.3454
 3193SOL     OW21040   3.678   1.851  12.963 -0.0188 -0.7119 -0.5245
 3193SOL    HW121041   3.638   1.828  13.047 -1.6222  0.1174 -1.0513
 3193SOL    HW221042   3.750   1.908  12.991 -3.3747  2.2351  2.1399
 3194SOL     OW21043   2.850   3.701   5.972 -0.9651 -0.1993  0.0571
 3194SOL    HW121044   2.889   3.615   5.989 -1.3205 -0.3670  0.0234
 3194SOL    HW221045   2.836   3.735   6.061 -0.7200  1.5561 -0.5766
 3195SOL     OW21046   1.387   3.974   9.792 -0.6995  0.4312  0.4922
 3195SOL    HW121047   1.371   3.939   9.879 -0.9914  2.6977  1.3543
 3195SOL    HW221048   1.303   3.959   9.749  0.6230  0.0423 -1.9778
 3196SOL     OW21049   1.870   3.612   8.023  0.3778 -0.1165 -0.1017
 3196SOL    HW121050   1.811   3.565   8.082 -1.1475 -0.0554 -1.5678
 3196SOL    HW221051   1.941   3.548   8.022  0.3469 -0.1787  2.0211
 3197SOL     OW21052   3.642   3.258   7.016  0.1588 -0.0643 -0.2834
 3197SOL    HW121053   3.691   3.184   7.052 -2.0315 -0.2630  2.3559
 3197SOL    HW221054   3.686   3.332   7.059  0.4025 -0.4785  0.1842
 3198SOL     OW21055   3.210   3.603   7.250  0.2364  0.4200 -0.1064
 3198SOL    HW121056   3.181   3.694   7.254 -1.2093 -0.1349  1.5808
 3198SOL    HW221057   3.169   3.567   7.329  1.8649  0.4583  0.7631
 3199SOL     OW21058   2.855   4.233  13.746  0.1022 -0.1972 -0.8221
 3199SOL    HW121059   2.765   4.247  13.717 -0.6836 -0.7372  1.4086
 3199SOL    HW221060   2.855   4.138  13.738 -0.5108 -0.2261 -0.4613
 3200SOL     OW21061   2.951   1.236   7.974 -0.6477 -0.0172 -0.4142
 3200SOL    HW121062   2.985   1.318   8.008 -0.1080  0.5623 -2.3630
 3200SOL    HW221063   2.949   1.253   7.880  3.0414  0.1533 -0.4832
 3201SOL     OW21064   4.677   2.988  16.601  0.3715 -0.0926  0.6551
 3201SOL    HW121065   4.715   3.014  16.518 -0.1563 -1.4957 -0.0138
 3201SOL    HW221066   4.685   3.069  16.653 -0.4324  1.1033 -1.0938
 3202SOL     OW21067   3.581   2.016   6.388 -0.3235  0.1051  0.3209
 3202SOL    HW121068   3.598   1.978   6.475  0.1415  0.3587  0.3381
 3202SOL    HW221069   3.612   2.106   6.396  1.6490 -0.6707  1.4228
 3203SOL     OW21070   3.670   4.384   4.998  0.3841 -0.2122 -0.2142
 3203SOL    HW121071   3.670   4.419   4.909 -0.8744  0.3580 -0.0014
 3203SOL    HW221072   3.680   4.291   4.982 -1.9645 -0.4306 -0.4184
 3204SOL     OW21073   4.187   1.991   1.730  0.3110  0.3342  0.4800
 3204SOL    HW121074   4.189   2.085   1.747 -0.2507  0.6495 -1.3171
 3204SOL    HW221075   4.093   1.977   1.721  0.4009 -0.5162  0.8588
 3205SOL     OW21076   2.081   3.488  14.324  0.1108  0.2337  0.0005
 3205SOL    HW121077   2.074   3.492  14.419 -1.2619  3.2473 -0.2323
 3205SOL    HW221078   2.175   3.499  14.309  0.3477  0.2871  1.5668
 3206SOL     OW21079   1.365   3.983   7.926 -0.2427 -0.1855 -0.0638
 3206SOL    HW121080   1.296   3.988   7.993 -1.7468  0.3502 -1.6368
 3206SOL    HW221081   1.360   4.074   7.896  0.5578 -0.0600  0.1983
 3207SOL     OW21082   2.633   0.061   4.268 -0.1221 -0.8983  0.3148
 3207SOL    HW121083   2.540   0.039   4.262 -0.0859 -0.4510 -1.7521
 3207SOL    HW221084   2.634   0.140   4.322  0.1878  0.2184 -1.3470
 3208SOL     OW21085   4.276   0.211   6.489 -0.5179 -0.3299  0.3197
 3208SOL    HW121086   4.271   0.116   6.473 -1.4613 -0.2645  0.1768
 3208SOL    HW221087   4.191   0.237   6.453 -0.1394  1.1906  0.5464
 3209SOL     OW21088   2.106   0.059  12.711  0.0766  0.5632 -0.1332
 3209SOL    HW121089   2.042   4.715  12.732  1.0507 -0.5617 -0.8095
 3209SOL    HW221090   2.074   0.125  12.772 -0.9059 -0.8313  0.8676
 3210SOL     OW21091   2.359   3.889   4.969 -0.0940 -0.1769  0.1775
 3210SOL    HW121092   2.374   3.975   4.928 -2.6384  0.3033  0.2370
 3210SOL    HW221093   2.272   3.869   4.935 -0.5348  0.1737  1.0718
 3211SOL     OW21094   2.995   4.156  16.451 -0.4103 -0.0989 -0.4831
 3211SOL    HW121095   2.952   4.196  16.375 -1.3581 -1.8275 -0.8758
 3211SOL    HW221096   2.919   4.132  16.504 -0.7997  1.3855 -0.3700
 3212SOL     OW21097   3.092   1.571  15.237  0.1253  0.6720  0.1896
 3212SOL    HW121098   3.174   1.616  15.217 -0.9297  2.2243 -0.6948
 3212SOL    HW221099   3.058   1.549  15.150 -1.0538 -0.4487  0.9289
 3213SOL     OW21100   3.686   0.619   5.092 -0.1306 -0.5363  0.0499
 3213SOL    HW121101   3.605   0.670   5.086  0.0245 -0.8945 -5.1103
 3213SOL    HW221102   3.667   0.553   5.158  1.4320  2.3722  3.4121
 3214SOL     OW21103   3.447   1.854   0.742  0.0065 -0.2361  0.0189
 3214SOL    HW121104   3.449   1.770   0.694 -0.7041 -0.1662 -0.1348
 3214SOL    HW221105   3.532   1.843   0.784  0.7658 -0.9251 -1.6759
 3215SOL     OW21106   2.724   1.918  15.446 -0.2093 -0.4602  0.7430
 3215SOL    HW121107   2.688   1.904  15.359 -0.4951  1.7517  0.5261
 3215SOL    HW221108   2.773   1.998  15.429 -1.2737  0.1336  0.4994
 3216SOL     OW21109   0.815   3.690   9.471  0.1432  0.3201  0.4739
 3216SOL    HW121110   0.905   3.662   9.460 -0.4939 -1.3270 -0.5794
 3216SOL    HW221111   0.770   3.612   9.504 -2.2934  1.2583 -0.6091
 3217SOL     OW21112   3.959   3.494   8.773  0.4234  0.3142 -0.6498
 3217SOL    HW121113   3.869   3.462   8.779  0.0507  1.7188  1.0664
 3217SOL    HW221114   4.007   3.424   8.817 -1.8869 -0.2093  1.0450
 3218SOL     OW21115   2.886   4.638   7.216 -0.1970 -0.2682 -0.3967
 3218SOL    HW121116   2.866   0.004   7.190  0.1890  0.4616  1.7853
 3218SOL    HW221117   2.806   4.586   7.215 -0.6928  0.5751 -3.2366
 3219SOL     OW21118   1.005   1.980  17.630  0.2069 -0.4480  0.1870
 3219SOL    HW121119   1.070   2.010  17.693  1.8761  0.4060 -1.9935
 3219SOL    HW221120   0.982   1.896  17.672 -2.4571  0.9032  1.4224
 3220SOL     OW21121   1.664   0.091   6.043 -0.6216  0.2337 -0.2661
 3220SOL    HW121122   1.626   0.075   6.130 -0.8438  1.0341 -0.2151
 3220SOL    HW221123   1.621   0.171   6.014 -0.4529 -0.0914 -1.3963
 3221SOL     OW21124   2.359   0.605  11.683 -0.1663 -0.4313 -0.0154
 3221SOL    HW121125   2.312   0.587  11.764 -2.0401 -2.6309 -1.5874
 3221SOL    HW221126   2.436   0.551  11.699 -0.9261 -1.3001  0.6935
 3222SOL     OW21127   3.089   2.021  12.040  0.2288 -0.8498  0.3549
 3222SOL    HW121128   3.075   2.083  12.111  2.1603 -0.5720  0.4937
 3222SOL    HW221129   3.033   1.945  12.054 -0.9208 -0.0270  0.1514
 3223SOL     OW21130   0.305   0.942   5.048 -0.3054  0.2323 -0.2052
 3223SOL    HW121131   0.387   0.988   5.030  1.3604 -1.3516  3.4733
 3223SOL    HW221132   0.253   0.964   4.970 -0.8344  0.2660  0.1620
 3224SOL     OW21133   1.771   4.268   4.902  0.4051 -0.4919 -0.7425
 3224SOL    HW121134   1.775   4.175   4.880 -3.5776 -1.1041  1.1775
 3224SOL    HW221135   1.848   4.312   4.864  0.2329 -0.1071 -0.6467
 3225SOL     OW21136   4.486   1.729   7.979 -0.3307  0.1272  0.1944
 3225SOL    HW121137   4.503   1.739   8.073  1.7504  1.3162 -0.3027
 3225SOL    HW221138   4.573   1.700   7.950  0.0038  0.5676  0.7630
 3226SOL     OW21139   0.681   2.442  10.390  0.5963  0.0431  0.5632
 3226SOL    HW121140   0.769   2.405  10.387  0.6140  0.2977 -2.5347
 3226SOL    HW221141   0.642   2.415  10.307  1.2721 -1.8660  0.8727
 3227SOL     OW21142   3.184   0.714  13.632  0.7326  0.5216 -0.0003
 3227SOL    HW121143   3.141   0.629  13.622 -0.3931  0.7536  3.0870
 3227SOL    HW221144   3.263   0.697  13.580  1.5210 -0.0210  1.3781
 3228SOL     OW21145   1.826   3.703   6.780 -0.2356 -0.0780 -0.7543
 3228SOL    HW121146   1.843   3.615   6.744 -0.7710 -0.4839  0.0049
 3228SOL    HW221147   1.731   3.711   6.775 -0.4543 -1.5845  0.9927
 3229SOL     OW21148   3.241   0.629  12.049 -0.3767  0.5764 -0.3019
 3229SOL    HW121149   3.270   0.550  12.095  2.0381  0.4598 -2.0213
 3229SOL    HW221150   3.308   0.695  12.066  1.6327 -1.8802  1.3043
 3230SOL     OW21151   1.139   4.677  14.322 -0.2002 -0.3402 -0.3431
 3230SOL    HW121152   1.187   4.667  14.240  1.2068  4.2324 -0.0204
 3230SOL    HW221153   1.050   4.697  14.292 -0.7068 -1.8805  0.0974
 3231SOL     OW21154   3.465   0.771  11.088  0.2995 -0.1564 -0.5462
 3231SOL    HW121155   3.450   0.757  10.995 -0.1606 -1.4276 -0.2856
 3231SOL    HW221156   3.457   0.866  11.088  0.5767 -0.1321 -0.1702
 3232SOL     OW21157   4.496   2.445   6.681  0.0353  0.0600  0.4121
 3232SOL    HW121158   4.591   2.439   6.681  0.0540  0.4772 -1.1095
 3232SOL    HW221159   4.493   2.538   6.659 -1.4597 -0.2421 -0.6644
 3233SOL     OW21160   1.289   0.438   7.821 -0.2981 -0.2534  0.2499
 3233SOL    HW121161   1.348   0.495   7.869 -0.8586  0.9267 -0.4655
 3233SOL    HW221162   1.264   0.374   7.888 -0.2024  1.1741  1.6397
 3234SOL     OW21163   1.255   3.890  16.911  0.1118  0.5069  0.2560
 3234SOL    HW121164   1.322   3.840  16.866  0.8173  0.6435  1.1472
 3234SOL    HW221165   1.225   3.826  16.976  0.7361 -1.3402 -1.2660
 3235SOL     OW21166   3.725   0.558   8.961  0.2923 -0.2637  0.1275
 3235SOL    HW121167   3.651   0.501   8.941  0.9844 -1.6121  1.4490
 3235SOL    HW221168   3.785   0.534   8.890  0.2100  0.2752 -0.1277
 3236SOL     OW21169   1.055   1.699  10.934 -0.1006  0.2081 -0.0285
 3236SOL    HW121170   1.029   1.628  10.875 -1.2047  1.5727 -1.1917
 3236SOL    HW221171   0.994   1.772  10.920 -0.0018  0.2867 -0.0551
 3237SOL     OW21172   3.489   1.326   9.389  0.7532  0.4643  0.4913
 3237SOL    HW121173   3.543   1.381   9.445  1.6177 -0.9703  1.0894
 3237SOL    HW221174   3.445   1.274   9.457 -1.0378 -0.1357 -1.1350
 3238SOL     OW21175   2.149   3.837   5.175 -0.4270 -0.4199  0.4925
 3238SOL    HW121176   2.162   3.848   5.081 -0.6081 -0.6856  0.4347
 3238SOL    HW221177   2.238   3.841   5.211 -0.6616  0.5020  0.9751
 3239SOL     OW21178   3.100   0.510  15.666 -0.0746  0.1801  0.2204
 3239SOL    HW121179   3.040   0.470  15.603  0.5848  0.7195 -0.7395
 3239SOL    HW221180   3.116   0.595  15.624 -0.0973  0.0192 -0.1137
 3240SOL     OW21181   2.140   2.609   8.152  0.3301 -0.3990  0.5083
 3240SOL    HW121182   2.052   2.593   8.188  1.0137  0.2318  2.4942
 3240SOL    HW221183   2.162   2.532   8.100  0.6614  1.1270 -1.5945
 3241SOL     OW21184   0.568   0.150  15.696 -0.1851 -1.3124 -0.2480
 3241SOL    HW121185   0.634   0.111  15.639 -0.4252  3.6935 -3.9568
 3241SOL    HW221186   0.511   0.185  15.628  1.8630  0.0791 -1.2466
 3242SOL     OW21187   3.152   4.110   8.939 -0.4091 -0.0514 -0.9932
 3242SOL    HW121188   3.072   4.156   8.964 -0.2848 -0.5264  0.2545
 3242SOL    HW221189   3.163   4.041   9.004 -2.5789  0.5742  0.0345
 3243SOL     OW21190   0.681   1.884   7.454 -0.2774 -0.3428  0.4146
 3243SOL    HW121191   0.744   1.945   7.493  1.1297 -0.8395 -1.0585
 3243SOL    HW221192   0.737   1.852   7.383 -1.1270  0.6368 -0.6923
 3244SOL     OW21193   3.032   0.819   4.095 -0.0462 -0.4030  0.2475
 3244SOL    HW121194   3.106   0.835   4.155 -0.0425 -2.3368  0.7710
 3244SOL    HW221195   2.989   0.735   4.110 -2.3732  0.6390 -0.7135
 3245SOL     OW21196   3.943   0.875   0.086 -0.1695 -0.6046 -0.0613
 3245SOL    HW121197   3.975   0.842   0.170  0.7493  1.0242  0.2286
 3245SOL    HW221198   3.944   0.785   0.054 -1.1700  0.0660 -1.9756
 3246SOL     OW21199   3.725   4.533   9.424 -0.2287  1.1887 -0.4187
 3246SOL    HW121200   3.714   4.446   9.385  4.1313  1.2154 -1.7473
 3246SOL    HW221201   3.651   4.574   9.380 -1.2835 -3.2372 -2.7355
 3247SOL     OW21202   0.724   3.745   3.348  0.6350  0.3313  0.5910
 3247SOL    HW121203   0.676   3.816   3.305  0.4816  0.1474  0.4651
 3247SOL    HW221204   0.775   3.795   3.413  0.2282 -0.4587  1.5094
 3248SOL     OW21205   0.275   0.898   0.129  0.0850 -0.3739  0.3627
 3248SOL    HW121206   0.251   0.986   0.157 -2.2920 -0.8529 -0.1826
 3248SOL    HW221207   0.307   0.866   0.213 -1.2279  0.1784  1.0591
 3249SOL     OW21208   0.489   2.257  14.130  0.3309  0.6394  0.7036
 3249SOL    HW121209   0.507   2.350  14.112 -0.9102  0.5945 -0.7124
 3249SOL    HW221210   0.440   2.260  14.212  1.4076  0.1468  1.3602
 3250SOL     OW21211   1.009   1.805  11.273  0.2617  0.3552  0.5517
 3250SOL    HW121212   1.073   1.871  11.246 -0.9652  1.9585  1.5859
 3250SOL    HW221213   1.054   1.762  11.346  0.1116 -1.6791 -0.5628
 3251SOL     OW21214   1.462   3.101   1.533 -0.1674  0.0843 -0.2726
 3251SOL    HW121215   1.541   3.117   1.482 -0.4681  0.9530 -0.4641
 3251SOL    HW221216   1.502   3.055   1.607  1.5478  0.8234 -0.7674
 3252SOL     OW21217   2.745   1.765   7.358 -0.0805 -0.1833  0.3451
 3252SOL    HW121218   2.649   1.761   7.357 -0.1537  1.5726 -0.6481
 3252SOL    HW221219   2.764   1.854   7.327 -0.8763 -0.3270 -0.5364
 3253SOL     OW21220   4.083   4.098   1.368  0.3687 -0.1426  0.0469
 3253SOL    HW121221   4.162   4.079   1.420 -0.4023  0.4017  1.4185
 3253SOL    HW221222   4.109   4.081   1.278  1.3892 -2.6330  0.8068
 3254SOL     OW21223   4.116   2.074   5.031  0.4626  0.1779 -0.2774
 3254SOL    HW121224   4.099   2.158   5.074  0.1218  0.2901 -0.6279
 3254SOL    HW221225   4.054   2.016   5.074  0.0434  0.0032 -1.1210
 3255SOL     OW21226   4.532   3.553  14.008 -0.1087  0.2381  0.1653
 3255SOL    HW121227   4.521   3.647  14.024 -0.5039  0.1941  0.1667
 3255SOL    HW221228   4.581   3.518  14.082 -1.4116 -0.9637  0.4672
 3256SOL     OW21229   3.622   3.045  11.099  0.1561 -0.3069 -0.2435
 3256SOL    HW121230   3.629   2.994  11.019  3.0581 -1.4109  0.6976
 3256SOL    HW221231   3.684   3.114  11.075  1.5782 -0.4727  3.0076
 3257SOL     OW21232   4.351   3.534  10.368  0.0773 -0.2835 -0.4440
 3257SOL    HW121233   4.265   3.551  10.408  0.5833  0.1153  0.4770
 3257SOL    HW221234   4.345   3.605  10.304  0.4856  0.8547  0.7692
 3258SOL     OW21235   3.159   3.396  14.582  0.1659 -0.2617  0.3822
 3258SOL    HW121236   3.252   3.415  14.569  0.0557  0.6345  0.8878
 3258SOL    HW221237   3.142   3.342  14.504  1.0192 -0.4441  0.3325
 3259SOL     OW21238   4.479   2.188  14.637  0.2425 -0.4029  0.0264
 3259SOL    HW121239   4.444   2.164  14.723 -2.1655  0.7186 -0.6358
 3259SOL    HW221240   4.540   2.116  14.619  1.4119  0.8524 -1.0174
 3260SOL     OW21241   2.700   1.839   3.947 -0.0110  0.3304  0.2532
 3260SOL    HW121242   2.700   1.743   3.948 -1.4849  0.3205 -0.5758
 3260SOL    HW221243   2.755   1.856   3.870 -0.3004  1.6435  0.3333
 3261SOL     OW21244   2.160   3.674   8.258  0.0506 -0.4227 -0.3800
 3261SOL    HW121245   2.198   3.720   8.183  0.6199  0.6743  0.5811
 3261SOL    HW221246   2.090   3.733   8.287 -0.3399 -0.8779 -0.4088
 3262SOL     OW21247   4.021   2.444   4.947  0.1640  0.5818 -0.4514
 3262SOL    HW121248   3.949   2.503   4.969  0.4844  1.1191 -0.8146
 3262SOL    HW221249   4.062   2.422   5.031 -1.0919  0.1637  0.0433
 3263SOL     OW21250   1.782   2.990   8.061 -0.4074 -0.0533  0.1089
 3263SOL    HW121251   1.701   2.967   8.107 -0.6248  0.7252  0.1092
 3263SOL    HW221252   1.848   2.992   8.130 -0.9302 -3.0837  0.7102
 3264SOL     OW21253   3.813   4.563   8.471 -0.0805 -0.5253  0.0455
 3264SOL    HW121254   3.741   4.572   8.533 -1.3121 -0.0622 -1.4601
 3264SOL    HW221255   3.878   4.539   8.537 -2.0305 -1.1939  1.7406
 3265SOL     OW21256   4.258   4.096   5.550  0.4591  0.7157  0.1197
 3265SOL    HW121257   4.313   4.042   5.607 -0.0215  0.6007  0.4731
 3265SOL    HW221258   4.308   4.070   5.472  1.1008  1.4509  0.2883
 3266SOL     OW21259   0.883   0.686   8.218  0.3355  0.6110  0.1618
 3266SOL    HW121260   0.827   0.615   8.250  2.3073 -0.0873  1.9822
 3266SOL    HW221261   0.895   0.658   8.127  1.2540 -3.5724  1.5608
 3267SOL     OW21262   3.831   2.571  12.676  0.5851  0.8510  0.5687
 3267SOL    HW121263   3.799   2.526  12.598 -0.6427  1.6130  0.6460
 3267SOL    HW221264   3.777   2.534  12.746  0.4219 -1.6814 -0.8654
 3268SOL     OW21265   2.309   3.916  13.214 -0.3581 -0.3458  0.5743
 3268SOL    HW121266   2.354   3.832  13.198  0.5889 -0.0434  1.7122
 3268SOL    HW221267   2.281   3.908  13.305  0.0245 -1.8864  0.5676
 3269SOL     OW21268   1.173   4.374   8.733 -0.3985 -0.0372  0.0781
 3269SOL    HW121269   1.110   4.336   8.794 -0.6772  0.9318  0.3938
 3269SOL    HW221270   1.208   4.443   8.789 -1.2574  0.4153  0.0531
 3270SOL     OW21271   3.264   1.958  12.767 -0.0837 -0.1280 -0.2305
 3270SOL    HW121272   3.254   1.948  12.862  2.7618 -0.3609  0.0524
 3270SOL    HW221273   3.211   1.884  12.737 -1.4695  0.5947  0.4511
 3271SOL     OW21274   2.517   1.536   2.939  0.1400  0.0290  0.2824
 3271SOL    HW121275   2.430   1.508   2.911 -0.1039  0.5073  0.5382
 3271SOL    HW221276   2.563   1.460   2.905  2.3641  1.0793  0.9405
 3272SOL     OW21277   1.708   2.685   7.653 -0.4195 -0.0873  0.2603
 3272SOL    HW121278   1.729   2.745   7.724 -0.3821 -0.0087  0.1831
 3272SOL    HW221279   1.755   2.731   7.584  0.9476 -1.7372  0.0844
 3273SOL     OW21280   2.253   4.119   7.967  0.0111 -0.2569  0.0801
 3273SOL    HW121281   2.235   4.211   7.986  1.3796 -0.2172  1.2026
 3273SOL    HW221282   2.347   4.118   7.985 -0.2185 -1.0754  1.2286
 3274SOL     OW21283   4.054   3.343   5.843  0.2763  0.1222 -0.2305
 3274SOL    HW121284   4.070   3.436   5.824 -1.2355  0.4617  0.1145
 3274SOL    HW221285   4.006   3.340   5.926  0.5409 -3.4400 -0.2378
 3275SOL     OW21286   3.051   4.023  13.174  0.2083 -0.7643 -0.0970
 3275SOL    HW121287   3.121   4.009  13.237  0.9263  0.6042 -0.5847
 3275SOL    HW221288   3.068   4.108  13.133  0.9449 -0.0115  1.7814
 3276SOL     OW21289   1.365   0.164  16.427  0.1240  0.1750  0.8311
 3276SOL    HW121290   1.311   0.236  16.459 -0.9413  0.5190 -1.7521
 3276SOL    HW221291   1.329   0.104  16.492 -1.1925  0.8314  0.7140
 3277SOL     OW21292   1.443   0.977  16.396 -0.0591 -0.4174  0.1735
 3277SOL    HW121293   1.522   0.941  16.435 -0.2289 -0.4087  0.5245
 3277SOL    HW221294   1.442   1.057  16.448  0.9065  1.2680 -2.4314
 3278SOL     OW21295   3.073   3.291   6.444 -0.6436 -0.0895 -0.1631
 3278SOL    HW121296   3.083   3.249   6.358 -2.0057  1.0494 -0.8641
 3278SOL    HW221297   3.027   3.224   6.495  0.8285  0.7042  2.1448
 3279SOL     OW21298   0.535   4.235   9.946 -0.6386  0.1049  0.4597
 3279SOL    HW121299   0.565   4.238  10.037  2.8771 -1.1656 -0.6499
 3279SOL    HW221300   0.614   4.204   9.902 -1.5954 -0.3456 -0.9414
 3280SOL     OW21301   0.057   3.158   3.742 -0.1544  0.1819 -0.3141
 3280SOL    HW121302   0.105   3.146   3.824  0.6662 -0.0292 -0.8255
 3280SOL    HW221303   0.003   3.233   3.766  2.1842  1.9341 -0.6339
 3281SOL     OW21304   1.065   1.823  12.084 -0.3887  0.0641 -0.1101
 3281SOL    HW121305   1.069   1.900  12.027 -1.3855  0.7757  0.7835
 3281SOL    HW221306   1.148   1.823  12.132 -0.8790  2.1826  0.7346
 3282SOL     OW21307   0.105   2.900   3.960 -0.1038 -0.2513 -0.7053
 3282SOL    HW121308   0.124   2.988   3.993 -0.8554 -0.9569  1.5824
 3282SOL    HW221309   0.037   2.869   4.019  0.0996 -2.5384 -1.6673
 3283SOL     OW21310   3.375   3.327   5.390 -0.3512  0.3517 -0.6461
 3283SOL    HW121311   3.386   3.243   5.344 -0.0134  0.4643 -0.7712
 3283SOL    HW221312   3.424   3.382   5.329 -0.9682  0.4585 -1.0354
 3284SOL     OW21313   4.494   0.203   1.014  0.2089  0.0217 -0.1802
 3284SOL    HW121314   4.542   0.269   0.964  0.0013  0.2620 -0.0678
 3284SOL    HW221315   4.544   0.193   1.095  0.8149 -1.7277 -0.7694
 3285SOL     OW21316   2.480   2.772   8.679  0.2759 -0.2292 -0.3595
 3285SOL    HW121317   2.407   2.810   8.728 -1.8687 -2.6337 -1.7014
 3285SOL    HW221318   2.506   2.837   8.613  1.4793 -0.4912 -0.1430
 3286SOL     OW21319   2.121   3.790   0.723 -0.1133 -0.3943 -0.1909
 3286SOL    HW121320   2.063   3.714   0.712 -0.9287  0.5145 -2.2280
 3286SOL    HW221321   2.064   3.862   0.749  0.4730  0.4822 -1.3532
 3287SOL     OW21322   0.272   1.179  13.711  0.3868 -0.1186 -0.0966
 3287SOL    HW121323   0.338   1.176  13.780 -0.0607 -0.5354  0.3006
 3287SOL    HW221324   0.295   1.108  13.652 -0.4044 -0.1558 -0.3570
 3288SOL     OW21325   3.105   2.136   4.083  0.0200  0.2253 -0.8034
 3288SOL    HW121326   3.051   2.057   4.088 -0.0503  0.3251 -0.0776
 3288SOL    HW221327   3.049   2.197   4.131  0.0636  0.4134 -0.9935
 3289SOL     OW21328   0.768   3.839   9.731  0.0478 -0.0651 -0.1300
 3289SOL    HW121329   0.756   3.779   9.658  0.0439 -2.2280  1.6525
 3289SOL    HW221330   0.679   3.875   9.734 -0.6892 -2.3042  3.6865
 3290SOL     OW21331   1.986   2.953   9.817  0.8031 -0.2177 -0.0459
 3290SOL    HW121332   1.983   2.888   9.887  1.1619 -0.2886 -0.0968
 3290SOL    HW221333   1.894   2.976   9.803  0.9423 -1.4495 -2.9566
 3291SOL     OW21334   4.406   3.184  14.447 -0.0714 -0.4053  0.7701
 3291SOL    HW121335   4.314   3.168  14.466 -0.2430 -0.9598 -0.4954
 3291SOL    HW221336   4.440   3.229  14.525  0.3020 -1.1597  1.0446
 3292SOL     OW21337   2.535   3.666   2.640 -0.6874 -0.1771  0.1409
 3292SOL    HW121338   2.515   3.580   2.603  0.9853 -0.6992  0.4565
 3292SOL    HW221339   2.608   3.647   2.698 -1.1118  0.1135  0.7774
 3293SOL     OW21340   0.025   2.970  10.200  0.1311 -0.0381 -0.3115
 3293SOL    HW121341   0.079   2.891  10.196 -1.3694 -1.1279  0.8822
 3293SOL    HW221342   4.671   2.954  10.254 -0.3933  2.5532 -0.3098
 3294SOL     OW21343   1.679   2.546  16.082  0.2729  0.4282 -0.2293
 3294SOL    HW121344   1.708   2.554  15.991  0.3333 -1.8882 -0.4073
 3294SOL    HW221345   1.724   2.620  16.124 -0.9072  1.7422 -1.2865
 3295SOL     OW21346   1.469   0.332  15.268  0.6188  0.0317  0.5476
 3295SOL    HW121347   1.427   0.387  15.203 -0.2008 -0.0278  1.0369
 3295SOL    HW221348   1.414   0.254  15.257 -0.2542  0.5619  1.2278
 3296SOL     OW21349   2.595   2.046  17.301 -0.1892 -0.3203  0.0831
 3296SOL    HW121350   2.659   2.117  17.304  1.1415 -1.6993  3.1323
 3296SOL    HW221351   2.632   1.973  17.349 -1.3513 -0.1834  1.2116
 3297SOL     OW21352   3.274   1.584   4.105  0.3253  0.6483 -0.0629
 3297SOL    HW121353   3.355   1.561   4.060  0.5601  1.2638  0.0368
 3297SOL    HW221354   3.240   1.495   4.103 -0.9767  1.1645 -0.4223
 3298SOL     OW21355   0.305   2.901   9.719  0.2446 -0.1723  0.2790
 3298SOL    HW121356   0.354   2.819   9.720 -1.2427 -1.0552 -0.5856
 3298SOL    HW221357   0.374   2.963   9.696 -0.0930  0.2479  0.3973
 3299SOL     OW21358   2.946   3.752  11.460  0.5664  0.0574  0.0119
 3299SOL    HW121359   2.936   3.801  11.378 -1.8068 -2.7938 -1.4152
 3299SOL    HW221360   2.985   3.671  11.428  1.9179  1.0422 -0.8286
 3300SOL     OW21361   0.878   2.364  10.182 -0.2486  0.2524  0.0149
 3300SOL    HW121362   0.925   2.317  10.250 -0.7743  0.2642  0.3857
 3300SOL    HW221363   0.936   2.341  10.110 -2.5154 -0.7090 -1.4796
 3301SOL     OW21364   0.457   3.419   2.808  0.1942 -0.0137  0.0749
 3301SOL    HW121365   0.384   3.480   2.822 -1.7509 -2.2811 -0.2343
 3301SOL    HW221366   0.473   3.434   2.715  0.5643  2.1202  0.4656
 3302SOL     OW21367   0.069   4.532  16.934 -0.4057  0.4700 -0.4349
 3302SOL    HW121368   4.714   4.479  16.926  0.4215 -0.7953 -0.2566
 3302SOL    HW221369   0.077   4.581  16.853  1.3981  1.9723  0.6275
 3303SOL     OW21370   0.473   1.112  15.628  0.3280  0.4854  0.3189
 3303SOL    HW121371   0.403   1.051  15.653 -0.2982 -0.4069 -3.5343
 3303SOL    HW221372   0.550   1.076  15.672 -0.0924  0.1087  0.7425
 3304SOL     OW21373   1.064   0.630   2.880  0.3486 -0.5603  0.3233
 3304SOL    HW121374   1.151   0.668   2.869  0.0700  0.2971  1.0931
 3304SOL    HW221375   1.067   0.568   2.807 -0.7598 -0.9061  0.5733
 3305SOL     OW21376   3.333   4.087  12.890 -0.4596  0.0474  0.0084
 3305SOL    HW121377   3.394   4.021  12.857 -0.2861  0.7725 -1.1379
 3305SOL    HW221378   3.362   4.102  12.980 -0.7202 -3.5424  0.6960
 3306SOL     OW21379   1.470   4.184   8.585  0.0670  0.2290  0.0547
 3306SOL    HW121380   1.392   4.217   8.541 -2.2001 -4.8397  0.2189
 3306SOL    HW221381   1.497   4.111   8.530  1.6312 -0.1532  1.3090
 3307SOL     OW21382   2.294   2.322   9.288  0.1910 -0.3644 -0.7810
 3307SOL    HW121383   2.333   2.348   9.372 -0.3438 -1.4570 -0.1886
 3307SOL    HW221384   2.371   2.299   9.236  2.1392 -1.7884  2.7376
 3308SOL     OW21385   3.181   2.372   5.975  0.0201 -0.2898  0.2517
 3308SOL    HW121386   3.128   2.293   5.987 -3.2321  1.8076 -0.2632
 3308SOL    HW221387   3.152   2.400   5.888  2.9069 -0.7856 -0.8714
 3309SOL     OW21388   3.208   1.121   3.819 -0.2178 -0.3265  0.6584
 3309SOL    HW121389   3.243   1.046   3.867 -1.2420 -1.0789  0.2491
 3309SOL    HW221390   3.272   1.139   3.750 -2.1171 -1.7092 -1.5081
 3310SOL     OW21391   4.423   3.928   5.708  0.8082  0.1445 -0.4400
 3310SOL    HW121392   4.451   3.977   5.786  1.2115 -0.8358  0.0331
 3310SOL    HW221393   4.476   3.849   5.712  1.6015  0.7527  1.3071
 3311SOL     OW21394   4.477   1.464  16.122 -0.3219 -0.4307  0.2993
 3311SOL    HW121395   4.520   1.541  16.086 -0.4455  0.7059  2.5684
 3311SOL    HW221396   4.386   1.489  16.113 -0.5654 -1.5077 -0.2041
 3312SOL     OW21397   3.847   4.665   6.489  0.2235 -0.3984 -0.5459
 3312SOL    HW121398   3.856   4.572   6.471  0.7292 -0.8454  1.9321
 3312SOL    HW221399   3.839   4.664   6.585  0.5811 -1.3303 -0.5245
 3313SOL     OW21400   0.353   0.173   6.192 -0.0345  0.2225  0.1218
 3313SOL    HW121401   0.384   0.114   6.261  2.6173  0.4815 -0.8670
 3313SOL    HW221402   0.411   0.248   6.202  1.1575 -0.6624 -0.2038
 3314SOL     OW21403   0.626   2.577   3.485 -0.1529 -0.4123  0.2393
 3314SOL    HW121404   0.599   2.583   3.393 -0.0705 -1.3057  0.1539
 3314SOL    HW221405   0.541   2.584   3.528 -0.4011  3.4551 -0.9243
 3315SOL     OW21406   4.387   3.631   2.407 -0.3491  0.2400  0.2069
 3315SOL    HW121407   4.310   3.659   2.456 -0.2669  2.4053 -0.9274
 3315SOL    HW221408   4.466   3.645   2.460  0.7435 -1.2187 -1.0550
 3316SOL     OW21409   0.063   0.389   2.227  0.1797  0.1790  0.3176
 3316SOL    HW121410   0.022   0.462   2.181  1.3159  0.7338  0.1825
 3316SOL    HW221411   0.030   0.317   2.174  1.2765  1.2860 -1.8710
 3317SOL     OW21412   1.989   0.058  10.977 -0.4654 -0.1026 -0.5515
 3317SOL    HW121413   1.960   0.075  10.887 -1.7444 -1.5823 -0.4147
 3317SOL    HW221414   2.083   0.061  10.963 -0.6486  1.1913 -1.5117
 3318SOL     OW21415   3.061   2.152   9.331 -0.5939 -0.0049 -0.1961
 3318SOL    HW121416   3.023   2.068   9.303 -0.3236 -0.2990  0.3202
 3318SOL    HW221417   3.005   2.215   9.285  2.1174  0.9228 -2.2183
 3319SOL     OW21418   3.244   3.905   0.534 -0.9677 -0.3940  0.1370
 3319SOL    HW121419   3.194   3.984   0.553 -0.7240 -0.6043  1.6381
 3319SOL    HW221420   3.203   3.871   0.455  0.3967  0.1123 -0.7948
 3320SOL     OW21421   4.338   0.986  15.155 -0.5272 -0.0534  0.3641
 3320SOL    HW121422   4.289   0.923  15.103  1.3545 -1.3041  0.0748
 3320SOL    HW221423   4.377   0.938  15.228  1.9744 -1.0931 -1.6369
 3321SOL     OW21424   3.304   3.667   6.397 -0.0361  0.5297  0.1769
 3321SOL    HW121425   3.382   3.696   6.351 -1.0862 -0.9869 -2.5565
 3321SOL    HW221426   3.346   3.624   6.472  2.0836  2.5905  0.1514
 3322SOL     OW21427   3.581   3.049   8.099 -0.2080  0.2499  0.3628
 3322SOL    HW121428   3.645   3.022   8.033  0.3373 -1.6667  1.6844
 3322SOL    HW221429   3.623   3.008   8.174 -1.1991 -1.8376 -0.2181
 3323SOL     OW21430   3.104   2.095   6.541  0.0074 -0.1105 -0.3869
 3323SOL    HW121431   3.155   2.160   6.589  1.9643 -1.3135 -0.8147
 3323SOL    HW221432   3.159   2.075   6.465 -1.0913 -0.3623 -1.1051
 3324SOL     OW21433   0.532   3.047   7.539  0.1430 -0.2618 -0.1505
 3324SOL    HW121434   0.538   3.007   7.626 -1.7483  0.6882  0.4142
 3324SOL    HW221435   0.438   3.057   7.522  0.0906  0.5873  0.6033
 3325SOL     OW21436   4.335   4.246   5.261 -0.1765 -0.0544  0.2150
 3325SOL    HW121437   4.367   4.160   5.287  2.2426  0.5261 -0.8709
 3325SOL    HW221438   4.396   4.283   5.198  2.4574 -1.5592  1.8733
 3326SOL     OW21439   3.343   0.289   5.434  0.6223  0.5530 -0.4547
 3326SOL    HW121440   3.287   0.212   5.428 -0.0157  0.9085  0.8673
 3326SOL    HW221441   3.359   0.300   5.341 -1.8845 -1.3529 -1.0801
 3327SOL     OW21442   2.611   1.797   3.493  0.0437  0.2046 -0.4316
 3327SOL    HW121443   2.566   1.713   3.477  0.0438  0.6281 -2.6900
 3327SOL    HW221444   2.547   1.845   3.546  0.0991  0.0510 -0.2259
 3328SOL     OW21445   0.211   3.716  10.240 -0.0351 -0.6533  0.2454
 3328SOL    HW121446   0.148   3.667  10.186 -2.0951  0.4754  1.6446
 3328SOL    HW221447   0.179   3.689  10.326 -0.8052  0.4933  0.3144
 3329SOL     OW21448   1.756   0.269   6.296  0.0117  0.1170  0.3602
 3329SOL    HW121449   1.682   0.208   6.302  0.3748 -0.1093  2.7765
 3329SOL    HW221450   1.813   0.235   6.366  2.5959 -0.7783 -2.1840
 3330SOL     OW21451   2.332   1.247  16.210  0.5295 -0.4156  0.1714
 3330SOL    HW121452   2.350   1.172  16.267 -1.6614  0.2515  1.7683
 3330SOL    HW221453   2.305   1.309  16.278 -1.0337 -0.5654 -0.3079
 3331SOL     OW21454   2.422   2.344   3.042 -0.1559  0.2850 -0.0802
 3331SOL    HW121455   2.477   2.356   3.120 -1.4364 -0.4649  0.9303
 3331SOL    HW221456   2.478   2.316   2.970  0.0724  1.4764 -0.3641
 3332SOL     OW21457   1.845   4.058   9.970  0.0297 -0.2624  0.3716
 3332SOL    HW121458   1.895   4.098   9.900  1.9286 -0.8998  1.3601
 3332SOL    HW221459   1.901   3.984   9.993  1.6969  0.7281 -0.6012
 3333SOL     OW21460   1.498   1.186  17.443 -0.3115 -0.4225  0.0233
 3333SOL    HW121461   1.576   1.232  17.415 -0.4004  0.2160  0.8356
 3333SOL    HW221462   1.516   1.092  17.440 -0.6015 -0.5381  1.7095
 3334SOL     OW21463   1.766   2.445   9.616  0.2161 -0.0917 -0.3090
 3334SOL    HW121464   1.779   2.535   9.646 -1.1403 -0.2258  0.7384
 3334SOL    HW221465   1.846   2.412   9.657 -0.0728 -1.3498 -0.7798
 3335SOL     OW21466   0.534   3.513  11.918  0.0657 -0.1700 -0.6638
 3335SOL    HW121467   0.559   3.524  12.010 -0.0390  0.0850 -0.6648
 3335SOL    HW221468   0.561   3.424  11.897  1.4971 -0.4708  2.4191
 3336SOL     OW21469   1.512   2.465   5.979 -0.2005 -0.0749 -0.5615
 3336SOL    HW121470   1.574   2.537   5.969 -1.3167  1.0669  0.6924
 3336SOL    HW221471   1.555   2.421   6.052 -2.5257  2.5248  2.3496
 3337SOL     OW21472   2.943   2.862   7.113 -0.0179  0.0500 -0.5716
 3337SOL    HW121473   2.993   2.790   7.075 -0.1592 -0.4716  0.2176
 3337SOL    HW221474   2.979   2.884   7.199 -0.7406 -0.7456 -0.0662
 3338SOL     OW21475   3.925   0.800   0.537  0.5668 -0.0240 -0.1272
 3338SOL    HW121476   3.999   0.844   0.579 -0.1787 -1.7882  3.0349
 3338SOL    HW221477   3.891   0.757   0.616  0.6616 -0.1986 -0.1804
 3339SOL     OW21478   0.841   4.187   5.971  0.7022 -0.2310  0.3806
 3339SOL    HW121479   0.755   4.165   5.934  0.1304  1.5460  0.6518
 3339SOL    HW221480   0.834   4.129   6.047  1.1263  0.1198  0.6846
 3340SOL     OW21481   2.082   2.898   6.927 -0.1741 -0.0485 -0.1857
 3340SOL    HW121482   2.015   2.855   6.875  0.2526 -1.4993  0.4554
 3340SOL    HW221483   2.134   2.824   6.960 -1.6756 -0.9282  0.2019
 3341SOL     OW21484   1.411   3.665  13.321 -0.2546 -0.0865  0.1128
 3341SOL    HW121485   1.375   3.752  13.341 -0.3056 -0.4668  1.6245
 3341SOL    HW221486   1.491   3.685  13.273  0.0521  1.5083  1.2730
 3342SOL     OW21487   2.813   4.497  13.145  0.1498  0.0879  0.5950
 3342SOL    HW121488   2.740   4.501  13.083  0.5670  1.9743  0.2206
 3342SOL    HW221489   2.878   4.467  13.081 -1.1258 -0.6770 -0.3341
 3343SOL     OW21490   0.706   3.700  15.739 -0.4417 -1.0789 -0.2211
 3343SOL    HW121491   0.676   3.704  15.649  0.6507  1.5459 -0.4499
 3343SOL    HW221492   0.737   3.610  15.744 -0.5952 -1.0728  0.8680
 3344SOL     OW21493   2.202   3.899   2.741  0.2519 -0.4329  0.8903
 3344SOL    HW121494   2.231   3.843   2.668 -1.0484  0.0097  0.0260
 3344SOL    HW221495   2.222   3.844   2.816 -0.0719 -1.2381  0.3972
 3345SOL     OW21496   3.977   0.818   4.948 -0.3799  0.0654  0.2825
 3345SOL    HW121497   3.994   0.848   4.859  0.2315  0.4521  0.5373
 3345SOL    HW221498   3.950   0.730   4.922  0.7021 -0.5647  1.2906
 3346SOL     OW21499   0.825   3.070  12.310 -0.4090 -0.4473  0.0476
 3346SOL    HW121500   0.847   3.022  12.389  2.7950 -0.7747 -1.0707
 3346SOL    HW221501   0.880   3.036  12.240 -0.5953 -0.4698 -0.0897
 3347SOL     OW21502   3.497   3.653   7.273  0.2036 -0.5853  0.2206
 3347SOL    HW121503   3.472   3.745   7.263  0.9583 -0.2808  1.1061
 3347SOL    HW221504   3.421   3.606   7.237 -1.1623  0.4679  1.6933
 3348SOL     OW21505   3.837   2.933   8.019  0.2646 -0.1995 -0.0836
 3348SOL    HW121506   3.876   2.903   8.102  0.1019 -0.4797 -0.1088
 3348SOL    HW221507   3.899   2.999   7.986  1.9236 -1.5183  0.3805
 3349SOL     OW21508   4.558   0.781  17.681 -0.5417 -0.2863  0.2848
 3349SOL    HW121509   4.563   0.782  17.586 -0.7039 -0.7188  0.2705
 3349SOL    HW221510   4.467   0.757   0.002  0.5477 -4.3595  0.4664
 3350SOL     OW21511   1.338   2.198  13.215  0.2164  0.0967  0.3252
 3350SOL    HW121512   1.306   2.287  13.199 -2.6570 -1.0959 -0.4872
 3350SOL    HW221513   1.421   2.193  13.167 -1.0499 -0.0085 -1.8611
 3351SOL     OW21514   0.480   2.013  16.431 -0.3891 -0.7362  0.0439
 3351SOL    HW121515   0.544   2.049  16.492  0.1311 -1.5594 -0.0287
 3351SOL    HW221516   0.425   1.954  16.482 -0.3158 -1.2150 -0.4368
 3352SOL     OW21517   1.342   0.120  11.346 -0.1190 -0.3631  0.0404
 3352SOL    HW121518   1.341   0.215  11.361  1.2852  0.1564 -2.9867
 3352SOL    HW221519   1.395   0.111  11.266 -2.2974  1.7935 -1.6785
 3353SOL     OW21520   1.903   3.592   3.008  0.1919 -0.4679  0.1961
 3353SOL    HW121521   1.935   3.629   2.926  1.1621 -1.2885  0.1935
 3353SOL    HW221522   1.816   3.631   3.011  1.2282  1.7968  0.7950
 3354SOL     OW21523   2.329   0.304  17.398 -0.6373 -0.0448  0.1696
 3354SOL    HW121524   2.300   0.216  17.422  0.0863 -0.3612 -0.1160
 3354SOL    HW221525   2.370   0.279  17.316  1.6892  0.6192  1.1122
 3355SOL     OW21526   4.342   3.466  10.807  0.4345 -0.2317 -0.2382
 3355SOL    HW121527   4.413   3.491  10.748 -0.6164  2.0030 -0.5663
 3355SOL    HW221528   4.378   3.452  10.894 -1.7884 -1.3477  0.5067
 3356SOL     OW21529   0.201   1.639   7.592 -0.0376 -0.4041  0.5913
 3356SOL    HW121530   0.244   1.569   7.642  0.8501 -0.5263 -0.3596
 3356SOL    HW221531   0.279   1.677   7.552 -0.9129 -0.6863 -1.3574
 3357SOL     OW21532   2.853   3.273  14.654 -0.0900  0.4199  0.3968
 3357SOL    HW121533   2.887   3.287  14.742 -0.6775 -2.0144  0.9920
 3357SOL    HW221534   2.932   3.232  14.617  0.1702 -0.2944  1.7796
 3358SOL     OW21535   3.005   2.390   5.733  0.0447 -0.5629 -0.0257
 3358SOL    HW121536   2.948   2.329   5.685  1.5084 -1.2166 -0.9383
 3358SOL    HW221537   3.086   2.348   5.702 -0.0284  0.2658 -1.3587
 3359SOL     OW21538   2.766   2.210   7.164  0.2110  0.1666  0.3595
 3359SOL    HW121539   2.689   2.184   7.214  1.0617 -2.8880  0.0938
 3359SOL    HW221540   2.734   2.294   7.131  0.5046 -0.0444 -0.4529
 3360SOL     OW21541   0.283   0.903   7.438  0.1818  0.0807  0.1226
 3360SOL    HW121542   0.362   0.953   7.418 -1.0274  1.6695 -0.6911
 3360SOL    HW221543   0.216   0.971   7.445 -0.6588 -0.8301  0.9218
 3361SOL     OW21544   0.106   3.678  10.770 -0.1790 -0.0161  0.2634
 3361SOL    HW121545   0.126   3.617  10.841 -1.4508  0.2563  0.8464
 3361SOL    HW221546   0.083   3.759  10.815 -3.3453 -2.8246  3.6458
 3362SOL     OW21547   3.570   0.041   5.603 -0.1208  0.0360  0.2575
 3362SOL    HW121548   3.501   0.101   5.573  0.6486  1.4520  1.2686
 3362SOL    HW221549   3.545   4.676   5.581  1.2901 -0.2647 -0.1186
 3363SOL     OW21550   1.097   3.354   4.697  0.1068  0.7375 -0.1564
 3363SOL    HW121551   1.077   3.326   4.607 -1.5916  0.9954  0.1417
 3363SOL    HW221552   1.155   3.428   4.680  0.8285  0.0366 -0.7716
 3364SOL     OW21553   1.218   3.812   4.382 -0.0973  0.2729  0.5189
 3364SOL    HW121554   1.196   3.720   4.367  0.2732  0.2511  0.1141
 3364SOL    HW221555   1.150   3.839   4.445 -2.2599 -1.0610 -1.2429
 3365SOL     OW21556   1.159   0.275   3.551  0.1770 -0.0743  0.2403
 3365SOL    HW121557   1.216   0.258   3.476 -0.6375 -0.8582 -0.1969
 3365SOL    HW221558   1.129   0.361   3.521  2.6576  0.2855 -1.2507
 3366SOL     OW21559   1.481   0.278  16.187  0.0100 -0.2997  0.2525
 3366SOL    HW121560   1.403   0.267  16.134  0.3783 -0.8356 -0.1847
 3366SOL    HW221561   1.444   0.260  16.273  1.1844 -0.5362  0.7105
 3367SOL     OW21562   0.535   2.603  17.565  0.2202 -0.2695  0.2656
 3367SOL    HW121563   0.577   2.525  17.601 -0.3343 -0.2325  0.9867
 3367SOL    HW221564   0.445   2.573  17.550 -0.8175  2.1208  1.8957
 3368SOL     OW21565   2.534   0.775  16.416 -0.5018  0.1620  0.0983
 3368SOL    HW121566   2.496   0.855  16.452  0.1594  0.5349 -0.0218
 3368SOL    HW221567   2.462   0.713  16.413  1.2482 -1.9396  1.1382
 3369SOL     OW21568   0.969   3.329  13.430 -0.0556 -0.0170 -0.2804
 3369SOL    HW121569   0.971   3.359  13.339  1.4704  0.8146  0.0279
 3369SOL    HW221570   0.939   3.408  13.475  2.4480  2.0750 -2.3045
 3370SOL     OW21571   4.312   0.214  11.472  0.2773 -0.7030  0.3081
 3370SOL    HW121572   4.260   0.280  11.518  3.4518  2.9722 -1.4013
 3370SOL    HW221573   4.267   0.144  11.519  2.1601 -1.2795  1.2546
 3371SOL     OW21574   2.752   1.161   3.024  0.3030  0.0712  0.3758
 3371SOL    HW121575   2.665   1.157   3.064  0.5417 -2.2107  0.6443
 3371SOL    HW221576   2.730   1.128   2.937  0.9382 -0.3972  0.3917
 3372SOL     OW21577   3.174   1.959   4.359  0.3403  0.4757  0.4901
 3372SOL    HW121578   3.255   1.972   4.310  0.8594 -2.0399  0.7117
 3372SOL    HW221579   3.180   1.864   4.368  0.9172  0.4858  0.2048
 3373SOL     OW21580   1.422   2.179   6.320 -0.6503 -0.7221  0.1909
 3373SOL    HW121581   1.486   2.226   6.266  0.2747  0.1404  2.0242
 3373SOL    HW221582   1.409   2.105   6.260  0.6838  0.1326 -1.1621
 3374SOL     OW21583   1.635   0.994   1.515 -0.5880  0.1976  0.1333
 3374SOL    HW121584   1.574   0.984   1.588 -0.1873 -2.2983  0.1147
 3374SOL    HW221585   1.720   0.980   1.557 -1.4960  0.7629  2.1530
 3375SOL     OW21586   0.280   2.778   7.480 -0.6180  0.0173 -0.3119
 3375SOL    HW121587   0.187   2.764   7.462 -0.3424 -2.0046 -0.1084
 3375SOL    HW221588   0.295   2.870   7.457  1.3923 -0.6461 -1.6571
 3376SOL     OW21589   3.343   1.685   8.146 -0.1082  0.6684  0.0706
 3376SOL    HW121590   3.388   1.618   8.094 -1.0257  0.7813 -0.8652
 3376SOL    HW221591   3.369   1.656   8.234  0.9453  0.9109 -0.1639
 3377SOL     OW21592   4.558   2.423   5.213 -0.4240 -0.0678 -0.4462
 3377SOL    HW121593   4.524   2.372   5.139 -1.2888  0.6238 -0.5285
 3377SOL    HW221594   4.648   2.428   5.182 -1.0816  2.5881 -1.9335
 3378SOL     OW21595   4.081   1.561   8.003  0.0824  0.2649 -0.2667
 3378SOL    HW121596   4.136   1.536   7.928  0.4330 -3.7989  1.3252
 3378SOL    HW221597   4.137   1.603   8.068 -0.0142 -0.7496  0.4752
 3379SOL     OW21598   2.587   2.309   9.407  0.6514  0.5135 -0.2872
 3379SOL    HW121599   2.569   2.356   9.488 -0.1420 -0.6361  0.2112
 3379SOL    HW221600   2.592   2.222   9.446 -1.5257  0.3063 -0.4664
 3380SOL     OW21601   0.658   1.226   1.780 -0.2642  0.4920 -0.0433
 3380SOL    HW121602   0.732   1.214   1.840 -2.0184 -0.9196  1.8485
 3380SOL    HW221603   0.608   1.146   1.799  1.1638  0.0535  1.9266
 3381SOL     OW21604   0.086   0.847   0.767 -0.3599 -0.1253 -0.3162
 3381SOL    HW121605   0.041   0.888   0.694 -1.2942 -2.1453 -0.8457
 3381SOL    HW221606   0.152   0.797   0.719 -0.4346  0.0348 -0.5856
 3382SOL     OW21607   1.358   2.874  17.365  0.1826  0.2295 -0.3637
 3382SOL    HW121608   1.411   2.824  17.427  0.2390  1.3049  0.4497
 3382SOL    HW221609   1.323   2.813  17.300  1.2870  0.8112 -1.5306
 3383SOL     OW21610   1.008   2.969  17.290 -0.1499 -0.0187 -0.1922
 3383SOL    HW121611   0.931   3.021  17.265 -0.9880  0.5780  3.6471
 3383SOL    HW221612   1.000   2.888  17.239  1.0678  0.0296 -0.4451
 3384SOL     OW21613   1.689   0.298   9.806  0.1434  0.1660 -0.0726
 3384SOL    HW121614   1.683   0.324   9.714 -0.6469 -0.3278 -0.1619
 3384SOL    HW221615   1.780   0.270   9.808 -0.3629 -1.3909  0.8082
 3385SOL     OW21616   3.282   3.178   5.160  0.6648 -0.2684 -0.1596
 3385SOL    HW121617   3.211   3.156   5.219  1.0428  1.6000  0.9963
 3385SOL    HW221618   3.239   3.249   5.111 -0.1629  0.0033  0.9580
 3386SOL     OW21619   0.971   0.855  12.386 -0.4979 -0.5153 -0.2740
 3386SOL    HW121620   0.952   0.885  12.297  3.4413 -0.5644 -1.1181
 3386SOL    HW221621   1.055   0.811  12.372  0.1026 -0.5906  3.3638
 3387SOL     OW21622   4.010   4.440   0.095 -0.4458 -0.2010  0.1509
 3387SOL    HW121623   4.035   4.352   0.122  0.5700  0.2460  0.7167
 3387SOL    HW221624   3.927   4.455   0.139  0.2904 -1.0898  1.8281
 3388SOL     OW21625   1.864   2.049   6.192  0.0141 -0.2237 -0.6576
 3388SOL    HW121626   1.893   2.100   6.267  1.8356 -0.4095 -1.2362
 3388SOL    HW221627   1.874   1.958   6.222 -1.7140  0.2972  1.5055
 3389SOL     OW21628   0.443   1.115   6.733 -0.5467 -0.3158 -0.0619
 3389SOL    HW121629   0.376   1.177   6.762 -0.8281  0.0292 -1.4264
 3389SOL    HW221630   0.455   1.128   6.639 -1.8113 -0.1055 -0.2046
 3390SOL     OW21631   2.739   4.028  10.438 -0.5053  0.4714 -0.0038
 3390SOL    HW121632   2.815   4.062  10.484 -0.3196 -2.3382  1.7289
 3390SOL    HW221633   2.688   3.987  10.508  2.5312 -0.4671  1.6380
 3391SOL     OW21634   2.501   3.621   5.033 -0.1513  0.1668 -0.2849
 3391SOL    HW121635   2.467   3.611   4.944 -1.1630  2.9845 -0.2285
 3391SOL    HW221636   2.469   3.705   5.065 -0.4065 -0.0432  0.0216
 3392SOL     OW21637   3.627   0.718  12.291  0.2318 -0.3186 -0.1700
 3392SOL    HW121638   3.688   0.791  12.303  1.2299 -0.9979 -1.1227
 3392SOL    HW221639   3.689   0.646  12.281 -0.2531 -0.8851  0.8669
 3393SOL     OW21640   3.625   0.172   6.540 -0.7179  0.1657 -0.4784
 3393SOL    HW121641   3.690   0.132   6.598  0.2379 -0.0589 -1.7176
 3393SOL    HW221642   3.687   0.178   6.467 -0.1422 -0.9445 -0.0842
 3394SOL     OW21643   3.587   3.544   5.338  0.0594  0.1485  0.0458
 3394SOL    HW121644   3.622   3.471   5.390  1.0917 -1.0479 -2.3192
 3394SOL    HW221645   3.661   3.588   5.296 -0.9362  1.5701 -0.2224
 3395SOL     OW21646   1.514   3.443   6.935 -0.0856 -1.3126 -0.0779
 3395SOL    HW121647   1.574   3.379   6.971  0.5613 -0.3096  0.6101
 3395SOL    HW221648   1.511   3.409   6.846  1.2380 -0.6415 -0.3812
 3396SOL     OW21649   1.979   4.124  10.258  0.1509  0.3098  0.0314
 3396SOL    HW121650   1.939   4.111  10.172  0.3111  1.6768 -0.2441
 3396SOL    HW221651   1.935   4.206  10.282  0.6055  0.6115 -0.1576
 3397SOL     OW21652   3.663   4.452  10.533 -0.3594  0.0361 -0.1300
 3397SOL    HW121653   3.592   4.507  10.562  0.8561  1.3259  0.3906
 3397SOL    HW221654   3.701   4.418  10.614 -1.9066 -0.4718  0.3722
 3398SOL     OW21655   0.662   3.577   7.182  0.1893  0.4353 -0.6079
 3398SOL    HW121656   0.715   3.634   7.126  2.8468 -2.2952 -0.8509
 3398SOL    HW221657   0.698   3.603   7.267 -2.7993  2.0019  0.1821
 3399SOL     OW21658   3.177   0.191   4.205  0.1684  0.1110 -0.6934
 3399SOL    HW121659   3.201   0.233   4.287  1.0721 -1.4545 -0.1756
 3399SOL    HW221660   3.240   0.234   4.146 -0.5126 -0.1748 -1.6346
 3400SOL     OW21661   0.309   4.377  11.786  0.3204  0.0874 -0.0086
 3400SOL    HW121662   0.270   4.391  11.873  2.1126  1.8574  0.5122
 3400SOL    HW221663   0.262   4.445  11.739 -1.2937 -1.1920 -0.2478
 3401SOL     OW21664   2.113   3.324   1.901 -0.1475 -0.0569 -0.3598
 3401SOL    HW121665   2.166   3.246   1.914 -1.5881 -1.2537 -1.7018
 3401SOL    HW221666   2.178   3.390   1.875  0.4175 -0.4293  0.1112
 3402SOL     OW21667   0.395   4.214   4.484 -0.1400 -0.4836 -0.6388
 3402SOL    HW121668   0.409   4.196   4.577  1.7743  1.0974 -0.6284
 3402SOL    HW221669   0.358   4.302   4.491  0.4237 -0.2386 -0.7635
 3403SOL     OW21670   1.848   1.660   5.398 -0.1398  0.3287 -0.1730
 3403SOL    HW121671   1.912   1.630   5.334  0.7930 -0.1828  1.0118
 3403SOL    HW221672   1.899   1.623   5.469 -0.9274 -1.8325 -0.7470
 3404SOL     OW21673   0.398   3.056   6.400 -0.1308  0.2588 -0.0665
 3404SOL    HW121674   0.353   3.050   6.485 -1.0724  0.8371 -0.5237
 3404SOL    HW221675   0.366   2.977   6.357 -0.2111  0.2918 -0.0681
 3405SOL     OW21676   3.633   0.039  10.486  0.4460  0.0445 -0.1517
 3405SOL    HW121677   3.561   4.708  10.517  0.6172  0.4867  1.0200
 3405SOL    HW221678   3.648   0.001  10.399  0.8641 -2.7075  1.1106
 3406SOL     OW21679   1.087   1.760   2.654  0.2264  0.1131 -0.6292
 3406SOL    HW121680   1.116   1.713   2.576  0.6155 -2.1784  0.8739
 3406SOL    HW221681   1.174   1.786   2.684 -0.7507  0.6825  1.6900
 3407SOL     OW21682   2.042   1.239   8.717 -0.3835 -0.2017 -0.4899
 3407SOL    HW121683   2.053   1.292   8.796 -2.3474 -1.4466  0.6089
 3407SOL    HW221684   2.077   1.299   8.651 -1.6664  2.2472  1.0715
 3408SOL     OW21685   0.188   3.534   8.767 -0.9087  0.5658 -0.3928
 3408SOL    HW121686   0.123   3.489   8.822  0.7669 -1.2505  0.1264
 3408SOL    HW221687   0.258   3.556   8.828 -1.5285  1.1241  0.1161
 3409SOL     OW21688   0.293   2.304  15.794  0.1484  1.1706 -0.3973
 3409SOL    HW121689   0.302   2.371  15.862 -1.4009  0.4374  0.5248
 3409SOL    HW221690   0.378   2.317  15.753  2.0159 -0.3565  2.9453
 3410SOL     OW21691   3.471   2.369  10.918 -0.3028 -0.2522 -0.2733
 3410SOL    HW121692   3.439   2.447  10.964 -1.3677 -1.0841  0.3961
 3410SOL    HW221693   3.389   2.337  10.881 -0.2202 -0.4088 -0.3209
 3411SOL     OW21694   3.689   3.856   7.455 -0.0196  0.4413 -1.0186
 3411SOL    HW121695   3.724   3.840   7.368  1.3758  2.1388 -0.7666
 3411SOL    HW221696   3.759   3.915   7.480  0.5548 -0.9573  0.6607
 3412SOL     OW21697   2.129   4.400   5.360  0.1122 -0.5097 -0.1129
 3412SOL    HW121698   2.132   4.332   5.427 -0.8248 -0.2487  0.2002
 3412SOL    HW221699   2.205   4.452   5.385  0.5280 -0.4391 -1.5357
 3413SOL     OW21700   4.129   4.296   4.505  0.7277 -0.0566  0.5356
 3413SOL    HW121701   4.111   4.242   4.582 -1.5810 -2.5391 -1.7335
 3413SOL    HW221702   4.188   4.236   4.458  1.0235 -0.4679  1.4365
 3414SOL     OW21703   1.166   0.267   7.996 -0.0049  0.1893 -0.7189
 3414SOL    HW121704   1.129   0.303   8.077  1.5550  0.3686 -0.0823
 3414SOL    HW221705   1.161   0.178   8.031 -2.7547  0.2078 -1.0661
 3415SOL     OW21706   4.083   1.678   6.153 -0.4266 -0.0825  0.5641
 3415SOL    HW121707   3.995   1.658   6.121 -0.2849  0.3309 -0.0854
 3415SOL    HW221708   4.133   1.698   6.074 -2.0673 -1.7746 -0.9274
 3416SOL     OW21709   2.058   1.122   2.889  0.6984  0.3765  0.5637
 3416SOL    HW121710   2.044   1.180   2.814  1.1560 -1.3983 -0.9022
 3416SOL    HW221711   2.007   1.045   2.863  1.4941 -0.1976  0.6622
 3417SOL     OW21712   2.062   2.889   7.479  0.1761  0.2264  0.2654
 3417SOL    HW121713   2.112   2.959   7.437  1.4636 -1.2626 -0.6672
 3417SOL    HW221714   2.077   2.907   7.572  1.6051  0.4146 -0.0136
 3418SOL     OW21715   1.888   1.286   7.652  0.3789  0.1067 -0.2156
 3418SOL    HW121716   1.919   1.372   7.681 -1.2608  0.0023  1.8341
 3418SOL    HW221717   1.798   1.309   7.631  0.4862 -0.1958 -1.0332
 3419SOL     OW21718   0.806   2.399   3.589  0.1442  0.5008  0.2833
 3419SOL    HW121719   0.883   2.442   3.551 -0.5162  2.4531  1.1876
 3419SOL    HW221720   0.733   2.453   3.560 -0.7439 -1.1093 -0.5312
 3420SOL     OW21721   4.350   2.201  10.577  0.0110  0.0945  0.0175
 3420SOL    HW121722   4.316   2.279  10.533 -0.4888 -0.9636 -1.4565
 3420SOL    HW221723   4.283   2.139  10.547 -0.8694  0.4129  1.2926
 3421SOL     OW21724   0.619   1.054   2.352 -0.8938  0.5502  0.2780
 3421SOL    HW121725   0.586   1.090   2.270  0.9821  3.4112  0.8066
 3421SOL    HW221726   0.709   1.087   2.347 -0.5122 -0.1216  2.5800
 3422SOL     OW21727   4.042   4.546   4.191  0.2088 -0.0085  0.1772
 3422SOL    HW121728   3.961   4.587   4.224 -0.1003 -0.0195 -0.5770
 3422SOL    HW221729   4.009   4.464   4.155 -0.0151  0.1704 -0.0280
 3423SOL     OW21730   0.396   2.763   8.657 -0.6917 -0.0854  0.2700
 3423SOL    HW121731   0.325   2.727   8.604 -0.3260 -2.4285  1.4014
 3423SOL    HW221732   0.412   2.691   8.717  1.1849  0.4237  0.3705
 3424SOL     OW21733   0.920   2.234   3.981 -0.3212  0.0083  0.4303
 3424SOL    HW121734   0.996   2.263   3.930  1.2041 -0.3697  2.4924
 3424SOL    HW221735   0.924   2.140   3.962 -3.0808 -0.0190  0.0108
 3425SOL     OW21736   3.209   1.282   2.338 -0.3170  0.5342 -0.1445
 3425SOL    HW121737   3.150   1.300   2.265 -1.2669 -0.6230  0.3254
 3425SOL    HW221738   3.288   1.242   2.302 -0.3022 -0.2637  0.7751
 3426SOL     OW21739   4.025   2.340   8.644 -0.0834  0.2246  0.2587
 3426SOL    HW121740   4.038   2.246   8.648 -0.4401  0.0762 -1.8387
 3426SOL    HW221741   4.094   2.383   8.694 -0.7950  0.0856  1.3626
 3427SOL     OW21742   2.897   0.891  16.337  0.3545  0.7727 -0.1350
 3427SOL    HW121743   2.849   0.831  16.394  1.7579  1.0885  1.3703
 3427SOL    HW221744   2.936   0.837  16.268  1.3135 -0.5968  1.5062
 3428SOL     OW21745   1.367   4.017   5.585  0.2225  0.1358 -0.3635
 3428SOL    HW121746   1.368   4.059   5.498 -0.6949  0.4741 -0.2132
 3428SOL    HW221747   1.423   3.939   5.580  0.0749 -0.0273  0.5573
 3429SOL     OW21748   2.189   2.585   4.754  0.7803 -0.1895 -0.1359
 3429SOL    HW121749   2.195   2.490   4.753 -0.2609 -0.2386 -1.5271
 3429SOL    HW221750   2.283   2.605   4.756  0.6980 -0.0657  2.4185
 3430SOL     OW21751   3.804   4.153   8.624  1.0995  0.6465  0.5050
 3430SOL    HW121752   3.769   4.069   8.593 -0.1020  1.1343  0.5573
 3430SOL    HW221753   3.803   4.143   8.719 -2.4402  0.0766  0.4035
 3431SOL     OW21754   1.382   0.632   1.921  0.1610 -0.0393  0.1572
 3431SOL    HW121755   1.463   0.599   1.883 -0.3413 -0.7724 -0.2850
 3431SOL    HW221756   1.315   0.596   1.863 -1.4188 -0.7187  2.3843
 3432SOL     OW21757   0.091   1.315  11.518  0.0222 -0.3894  0.2166
 3432SOL    HW121758   0.008   1.334  11.474  0.3324 -0.7890 -0.5392
 3432SOL    HW221759   0.077   1.353  11.605  1.8541  0.7624  0.0129
 3433SOL     OW21760   3.888   4.713   7.430  0.2753  0.2434  0.0385
 3433SOL    HW121761   3.864   0.028   7.514 -0.7353 -0.0302 -0.1262
 3433SOL    HW221762   3.881   0.067   7.376 -1.5499  0.8687  1.1689
 3434SOL     OW21763   3.325   3.604   9.566 -0.4213  0.2223  0.2278
 3434SOL    HW121764   3.296   3.672   9.505  2.0781 -0.9351 -2.2807
 3434SOL    HW221765   3.394   3.564   9.513 -0.1889  1.2132 -0.2150
 3435SOL     OW21766   2.265   0.198   1.747  0.2638  0.3176 -0.4873
 3435SOL    HW121767   2.286   0.203   1.654  0.4116 -1.6087 -0.5590
 3435SOL    HW221768   2.281   0.286   1.780  1.7907  0.6434 -2.0797
 3436SOL     OW21769   3.816   2.979   5.620  0.8281 -0.1533  0.3269
 3436SOL    HW121770   3.764   3.053   5.651 -1.1344 -0.3969 -2.3693
 3436SOL    HW221771   3.776   2.921   5.684 -1.6572 -0.5095 -1.5268
 3437SOL     OW21772   0.944   3.761   9.952 -0.5600 -0.3104 -0.3182
 3437SOL    HW121773   0.924   3.670   9.976 -1.5104  0.3092  1.2002
 3437SOL    HW221774   0.897   3.781   9.872 -1.3517 -1.3759 -0.1176
 3438SOL     OW21775   1.413   2.021  13.710 -0.1829  0.2534  0.2004
 3438SOL    HW121776   1.451   1.941  13.674 -1.5533 -0.0381 -0.5658
 3438SOL    HW221777   1.470   2.085  13.668 -1.2482  1.6456  0.8906
 3439SOL     OW21778   2.242   1.856  17.002  0.4840 -0.4785  0.1504
 3439SOL    HW121779   2.304   1.866  16.929 -0.4660  2.8996 -0.2004
 3439SOL    HW221780   2.235   1.941  17.045  0.1017  0.3907 -1.6360
 3440SOL     OW21781   0.336   0.559   7.037  0.1604  0.1882  0.5036
 3440SOL    HW121782   0.320   0.622   7.108  2.8079 -0.1537  1.4206
 3440SOL    HW221783   0.267   0.496   7.057  0.2269  0.5425  1.8878
 3441SOL     OW21784   3.118   1.252  14.951 -0.3407 -0.0213 -0.1337
 3441SOL    HW121785   3.201   1.223  14.913 -0.7652 -0.9855 -0.3086
 3441SOL    HW221786   3.115   1.206  15.034 -3.1327 -0.3521 -0.4293
 3442SOL     OW21787   3.451   2.698   8.479 -0.0757  0.0381  0.4281
 3442SOL    HW121788   3.458   2.617   8.530  1.5091 -0.4857 -0.5976
 3442SOL    HW221789   3.361   2.685   8.448  0.7174 -0.4623 -1.6934
 3443SOL     OW21790   3.031   1.195   6.255 -0.3900 -0.2159  0.7163
 3443SOL    HW121791   3.110   1.223   6.209 -0.7013  1.1098  0.9922
 3443SOL    HW221792   3.067   1.168   6.340  0.0880 -0.2474  0.5046
 3444SOL     OW21793   4.047   2.091   4.308  0.5028 -0.3254 -0.1423
 3444SOL    HW121794   3.969   2.042   4.334 -1.3784  2.2074 -1.0344
 3444SOL    HW221795   4.074   2.113   4.397  0.4384  2.4797 -0.8320
 3445SOL     OW21796   3.401   3.973   3.348 -0.8005  0.5013  0.6847
 3445SOL    HW121797   3.350   3.924   3.282  0.8468  0.9990 -0.9348
 3445SOL    HW221798   3.348   4.044   3.384 -2.6082 -0.0581 -0.8570
 3446SOL     OW21799   3.392   3.446  14.427  0.1170 -0.2798 -0.6126
 3446SOL    HW121800   3.424   3.536  14.427 -1.4193  0.2631 -3.2393
 3446SOL    HW221801   3.358   3.431  14.339 -1.7061 -0.4000  0.1068
 3447SOL     OW21802   2.016   3.101  12.023 -0.4184  0.4860  0.2719
 3447SOL    HW121803   1.948   3.154  12.066 -2.6788 -2.0531 -0.1468
 3447SOL    HW221804   2.009   3.024  12.080  1.4464  1.2503  1.5490
 3448SOL     OW21805   0.083   0.210   7.309 -0.0580 -0.3877  0.1062
 3448SOL    HW121806   4.714   0.206   7.286  0.2730  2.3568 -1.7360
 3448SOL    HW221807   0.101   0.117   7.324 -3.1136 -0.9370  0.4489
 3449SOL     OW21808   1.382   0.258   5.090  0.0702 -0.2990 -0.2116
 3449SOL    HW121809   1.441   0.184   5.081 -0.1618 -0.5824  0.5981
 3449SOL    HW221810   1.328   0.241   5.167  0.9500  1.1918  0.7473
 3450SOL     OW21811   2.054   3.698  16.692  0.2070 -0.1872 -0.3811
 3450SOL    HW121812   2.003   3.680  16.771  1.2182 -0.2275  0.2599
 3450SOL    HW221813   1.999   3.651  16.629 -1.1499 -0.1712  0.7856
 3451SOL     OW21814   2.072   3.417   6.155 -0.4149 -0.0202  0.3479
 3451SOL    HW121815   2.009   3.420   6.227 -0.0569  0.0129  0.6658
 3451SOL    HW221816   2.012   3.438   6.084  1.4247 -3.1091 -2.1215
 3452SOL     OW21817   0.308   0.440  16.874  0.3315  0.0905  0.0066
 3452SOL    HW121818   0.246   0.511  16.862 -1.1378 -1.2541 -0.3657
 3452SOL    HW221819   0.351   0.436  16.788  1.6274  0.1930  0.6432
 3453SOL     OW21820   0.786   2.190   7.236 -0.8695  0.7192  0.0927
 3453SOL    HW121821   0.794   2.270   7.288  2.6044 -0.4018  1.3190
 3453SOL    HW221822   0.799   2.128   7.308 -2.8616  1.0830  0.7407
 3454SOL     OW21823   3.036   0.283   4.788  0.1420  0.4043  0.9379
 3454SOL    HW121824   2.983   0.260   4.712 -0.8145 -0.9181  2.0060
 3454SOL    HW221825   2.989   0.229   4.852  0.6529 -0.9263  0.2061
 3455SOL     OW21826   2.344   1.519   5.473 -0.7468 -0.5237  0.3404
 3455SOL    HW121827   2.334   1.565   5.390  1.1646  0.1246  0.4731
 3455SOL    HW221828   2.352   1.591   5.536 -0.9551 -1.5524  1.5405
 3456SOL     OW21829   4.181   2.954   8.766 -0.1113 -0.4221  0.0243
 3456SOL    HW121830   4.271   2.973   8.739 -0.3194 -2.4589 -2.0765
 3456SOL    HW221831   4.185   2.969   8.860 -0.2359 -2.1492  0.3011
 3457SOL     OW21832   3.506   4.123   5.390  0.2094  0.3240 -0.0330
 3457SOL    HW121833   3.578   4.174   5.352 -1.1186  1.1279 -1.4627
 3457SOL    HW221834   3.463   4.193   5.439  0.9425 -0.9926  2.4839
 3458SOL     OW21835   3.913   4.056   3.103  0.5109 -0.3943 -0.1422
 3458SOL    HW121836   3.851   4.047   3.031 -2.3725 -3.2214  2.6353
 3458SOL    HW221837   3.896   4.140   3.146 -3.1969 -0.3887 -1.6264
 3459SOL     OW21838   1.122   3.749   7.204 -0.0303  0.0434 -0.1035
 3459SOL    HW121839   1.090   3.685   7.140 -1.0490  1.2520 -0.8081
 3459SOL    HW221840   1.148   3.700   7.282 -2.3111 -0.0124  0.6377
 3460SOL     OW21841   3.548   1.602   7.229 -0.0656  0.4096 -0.6873
 3460SOL    HW121842   3.494   1.651   7.166 -1.4433  1.3575  1.2293
 3460SOL    HW221843   3.622   1.661   7.246  0.4179 -1.2071  2.6367
 3461SOL     OW21844   0.313   3.277   5.249  0.3853 -0.1886  0.2337
 3461SOL    HW121845   0.339   3.270   5.341  0.6600 -1.8434  0.0271
 3461SOL    HW221846   0.397   3.307   5.216  1.0909 -1.2455  1.0684
 3462SOL     OW21847   4.055   0.902   1.520 -0.1231 -0.1922 -0.4173
 3462SOL    HW121848   4.119   0.866   1.581  2.8565  2.3237 -2.0528
 3462SOL    HW221849   4.100   0.967   1.465  0.5218 -1.0368 -0.8831
 3463SOL     OW21850   4.516   1.717   1.611  0.3023  0.0574  0.0987
 3463SOL    HW121851   4.437   1.716   1.664 -0.7188 -0.9439 -1.4321
 3463SOL    HW221852   4.548   1.628   1.626  0.3752  0.1182  0.2994
 3464SOL     OW21853   1.686   1.764   3.695 -0.6208 -0.4329  0.1436
 3464SOL    HW121854   1.778   1.755   3.673 -0.4654  0.8989  0.2673
 3464SOL    HW221855   1.702   1.800   3.782  0.8317  1.8324 -1.0824
 3465SOL     OW21856   4.371   0.006   2.534  0.2510  0.4905 -0.0655
 3465SOL    HW121857   4.438   0.075   2.525 -0.2640  1.0271  0.1969
 3465SOL    HW221858   4.318   0.025   2.457 -0.9768  0.3555  0.7434
 3466SOL     OW21859   1.914   0.654   7.367  0.2186 -0.1516  0.1870
 3466SOL    HW121860   1.960   0.728   7.407 -1.5222  0.1398  1.6120
 3466SOL    HW221861   1.843   0.707   7.331 -0.2386 -0.7909  0.1524
 3467SOL     OW21862   1.907   0.972   5.232  0.2686  0.2977 -0.0135
 3467SOL    HW121863   1.820   0.963   5.192  0.6788 -3.4842 -0.1191
 3467SOL    HW221864   1.912   0.889   5.280 -3.5432  0.7431  1.1316
 3468SOL     OW21865   2.352   1.287   7.791  0.3187  0.1024 -0.1322
 3468SOL    HW121866   2.413   1.326   7.854 -0.6945 -1.8777  2.0627
 3468SOL    HW221867   2.281   1.260   7.848  1.1290  1.1628  1.3722
 3469SOL     OW21868   2.971   4.567   8.853  0.1413 -0.4108  0.4852
 3469SOL    HW121869   2.973   4.662   8.865  0.7338 -0.5505  1.4397
 3469SOL    HW221870   3.018   4.555   8.770 -0.4857  1.3409 -0.1170
 3470SOL     OW21871   2.211   2.008  10.355 -0.1810  0.0942 -0.5294
 3470SOL    HW121872   2.179   1.939  10.412  0.0310 -0.3313 -0.9219
 3470SOL    HW221873   2.284   1.967  10.308  0.1612  1.2624 -1.0246
 3471SOL     OW21874   0.621   4.624   2.828 -0.4756  0.0595 -0.0444
 3471SOL    HW121875   0.632   4.649   2.919 -0.0293 -0.2076 -0.0269
 3471SOL    HW221876   0.648   4.702   2.779 -4.0604  0.8186 -0.8475
 3472SOL     OW21877   3.147   1.118   8.942 -0.3566  0.0355 -0.2797
 3472SOL    HW121878   3.219   1.129   8.880 -0.5491  2.1030 -0.1212
 3472SOL    HW221879   3.172   1.038   8.988  2.7328  1.2733  0.1859
 3473SOL     OW21880   3.515   1.355  12.009  0.4763 -0.5973 -0.0345
 3473SOL    HW121881   3.476   1.372  12.094  0.4944 -1.3010  0.1143
 3473SOL    HW221882   3.441   1.379  11.953 -0.4862  1.0271  1.9365
 3474SOL     OW21883   1.253   2.382  14.465 -0.1426  0.6528 -0.5885
 3474SOL    HW121884   1.219   2.433  14.391 -0.8405 -0.5453 -1.1095
 3474SOL    HW221885   1.196   2.406  14.538 -0.0273 -0.1921 -0.2253
 3475SOL     OW21886   0.856   0.907   8.901  0.3950  0.1006 -0.3814
 3475SOL    HW121887   0.886   0.816   8.901  1.2832  0.3938  0.6171
 3475SOL    HW221888   0.784   0.906   8.965  0.1608  0.4034 -0.6455
 3476SOL     OW21889   2.378   3.833   7.763  0.1628 -0.2573 -0.1752
 3476SOL    HW121890   2.304   3.869   7.715 -0.4967 -1.4679 -0.0557
 3476SOL    HW221891   2.438   3.831   7.688  0.6704 -1.3446  0.2512
 3477SOL     OW21892   0.594   0.348   6.401  0.1382 -0.1156 -0.3895
 3477SOL    HW121893   0.556   0.382   6.321 -0.2056  2.6686  0.9812
 3477SOL    HW221894   0.570   0.419   6.460  0.7831 -0.9618  0.9106
 3478SOL     OW21895   4.543   0.056   8.020  0.3018  0.4040 -1.0507
 3478SOL    HW121896   4.566   0.106   8.098  2.7857  1.6427 -2.5842
 3478SOL    HW221897   4.468   0.007   8.055 -0.2166 -0.2832 -3.1262
 3479SOL     OW21898   0.918   0.711   4.475 -0.3067  0.1956  0.1576
 3479SOL    HW121899   0.922   0.637   4.415 -2.0300 -0.1523  0.4633
 3479SOL    HW221900   0.857   0.680   4.542  0.3919  0.9245  1.1364
 3480SOL     OW21901   3.794   0.533  17.449 -0.5457  0.3632  0.1373
 3480SOL    HW121902   3.823   0.547  17.359  0.4097  0.5232  0.4634
 3480SOL    HW221903   3.708   0.576  17.448  0.1532  1.7381 -0.6710
 3481SOL     OW21904   0.395   0.042  12.383 -0.1192  0.1870 -0.0769
 3481SOL    HW121905   0.319   0.040  12.441  0.4862 -0.8360  0.6827
 3481SOL    HW221906   0.418   4.673  12.375  0.5508  0.4576 -1.2958
 3482SOL     OW21907   1.715   2.428  16.681 -0.1748  0.2152  0.3092
 3482SOL    HW121908   1.722   2.339  16.716  0.4828  0.3275  0.4636
 3482SOL    HW221909   1.623   2.439  16.655  0.0436 -0.2284 -0.6325
 3483SOL     OW21910   1.703   0.861  16.466 -0.1695  0.5530  0.2311
 3483SOL    HW121911   1.728   0.801  16.536 -1.7784 -1.9509 -1.3562
 3483SOL    HW221912   1.690   0.797  16.396  2.3946 -1.2562  1.4039
 3484SOL     OW21913   0.422   1.445  11.668  0.1925  0.1910  0.3378
 3484SOL    HW121914   0.429   1.540  11.677  1.0995 -0.0748  2.3445
 3484SOL    HW221915   0.336   1.422  11.633  1.0627  0.1422 -1.8163
 3485SOL     OW21916   0.736   3.700   4.797 -0.6476  0.1216  0.8573
 3485SOL    HW121917   0.822   3.689   4.756 -0.3425 -1.6741  1.9849
 3485SOL    HW221918   0.691   3.750   4.729 -1.3574 -1.2658  0.3196
 3486SOL     OW21919   1.694   3.625   7.799 -0.2736  0.1381  0.3834
 3486SOL    HW121920   1.730   3.599   7.884 -1.5614  0.2846  0.9790
 3486SOL    HW221921   1.653   3.709   7.820 -2.4001 -0.2344 -2.1956
 3487SOL     OW21922   2.928   1.546   8.874  0.3022 -0.1114 -0.3933
 3487SOL    HW121923   2.972   1.493   8.940 -0.8607 -0.6589 -0.0674
 3487SOL    HW221924   2.857   1.488   8.849  0.5355 -0.9733  0.9335
 3488SOL     OW21925   2.125   3.357   1.357  0.3481 -0.5666 -0.6128
 3488SOL    HW121926   2.086   3.439   1.385 -1.8610 -1.8859  0.2091
 3488SOL    HW221927   2.213   3.391   1.344  0.3323 -0.0026  0.8043
 3489SOL     OW21928   1.936   1.149   8.113  0.5370  0.1772 -0.5345
 3489SOL    HW121929   1.885   1.214   8.162  2.5692  1.1857  0.2453
 3489SOL    HW221930   1.967   1.088   8.180 -1.1018  0.8265  0.7958
 3490SOL     OW21931   0.660   1.590   9.445 -0.5135  0.6495 -0.0581
 3490SOL    HW121932   0.714   1.662   9.477 -0.2953 -0.1250  1.3589
 3490SOL    HW221933   0.715   1.523   9.486 -0.4957  0.3988 -0.4991
 3491SOL     OW21934   3.902   2.077   6.482  0.3329  0.1197 -0.1870
 3491SOL    HW121935   3.967   2.143   6.505  2.0716 -1.5917 -0.2112
 3491SOL    HW221936   3.822   2.130   6.485 -0.6011 -1.4990  2.9021
 3492SOL     OW21937   3.055   1.885   2.847 -0.7555  0.8191  0.0181
 3492SOL    HW121938   3.007   1.926   2.919 -0.4905 -0.9826  1.2143
 3492SOL    HW221939   3.084   1.963   2.799  3.4236 -1.9114 -1.9318
 3493SOL     OW21940   1.391   0.628   9.488  0.2018  0.5450 -0.4086
 3493SOL    HW121941   1.486   0.640   9.478  0.6341  0.2489  3.1039
 3493SOL    HW221942   1.386   0.533   9.489  2.7597  0.3971 -1.0588
 3494SOL     OW21943   3.235   0.889   7.934 -0.1321  0.5703 -0.2751
 3494SOL    HW121944   3.271   0.977   7.945 -1.9324  1.6308 -3.0026
 3494SOL    HW221945   3.168   0.915   7.872 -0.1621  0.2090 -0.3926
 3495SOL     OW21946   1.500   2.713  11.440 -0.7459 -0.0906  0.4380
 3495SOL    HW121947   1.463   2.724  11.353 -0.5979  0.9956  0.5102
 3495SOL    HW221948   1.508   2.803  11.473 -0.1822 -0.4327  1.2336
 3496SOL     OW21949   4.024   1.200   0.263 -0.1493 -0.1549  0.5255
 3496SOL    HW121950   3.947   1.245   0.296  0.2767  0.3374  0.8617
 3496SOL    HW221951   3.985   1.146   0.195 -0.6554 -0.0067  0.6987
 3497SOL     OW21952   0.023   4.593   7.834  0.2269  0.3732  0.6175
 3497SOL    HW121953   0.031   4.498   7.839 -0.0103  0.3278  0.1012
 3497SOL    HW221954   4.721   4.613   7.924  0.2173 -0.5038  0.8079
 3498SOL     OW21955   0.345   2.424  11.564  0.2090  0.1546 -1.0293
 3498SOL    HW121956   0.258   2.432  11.604 -0.2196  0.1124 -1.9623
 3498SOL    HW221957   0.330   2.350  11.504  0.7742  0.0669 -1.0654
 3499SOL     OW21958   4.639   3.739   3.853  0.5825 -0.1190  0.2197
 3499SOL    HW121959   0.003   3.749   3.818  0.5635  1.1749  0.5377
 3499SOL    HW221960   4.666   3.752   3.944  1.2657 -1.4468  0.1996
 3500SOL     OW21961   1.371   3.229   4.848  0.0405  0.1009 -0.0177
 3500SOL    HW121962   1.284   3.248   4.810 -0.1867  2.0136  1.4557
 3500SOL    HW221963   1.346   3.141   4.875 -1.2014  0.1495 -0.9552
 3501SOL     OW21964   1.245   4.468  15.323 -0.1110 -0.1692 -0.0429
 3501SOL    HW121965   1.167   4.480  15.377  0.5518  1.0390  0.6405
 3501SOL    HW221966   1.213   4.502  15.239 -0.1487 -1.0635 -0.3947
 3502SOL     OW21967   1.304   2.726  13.591 -0.1684  0.0670  0.2741
 3502SOL    HW121968   1.210   2.710  13.596 -0.0704  0.1913  2.3577
 3502SOL    HW221969   1.330   2.708  13.681 -2.1346 -0.6392  0.6960
 3503SOL     OW21970   4.679   2.716   5.702 -0.0704  0.1544 -0.3386
 3503SOL    HW121971   4.602   2.729   5.757 -0.1754 -3.3690  0.3244
 3503SOL    HW221972   4.649   2.731   5.613 -1.3498  0.7322  0.1968
 3504SOL     OW21973   2.279   4.382   2.407  0.2427  0.3881 -0.3352
 3504SOL    HW121974   2.323   4.342   2.332 -0.7376 -0.8186 -0.2584
 3504SOL    HW221975   2.339   4.455   2.420  1.2187 -0.2854 -1.0257
 3505SOL     OW21976   0.377   1.068  15.340 -0.2506  0.1495  0.3023
 3505SOL    HW121977   0.449   1.006  15.346  1.1571  1.3454 -3.9920
 3505SOL    HW221978   0.362   1.074  15.246 -3.1656 -1.5852  0.6617
 3506SOL     OW21979   4.644   2.788   4.148 -0.6724  0.2279 -0.2349
 3506SOL    HW121980   4.624   2.820   4.237 -0.2249 -0.1281 -0.0084
 3506SOL    HW221981   4.553   2.782   4.119 -0.3527 -3.0913 -0.5397
 3507SOL     OW21982   4.339   0.903  12.314 -0.4244  0.2362 -0.0395
 3507SOL    HW121983   4.316   0.812  12.331 -0.7033  0.8682  2.9635
 3507SOL    HW221984   4.386   0.930  12.392 -0.0827  0.8866 -0.4709
 3508SOL     OW21985   4.423   3.961   0.899 -0.5553 -0.2599  0.0946
 3508SOL    HW121986   4.340   4.001   0.926 -1.6977 -2.1253 -0.6320
 3508SOL    HW221987   4.410   3.964   0.804  2.3605 -0.2062 -0.2821
 3509SOL     OW21988   1.961   4.204   5.503  0.1928  0.1029 -0.0807
 3509SOL    HW121989   1.866   4.200   5.497  0.4385 -3.0146 -1.6823
 3509SOL    HW221990   1.967   4.131   5.441 -1.5254  0.6934 -0.9389
 3510SOL     OW21991   4.478   2.575   1.656  0.1673 -0.2618  0.6047
 3510SOL    HW121992   4.571   2.559   1.668  0.9625  2.7526 -1.2259
 3510SOL    HW221993   4.475   2.666   1.625 -0.5311 -0.3626  0.3546
 3511SOL     OW21994   0.384   1.990  10.483 -0.0866  0.5116 -0.4407
 3511SOL    HW121995   0.319   1.922  10.501 -1.0570  1.4462 -0.3957
 3511SOL    HW221996   0.369   2.054  10.553  0.3883 -0.2511  0.3552
 3512SOL     OW21997   0.622   3.904   8.109 -0.1304 -0.4526  0.2667
 3512SOL    HW121998   0.684   3.833   8.124 -0.9069 -1.1928 -0.0574
 3512SOL    HW221999   0.564   3.857   8.049  0.4166  0.9125 -1.3624
 3513SOL     OW22000   2.095   0.152   6.912  0.1156  0.1678  0.0625
 3513SOL    HW122001   2.035   0.169   6.985  1.5202  1.2671  0.9288
 3513SOL    HW222002   2.137   0.070   6.937 -1.2530 -0.1319  1.3626
 3514SOL     OW22003   1.820   3.494   3.561 -0.1670 -0.6523 -0.4169
 3514SOL    HW122004   1.906   3.481   3.521 -0.1870  1.1582 -1.0384
 3514SOL    HW222005   1.790   3.404   3.550  1.1766 -1.3845  1.8313
 3515SOL     OW22006   0.064   0.633   6.898  0.2704  0.5519  0.1469
 3515SOL    HW122007   0.123   0.697   6.935  0.6799 -0.8863  1.9494
 3515SOL    HW222008   0.064   0.566   6.966  1.6208 -0.8013 -1.1848
 3516SOL     OW22009   2.775   2.800   9.781 -0.3986  0.3576  0.0297
 3516SOL    HW122010   2.770   2.895   9.776 -0.8077  0.3321 -0.0358
 3516SOL    HW222011   2.837   2.790   9.710  0.9276 -0.4137  1.3027
 3517SOL     OW22012   1.166   1.777   7.827  0.2148 -0.2165 -0.1006
 3517SOL    HW122013   1.144   1.870   7.826 -1.2673 -0.5842 -1.3428
 3517SOL    HW222014   1.260   1.791   7.820  0.0303 -0.6977 -3.7196
 3518SOL     OW22015   3.076   3.208   5.946 -0.0522 -0.5323 -0.2966
 3518SOL    HW122016   3.051   3.257   5.868  0.8441 -2.7809 -2.0244
 3518SOL    HW222017   3.162   3.174   5.921  0.0083 -0.4280 -0.2277
 3519SOL     OW22018   4.129   2.376  17.552  0.2582 -0.2035  0.6536
 3519SOL    HW122019   4.098   2.310  17.489 -0.4185  1.2076 -0.4771
 3519SOL    HW222020   4.161   2.437  17.487 -0.1115 -0.2888  0.3880
 3520SOL     OW22021   4.338   3.111   2.959  0.0538 -0.1344  0.1465
 3520SOL    HW122022   4.410   3.155   3.004 -0.1866 -1.2544  1.6202
 3520SOL    HW222023   4.261   3.164   2.982  0.9263  0.9188  0.6361
 3521SOL     OW22024   3.740   3.155   5.160 -0.2877  0.1858 -0.5475
 3521SOL    HW122025   3.688   3.221   5.114 -1.0206  0.3247  0.4782
 3521SOL    HW222026   3.681   3.104   5.215  0.5315 -0.8241 -0.6188
 3522SOL     OW22027   1.339   0.863   1.523 -0.0302 -0.2541 -0.1316
 3522SOL    HW122028   1.345   0.773   1.491 -0.5877  0.1313 -1.3360
 3522SOL    HW222029   1.382   0.863   1.608  0.1905  1.1364 -0.2577
 3523SOL     OW22030   1.340   4.343  14.114  0.1725  0.7024 -0.0664
 3523SOL    HW122031   1.337   4.413  14.050  0.1665  1.2680  0.5548
 3523SOL    HW222032   1.247   4.319  14.119  0.7490 -0.9932  2.6759
 3524SOL     OW22033   1.665   0.033   7.456 -0.3712  0.4030  0.3005
 3524SOL    HW122034   1.682   0.094   7.527  1.5287  0.1358  0.0773
 3524SOL    HW222035   1.608   0.091   7.405 -1.6078 -0.3904  0.7788
 3525SOL     OW22036   2.022   1.955   2.543  0.4908 -0.5400 -0.2247
 3525SOL    HW122037   2.043   1.985   2.454 -0.3591 -1.6738 -0.8200
 3525SOL    HW222038   1.939   2.002   2.545  0.4997 -0.4086 -2.3555
 3526SOL     OW22039   2.489   0.329  12.052 -0.3818  0.2090 -0.6742
 3526SOL    HW122040   2.466   0.288  11.969 -2.4056  1.0274 -0.5180
 3526SOL    HW222041   2.420   0.279  12.095 -0.2749  1.4156  0.8959
 3527SOL     OW22042   2.839   3.399  13.616  0.4522 -0.0522 -0.7345
 3527SOL    HW122043   2.855   3.305  13.606  0.8363 -0.3450  2.6733
 3527SOL    HW222044   2.812   3.398  13.708  1.1330 -1.4177 -0.5513
 3528SOL     OW22045   4.327   1.724  15.033 -0.7808  0.6540  0.0851
 3528SOL    HW122046   4.294   1.721  14.943  0.4867 -0.5620 -0.3370
 3528SOL    HW222047   4.294   1.638  15.058  0.0433  0.5244  0.7169
 3529SOL     OW22048   1.081   0.118  13.981 -0.1810  0.0861  0.3942
 3529SOL    HW122049   1.150   0.175  14.015  0.7843 -1.3184  0.7893
 3529SOL    HW222050   1.116   0.033  14.011  0.9243  0.3375 -0.1855
 3530SOL     OW22051   0.731   2.723   6.778 -0.0838  0.2029 -0.1250
 3530SOL    HW122052   0.826   2.738   6.776 -0.2900  1.7783  1.2587
 3530SOL    HW222053   0.714   2.651   6.718  0.1947 -0.4927  0.6238
 3531SOL     OW22054   1.605   1.482   5.340  0.3874  0.0852  0.1589
 3531SOL    HW122055   1.692   1.443   5.340 -0.7192 -2.3771  1.4189
 3531SOL    HW222056   1.635   1.571   5.359  1.4596 -0.4315  0.8555
 3532SOL     OW22057   4.684   1.995   6.287 -0.0841 -0.0526  0.3238
 3532SOL    HW122058   4.680   1.900   6.286 -1.3579  0.0244 -1.3698
 3532SOL    HW222059   4.623   2.010   6.215  0.8276  1.2643 -0.1979
 3533SOL     OW22060   0.741   0.307  15.862  0.0244 -0.3209 -0.0030
 3533SOL    HW122061   0.679   0.240  15.832  2.1824 -2.8732  1.2478
 3533SOL    HW222062   0.779   0.347  15.784  2.8484  2.2397  2.6934
 3534SOL     OW22063   2.974   0.063   3.263 -0.0400 -0.6276 -0.0637
 3534SOL    HW122064   2.991   4.700   3.227  4.2058  1.1510 -2.2154
 3534SOL    HW222065   2.961   0.117   3.185  2.8926 -2.2528 -1.6565
 3535SOL     OW22066   1.214   3.069   3.161 -0.2727 -0.5310 -0.5992
 3535SOL    HW122067   1.124   3.088   3.188 -0.8896 -2.2194 -1.4976
 3535SOL    HW222068   1.224   3.115   3.078  1.2385  3.3172  1.6737
 3536SOL     OW22069   4.716   0.840   1.939  0.2447 -0.0150 -0.1466
 3536SOL    HW122070   0.085   0.860   1.924 -0.2470  1.3961 -1.2785
 3536SOL    HW222071   4.706   0.893   2.018  0.5389  0.7357 -0.6154
 3537SOL     OW22072   3.473   1.610  10.389  0.4360 -0.4987 -0.1766
 3537SOL    HW122073   3.473   1.514  10.390  2.0237 -0.4923  0.5564
 3537SOL    HW222074   3.427   1.622  10.472  0.9685 -3.5628  0.5844
 3538SOL     OW22075   1.996   4.010   5.330  0.2449 -0.2184 -0.2825
 3538SOL    HW122076   2.059   3.954   5.285  1.2692  0.6105  0.1062
 3538SOL    HW222077   1.919   4.009   5.274  0.4968  3.0153 -0.6842
 3539SOL     OW22078   3.927   2.413   6.066 -0.3153 -0.0802 -0.1186
 3539SOL    HW122079   3.958   2.414   5.975 -0.1382  0.2683 -0.0540
 3539SOL    HW222080   3.833   2.401   6.050 -0.2469 -1.4517  0.5487
 3540SOL     OW22081   2.028   0.076   4.573 -0.0768 -0.2390  0.1621
 3540SOL    HW122082   2.114   0.113   4.550 -0.3825  1.7236  2.1852
 3540SOL    HW222083   2.010   0.030   4.491  0.7083 -0.0674 -0.1109
 3541SOL     OW22084   1.514   2.208  13.534  0.3794 -0.1342  0.9987
 3541SOL    HW122085   1.607   2.226  13.519 -0.0909  0.5624 -1.0890
 3541SOL    HW222086   1.471   2.291  13.513  1.6126  0.2718  0.0540
 3542SOL     OW22087   0.682   0.451  13.770 -0.2216 -0.0969  0.5519
 3542SOL    HW122088   0.594   0.489  13.774 -0.5764 -1.1522  2.8518
 3542SOL    HW222089   0.671   0.366  13.812 -0.4113  0.0598  0.8173
 3543SOL     OW22090   4.328   4.460  12.009  0.1781 -0.1932  0.5366
 3543SOL    HW122091   4.254   4.476  12.067 -0.9414  0.5939 -1.1030
 3543SOL    HW222092   4.329   4.365  12.017  3.1173 -0.0914  1.4258
 3544SOL     OW22093   2.471   3.029   2.922  0.1640  0.3652 -0.0765
 3544SOL    HW122094   2.563   3.049   2.906 -0.2322  1.3804 -1.1240
 3544SOL    HW222095   2.458   2.940   2.889  0.8568 -1.1110  3.6828
 3545SOL     OW22096   0.861   3.762   7.400  0.2516  0.1400 -0.8648
 3545SOL    HW122097   0.910   3.803   7.329 -2.4539  2.8329 -1.1813
 3545SOL    HW222098   0.904   3.805   7.474 -0.7402 -3.0197  1.5442
 3546SOL     OW22099   2.651   3.987  16.781 -0.6918 -0.4137  0.7493
 3546SOL    HW122100   2.712   4.003  16.709  0.2342 -0.5908  1.5001
 3546SOL    HW222101   2.601   4.068  16.781 -0.0975 -0.0477 -2.8127
 3547SOL     OW22102   1.449   1.013   2.955 -0.0693  0.2446 -0.5611
 3547SOL    HW122103   1.376   0.961   2.988 -0.6491 -0.0709 -2.3162
 3547SOL    HW222104   1.413   1.101   2.965 -0.2004  0.5106 -3.4285
 3548SOL     OW22105   2.132   3.088   6.673 -0.0368  0.0099  0.1996
 3548SOL    HW122106   2.099   3.076   6.762 -0.1723  0.5154  0.2176
 3548SOL    HW222107   2.129   3.182   6.656 -1.2442  0.1684  1.3024
 3549SOL     OW22108   0.656   0.486  17.311 -0.4982  0.3808 -0.6674
 3549SOL    HW122109   0.730   0.542  17.289  1.8803 -2.0434  0.9985
 3549SOL    HW222110   0.615   0.483  17.225  1.6769  2.4259 -1.7357
 3550SOL     OW22111   0.056   2.065   9.268  0.0716  0.2296 -0.3572
 3550SOL    HW122112   0.146   2.044   9.243  1.0459  2.7826  0.9027
 3550SOL    HW222113   0.000   2.021   9.204  1.6440 -0.2420 -1.3953
 3551SOL     OW22114   4.349   1.995   1.977  0.1372  0.5151 -0.3532
 3551SOL    HW122115   4.403   1.987   1.899  1.5964  0.3911  0.6620
 3551SOL    HW222116   4.270   2.036   1.942  0.2272  1.2005  0.2493
 3552SOL     OW22117   2.927   1.459   7.482  0.3750  0.1279 -0.9464
 3552SOL    HW122118   2.929   1.404   7.560  0.8227 -0.2248 -1.2072
 3552SOL    HW222119   2.841   1.437   7.446 -0.0527  0.3935 -0.0857
 3553SOL     OW22120   3.529   2.348   8.126  0.3519 -0.2914 -0.4890
 3553SOL    HW122121   3.473   2.296   8.183  0.4008  1.0295  0.7431
 3553SOL    HW222122   3.481   2.431   8.119  3.4534  1.5176 -0.4003
 3554SOL     OW22123   2.839   1.456   0.982 -0.6036  0.0843  0.5073
 3554SOL    HW122124   2.925   1.415   0.973 -1.0080 -1.2214  2.8020
 3554SOL    HW222125   2.799   1.390   1.037 -1.4019 -0.3035 -0.5348
 3555SOL     OW22126   4.343   2.359   2.551 -0.1169  0.5263 -0.0700
 3555SOL    HW122127   4.321   2.266   2.556 -1.6956  0.9307  0.5005
 3555SOL    HW222128   4.429   2.370   2.509 -0.0630  4.6144  1.0661
 3556SOL     OW22129   3.286   0.689   7.443 -0.0710 -0.2416 -0.2953
 3556SOL    HW122130   3.346   0.697   7.518  0.9552  2.4000 -1.4172
 3556SOL    HW222131   3.262   0.596   7.450  0.8177 -0.5806 -1.8227
 3557SOL     OW22132   1.446   1.284   5.429 -0.0786 -0.6139 -0.1650
 3557SOL    HW122133   1.402   1.364   5.459 -0.7664 -1.1107  0.1735
 3557SOL    HW222134   1.509   1.328   5.373 -0.0604 -3.7670 -2.5781
 3558SOL     OW22135   1.576   3.930  13.608  0.3799 -0.0930 -0.7239
 3558SOL    HW122136   1.642   3.908  13.542  0.5610 -0.5719 -0.3773
 3558SOL    HW222137   1.557   3.839  13.632  1.7544 -0.5066 -1.1842
 3559SOL     OW22138   2.962   1.010   5.402 -0.2681  0.4518  0.3392
 3559SOL    HW122139   2.867   1.011   5.404 -0.2662  1.3692 -0.3768
 3559SOL    HW222140   2.981   1.067   5.477  1.9470  0.2104 -0.0375
 3560SOL     OW22141   1.735   3.176   6.435  0.0841 -0.3363  0.3099
 3560SOL    HW122142   1.729   3.183   6.531  2.6150  2.3077  0.2604
 3560SOL    HW222143   1.785   3.096   6.421  1.6723  0.2876  2.3165
 3561SOL     OW22144   3.524   0.748   0.816  0.4527  0.2212 -0.1975
 3561SOL    HW122145   3.579   0.825   0.834  3.4441 -1.4943 -1.9683
 3561SOL    HW222146   3.471   0.756   0.895 -0.0297 -1.6351 -0.3342
 3562SOL     OW22147   0.824   2.397  11.755  0.0242 -0.7354 -0.4824
 3562SOL    HW122148   0.729   2.390  11.745 -0.1859  1.3873  0.1236
 3562SOL    HW222149   0.825   2.426  11.846 -1.6239 -1.1776 -0.3201
 3563SOL     OW22150   2.594   3.693   5.820 -0.3626 -0.5472  0.3294
 3563SOL    HW122151   2.677   3.722   5.857 -0.2935 -0.9089  0.4490
 3563SOL    HW222152   2.632   3.658   5.739  0.4182  0.1315  0.3979
 3564SOL     OW22153   2.973   0.562   8.711  0.1286 -0.2049 -0.5049
 3564SOL    HW122154   3.069   0.560   8.706  0.2407  1.9610  0.8020
 3564SOL    HW222155   2.944   0.485   8.660  0.4432  0.3432 -1.5184
 3565SOL     OW22156   4.259   1.422   3.877  0.2143  0.1828  0.1717
 3565SOL    HW122157   4.167   1.402   3.861  0.1456  1.5634 -1.1104
 3565SOL    HW222158   4.242   1.515   3.893 -0.8018 -0.3698  2.2667
 3566SOL     OW22159   1.276   3.678  14.908  0.1102  0.1257  0.1392
 3566SOL    HW122160   1.370   3.689  14.923  0.6049 -0.7131 -2.2275
 3566SOL    HW222161   1.270   3.730  14.827 -1.3954 -2.8817 -1.6957
 3567SOL     OW22162   1.529   0.373  11.321  0.0640 -0.3188 -0.5303
 3567SOL    HW122163   1.608   0.424  11.305  0.1020 -1.0241 -2.5065
 3567SOL    HW222164   1.465   0.416  11.265 -1.6132  1.2051  2.5179
 3568SOL     OW22165   1.591   3.283   0.508  0.0610  0.5211 -0.4058
 3568SOL    HW122166   1.530   3.314   0.441  0.0383  1.7050  0.1601
 3568SOL    HW222167   1.531   3.251   0.576 -0.2615 -0.0055 -0.9283
 3569SOL     OW22168   3.610   4.540   4.432  0.1500  0.2275 -0.1560
 3569SOL    HW122169   3.586   4.632   4.425  2.0540  0.7055 -0.4929
 3569SOL    HW222170   3.521   4.508   4.416 -0.5187  1.1950  1.5997
 3570SOL     OW22171   4.226   1.777   8.123 -0.4443 -0.1660 -0.1783
 3570SOL    HW122172   4.287   1.775   8.049 -1.5651  0.6449 -1.1126
 3570SOL    HW222173   4.289   1.777   8.195 -1.4677  0.2386  0.7021
 3571SOL     OW22174   1.500   3.661   7.389 -0.0759  0.3750  0.2900
 3571SOL    HW122175   1.544   3.742   7.418  1.5587 -0.8751  1.2985
 3571SOL    HW222176   1.507   3.669   7.294 -0.1797 -1.5679  0.1291
 3572SOL     OW22177   2.429   3.823  16.774  0.0185  0.0555  0.3838
 3572SOL    HW122178   2.359   3.888  16.769  1.5042  1.6040 -0.0803
 3572SOL    HW222179   2.502   3.884  16.776 -0.1554  0.2634  0.3750
 3573SOL     OW22180   3.026   0.675   2.202  0.2850  0.0503 -0.0681
 3573SOL    HW122181   3.058   0.676   2.292  0.9620 -2.6426 -0.2744
 3573SOL    HW222182   3.079   0.749   2.174 -0.8281  1.1991  0.8210
 3574SOL     OW22183   1.628   0.517  10.708  0.7533 -0.4957 -0.2294
 3574SOL    HW122184   1.584   0.594  10.672  1.4051 -0.1905 -0.3847
 3574SOL    HW222185   1.722   0.538  10.704  0.5882  0.6586  1.8934
 3575SOL     OW22186   2.479   1.253   3.107 -0.2593  0.0117 -0.2127
 3575SOL    HW122187   2.455   1.232   3.016 -1.0099  0.3959 -0.1039
 3575SOL    HW222188   2.430   1.335   3.110 -0.4563 -0.0314 -2.2402
 3576SOL     OW22189   3.133   1.541  10.758  0.2688 -0.0608  0.1503
 3576SOL    HW122190   3.138   1.459  10.807  0.4009 -0.3790 -0.3977
 3576SOL    HW222191   3.052   1.582  10.785 -0.8188 -1.4020 -1.0982
 3577SOL     OW22192   4.088   2.393   4.311 -0.1715 -0.0485  0.4079
 3577SOL    HW122193   4.124   2.386   4.399  1.7375  1.2730 -0.2829
 3577SOL    HW222194   4.040   2.311   4.295 -0.0383 -0.1783  0.6757
 3578SOL     OW22195   2.298   0.617   7.347  0.3011  0.5525  0.9807
 3578SOL    HW122196   2.224   0.609   7.286  0.3210  1.1467  0.8830
 3578SOL    HW222197   2.373   0.588   7.295 -1.5472  0.0723 -1.4157
 3579SOL     OW22198   1.245   2.002   8.901  0.0212 -0.9178  0.1030
 3579SOL    HW122199   1.247   1.938   8.972 -1.4667 -2.2207 -1.0156
 3579SOL    HW222200   1.250   2.084   8.949 -0.1436 -1.0248  0.3008
 3580SOL     OW22201   4.120   3.383   2.061  0.2617  0.0357 -0.2124
 3580SOL    HW122202   4.204   3.393   2.105  1.3929 -1.0612 -2.1610
 3580SOL    HW222203   4.073   3.451   2.109  1.0725 -0.4990  1.3372
 3581SOL     OW22204   2.861   4.449  17.040  0.2221  0.5036 -0.0276
 3581SOL    HW122205   2.869   4.374  17.098  1.3621  1.2900  0.8373
 3581SOL    HW222206   2.860   4.519  17.105 -0.2202  0.1554  0.3361
 3582SOL     OW22207   3.380   1.686   7.050 -0.2013 -0.9242 -0.2393
 3582SOL    HW122208   3.321   1.761   7.042  2.7425  1.3506 -0.8422
 3582SOL    HW222209   3.316   1.615   7.059 -0.4398 -0.7932 -0.9168
 3583SOL     OW22210   4.291   0.716   0.755 -0.1131  0.0122  0.1788
 3583SOL    HW122211   4.247   0.757   0.681  1.4639  0.3674 -0.5618
 3583SOL    HW222212   4.225   0.646   0.755  1.5313 -1.5459  0.0088
 3584SOL     OW22213   2.455   2.353   8.323 -0.5807  0.4208 -0.0121
 3584SOL    HW122214   2.550   2.344   8.313 -0.4403  1.3130  0.5035
 3584SOL    HW222215   2.441   2.372   8.416  1.8001 -1.4971  0.7686
 3585SOL     OW22216   2.195   3.823   9.169 -0.1175  0.1191  0.3225
 3585SOL    HW122217   2.251   3.805   9.244 -1.4231 -0.1292  1.2241
 3585SOL    HW222218   2.213   3.744   9.117  1.7616  0.9322 -0.2792
 3586SOL     OW22219   3.648   0.821   7.514  0.1586  0.5207 -0.0624
 3586SOL    HW122220   3.594   0.857   7.584 -0.3499  2.5572 -1.5132
 3586SOL    HW222221   3.709   0.762   7.558 -0.1871 -0.7531 -1.3134
 3587SOL     OW22222   2.266   0.074  10.994 -0.0942 -0.3448  0.5647
 3587SOL    HW122223   2.351   0.047  11.029  1.0310  1.9031 -0.3990
 3587SOL    HW222224   2.300   0.109  10.911  1.8149 -0.5755  1.2386
 3588SOL     OW22225   4.135   1.755   7.191  0.0721  0.2518  0.0684
 3588SOL    HW122226   4.178   1.694   7.250 -1.3153 -2.4686 -1.7429
 3588SOL    HW222227   4.051   1.775   7.232 -0.6147 -2.5396 -0.0349
 3589SOL     OW22228   1.863   3.940   6.654  0.4192  0.0208  0.0823
 3589SOL    HW122229   1.855   3.854   6.695 -1.6133  0.2886  0.2415
 3589SOL    HW222230   1.889   3.995   6.728 -0.6883 -0.5673  0.9148
 3590SOL     OW22231   3.163   2.145   8.617 -0.1123 -0.2231 -0.7378
 3590SOL    HW122232   3.209   2.152   8.701 -0.9859 -0.4877 -0.2335
 3590SOL    HW222233   3.168   2.050   8.614  2.1355 -0.1502  0.4570
 3591SOL     OW22234   2.754   1.382   5.225  0.4694 -0.2214  0.1458
 3591SOL    HW122235   2.692   1.454   5.236  0.7747 -0.4849  3.3579
 3591SOL    HW222236   2.754   1.366   5.130  1.3311 -1.5438  0.3694
 3592SOL     OW22237   4.457   1.254  14.160  0.1529  0.1190 -0.2043
 3592SOL    HW122238   4.383   1.308  14.188 -0.9274 -2.1135  1.2708
 3592SOL    HW222239   4.418   1.166  14.154 -1.3125  0.6687  1.2941
 3593SOL     OW22240   4.595   4.516  11.404  0.2815 -0.0365 -0.1107
 3593SOL    HW122241   4.641   4.497  11.322  2.6321 -1.6799  1.5949
 3593SOL    HW222242   4.568   4.431  11.436  0.6105  0.3224  1.1037
 3594SOL     OW22243   3.791   0.613   2.424  0.0597 -0.0546 -0.1239
 3594SOL    HW122244   3.707   0.597   2.381 -0.7631 -0.7652  1.7554
 3594SOL    HW222245   3.771   0.607   2.517  0.9062  3.0849  0.2686
 3595SOL     OW22246   1.106   2.937   2.620  0.0647  0.1175 -0.1081
 3595SOL    HW122247   1.122   3.001   2.551  2.0978 -1.3773 -1.0170
 3595SOL    HW222248   1.016   2.912   2.599 -0.1681  1.1539 -0.3061
 3596SOL     OW22249   1.571   0.336   8.569  0.0311 -0.1249  0.1679
 3596SOL    HW122250   1.610   0.251   8.586  2.2663  0.5993 -1.4269
 3596SOL    HW222251   1.483   0.309   8.541 -0.1841 -0.0891  0.8105
 3597SOL     OW22252   1.508   3.484   7.587 -0.2450  0.1847 -0.0486
 3597SOL    HW122253   1.512   3.568   7.634 -1.7185 -0.1996  0.7544
 3597SOL    HW222254   1.496   3.520   7.500  1.0925 -0.7107 -0.5974
 3598SOL     OW22255   3.285   2.915   4.963  0.6881  0.4916 -0.7592
 3598SOL    HW122256   3.378   2.924   4.943  1.1703  0.9654  1.7811
 3598SOL    HW222257   3.278   2.855   5.037 -1.3592  2.2572  0.4661
 3599SOL     OW22258   2.352   4.648  12.658  0.2397  0.8006  0.6159
 3599SOL    HW122259   2.285   4.584  12.683 -1.2312  2.2849  0.4538
 3599SOL    HW222260   2.298   4.720  12.626 -1.5364  0.4872  2.9799
 3600SOL     OW22261   0.066   1.213   7.739 -0.2920  0.2899  0.4963
 3600SOL    HW122262   0.125   1.245   7.808  2.1098 -0.6317 -1.1224
 3600SOL    HW222263   4.724   1.167   7.790 -1.4591  1.7659  0.3039
 3601SOL     OW22264   1.863   1.046  13.094  0.1243 -0.3701  0.1553
 3601SOL    HW122265   1.843   0.959  13.061  1.4913 -0.7273  0.2588
 3601SOL    HW222266   1.917   1.091  13.030  0.9438  0.6538  1.5490
 3602SOL     OW22267   1.918   1.584   9.216  0.5236  0.1299  0.1161
 3602SOL    HW122268   1.902   1.492   9.198  2.4870 -0.4636  1.3768
 3602SOL    HW222269   1.855   1.629   9.159  1.3197 -0.7248 -1.4227
 3603SOL     OW22270   4.375   4.010   6.552 -0.6118  0.3632  0.0313
 3603SOL    HW122271   4.364   4.050   6.466  1.5931  0.0776 -0.4003
 3603SOL    HW222272   4.285   4.014   6.583 -0.2863  0.6362  0.9660
 3604SOL     OW22273   0.142   0.972   1.693  0.2617  0.2378  0.0214
 3604SOL    HW122274   0.163   0.977   1.787  1.6706  1.2099 -0.3505
 3604SOL    HW222275   0.222   0.945   1.649  0.4397 -1.8178  1.5555
 3605SOL     OW22276   2.601   0.204   6.291 -0.1577 -0.7031 -0.2103
 3605SOL    HW122277   2.693   0.196   6.269  0.3376  0.5018  1.4624
 3605SOL    HW222278   2.596   0.298   6.309  1.9466 -0.4605 -0.8994
 3606SOL     OW22279   4.431   4.102   7.783  0.0174 -0.4251 -0.0847
 3606SOL    HW122280   4.371   4.175   7.795 -1.7952 -1.7113 -1.3201
 3606SOL    HW222281   4.422   4.057   7.867  1.7683  3.3340  2.1011
 3607SOL     OW22282   0.673   3.945   2.421  0.3030  0.2768  0.0394
 3607SOL    HW122283   0.733   3.899   2.479 -0.8078  0.0278  0.9844
 3607SOL    HW222284   0.733   3.961   2.348  2.5071 -0.4889  1.6958
 3608SOL     OW22285   4.532   3.197   2.267 -0.6416  0.7346  0.6362
 3608SOL    HW122286   4.540   3.204   2.172 -0.5504  0.2342  0.6102
 3608SOL    HW222287   4.600   3.260   2.291  0.7157 -0.6849  0.4655
 3609SOL     OW22288   4.503   0.779   0.517  0.0201  0.8867 -0.0197
 3609SOL    HW122289   4.587   0.767   0.472  0.9841 -0.2663  2.0840
 3609SOL    HW222290   4.455   0.833   0.454  0.6440  1.7566  0.2580
 3610SOL     OW22291   4.143   2.021   7.518  0.0473  0.0228 -0.2868
 3610SOL    HW122292   4.118   1.948   7.574  0.3844  0.0911 -0.0430
 3610SOL    HW222293   4.153   2.081   7.593 -1.0237 -1.5585  1.1047
 3611SOL     OW22294   2.961   4.086  12.608 -0.3687 -0.0390 -0.3507
 3611SOL    HW122295   2.933   4.173  12.580  1.1284  1.1020  1.6819
 3611SOL    HW222296   3.015   4.116  12.681  1.7295 -1.6696 -1.2376
 3612SOL     OW22297   1.551   2.497   0.617  0.4933  0.2429  0.1855
 3612SOL    HW122298   1.570   2.486   0.524 -2.3914  0.4316 -0.4413
 3612SOL    HW222299   1.566   2.591   0.628 -1.3502  0.6193 -0.4134
 3613SOL     OW22300   3.362   0.961   5.998 -0.9172 -0.2446  0.5337
 3613SOL    HW122301   3.397   0.961   5.909 -0.5992 -1.9701  0.6497
 3613SOL    HW222302   3.385   1.049   6.029 -2.4177  0.1770  0.4217
 3614SOL     OW22303   3.205   4.503   7.863 -0.3673 -0.5542  0.1902
 3614SOL    HW122304   3.186   4.422   7.816 -2.1730 -0.7284  1.2222
 3614SOL    HW222305   3.299   4.518   7.873 -0.6872  2.5120 -1.2871
 3615SOL     OW22306   3.551   2.476   8.597  0.5130  0.3238 -0.0360
 3615SOL    HW122307   3.638   2.470   8.637  0.0218  0.8988  1.1439
 3615SOL    HW222308   3.563   2.415   8.524 -1.8278  0.2737 -0.3835
 3616SOL     OW22309   0.298   3.642   5.128 -0.3936 -0.1269  0.1187
 3616SOL    HW122310   0.335   3.651   5.040 -0.4922  2.0922  0.3075
 3616SOL    HW222311   0.215   3.596   5.118 -0.8726  0.6976  0.2975
 3617SOL     OW22312   1.604   4.248  11.889 -0.3915  0.0490 -0.2588
 3617SOL    HW122313   1.571   4.327  11.932  2.1540  0.1189  1.5714
 3617SOL    HW222314   1.610   4.277  11.798 -2.9414 -1.5291 -0.9246
 3618SOL     OW22315   2.427   0.312  11.760 -0.0597 -0.6928  0.2545
 3618SOL    HW122316   2.440   0.221  11.787  4.1882 -0.1435  0.0076
 3618SOL    HW222317   2.350   0.296  11.706  1.0334 -1.7962 -0.9506
 3619SOL     OW22318   1.788   1.475   8.868 -0.0244  0.2128  0.1495
 3619SOL    HW122319   1.834   1.555   8.891  0.7962 -0.0299 -0.6318
 3619SOL    HW222320   1.854   1.410   8.893 -2.5565 -1.9399  1.3307
 3620SOL     OW22321   4.618   2.516   7.296  0.0504 -0.0029 -0.3853
 3620SOL    HW122322   4.707   2.512   7.330  0.0295  0.3946 -0.2800
 3620SOL    HW222323   4.571   2.463   7.361  0.8172 -1.3447 -0.9222
 3621SOL     OW22324   1.617   4.498   7.448  0.2561  0.3982  0.0340
 3621SOL    HW122325   1.664   4.474   7.368  0.1015 -0.0558  0.0793
 3621SOL    HW222326   1.635   4.592   7.442 -0.0898  0.5169  0.8842
 3622SOL     OW22327   1.077   2.838   8.555  0.0838  0.8968  0.1238
 3622SOL    HW122328   1.089   2.929   8.581  1.0527  1.0375 -0.8285
 3622SOL    HW222329   1.095   2.847   8.462  0.6779 -1.9966 -0.0637
 3623SOL     OW22330   4.104   2.744   2.085 -0.4102  0.1726 -0.3146
 3623SOL    HW122331   4.015   2.767   2.113  0.5346  0.9453  2.0664
 3623SOL    HW222332   4.145   2.714   2.166  0.9360  1.8215 -0.3886
 3624SOL     OW22333   3.507   2.073   7.947  0.1036  0.0737 -0.0256
 3624SOL    HW122334   3.421   2.072   7.990  0.2309 -2.7667  0.1530
 3624SOL    HW222335   3.547   2.040   8.028 -0.2132  0.1991  0.1798
 3625SOL     OW22336   2.807   2.720   8.248  0.4478 -0.3839  0.4719
 3625SOL    HW122337   2.778   2.808   8.271  1.0176 -0.0618 -0.0280
 3625SOL    HW222338   2.759   2.667   8.312 -2.2886  0.1479 -1.1416
 3626SOL     OW22339   4.597   2.270   8.831  0.0715 -0.6841 -0.3325
 3626SOL    HW122340   4.526   2.304   8.776 -0.5822 -0.6985  0.5090
 3626SOL    HW222341   4.638   2.218   8.761  0.0314  0.5263 -1.2647
 3627SOL     OW22342   0.858   3.589   1.787  0.3126 -0.1592 -0.3717
 3627SOL    HW122343   0.893   3.678   1.795  0.2773 -0.2369  0.5968
 3627SOL    HW222344   0.934   3.542   1.820  0.8455 -0.0157 -1.3723
 3628SOL     OW22345   4.064   0.949   8.465  0.0014 -0.5497 -0.4431
 3628SOL    HW122346   4.020   0.996   8.394  2.2037  1.0141 -0.7631
 3628SOL    HW222347   4.076   1.018   8.530  1.6046  0.0250 -1.3376
 3629SOL     OW22348   2.090   3.322   5.214  0.7434  0.2475  0.2845
 3629SOL    HW122349   2.122   3.302   5.302  1.0394  0.1733  0.1627
 3629SOL    HW222350   2.172   3.317   5.164  0.8675 -0.9989  0.5998
 3630SOL     OW22351   1.949   1.908   5.121  0.4482 -0.2652 -0.7510
 3630SOL    HW122352   1.862   1.872   5.132  0.6617 -0.4535  0.3144
 3630SOL    HW222353   1.974   1.949   5.203 -2.4173 -0.0309 -0.0213
 3631SOL     OW22354   3.623   1.330   7.726  0.0200  0.3626 -0.0823
 3631SOL    HW122355   3.714   1.359   7.720  0.4379 -1.0224 -0.4866
 3631SOL    HW222356   3.602   1.277   7.649 -0.8311  2.3664 -1.2271
 3632SOL     OW22357   1.811   4.253  11.149 -0.5269 -0.1155 -0.1805
 3632SOL    HW122358   1.851   4.329  11.191  0.1892  0.9279 -2.8201
 3632SOL    HW222359   1.887   4.195  11.142  0.1376  0.3166  3.1687
 3633SOL     OW22360   2.956   2.512  15.416 -0.0868 -0.0164  0.6758
 3633SOL    HW122361   2.965   2.416  15.419  2.1139  0.1777 -0.0404
 3633SOL    HW222362   2.942   2.527  15.323 -2.7078  0.3997  1.1361
 3634SOL     OW22363   3.647   0.841   3.779  0.2402 -0.1084 -0.5446
 3634SOL    HW122364   3.671   0.765   3.833  1.3795 -0.2995 -1.3156
 3634SOL    HW222365   3.685   0.807   3.698 -2.0863 -2.8167 -0.5001
 3635SOL     OW22366   2.790   3.967   1.844  0.2680 -0.5771 -0.3697
 3635SOL    HW122367   2.703   3.927   1.837  1.0420 -1.9119 -2.3987
 3635SOL    HW222368   2.832   3.936   1.764 -1.4808 -0.7062 -1.2426
 3636SOL     OW22369   1.786   1.910   7.623  0.1631  0.4839 -0.9879
 3636SOL    HW122370   1.727   1.844   7.585 -1.8025  1.6912 -0.0470
 3636SOL    HW222371   1.831   1.857   7.689 -0.4811  1.1024 -0.0531
 3637SOL     OW22372   3.294   4.040  13.346  0.4057 -0.2468 -0.3593
 3637SOL    HW122373   3.375   4.036  13.396 -0.0836 -0.9740  0.3913
 3637SOL    HW222374   3.248   3.963  13.382  1.4622  0.1165  1.7518
 3638SOL     OW22375   2.993   2.926   4.950  0.3043  0.2018 -0.2611
 3638SOL    HW122376   3.003   3.019   4.932  0.2496  0.7139  2.3042
 3638SOL    HW222377   3.080   2.892   4.972  0.5896  2.5033  2.1671
 3639SOL     OW22378   1.188   4.340  15.631  0.2605  0.0480  0.2694
 3639SOL    HW122379   1.273   4.327  15.591 -0.8365 -4.2163 -0.6334
 3639SOL    HW222380   1.158   4.263  15.680  0.9468  0.7496  1.8016
 3640SOL     OW22381   0.027   0.010   3.987 -0.0028  0.1514  0.2608
 3640SOL    HW122382   0.042   4.676   3.913  0.0033  0.4506  0.0283
 3640SOL    HW222383   0.101   4.702   4.038  1.2158 -0.2729 -1.7618
 3641SOL     OW22384   3.335   2.705   2.684  0.3079 -0.3470  0.2845
 3641SOL    HW122385   3.242   2.726   2.680  0.2992 -0.5518 -0.8845
 3641SOL    HW222386   3.332   2.618   2.643 -0.5941  0.2412 -0.9148
 3642SOL     OW22387   0.161   1.500  15.147  0.5567 -0.4531 -0.0354
 3642SOL    HW122388   0.107   1.429  15.182  0.7122 -1.2781 -1.4417
 3642SOL    HW222389   0.234   1.510  15.207  0.2675  3.0203 -0.2542
 3643SOL     OW22390   1.403   3.097  13.636  0.3961 -0.2512  0.2228
 3643SOL    HW122391   1.394   3.030  13.568 -0.9295  1.3867 -1.2067
 3643SOL    HW222392   1.333   3.153  13.603  0.3438  0.7537  2.0125
 3644SOL     OW22393   4.134   3.784   2.902  0.2598 -0.2162  0.0041
 3644SOL    HW122394   4.061   3.814   2.848  1.2650  1.1293 -0.6177
 3644SOL    HW222395   4.197   3.743   2.842  1.1352 -0.4971  1.1153
 3645SOL     OW22396   0.392   0.555  10.833 -0.0071  0.0446 -0.1447
 3645SOL    HW122397   0.375   0.647  10.851  0.2351 -0.1240  0.9293
 3645SOL    HW222398   0.485   0.567  10.818  0.1881 -1.1039  0.1426
 3646SOL     OW22399   4.410   0.841  16.761  0.3164  0.0742 -0.2561
 3646SOL    HW122400   4.347   0.898  16.716  1.2136  1.0460 -0.3078
 3646SOL    HW222401   4.361   0.806  16.835 -3.6345  2.6191 -1.6489
 3647SOL     OW22402   2.152   2.295   4.207  0.4143 -0.1165 -0.0803
 3647SOL    HW122403   2.137   2.388   4.221  0.3351 -0.0756 -0.4332
 3647SOL    HW222404   2.174   2.273   4.297 -1.6136  1.1747  0.7426
 3648SOL     OW22405   1.212   1.441  16.668  0.0960 -0.1085 -0.0274
 3648SOL    HW122406   1.182   1.525  16.702  0.5437  0.2305 -0.4706
 3648SOL    HW222407   1.308   1.450  16.670 -0.3506  3.8433  2.4696
 3649SOL     OW22408   0.499   1.121   8.731 -0.2271  0.6076 -0.4796
 3649SOL    HW122409   0.461   1.056   8.790 -1.1122  2.6132  1.1549
 3649SOL    HW222410   0.493   1.059   8.658  0.1009  0.3336 -0.2695
 3650SOL     OW22411   1.128   0.296   7.403 -0.2302  0.9571  0.0389
 3650SOL    HW122412   1.080   0.280   7.322  3.8614 -0.4551 -2.1061
 3650SOL    HW222413   1.106   0.387   7.423 -0.8321  0.8501 -0.1414
 3651SOL     OW22414   3.815   1.362   4.254 -0.2569 -0.4126  0.1551
 3651SOL    HW122415   3.807   1.323   4.167 -0.1310  1.9010 -0.8933
 3651SOL    HW222416   3.723   1.369   4.280 -0.6836  0.2982 -1.5549
 3652SOL     OW22417   1.647   1.604  14.818 -0.0998  0.5379  0.3523
 3652SOL    HW122418   1.723   1.585  14.872  0.7102  1.6494 -0.4058
 3652SOL    HW222419   1.684   1.641  14.738  1.4536 -1.8562 -0.0505
 3653SOL     OW22420   4.461   1.304   7.867  0.2121 -0.1676  0.1842
 3653SOL    HW122421   4.367   1.290   7.879 -0.3626  2.0053 -1.8012
 3653SOL    HW222422   4.483   1.219   7.829  0.2899  0.7567 -1.8358
 3654SOL     OW22423   1.732   4.131  13.712 -0.2674 -0.3519  0.3757
 3654SOL    HW122424   1.658   4.173  13.757 -0.1208  1.8510 -1.4778
 3654SOL    HW222425   1.702   4.044  13.684  0.1682 -0.2686 -0.3312
 3655SOL     OW22426   0.343   2.973   4.247  1.0655  0.8046 -0.3186
 3655SOL    HW122427   0.390   2.981   4.330 -2.1408 -1.9170  1.7635
 3655SOL    HW222428   0.414   2.950   4.188  1.6023 -1.4996  1.2233
 3656SOL     OW22429   3.547   4.043   5.879 -0.0834  0.6864 -0.4059
 3656SOL    HW122430   3.537   3.967   5.937  0.8276  1.8089  1.2117
 3656SOL    HW222431   3.458   4.043   5.845 -0.0007 -0.7328 -0.6374
 3657SOL     OW22432   3.708   0.947   0.781 -0.4406 -0.5180  0.0947
 3657SOL    HW122433   3.702   0.946   0.685 -0.7075 -2.4036  0.1220
 3657SOL    HW222434   3.781   0.884   0.787  0.1985  0.3537  1.5317
 3658SOL     OW22435   1.910   3.982  13.351 -0.0398 -0.6615 -0.0728
 3658SOL    HW122436   1.848   4.006  13.282 -1.1180 -1.2766  0.6957
 3658SOL    HW222437   1.985   4.042  13.346 -1.7779  1.6171  1.1295
 3659SOL     OW22438   4.257   0.414  11.075  0.3520  0.4155  0.2624
 3659SOL    HW122439   4.226   0.479  11.138 -0.8682 -0.8115  0.9230
 3659SOL    HW222440   4.312   0.356  11.128  0.8935  1.2204  0.5818
 3660SOL     OW22441   2.539   2.717  10.236  0.0319 -0.6466 -0.6387
 3660SOL    HW122442   2.629   2.693  10.259 -0.9970 -1.5163  2.4970
 3660SOL    HW222443   2.535   2.683  10.147 -0.2038  1.3608 -1.3833
 3661SOL     OW22444   3.278   3.784   2.163  0.1117  0.5566 -0.0674
 3661SOL    HW122445   3.241   3.863   2.122  0.2280 -0.2369 -1.7053
 3661SOL    HW222446   3.363   3.770   2.122 -1.1406 -0.3669 -2.3348
 3662SOL     OW22447   4.033   2.980   4.692 -0.0862  0.1719 -0.0568
 3662SOL    HW122448   3.943   3.008   4.675  0.7368  0.1121 -4.2886
 3662SOL    HW222449   4.049   3.050   4.756 -0.8070  0.1263  0.1760
 3663SOL     OW22450   3.895   3.633  10.782  0.4526 -0.1647 -0.2210
 3663SOL    HW122451   3.817   3.679  10.813  0.3983 -0.1709 -0.3473
 3663SOL    HW222452   3.948   3.626  10.861  0.4041 -1.4514 -0.3082
 3664SOL     OW22453   1.321   1.535  12.708 -0.0120 -0.1866  0.0530
 3664SOL    HW122454   1.270   1.593  12.764  1.4228  0.4043  0.7614
 3664SOL    HW222455   1.384   1.598  12.673 -0.3639 -0.2463 -0.6901
 3665SOL     OW22456   2.370   2.931   7.410 -0.4749 -0.5552 -0.1445
 3665SOL    HW122457   2.293   2.983   7.389  0.2983  1.7252  2.6241
 3665SOL    HW222458   2.334   2.873   7.477  2.2542 -1.1136  0.8631
 3666SOL     OW22459   1.614   0.733   5.061  0.0858  0.2399  0.4336
 3666SOL    HW122460   1.556   0.790   5.112  1.4278  1.6579  0.3553
 3666SOL    HW222461   1.660   0.687   5.131  0.5468  0.4120  0.2431
 3667SOL     OW22462   0.188   3.174   4.006 -0.3954  0.0463  0.2674
 3667SOL    HW122463   0.185   3.220   4.089 -0.5806  1.1155 -0.3394
 3667SOL    HW222464   0.249   3.237   3.969 -0.8233  0.6087  0.5212
 3668SOL     OW22465   1.351   3.917   3.743 -0.0930 -0.1276  0.0831
 3668SOL    HW122466   1.392   3.832   3.728 -0.0241  0.0496 -0.7593
 3668SOL    HW222467   1.432   3.962   3.768 -0.3245  2.5933 -3.9619
 3669SOL     OW22468   3.362   4.314   5.929  0.1040  0.2084 -0.4611
 3669SOL    HW122469   3.349   4.407   5.913  2.0972  0.3110 -1.5605
 3669SOL    HW222470   3.284   4.276   5.888 -1.4731  0.7377  2.0727
 3670SOL     OW22471   2.393   2.233   6.705  0.5173  0.1559  0.1603
 3670SOL    HW122472   2.322   2.240   6.770 -0.9124  0.9995 -1.4912
 3670SOL    HW222473   2.468   2.239   6.763  0.9733 -0.9880 -0.3116
 3671SOL     OW22474   1.504   3.145   6.179  0.0444 -0.2175  0.0506
 3671SOL    HW122475   1.556   3.214   6.219 -1.4092  0.7802  0.2284
 3671SOL    HW222476   1.556   3.067   6.198 -0.1793 -0.0361  1.3981
 3672SOL     OW22477   0.885   2.424   6.698  0.2728 -0.4457  0.0081
 3672SOL    HW122478   0.925   2.449   6.614  1.3102  3.6913  1.7175
 3672SOL    HW222479   0.899   2.330   6.704  0.2402 -0.3963  0.9008
 3673SOL     OW22480   1.280   2.376  13.588 -0.3607  0.3141 -0.3725
 3673SOL    HW122481   1.276   2.455  13.533  2.7385  1.1869  0.6436
 3673SOL    HW222482   1.311   2.413  13.671 -1.8445 -0.3040  0.4543
 3674SOL     OW22483   1.118   4.337   4.082  0.5825 -0.2348 -0.0390
 3674SOL    HW122484   1.113   4.407   4.017  0.8450 -0.3592 -0.1936
 3674SOL    HW222485   1.191   4.282   4.054  1.6649  1.9721 -1.5005
 3675SOL     OW22486   3.711   3.552   4.145  0.0599 -0.1479 -0.0904
 3675SOL    HW122487   3.722   3.457   4.135  1.6982 -0.3199  3.2288
 3675SOL    HW222488   3.619   3.546   4.118 -0.2412  0.3108  0.8537
 3676SOL     OW22489   2.228   1.930   6.348 -0.3818  0.3175  0.4237
 3676SOL    HW122490   2.211   1.930   6.442 -0.3652  0.9681  0.4278
 3676SOL    HW222491   2.190   1.848   6.318 -2.5020  1.1239  0.8812
 3677SOL     OW22492   0.958   3.806   2.903 -0.0736  0.0626 -0.2915
 3677SOL    HW122493   0.957   3.863   2.826 -1.6367 -1.9143 -1.7604
 3677SOL    HW222494   0.933   3.725   2.858 -0.6417  1.0462 -1.7643
 3678SOL     OW22495   3.858   0.678  16.511  0.3490  0.1258 -0.8948
 3678SOL    HW122496   3.810   0.627  16.446  1.9785 -0.2749 -1.7806
 3678SOL    HW222497   3.841   0.768  16.485 -0.9515  0.6886  1.8431
 3679SOL     OW22498   1.159   1.217   2.666  0.8202  0.2098 -0.3421
 3679SOL    HW122499   1.176   1.311   2.676 -0.1057  0.1949  1.4392
 3679SOL    HW222500   1.242   1.179   2.694  0.2479 -0.0589  0.9852
 3680SOL     OW22501   3.107   4.469   8.577 -0.0250 -0.1949  0.0862
 3680SOL    HW122502   3.016   4.460   8.547 -0.8794  0.2617  2.5404
 3680SOL    HW222503   3.137   4.380   8.559  1.9186  0.4133  0.3780
 3681SOL     OW22504   0.338   3.874   8.195 -0.1116 -0.1429  0.6854
 3681SOL    HW122505   0.326   3.780   8.188 -1.1984 -0.1678  2.9283
 3681SOL    HW222506   0.432   3.891   8.204 -0.2262  1.3575 -0.8002
 3682SOL     OW22507   2.530   1.020   8.114  0.0830 -0.2890  0.5092
 3682SOL    HW122508   2.564   1.104   8.082 -0.5723 -0.9869 -2.0401
 3682SOL    HW222509   2.563   0.961   8.047 -0.1121  0.4023 -0.2034
 3683SOL     OW22510   4.049   3.738  17.385  0.6162 -0.0349  0.5095
 3683SOL    HW122511   4.114   3.726  17.455  2.5110 -0.1768 -1.2769
 3683SOL    HW222512   4.068   3.829  17.362 -1.1455 -0.0769 -1.0386
 3684SOL     OW22513   0.099   0.894  10.659 -0.2310 -0.0128  0.3177
 3684SOL    HW122514   0.186   0.911  10.624 -0.8221 -1.5568 -1.9660
 3684SOL    HW222515   0.065   0.982  10.672  0.8493  0.7230 -1.8091
 3685SOL     OW22516   1.018   3.388  12.607 -0.3253 -0.2758  1.1445
 3685SOL    HW122517   0.923   3.391  12.607 -0.3031  0.3826  0.3216
 3685SOL    HW222518   1.032   3.472  12.650 -0.3789  2.0795 -3.4454
 3686SOL     OW22519   4.641   1.253   3.220  0.0546  0.4661  0.0487
 3686SOL    HW122520   4.628   1.211   3.135 -1.2301  2.2359 -0.6165
 3686SOL    HW222521   4.548   1.255   3.243 -0.1536 -0.7881 -0.6930
 3687SOL     OW22522   4.348   1.628  12.741 -0.0860  0.2493 -0.1933
 3687SOL    HW122523   4.387   1.632  12.828  0.4684 -0.1369 -0.4213
 3687SOL    HW222524   4.261   1.591  12.757 -0.8571  3.2144  2.4011
 3688SOL     OW22525   4.397   2.632   2.823  0.4530  0.1876  0.5473
 3688SOL    HW122526   4.449   2.626   2.743 -0.2287 -2.1546  0.2919
 3688SOL    HW222527   4.344   2.708   2.801 -0.6758 -0.4807  0.9805
 3689SOL     OW22528   0.696   3.467   5.651  0.2657 -0.3646  0.1130
 3689SOL    HW122529   0.654   3.528   5.591  0.7188 -0.8795 -0.7258
 3689SOL    HW222530   0.666   3.381   5.621 -0.3232 -0.5288  1.1604
 3690SOL     OW22531   1.518   0.906   5.252 -0.3584 -0.5886  0.6345
 3690SOL    HW122532   1.530   0.925   5.345  0.3387  1.6039  0.0757
 3690SOL    HW222533   1.483   0.990   5.224  1.6324  0.2806  0.7479
 3691SOL     OW22534   3.889   2.519   6.595 -0.4590  0.6193  0.2545
 3691SOL    HW122535   3.838   2.449   6.633 -0.3746 -0.4241 -1.5612
 3691SOL    HW222536   3.932   2.548   6.676 -1.6961  0.1509  1.0807
 3692SOL     OW22537   4.437   4.275   5.696  0.2730  0.2113 -0.7079
 3692SOL    HW122538   4.375   4.220   5.648 -0.0898  0.0934 -0.1100
 3692SOL    HW222539   4.371   4.324   5.745 -0.8254 -1.2361 -0.7140
 3693SOL     OW22540   0.709   2.040  15.462  0.1418 -0.1237 -0.1900
 3693SOL    HW122541   0.726   2.066  15.372  1.1926  0.7275  0.2546
 3693SOL    HW222542   0.696   1.947  15.445 -0.3126 -0.0024 -0.4881
 3694SOL     OW22543   2.619   2.904   4.171  0.0799 -0.4995  0.6417
 3694SOL    HW122544   2.612   2.868   4.083  2.7690  1.0257 -0.2243
 3694SOL    HW222545   2.600   2.995   4.148  2.0020  0.1274  1.5495
 3695SOL     OW22546   0.102   4.247  12.666  0.8925  0.1076 -0.3382
 3695SOL    HW122547   0.152   4.298  12.729 -0.6796  2.3419 -0.9161
 3695SOL    HW222548   0.032   4.205  12.716  0.1717  2.9742  1.0145
 3696SOL     OW22549   3.797   4.555  15.816  0.7798  0.1399 -0.4585
 3696SOL    HW122550   3.747   4.523  15.891  0.3245  2.7769  0.3521
 3696SOL    HW222551   3.856   4.618  15.858  0.2310  0.5029 -0.2321
 3697SOL     OW22552   4.213   3.997   5.084 -0.0247  0.4065 -0.1343
 3697SOL    HW122553   4.243   3.985   5.174 -0.2870  0.4886 -0.0326
 3697SOL    HW222554   4.124   3.963   5.095  0.4775 -0.9391 -0.2768
 3698SOL     OW22555   3.094   3.468  13.919 -0.3475  0.7757  0.0572
 3698SOL    HW122556   3.115   3.545  13.973  1.8992 -0.3443  0.8049
 3698SOL    HW222557   3.078   3.502  13.831  0.2987  1.9445  0.3846
 3699SOL     OW22558   3.604   1.943   1.839  0.0126 -0.0610 -0.2338
 3699SOL    HW122559   3.543   1.894   1.784 -3.1004  2.9679  0.5587
 3699SOL    HW222560   3.570   2.007   1.902  1.9909  1.0077 -0.2406
 3700SOL     OW22561   2.875   2.755   8.877 -0.0164  0.1228 -0.8522
 3700SOL    HW122562   2.956   2.764   8.828 -0.3957 -1.0521 -1.7012
 3700SOL    HW222563   2.846   2.664   8.869 -2.1758  0.8071 -0.9813
 3701SOL     OW22564   4.701   2.390  17.005  0.1703 -0.0839  0.7527
 3701SOL    HW122565   4.653   2.444  17.068  1.1730  1.6613  0.0215
 3701SOL    HW222566   0.048   2.452  16.988  0.5986 -0.8896 -0.3596
 3702SOL     OW22567   0.866   0.219  14.500 -0.6085  0.6586 -0.1347
 3702SOL    HW122568   0.921   0.178  14.567 -0.6158  0.1330 -0.4454
 3702SOL    HW222569   0.862   0.308  14.535  1.8045  1.1834 -1.1611
 3703SOL     OW22570   0.659   0.139   6.206 -0.1207  0.2281  0.9787
 3703SOL    HW122571   0.741   0.154   6.159 -1.1701  1.1748 -0.5442
 3703SOL    HW222572   0.662   0.213   6.266 -3.2405  2.3813 -1.5383
 3704SOL     OW22573   0.934   3.090   6.652 -0.1362 -0.5980 -0.7966
 3704SOL    HW122574   0.905   3.176   6.681 -5.0273 -2.0896 -1.2551
 3704SOL    HW222575   0.933   3.035   6.730  1.1776  0.6016  0.0521
 3705SOL     OW22576   0.761   1.825  13.535 -0.0925 -0.1744 -0.1943
 3705SOL    HW122577   0.852   1.833  13.505 -0.8474 -0.4885 -2.5802
 3705SOL    HW222578   0.725   1.912  13.522 -0.8272 -0.2304  1.5180
 3706SOL     OW22579   2.737   4.232   0.486 -0.7618 -0.3051  0.0704
 3706SOL    HW122580   2.707   4.216   0.575 -0.5237  1.3619  0.4488
 3706SOL    HW222581   2.765   4.142   0.470 -2.5906 -0.8599 -0.0247
 3707SOL     OW22582   3.138   4.284   5.786 -0.0419 -0.3585 -0.1733
 3707SOL    HW122583   3.068   4.314   5.844 -0.1266  0.6173 -0.7860
 3707SOL    HW222584   3.129   4.189   5.792  1.5306 -0.3056  3.1463
 3708SOL     OW22585   1.167   1.613   2.436  0.0055 -0.4916  0.3577
 3708SOL    HW122586   1.182   1.618   2.341 -1.3662  0.5239  0.1839
 3708SOL    HW222587   1.254   1.586   2.466  0.1796  0.2352  0.5138
 3709SOL     OW22588   2.193   2.247  14.286  0.7061  0.0993 -0.3026
 3709SOL    HW122589   2.120   2.276  14.232 -0.7077 -0.6913  1.1454
 3709SOL    HW222590   2.256   2.317  14.270 -0.0315  1.1333  1.3553
 3710SOL     OW22591   1.998   2.678   5.775 -0.4976  0.2282 -0.0198
 3710SOL    HW122592   1.955   2.638   5.700  0.4966 -3.0440  1.1741
 3710SOL    HW222593   1.984   2.773   5.771 -1.7431 -0.0125 -1.0739
 3711SOL     OW22594   1.929   1.140   6.955  1.0718 -0.2587  0.1271
 3711SOL    HW122595   1.995   1.104   6.896  0.2280 -0.4007 -0.7405
 3711SOL    HW222596   1.920   1.066   7.015  1.3599 -0.3235  0.0920
 3712SOL     OW22597   0.612   3.292   7.458  0.4407 -0.0064 -0.1019
 3712SOL    HW122598   0.520   3.309   7.439  0.5998  0.9683 -0.0214
 3712SOL    HW222599   0.617   3.197   7.471  0.0096 -0.0738 -0.4614
 3713SOL     OW22600   2.389   4.035   3.641 -0.1891 -0.0273 -0.3125
 3713SOL    HW122601   2.388   4.083   3.559 -2.8402  1.0791  0.3885
 3713SOL    HW222602   2.296   4.019   3.650  0.0308 -2.5679 -2.9554
 3714SOL     OW22603   0.532   2.966   5.812 -0.3869 -0.1851  0.0376
 3714SOL    HW122604   0.623   2.944   5.790 -0.6378  0.1841 -1.3539
 3714SOL    HW222605   0.493   2.984   5.727  0.2815  1.2674  0.0479
 3715SOL     OW22606   1.068   4.173   7.777 -0.4090  0.1947 -0.3462
 3715SOL    HW122607   1.136   4.206   7.719 -1.3672  0.0768 -1.5269
 3715SOL    HW222608   1.046   4.263   7.803 -0.1239  0.1404  0.0869
 3716SOL     OW22609   4.245   2.029   4.127  0.2385 -0.3145 -0.3664
 3716SOL    HW122610   4.216   2.047   4.217 -0.7292  0.7678 -0.9022
 3716SOL    HW222611   4.280   2.114   4.101  0.8123 -1.2861 -2.7829
 3717SOL     OW22612   1.694   1.153   3.355 -0.0079  0.2111  0.2103
 3717SOL    HW122613   1.668   1.081   3.298  2.2116 -0.2861 -0.1712
 3717SOL    HW222614   1.657   1.113   3.434 -2.1658 -0.0109 -0.9117
 3718SOL     OW22615   2.104   4.568   8.566 -0.0086 -0.4870 -0.3585
 3718SOL    HW122616   2.050   4.558   8.645 -0.2819  1.4611 -0.3068
 3718SOL    HW222617   2.106   4.663   8.555 -1.0634 -0.2319  1.7137
 3719SOL     OW22618   2.215   1.709   4.587  0.0663  0.1322  0.0175
 3719SOL    HW122619   2.145   1.676   4.532  0.3405 -0.4865  0.0396
 3719SOL    HW222620   2.180   1.700   4.675  1.1668  0.0247  0.4521
 3720SOL     OW22621   0.247   4.343   7.710 -0.0658  0.3209  0.3591
 3720SOL    HW122622   0.217   4.356   7.800 -1.8169  1.0955 -0.3496
 3720SOL    HW222623   0.242   4.248   7.710  1.6156  0.2336 -0.1814
 3721SOL     OW22624   4.102   4.556   4.468 -0.4036 -0.0683  0.3728
 3721SOL    HW122625   4.119   4.462   4.473  1.1952  0.1797 -0.3134
 3721SOL    HW222626   4.099   4.561   4.373 -0.7218 -1.9588  0.2813
 3722SOL     OW22627   0.411   4.428  14.782 -0.0363  0.1630 -0.1996
 3722SOL    HW122628   0.370   4.342  14.772 -2.5542  1.1916  1.2074
 3722SOL    HW222629   0.339   4.464  14.834 -0.0418  0.1233 -0.1795
 3723SOL     OW22630   2.436   3.788   0.862  0.0222 -0.1058  0.6512
 3723SOL    HW122631   2.447   3.709   0.915 -2.4472 -1.9091 -1.4944
 3723SOL    HW222632   2.355   3.765   0.816  0.2503 -0.7325  0.5690
 3724SOL     OW22633   1.505   2.084   2.494  0.2392  0.4479  0.0326
 3724SOL    HW122634   1.426   2.123   2.458 -0.2050  1.0424  1.6716
 3724SOL    HW222635   1.566   2.085   2.420  0.2823  2.0724  0.0969
 3725SOL     OW22636   4.123   4.544  14.149 -0.4703  0.1053 -0.1951
 3725SOL    HW122637   4.202   4.572  14.196 -2.3524  0.4254  2.8124
 3725SOL    HW222638   4.128   4.583  14.062 -1.9439  1.3174  0.2568
 3726SOL     OW22639   4.084   2.660   6.150 -0.0612  0.1733  0.2688
 3726SOL    HW122640   4.133   2.591   6.103  0.1960  0.7975 -0.3755
 3726SOL    HW222641   3.999   2.666   6.107 -0.7540  0.4757  1.7041
 3727SOL     OW22642   0.800   3.353   9.030  0.4501 -0.0576 -0.4354
 3727SOL    HW122643   0.755   3.297   9.092 -1.0594  1.2295 -0.3650
 3727SOL    HW222644   0.804   3.441   9.067  3.8892  0.1506 -1.3297
 3728SOL     OW22645   3.905   1.176   8.337 -0.7715  0.3766  0.3216
 3728SOL    HW122646   3.970   1.244   8.354 -0.8932  0.2596  1.2670
 3728SOL    HW222647   3.845   1.214   8.401 -0.2651  1.9229 -0.1432
 3729SOL     OW22648   2.701   3.558   4.205  0.0387 -0.5635  0.2303
 3729SOL    HW122649   2.635   3.507   4.159 -0.5743  0.3472  0.1146
 3729SOL    HW222650   2.706   3.503   4.284 -0.7743  0.5211  1.0314
 3730SOL     OW22651   0.795   0.947   4.094 -0.1095 -0.1170 -0.1494
 3730SOL    HW122652   0.876   0.994   4.079 -1.0217  0.5895 -2.8544
 3730SOL    HW222653   0.808   0.865   4.047 -0.7517 -0.5775  0.4728
 3731SOL     OW22654   3.574   0.557  12.965 -0.0338  0.2357 -0.4418
 3731SOL    HW122655   3.617   0.609  12.898  0.3330  1.4362  0.7223
 3731SOL    HW222656   3.531   0.491  12.911 -1.8744  1.7457 -0.7971
 3732SOL     OW22657   3.343   3.096   6.273 -0.4870 -0.5157 -0.2557
 3732SOL    HW122658   3.253   3.065   6.287 -0.1807 -2.0531 -1.6821
 3732SOL    HW222659   3.363   3.050   6.192  0.1905 -1.4253  0.4284
 3733SOL     OW22660   2.480   4.655   3.663 -0.3659  0.2640 -0.1766
 3733SOL    HW122661   2.419   4.682   3.594 -0.9946 -0.3535  0.1420
 3733SOL    HW222662   2.532   4.587   3.619 -0.1497  1.5404 -1.9074
 3734SOL     OW22663   1.701   4.448   8.424 -0.8275  0.3248 -0.4648
 3734SOL    HW122664   1.657   4.467   8.507  1.4839  0.0963  0.8247
 3734SOL    HW222665   1.637   4.431   8.356 -1.6647  0.4431  0.2903
 3735SOL     OW22666   4.172   1.923  15.123 -0.2867 -0.1934  0.0743
 3735SOL    HW122667   4.152   1.958  15.036 -0.8386 -0.8468 -0.0643
 3735SOL    HW222668   4.230   1.854  15.090  0.0962  1.0971 -1.9551
 3736SOL     OW22669   2.122   3.255   7.629  0.2016 -0.0158  0.0103
 3736SOL    HW122670   2.098   3.171   7.669 -0.9304  0.5611  0.5588
 3736SOL    HW222671   2.214   3.267   7.653 -0.4111  2.6391  0.9899
 3737SOL     OW22672   2.222   3.994   9.757  0.1935  0.1358  0.5352
 3737SOL    HW122673   2.263   3.963   9.838 -1.0615  0.9470  1.4924
 3737SOL    HW222674   2.242   3.920   9.700 -0.4878  0.0695  0.3779
 3738SOL     OW22675   4.049   4.047   7.295  0.2004 -0.0406 -0.1891
 3738SOL    HW122676   4.049   4.141   7.278  0.5214 -0.1504 -0.8023
 3738SOL    HW222677   4.139   4.026   7.270  0.2265  0.1535 -0.2596
 3739SOL     OW22678   3.122   4.422   3.366 -0.2160  0.0453  0.4365
 3739SOL    HW122679   3.127   4.499   3.309  2.3255 -0.2269  0.2888
 3739SOL    HW222680   3.057   4.456   3.428 -0.1102  0.2772  0.4183
 3740SOL     OW22681   2.360   1.582   6.200  0.7098 -0.2761 -0.0285
 3740SOL    HW122682   2.404   1.535   6.271 -0.5844 -0.5549  0.5865
 3740SOL    HW222683   2.417   1.656   6.181  0.1241  0.4523  1.0902
 3741SOL     OW22684   3.816   4.413  12.466  0.2139 -0.5484  0.4082
 3741SOL    HW122685   3.754   4.448  12.530 -0.8337  0.8397 -1.3853
 3741SOL    HW222686   3.904   4.430  12.499 -0.0577  1.2252  0.1812
 3742SOL     OW22687   1.996   4.155   9.767  0.4368  0.6889 -0.2847
 3742SOL    HW122688   2.074   4.101   9.781  1.0128  0.9300 -2.5101
 3742SOL    HW222689   1.969   4.124   9.681  2.0447  0.9903 -0.9147
 3743SOL     OW22690   3.997   1.421   9.752 -0.0840  0.7795  0.3320
 3743SOL    HW122691   3.946   1.342   9.769 -0.4798  0.7840 -0.8471
 3743SOL    HW222692   4.087   1.391   9.764 -0.6870 -1.3415 -0.4738
 3744SOL     OW22693   4.304   1.427   4.969  0.1817 -0.5367 -0.3467
 3744SOL    HW122694   4.243   1.384   5.028 -0.0826  0.2547 -0.0425
 3744SOL    HW222695   4.314   1.514   5.008 -0.0778 -0.5943 -0.1557
 3745SOL     OW22696   3.110   1.432  12.588  0.5485 -0.6671 -0.9152
 3745SOL    HW122697   3.070   1.494  12.649  2.2831 -0.8325  0.4010
 3745SOL    HW222698   3.029   1.391  12.556  0.2865  0.2616 -1.4382
 3746SOL     OW22699   1.826   1.440   5.879  0.0386 -0.3287 -0.2193
 3746SOL    HW122700   1.922   1.438   5.875  0.0994 -2.1240  2.2909
 3746SOL    HW222701   1.808   1.357   5.923 -1.0906  0.3345  0.5593
 3747SOL     OW22702   1.292   3.859   4.109 -0.2122 -0.0362 -0.5782
 3747SOL    HW122703   1.230   3.863   4.182 -0.3342  0.5142 -0.7155
 3747SOL    HW222704   1.241   3.889   4.034 -0.5190 -1.1071 -0.8009
 3748SOL     OW22705   1.578   1.213  12.146  0.0137 -0.2012  0.1193
 3748SOL    HW122706   1.624   1.193  12.064 -0.4278  1.2078 -0.4573
 3748SOL    HW222707   1.509   1.147  12.137  0.2166 -0.3899 -0.0768
 3749SOL     OW22708   0.936   3.946   9.500 -0.0054 -0.7238 -0.3698
 3749SOL    HW122709   0.878   4.018   9.524  0.4299 -0.0326 -1.3818
 3749SOL    HW222710   0.881   3.869   9.488  0.4925 -1.1494  0.0999
 3750SOL     OW22711   2.301   4.280   6.486  0.4538 -0.4814 -0.1816
 3750SOL    HW122712   2.332   4.364   6.521  2.7764 -1.3679 -0.1258
 3750SOL    HW222713   2.285   4.229   6.566 -3.7000 -0.1838 -0.8341
 3751SOL     OW22714   3.359   3.347  13.866  0.1619  0.7337  0.0983
 3751SOL    HW122715   3.387   3.412  13.801  2.7650  0.8235  1.3058
 3751SOL    HW222716   3.265   3.367  13.866  0.4767  2.2492 -1.3736
 3752SOL     OW22717   4.605   4.346  16.889 -0.2730 -0.2106  0.4017
 3752SOL    HW122718   4.512   4.367  16.893 -0.2545  0.2761 -1.8643
 3752SOL    HW222719   4.608   4.323  16.796  0.8256  1.2109  0.0966
 3753SOL     OW22720   4.592   4.341   2.836 -0.4177 -0.2512 -0.6921
 3753SOL    HW122721   4.637   4.310   2.757  1.2755 -0.1540  0.2408
 3753SOL    HW222722   4.510   4.292   2.834  0.3550 -1.5679  0.1022
 3754SOL     OW22723   1.178   3.734  17.143  0.3750 -0.0866 -0.7379
 3754SOL    HW122724   1.121   3.709  17.215  2.7873 -2.9873  0.1565
 3754SOL    HW222725   1.239   3.785  17.197  0.3574 -0.8033 -0.0440
 3755SOL     OW22726   2.448   3.680  13.117 -0.4211 -0.1336  0.0339
 3755SOL    HW122727   2.420   3.593  13.144  0.5826 -0.2523  0.6923
 3755SOL    HW222728   2.397   3.678  13.036  1.4688 -0.3530 -1.1313
 3756SOL     OW22729   4.193   0.161  12.564 -0.0579  0.6222 -0.5941
 3756SOL    HW122730   4.200   0.127  12.474 -1.1019 -1.4579  0.1127
 3756SOL    HW222731   4.281   0.145  12.599 -0.6153 -0.5058  0.3020
 3757SOL     OW22732   0.573   4.129   2.591  0.7209  0.2913  0.0637
 3757SOL    HW122733   0.638   4.160   2.528 -0.6377 -1.3460 -2.1323
 3757SOL    HW222734   0.560   4.045   2.548  0.7673 -0.2942  1.1811
 3758SOL     OW22735   3.000   3.692   2.861  0.8603  0.3164  0.1136
 3758SOL    HW122736   3.030   3.764   2.804 -0.6578  1.0736  0.2616
 3758SOL    HW222737   2.962   3.731   2.940  0.3176 -0.3000  0.1578
 3759SOL     OW22738   2.160   0.435   1.472 -0.0988  0.2806 -0.3146
 3759SOL    HW122739   2.233   0.421   1.411  1.0949  2.2537  0.6429
 3759SOL    HW222740   2.091   0.483   1.427 -2.9055 -2.4646  1.0774
 3760SOL     OW22741   0.400   0.201   8.095 -0.1048 -0.3129  0.1859
 3760SOL    HW122742   0.440   0.269   8.041 -1.7310 -0.4800 -1.2603
 3760SOL    HW222743   0.330   0.176   8.034 -0.6250  1.9148 -0.1418
 3761SOL     OW22744   0.219   1.578  14.887  0.1331 -0.2289 -0.3292
 3761SOL    HW122745   0.188   1.548  14.973  1.7198 -1.3024 -0.1300
 3761SOL    HW222746   0.207   1.671  14.907  2.2666 -0.5610  2.5728
 3762SOL     OW22747   1.342   3.036  16.167 -0.2516 -0.4672 -0.3616
 3762SOL    HW122748   1.389   3.034  16.250 -1.4384  0.7822  0.3391
 3762SOL    HW222749   1.339   3.129  16.145  0.0284 -0.8200 -1.9593
 3763SOL     OW22750   1.817   4.668  17.047 -0.6195 -0.2995  0.4963
 3763SOL    HW122751   1.867   4.619  17.113 -0.7668 -0.5858  0.3924
 3763SOL    HW222752   1.880   4.724  17.000 -2.5190  0.5860 -0.9923
 3764SOL     OW22753   3.785   2.448   8.712  0.1758  0.3508 -0.1901
 3764SOL    HW122754   3.873   2.418   8.692  0.3995  1.5974 -1.0306
 3764SOL    HW222755   3.784   2.453   8.807 -3.1187 -0.7755 -0.1542
 3765SOL     OW22756   3.141   2.636   3.819 -0.4681 -0.3474  0.6927
 3765SOL    HW122757   3.113   2.723   3.846  2.1211  1.0598 -1.1552
 3765SOL    HW222758   3.160   2.596   3.904 -0.9921 -1.7955  0.1258
 3766SOL     OW22759   3.217   0.142   2.516  0.2926 -0.1176 -0.4656
 3766SOL    HW122760   3.153   0.213   2.522 -0.3329 -0.6373 -0.9874
 3766SOL    HW222761   3.229   0.132   2.422  1.2361  0.1910 -0.3843
 3767SOL     OW22762   0.878   4.550   4.351 -0.5184  0.0961 -0.6182
 3767SOL    HW122763   0.871   4.461   4.317  2.8485  0.5266 -2.5074
 3767SOL    HW222764   0.931   4.581   4.277  0.2515  2.5776  0.9978
 3768SOL     OW22765   1.887   2.157   3.291  0.4508 -0.1240  0.0876
 3768SOL    HW122766   1.828   2.107   3.233 -1.1261  0.5179  1.1332
 3768SOL    HW222767   1.972   2.115   3.280  0.8311 -0.4081  4.3921
 3769SOL     OW22768   3.352   3.383   9.704  0.2980 -0.1523 -0.3538
 3769SOL    HW122769   3.417   3.346   9.644 -0.1082 -1.6824  0.1625
 3769SOL    HW222770   3.331   3.471   9.671 -0.7141 -0.3948 -0.3611
 3770SOL     OW22771   0.634   0.597   5.388 -0.1400 -0.3644 -0.1584
 3770SOL    HW122772   0.572   0.613   5.460  0.2682 -1.0723  0.3526
 3770SOL    HW222773   0.685   0.678   5.386 -1.8917  0.7641  0.9651
 3771SOL     OW22774   3.535   0.085   2.287 -0.2824 -0.0559  0.1648
 3771SOL    HW122775   3.545   0.072   2.382 -0.0638  0.8033  0.2640
 3771SOL    HW222776   3.620   0.122   2.260 -0.1116  0.6183  1.6117
 3772SOL     OW22777   2.918   1.845   5.607  0.2129  0.1262 -0.1822
 3772SOL    HW122778   2.921   1.899   5.528  1.2037  0.1579 -0.1213
 3772SOL    HW222779   2.828   1.813   5.611 -0.7003  2.5468 -1.0939
 3773SOL     OW22780   2.541   0.758   5.295 -0.2404 -0.3253 -0.4284
 3773SOL    HW122781   2.534   0.842   5.248  0.5865 -0.1986 -0.3281
 3773SOL    HW222782   2.455   0.720   5.279 -0.3330 -0.2374 -0.1341
 3774SOL     OW22783   1.708   1.795   5.116 -0.1666 -0.0343  0.3059
 3774SOL    HW122784   1.672   1.754   5.195  0.8093 -1.2185  0.1266
 3774SOL    HW222785   1.631   1.769   5.065  1.1535 -4.2643  0.4726
 3775SOL     OW22786   1.260   1.017   8.910 -0.1737 -0.7324  0.1977
 3775SOL    HW122787   1.300   1.104   8.922  0.5217 -1.0245  0.0090
 3775SOL    HW222788   1.290   0.970   8.987 -0.4688 -1.8018 -0.3468
 3776SOL     OW22789   0.988   4.557  16.368 -0.0408  0.1407  0.2210
 3776SOL    HW122790   1.027   4.640  16.342 -2.0331  0.4686 -1.6783
 3776SOL    HW222791   1.036   4.491  16.318 -0.0614 -0.8243  1.4594
 3777SOL     OW22792   2.435   0.794   8.266 -0.7103  0.3541  0.0534
 3777SOL    HW122793   2.458   0.875   8.220 -2.3223  0.3089 -0.8507
 3777SOL    HW222794   2.340   0.797   8.257 -0.6578  2.8023  0.4845
 3778SOL     OW22795   3.997   0.330   0.466  0.5251 -0.8819 -0.3152
 3778SOL    HW122796   3.997   0.401   0.402 -0.5239 -1.2880 -0.7653
 3778SOL    HW222797   3.903   0.316   0.475  0.2006  0.9712 -0.8230
 3779SOL     OW22798   1.337   2.917   4.337  0.0584 -0.4042 -0.1946
 3779SOL    HW122799   1.271   2.855   4.306 -0.4988  0.0830  0.0120
 3779SOL    HW222800   1.304   2.924   4.427  0.0128 -1.1445 -0.1509
 3780SOL     OW22801   3.644   2.380   6.035  0.2756 -0.4581  0.0020
 3780SOL    HW122802   3.641   2.360   5.941 -1.0203  0.9635 -0.2652
 3780SOL    HW222803   3.592   2.310   6.074 -1.0784  0.0277 -0.9449
 3781SOL     OW22804   0.757   0.725   2.331  0.4989 -0.4350  0.4255
 3781SOL    HW122805   0.674   0.750   2.372 -0.0151 -1.8847  0.2474
 3781SOL    HW222806   0.722   0.690   2.249 -1.1147  0.0998  0.9003
 3782SOL     OW22807   3.137   1.584   5.352  0.2442  0.6875  0.4327
 3782SOL    HW122808   3.119   1.608   5.261  1.4568 -1.2637 -0.3275
 3782SOL    HW222809   3.170   1.498   5.324  1.6234  2.0447 -2.0777
 3783SOL     OW22810   0.219   0.257  17.562  0.4282 -0.6357 -0.3365
 3783SOL    HW122811   0.293   0.278  17.505 -0.4844  2.5803 -0.3274
 3783SOL    HW222812   0.252   0.181  17.610 -0.6954  0.0543  1.5459
 3784SOL     OW22813   0.142   4.256  14.262 -0.1559  0.6921 -0.3131
 3784SOL    HW122814   0.225   4.223  14.230 -0.7457  0.3601 -1.4827
 3784SOL    HW222815   0.089   4.217  14.193  2.3574  0.6295 -2.1747
 3785SOL     OW22816   2.619   2.710   0.951  0.1243  0.0967  0.2286
 3785SOL    HW122817   2.572   2.786   0.987  1.8591  1.2334  0.0790
 3785SOL    HW222818   2.685   2.711   1.020  1.2413 -1.8750 -0.8048
 3786SOL     OW22819   2.359   0.990  15.179 -0.1834  0.4423  0.0371
 3786SOL    HW122820   2.416   0.916  15.156  1.2620  1.6755 -0.3572
 3786SOL    HW222821   2.418   1.065  15.192  1.3495 -0.6903 -0.3958
 3787SOL     OW22822   3.581   0.373   9.810 -0.4943  0.3488 -0.2449
 3787SOL    HW122823   3.566   0.316   9.735  0.1313  1.1480 -0.9689
 3787SOL    HW222824   3.556   0.305   9.873  0.0555 -0.4654 -0.9088
 3788SOL     OW22825   3.990   2.222   1.505  0.2219  0.1278  0.0090
 3788SOL    HW122826   4.064   2.281   1.492 -0.6330  1.2014  0.0605
 3788SOL    HW222827   3.949   2.225   1.419  1.1056  0.8782 -0.3810
 3789SOL     OW22828   4.516   0.080   4.349 -0.0764 -0.2046 -0.4650
 3789SOL    HW122829   4.445   0.052   4.407  0.1626 -1.7815 -0.9445
 3789SOL    HW222830   4.472   0.151   4.303 -0.2166  0.2117  0.3179
 3790SOL     OW22831   2.452   4.431   5.865  0.1574  0.0512 -0.0891
 3790SOL    HW122832   2.497   4.515   5.853  1.9509 -0.5857  2.2182
 3790SOL    HW222833   2.506   4.390   5.932  0.3838 -1.9503 -1.4999
 3791SOL     OW22834   1.309   2.828  13.873 -0.1328  0.1280  0.0186
 3791SOL    HW122835   1.237   2.888  13.856  1.3555  1.1356 -2.9012
 3791SOL    HW222836   1.381   2.890  13.865  1.3192 -1.4197  1.0227
 3792SOL     OW22837   4.199   1.647   6.661 -0.1391 -0.1750 -0.1800
 3792SOL    HW122838   4.207   1.721   6.601 -2.2843 -0.4723 -0.8560
 3792SOL    HW222839   4.225   1.694   6.741 -0.0474 -0.8382  0.1823
 3793SOL     OW22840   1.735   0.474  13.522  0.2211 -0.6041  0.1937
 3793SOL    HW122841   1.796   0.407  13.492  1.5954  1.2371 -1.2068
 3793SOL    HW222842   1.784   0.556  13.512  0.3401 -0.6431  0.4615
 3794SOL     OW22843   2.557   2.077   2.347  0.0419  0.2189  0.4013
 3794SOL    HW122844   2.513   2.130   2.412 -0.1112  0.2786  0.2493
 3794SOL    HW222845   2.481   2.028   2.313 -1.4327  1.8217  1.4157
 3795SOL     OW22846   3.446   1.702  11.967 -0.3384  0.2619 -0.0922
 3795SOL    HW122847   3.355   1.681  11.987 -0.9296  1.0999 -1.9253
 3795SOL    HW222848   3.451   1.687  11.872 -1.4203 -2.4710  0.2826
 3796SOL     OW22849   1.171   0.432   2.233 -0.2661 -0.2437 -0.0274
 3796SOL    HW122850   1.264   0.443   2.256 -0.9115  1.5819  1.7132
 3796SOL    HW222851   1.156   0.372   2.306  1.9073 -1.3020 -0.4569
 3797SOL     OW22852   3.803   2.991  16.407 -0.6717  0.1942 -0.8088
 3797SOL    HW122853   3.828   3.047  16.481 -4.8636  2.4295 -1.0217
 3797SOL    HW222854   3.721   3.026  16.370  0.8024  2.9295 -1.5298
 3798SOL     OW22855   1.211   3.147   7.002  0.0228  0.5856 -0.1001
 3798SOL    HW122856   1.269   3.084   6.959  0.3226  0.4754  0.4624
 3798SOL    HW222857   1.279   3.204   7.039  1.4832 -0.4590 -1.1968
 3799SOL     OW22858   3.079   3.589   4.674  0.3409  0.0001 -0.0737
 3799SOL    HW122859   3.012   3.521   4.683 -0.8224  1.2740  0.9110
 3799SOL    HW222860   3.046   3.659   4.731 -1.1177  1.0402 -2.2212
 3800SOL     OW22861   0.955   1.456   6.455 -0.1849 -0.1167  0.3462
 3800SOL    HW122862   0.910   1.372   6.443  1.5772 -1.0252  0.1013
 3800SOL    HW222863   1.021   1.431   6.519  1.3725  1.7398 -0.5480
 3801SOL     OW22864   0.022   1.917   0.090 -0.6313 -0.0245  0.6935
 3801SOL    HW122865   0.008   1.871   0.173 -1.9440 -0.2156  0.3598
 3801SOL    HW222866   4.669   1.902   0.035 -0.0075  0.4724 -0.3105
 3802SOL     OW22867   4.232   3.769  10.554  0.4762  0.1655 -0.4123
 3802SOL    HW122868   4.326   3.757  10.568  0.5678 -0.4948 -1.6607
 3802SOL    HW222869   4.210   3.809  10.638  0.9528  0.7212 -0.5497
 3803SOL     OW22870   2.702   1.886  15.159  0.0172 -0.0105 -0.0360
 3803SOL    HW122871   2.660   1.922  15.081  0.6274  1.9474  0.5557
 3803SOL    HW222872   2.795   1.899  15.142 -0.3536 -2.0790 -3.6831
 3804SOL     OW22873   1.871   1.839   3.445  0.5642 -0.0964 -0.0155
 3804SOL    HW122874   1.939   1.783   3.480  1.6513  2.0401  1.2827
 3804SOL    HW222875   1.890   1.915   3.499 -0.0796 -0.6806  1.0286
 3805SOL     OW22876   2.110   2.921  12.682  0.2053  0.0221 -0.3420
 3805SOL    HW122877   2.161   2.998  12.706 -0.3191  0.3479 -0.2693
 3805SOL    HW222878   2.158   2.847  12.719  2.0590  0.7567 -1.3097
 3806SOL     OW22879   1.127   0.534   3.795 -0.4671 -0.0019 -0.2161
 3806SOL    HW122880   1.142   0.519   3.702 -0.6369  1.0413 -0.4066
 3806SOL    HW222881   1.110   0.628   3.793 -2.1441 -0.3132 -0.8083
 3807SOL     OW22882   0.084   2.720   2.960  0.0942  0.1980  0.2385
 3807SOL    HW122883   0.171   2.691   2.985 -0.0474  0.0172  0.5251
 3807SOL    HW222884   0.093   2.744   2.868 -2.8151 -1.5466 -0.5026
 3808SOL     OW22885   4.064   2.018  12.508  0.2365 -0.2348 -0.5411
 3808SOL    HW122886   4.065   2.044  12.416 -0.7800  0.4080 -0.3637
 3808SOL    HW222887   4.149   1.973  12.516 -1.3124 -2.8875  1.4014
 3809SOL     OW22888   4.136   2.794   4.930  0.2762  0.3188 -0.1035
 3809SOL    HW122889   4.097   2.839   5.005  0.8098 -0.9502  0.9345
 3809SOL    HW222890   4.219   2.840   4.933 -0.0508  0.9258 -0.3576
 3810SOL     OW22891   1.026   2.243   4.656 -0.3871  0.2472 -0.0586
 3810SOL    HW122892   1.052   2.253   4.748 -0.0854  0.2452 -0.1433
 3810SOL    HW222893   0.942   2.197   4.662 -0.2409  0.0978  0.8853
 3811SOL     OW22894   0.488   4.657   3.741  0.2154  0.0917 -0.6142
 3811SOL    HW122895   0.411   4.607   3.714  0.6060 -0.0972 -1.3840
 3811SOL    HW222896   0.500   4.712   3.663  3.8526 -0.1174 -0.1988
 3812SOL     OW22897   1.072   3.114   9.426 -0.5105 -0.2435 -0.4236
 3812SOL    HW122898   1.137   3.060   9.382  0.9135  1.7742 -0.8307
 3812SOL    HW222899   1.124   3.120   9.507 -0.0582 -1.3019 -0.6395
 3813SOL     OW22900   1.898   2.935   1.341  0.4774 -0.1763  0.0840
 3813SOL    HW122901   1.909   2.871   1.412  0.6353 -2.1815 -1.7336
 3813SOL    HW222902   1.803   2.935   1.329  0.5281 -1.0733 -0.3534
 3814SOL     OW22903   2.239   3.190   3.187 -0.0282  0.0265  0.6030
 3814SOL    HW122904   2.320   3.155   3.149 -1.0333 -1.4422 -0.1906
 3814SOL    HW222905   2.218   3.118   3.246 -1.5867  0.3881  0.4919
 3815SOL     OW22906   1.905   3.236   7.981 -0.2370  0.1230 -0.5805
 3815SOL    HW122907   1.904   3.172   8.052 -0.3695 -0.8181 -1.4278
 3815SOL    HW222908   1.965   3.304   8.012 -0.5912 -0.4604  1.3377
 3816SOL     OW22909   0.651   3.794   9.241 -0.0275 -0.0264 -0.0822
 3816SOL    HW122910   0.561   3.779   9.271 -0.3619  0.6468 -0.7403
 3816SOL    HW222911   0.691   3.825   9.322  0.5316 -1.9174  0.3570
 3817SOL     OW22912   2.119   0.915   5.477  0.4770  0.1470  0.0021
 3817SOL    HW122913   2.083   0.902   5.564  0.4006 -2.1579 -0.3704
 3817SOL    HW222914   2.086   0.842   5.425  0.9486  1.5780 -2.3329
 3818SOL     OW22915   0.729   0.877   9.503  0.2481 -0.1976 -0.1056
 3818SOL    HW122916   0.752   0.809   9.440 -0.9327 -1.3014  0.6615
 3818SOL    HW222917   0.635   0.866   9.517  0.4462 -3.4478 -1.2448
 3819SOL     OW22918   1.591   4.460   4.991  0.4159  0.9665  0.5240
 3819SOL    HW122919   1.540   4.470   4.911  1.0253  0.7350  0.1084
 3819SOL    HW222920   1.653   4.392   4.963  0.7891  1.8136 -0.6862
 3820SOL     OW22921   1.704   2.678  13.340  0.1520 -0.7465 -0.2485
 3820SOL    HW122922   1.710   2.718  13.253  0.0776  2.1748  1.0940
 3820SOL    HW222923   1.708   2.754  13.398  3.2007 -1.9113  1.0447
 3821SOL     OW22924   1.616   1.107   9.344 -0.1900 -0.3960  0.3612
 3821SOL    HW122925   1.619   1.072   9.255 -0.4801  0.1281  0.1438
 3821SOL    HW222926   1.546   1.173   9.338  2.0769  1.9306 -0.8966
 3822SOL     OW22927   1.653   3.257   8.906 -0.0783  0.0015  0.1131
 3822SOL    HW122928   1.633   3.347   8.932 -2.7848  0.3719 -3.2456
 3822SOL    HW222929   1.577   3.219   8.950  1.4229 -0.4687  2.2653
 3823SOL     OW22930   2.419   1.651  10.045  0.4951  0.4961  0.7624
 3823SOL    HW122931   2.478   1.613   9.981 -0.1207  3.9878 -1.8692
 3823SOL    HW222932   2.357   1.578  10.051 -0.7986  1.6536  1.7564
 3824SOL     OW22933   1.238   2.522   2.842 -0.0961 -0.0403  0.6984
 3824SOL    HW122934   1.312   2.521   2.780 -1.0613  0.1244 -0.4529
 3824SOL    HW222935   1.220   2.616   2.841  1.5235  0.2631 -0.2144
 3825SOL     OW22936   3.209   3.271   9.155  0.4123  0.6539 -0.4959
 3825SOL    HW122937   3.131   3.315   9.123 -0.9541 -0.8328  0.7924
 3825SOL    HW222938   3.255   3.247   9.074 -0.7728 -0.3929 -0.8625
 3826SOL     OW22939   2.814   0.886  10.812 -0.3286 -0.2584 -0.1973
 3826SOL    HW122940   2.720   0.878  10.825 -0.2116 -0.3908  0.5600
 3826SOL    HW222941   2.850   0.823  10.874 -2.4322  0.1756  1.4507
 3827SOL     OW22942   4.531   0.030   8.570  0.5749 -1.1043 -0.3350
 3827SOL    HW122943   4.455   0.036   8.630  0.8913 -1.6873  0.1325
 3827SOL    HW222944   4.489   0.018   8.485  0.2457  0.6755 -0.4129
 3828SOL     OW22945   3.725   2.828  15.139  1.0857 -0.4377 -0.3082
 3828SOL    HW122946   3.655   2.865  15.084  0.7037 -2.5309 -1.2050
 3828SOL    HW222947   3.705   2.735  15.144 -1.9759  0.3127  1.3904
 3829SOL     OW22948   1.836   0.670   8.745  0.3081  0.1587  0.2443
 3829SOL    HW122949   1.786   0.589   8.750  2.0922 -1.1740 -3.1672
 3829SOL    HW222950   1.831   0.701   8.835  0.7501  1.1850 -0.0822
 3830SOL     OW22951   2.000   2.136   8.145 -0.0386  0.7503  0.2006
 3830SOL    HW122952   2.019   2.132   8.052 -0.3360  0.7648  0.1414
 3830SOL    HW222953   2.092   2.153   8.169 -0.0718 -1.7177  2.1078
 3831SOL     OW22954   3.166   1.597   6.483 -0.5610 -0.1131  0.5419
 3831SOL    HW122955   3.144   1.575   6.393 -1.3124  2.2690  0.1318
 3831SOL    HW222956   3.109   1.673   6.495 -1.1679 -0.4726 -0.0634
 3832SOL     OW22957   3.275   2.967   8.208  0.2724 -0.2893 -0.2166
 3832SOL    HW122958   3.272   3.036   8.141 -0.9806 -0.1249  0.0066
 3832SOL    HW222959   3.371   2.963   8.212  0.3491  0.9882 -0.4872
 3833SOL     OW22960   4.085   4.302   7.181  0.4978  0.5747 -0.3572
 3833SOL    HW122961   4.030   4.379   7.184 -1.6724 -0.9131 -2.7161
 3833SOL    HW222962   4.123   4.314   7.268 -2.6023  0.0634  1.0679
 3834SOL     OW22963   1.999   0.683   5.956  0.1417 -0.3584 -0.0544
 3834SOL    HW122964   2.088   0.717   5.964  0.7029 -1.1520 -2.7439
 3834SOL    HW222965   2.007   0.597   5.914  0.6306 -0.0515 -0.5931
 3835SOL     OW22966   0.392   3.300   7.112  0.4218  0.2951  0.3018
 3835SOL    HW122967   0.381   3.311   7.207 -0.8095 -0.3606  0.2350
 3835SOL    HW222968   0.485   3.284   7.095 -0.4047 -4.3011  0.2539
 3836SOL     OW22969   1.874   2.972   0.956 -0.1756  0.1039  0.0057
 3836SOL    HW122970   1.847   3.051   0.909  0.5963 -0.4847 -1.4475
 3836SOL    HW222971   1.822   2.902   0.917  0.6359 -1.3676  1.6062
 3837SOL     OW22972   2.999   0.780   9.117  0.1549  0.5698  0.1566
 3837SOL    HW122973   3.094   0.784   9.104  0.6286 -0.7291  3.1886
 3837SOL    HW222974   2.969   0.720   9.050  2.0789 -1.1977  0.8556
 3838SOL     OW22975   2.516   2.155  10.642 -0.0464  0.0133  0.5112
 3838SOL    HW122976   2.604   2.163  10.679 -0.5755 -1.0269  1.9879
 3838SOL    HW222977   2.509   2.242  10.603 -0.5667 -0.0121  0.5546
 3839SOL     OW22978   3.451   0.785   8.353  0.4669 -0.4980  0.0579
 3839SOL    HW122979   3.374   0.799   8.298 -0.8848  3.1446  2.8042
 3839SOL    HW222980   3.519   0.806   8.289  1.1499  1.4639  1.4270
 3840SOL     OW22981   0.439   4.058  11.307 -0.3698  0.1525  0.1012
 3840SOL    HW122982   0.523   4.028  11.340 -0.5033  0.5089  0.7631
 3840SOL    HW222983   0.383   3.986  11.336  2.4948 -1.9396  0.3271
 3841SOL     OW22984   2.920   4.329  12.544  0.0265 -0.0801 -0.2434
 3841SOL    HW122985   2.926   4.363  12.455 -1.8707  0.4774 -0.1649
 3841SOL    HW222986   2.980   4.386  12.590 -0.7979 -0.2088  0.9956
 3842SOL     OW22987   4.022   0.053   6.012  0.5198  0.0146 -0.0318
 3842SOL    HW122988   4.053   0.059   6.103 -1.5164 -1.1448  0.7433
 3842SOL    HW222989   3.942   0.006   6.032 -0.1926  0.5248 -1.6718
 3843SOL     OW22990   3.554   4.058   4.661  0.2837 -0.5183  0.2462
 3843SOL    HW122991   3.512   3.995   4.602  0.0524  0.0528 -0.2027
 3843SOL    HW222992   3.482   4.087   4.718 -0.2184 -1.3062  0.0148
 3844SOL     OW22993   0.793   2.819   9.571  0.3185 -0.1019 -0.0841
 3844SOL    HW122994   0.702   2.800   9.595  0.0922 -0.2998 -1.1230
 3844SOL    HW222995   0.784   2.908   9.537  1.2007 -0.3467 -0.9513
 3845SOL     OW22996   1.311   3.577  17.431  0.4932 -0.2035 -0.3407
 3845SOL    HW122997   1.298   3.559  17.338 -1.3664 -0.5764 -0.0007
 3845SOL    HW222998   1.319   3.489  17.468 -1.6892 -0.0758  0.4598
 3846SOL     OW22999   4.623   4.253   5.902 -0.2516  0.7147  0.1406
 3846SOL    HW123000   4.646   4.342   5.875 -0.4552  0.2545 -1.5580
 3846SOL    HW223001   4.581   4.228   5.819 -0.2544 -0.7443  0.5752
 3847SOL     OW23002   4.104   2.530  10.135 -0.6403 -0.5265  0.0641
 3847SOL    HW123003   4.033   2.594  10.133  0.9394  1.1770 -1.1333
 3847SOL    HW223004   4.175   2.594  10.122 -0.4423 -1.0975 -1.6409
 3848SOL     OW23005   0.559   1.117   6.983 -0.3299 -0.0124 -0.4051
 3848SOL    HW123006   0.487   1.075   7.032 -1.5526 -0.9766 -3.0330
 3848SOL    HW223007   0.511   1.110   6.900 -2.0038  0.6216  0.4956
 3849SOL     OW23008   3.562   4.515   0.692  0.1393 -0.3195  0.0302
 3849SOL    HW123009   3.538   4.427   0.719 -0.3425  0.1486  1.1602
 3849SOL    HW223010   3.554   4.506   0.597 -2.9070  0.6025  0.1895
 3850SOL     OW23011   1.671   1.938   4.293  0.8061 -0.0031 -0.3580
 3850SOL    HW123012   1.636   1.920   4.380  1.6404 -2.2068 -0.4817
 3850SOL    HW223013   1.719   2.020   4.308 -0.4473  1.1535 -2.6698
 3851SOL     OW23014   1.563   0.116   7.956 -0.8512  0.2514 -0.2104
 3851SOL    HW123015   1.527   0.086   8.039  3.4348  0.5394  1.7643
 3851SOL    HW223016   1.491   0.095   7.897 -0.8721  2.0191 -0.7993
 3852SOL     OW23017   1.303   3.149   9.952 -0.0093  0.3665 -0.5467
 3852SOL    HW123018   1.285   3.095  10.028  1.0449  1.2272  0.3067
 3852SOL    HW223019   1.398   3.158   9.964 -0.2117  2.0536 -0.1904
 3853SOL     OW23020   1.801   0.908  17.351 -0.5147 -0.5996 -0.1339
 3853SOL    HW123021   1.745   0.864  17.288  0.5638  1.7357 -2.7135
 3853SOL    HW223022   1.816   0.833  17.408  1.1552 -0.3362 -0.2358
 3854SOL     OW23023   3.520   3.931  12.831 -0.4416 -0.3858 -0.5216
 3854SOL    HW123024   3.576   4.002  12.863  0.6473 -1.0355 -0.9712
 3854SOL    HW223025   3.537   3.926  12.737  0.4077  0.1384 -0.3982
 3855SOL     OW23026   4.633   1.650   2.634 -0.5300  0.5129  0.2921
 3855SOL    HW123027   4.548   1.625   2.672 -1.4788  0.2875 -1.9977
 3855SOL    HW223028   4.671   1.703   2.705  0.7806  0.4781 -0.4083
 3856SOL     OW23029   0.049   0.081  15.917  0.0746  0.1558  0.2570
 3856SOL    HW123030   4.720   0.133  15.978  0.7120  1.6322 -0.4608
 3856SOL    HW223031   0.121   0.053  15.973  0.5308 -1.5761 -1.1691
 3857SOL     OW23032   3.105   2.120  15.382  0.0720  0.0770 -0.3419
 3857SOL    HW123033   3.147   2.038  15.358  0.7960  0.1716  0.6277
 3857SOL    HW223034   3.108   2.165  15.297 -1.3545  0.8115 -0.0056
 3858SOL     OW23035   1.224   1.552   3.625 -0.7864  0.0212  0.3181
 3858SOL    HW123036   1.195   1.612   3.556 -2.0985  0.0645  0.9167
 3858SOL    HW223037   1.250   1.626   3.680  2.1940 -0.1278 -0.8694
 3859SOL     OW23038   0.240   3.518   2.285 -0.1668 -0.2856  0.3554
 3859SOL    HW123039   0.236   3.551   2.195  0.9566 -0.2841  0.3020
 3859SOL    HW223040   0.292   3.438   2.288  0.2875  0.0227  0.6443
 3860SOL     OW23041   2.555   0.710  14.326 -0.1228 -0.0557  0.1144
 3860SOL    HW123042   2.492   0.734  14.393 -1.5383 -1.1981 -0.8125
 3860SOL    HW223043   2.509   0.633  14.295 -0.4637 -0.6275  2.0611
 3861SOL     OW23044   3.967   3.463   4.518  0.0665 -0.5095 -0.1943
 3861SOL    HW123045   3.986   3.554   4.541  0.0964  0.0634 -2.4883
 3861SOL    HW223046   3.949   3.437   4.608 -0.9912  3.6240  0.7926
 3862SOL     OW23047   3.766   1.074  14.228 -0.5449  0.6132 -0.1597
 3862SOL    HW123048   3.765   1.124  14.146  1.0528 -0.4814 -0.8516
 3862SOL    HW223049   3.728   1.142  14.284 -2.5363  0.8092 -1.7457
 3863SOL     OW23050   1.235   2.967  14.617 -0.0577  0.4606 -0.0998
 3863SOL    HW123051   1.222   2.987  14.709  1.7862 -0.9560  0.4725
 3863SOL    HW223052   1.208   3.049  14.575 -2.3634  0.4965  1.4439
 3864SOL     OW23053   0.861   1.006   4.898  0.0022 -0.5834 -0.3162
 3864SOL    HW123054   0.767   0.999   4.886 -0.3399 -0.3096  2.2383
 3864SOL    HW223055   0.872   1.002   4.993 -2.7892  1.8564  0.0869
 3865SOL     OW23056   3.929   3.428  12.893 -0.3837 -0.5142 -0.0472
 3865SOL    HW123057   3.972   3.463  12.815  0.3823 -0.3458  0.4463
 3865SOL    HW223058   3.951   3.336  12.877 -0.0319 -0.2250 -1.2137
 3866SOL     OW23059   3.725   3.580   2.789  0.2625 -0.0580  0.1451
 3866SOL    HW123060   3.639   3.590   2.749  1.8131  2.0287 -2.6400
 3866SOL    HW223061   3.713   3.588   2.884 -2.2847  0.9577 -0.2690
 3867SOL     OW23062   0.395   0.391  11.631 -0.6652 -0.5449 -0.7369
 3867SOL    HW123063   0.306   0.358  11.624 -1.4842  1.6840 -0.8122
 3867SOL    HW223064   0.385   0.474  11.585 -0.6910  0.6663  1.4549
 3868SOL     OW23065   2.618   2.618   0.172  0.1010  0.2082 -0.4910
 3868SOL    HW123066   2.573   2.671   0.238 -0.3046 -1.9410  0.9446
 3868SOL    HW223067   2.590   2.674   0.099 -0.1698 -0.2055 -0.7042
 3869SOL     OW23068   3.691   3.618   6.853  0.7748  0.5706  0.0961
 3869SOL    HW123069   3.757   3.562   6.812  0.5465  0.4676 -0.1326
 3869SOL    HW223070   3.612   3.605   6.801  0.2643  2.0131  0.5197
 3870SOL     OW23071   0.768   4.404  17.645 -0.1232  0.3787 -0.0734
 3870SOL    HW123072   0.840   4.401  17.583  0.0008  1.4600  0.0141
 3870SOL    HW223073   0.698   4.382  17.583 -0.2659 -0.6256  0.4361
 3871SOL     OW23074   2.475   1.119  10.844 -0.1529 -0.0089  0.2821
 3871SOL    HW123075   2.564   1.100  10.874  0.8792 -0.8870 -3.3895
 3871SOL    HW223076   2.435   1.144  10.928  0.0111 -1.4917  0.8044
 3872SOL     OW23077   4.565   0.296  17.193  0.2424  0.1710 -0.1423
 3872SOL    HW123078   4.661   0.297  17.192  0.2391 -1.8157 -2.7061
 3872SOL    HW223079   4.542   0.203  17.200 -0.0506  0.2903  0.4872
 3873SOL     OW23080   0.286   3.347   8.310  0.2971  0.1381 -0.7202
 3873SOL    HW123081   0.296   3.269   8.255 -0.4612 -1.6937  1.7780
 3873SOL    HW223082   0.355   3.345   8.376 -1.4559  0.3197  1.1052
 3874SOL     OW23083   0.513   0.887   2.940 -0.1907 -0.3011 -0.1632
 3874SOL    HW123084   0.469   0.972   2.928  2.4681  1.1960  0.5521
 3874SOL    HW223085   0.527   0.866   2.848  0.4089 -0.3459 -0.0622
 3875SOL     OW23086   3.784   0.683   9.551 -0.0403  0.2477  0.4614
 3875SOL    HW123087   3.721   0.611   9.550  2.8708 -2.2888 -1.4813
 3875SOL    HW223088   3.744   0.761   9.514  0.7105  1.6116  2.5203
 3876SOL     OW23089   1.634   4.571   3.430 -0.6718 -0.2589 -0.3702
 3876SOL    HW123090   1.625   4.476   3.436  2.8879 -0.4681  1.8325
 3876SOL    HW223091   1.595   4.584   3.344  0.7305  3.2678 -0.4591
 3877SOL     OW23092   4.351   0.248  10.893 -0.0428 -0.5467 -0.4443
 3877SOL    HW123093   4.357   0.318  10.958  2.3373 -1.8909  0.7686
 3877SOL    HW223094   4.399   0.283  10.817 -1.3629  4.6512  1.0839
 3878SOL     OW23095   4.354   1.446   1.830  0.5149  0.3954 -0.2181
 3878SOL    HW123096   4.304   1.478   1.754  1.6340  0.6140 -0.8582
 3878SOL    HW223097   4.440   1.470   1.798  1.2013 -1.6701  0.1004
 3879SOL     OW23098   3.696   1.268   4.004 -0.3193  0.1004  0.0353
 3879SOL    HW123099   3.615   1.299   3.965 -0.7876  1.1259  1.8286
 3879SOL    HW223100   3.705   1.181   3.966 -2.4060 -0.4688  0.8905
 3880SOL     OW23101   0.492   0.048   3.499  0.1547 -0.1057  0.3051
 3880SOL    HW123102   0.497   4.685   3.462 -1.1589  0.0863 -0.3132
 3880SOL    HW223103   0.467   0.099   3.422  0.8527  1.3563  1.0269
 3881SOL     OW23104   0.176   3.225   9.893  0.0194 -0.1628 -0.1063
 3881SOL    HW123105   0.172   3.318   9.917 -0.0446  0.2955 -1.8516
 3881SOL    HW223106   0.190   3.184   9.978 -0.3024 -0.5006 -0.2155
 3882SOL     OW23107   3.069   2.045   0.507 -0.0700 -0.5021  0.1026
 3882SOL    HW123108   3.128   2.050   0.431  0.0310  1.2845  0.2996
 3882SOL    HW223109   3.006   1.983   0.472 -0.5345  0.2398 -0.3822
 3883SOL     OW23110   3.958   3.316   8.070 -0.1029 -0.3936 -0.3538
 3883SOL    HW123111   3.886   3.312   8.133 -0.6969 -2.0728 -1.1565
 3883SOL    HW223112   4.021   3.374   8.113 -0.9732 -1.1886  1.9918
 3884SOL     OW23113   3.691   1.843   0.847  0.0821 -0.6715  0.5039
 3884SOL    HW123114   3.780   1.849   0.881  0.7020 -0.9047 -1.0413
 3884SOL    HW223115   3.648   1.786   0.911 -1.1818 -0.6725 -0.3508
 3885SOL     OW23116   2.213   4.314   6.965 -0.9769 -0.0226  0.0694
 3885SOL    HW123117   2.258   4.394   6.991 -0.7715 -0.5416  1.2960
 3885SOL    HW223118   2.267   4.243   6.999 -1.4073 -0.9097 -1.0779
 3886SOL     OW23119   2.199   2.665  10.132 -0.0710  0.2953 -0.6599
 3886SOL    HW123120   2.272   2.696  10.079 -1.1157  0.3876 -2.0235
 3886SOL    HW223121   2.125   2.685  10.075 -0.1725 -0.1647 -0.6869
 3887SOL     OW23122   4.197   0.435   4.832 -0.1010  0.0123  0.0702
 3887SOL    HW123123   4.144   0.513   4.817 -3.0849 -1.6554  1.7637
 3887SOL    HW223124   4.247   0.431   4.751  0.7131 -1.4260  0.6415
 3888SOL     OW23125   2.709   3.930   0.241 -0.0511 -0.0354  0.3418
 3888SOL    HW123126   2.642   3.997   0.227  0.4829  0.4895  0.3166
 3888SOL    HW223127   2.702   3.878   0.160 -1.4301  1.6056 -0.5897
 3889SOL     OW23128   1.001   0.137  15.425  0.2103  0.3045  0.5241
 3889SOL    HW123129   1.050   0.119  15.345 -0.6124  0.9041 -0.1225
 3889SOL    HW223130   1.056   0.096  15.491 -0.1894 -1.0723  0.0179
 3890SOL     OW23131   4.396   3.254  14.190  0.0703  0.0483  0.0593
 3890SOL    HW123132   4.410   3.347  14.175 -1.5488  0.0919 -1.2375
 3890SOL    HW223133   4.403   3.241  14.284 -0.1895 -0.9092 -0.0546
 3891SOL     OW23134   4.029   0.531   4.201  0.4265 -0.7269 -0.4205
 3891SOL    HW123135   4.121   0.516   4.221  0.0354 -0.3391  1.6708
 3891SOL    HW223136   3.998   0.441   4.194 -0.5279 -0.3191 -1.4252
 3892SOL     OW23137   3.481   3.250   8.318  0.3184  0.0766  0.7077
 3892SOL    HW123138   3.547   3.285   8.257 -2.0179  1.2622 -1.1532
 3892SOL    HW223139   3.513   3.159   8.320 -0.6673 -0.2250  2.6867
 3893SOL     OW23140   0.676   3.577   5.890  0.0599  0.4745 -0.0378
 3893SOL    HW123141   0.703   3.529   5.812 -0.2247  0.1636  0.0596
 3893SOL    HW223142   0.704   3.516   5.958 -1.4065  1.2084  1.2116
 3894SOL     OW23143   3.908   2.496   6.903  0.9997  0.2436  0.4964
 3894SOL    HW123144   3.898   2.591   6.912 -3.4527 -0.1214 -0.4442
 3894SOL    HW223145   3.857   2.464   6.978 -0.1916  2.4122  0.6131
 3895SOL     OW23146   1.435   2.152  16.952  0.3941  0.3391 -0.3262
 3895SOL    HW123147   1.390   2.227  16.912  0.4074 -0.3694 -1.6843
 3895SOL    HW223148   1.378   2.126  17.023 -0.2694  0.4140 -0.8282
 3896SOL     OW23149   3.105   2.808  12.957  0.4552  0.1244  0.6327
 3896SOL    HW123150   3.059   2.782  12.877  0.9712 -1.0373  0.7140
 3896SOL    HW223151   3.160   2.731  12.964 -0.1840 -0.2383  1.5909
 3897SOL     OW23152   1.755   1.114  11.943  0.0033 -0.3073  0.0723
 3897SOL    HW123153   1.822   1.059  11.902  0.7070  0.4847  0.1537
 3897SOL    HW223154   1.752   1.189  11.884  1.5159 -1.1927 -1.1349
 3898SOL     OW23155   3.321   4.057   8.684  0.6922  0.0143 -0.1893
 3898SOL    HW123156   3.387   4.051   8.753  0.1663  0.3890  0.3536
 3898SOL    HW223157   3.241   4.037   8.734  0.6621 -1.5200 -0.8481
 3899SOL     OW23158   3.585   1.364  10.663 -0.1924 -0.2381 -0.0606
 3899SOL    HW123159   3.522   1.384  10.594  1.7908  1.8796 -1.2722
 3899SOL    HW223160   3.558   1.439  10.716  1.1008 -0.3800  0.7909
 3900SOL     OW23161   1.451   2.548   5.695 -0.6317  0.0493 -0.0216
 3900SOL    HW123162   1.446   2.558   5.790 -2.2512 -1.6751  0.0702
 3900SOL    HW223163   1.387   2.613   5.663  1.2664  1.4297 -1.0025
 3901SOL     OW23164   2.676   1.614   0.529 -0.3528  0.4698 -0.0212
 3901SOL    HW123165   2.649   1.605   0.620 -1.4124 -1.7607 -0.5408
 3901SOL    HW223166   2.768   1.638   0.540 -0.5621  0.9348  0.6787
 3902SOL     OW23167   0.308   2.578   3.004  0.2344 -0.0970  0.3399
 3902SOL    HW123168   0.292   2.507   3.065  0.4472  0.1172  0.6477
 3902SOL    HW223169   0.404   2.579   3.007  0.2926  0.4965 -1.8986
 3903SOL     OW23170   0.930   1.338   5.286  0.6248  0.2766  0.5189
 3903SOL    HW123171   0.899   1.310   5.372 -0.4648  0.2741  0.1248
 3903SOL    HW223172   0.916   1.433   5.296 -0.1766  0.3817 -1.7184
 3904SOL     OW23173   4.205   1.388   4.701  0.9265  0.7423 -0.1125
 3904SOL    HW123174   4.270   1.420   4.640 -0.1911  2.2608 -0.5166
 3904SOL    HW223175   4.261   1.404   4.777 -0.0322  0.3276  0.6829
 3905SOL     OW23176   2.955   0.835   8.771  0.1955 -0.0382  0.2197
 3905SOL    HW123177   3.022   0.832   8.702 -0.0561  0.0272 -0.0289
 3905SOL    HW223178   2.935   0.744   8.789 -1.5622  0.3210  0.0686
 3906SOL     OW23179   3.661   3.706   4.393 -0.0388 -0.4843 -0.1695
 3906SOL    HW123180   3.652   3.627   4.447  0.7921 -0.3393  0.1895
 3906SOL    HW223181   3.670   3.669   4.306  2.1371 -0.5457  0.0951
 3907SOL     OW23182   3.976   3.622   5.444 -1.2207 -0.3244  0.1267
 3907SOL    HW123183   3.929   3.683   5.502  0.4201  1.2668 -0.1952
 3907SOL    HW223184   3.913   3.553   5.423  0.4965 -2.2760  1.3653
 3908SOL     OW23185   3.679   1.472   2.240 -0.7250 -0.2072  0.3200
 3908SOL    HW123186   3.594   1.517   2.241 -0.3584  0.5384 -2.0481
 3908SOL    HW223187   3.673   1.432   2.327 -0.8219 -1.3754 -0.2220
 3909SOL     OW23188   0.991   2.098   3.060  0.4127  0.4391  0.2372
 3909SOL    HW123189   1.024   2.138   3.140 -1.8952  2.3431  0.2559
 3909SOL    HW223190   1.052   2.030   3.030 -0.3019 -0.2787  0.4184
 3910SOL     OW23191   1.993   4.673   2.175  0.0695 -0.1193 -0.6699
 3910SOL    HW123192   1.923   0.014   2.173  1.8256  1.7363 -1.5490
 3910SOL    HW223193   1.964   4.610   2.241  0.4483  2.0125  1.5447
 3911SOL     OW23194   1.268   2.952  13.434 -0.1130  0.0570 -0.2622
 3911SOL    HW123195   1.275   2.870  13.483 -1.3184  0.3146  0.3530
 3911SOL    HW223196   1.268   2.921  13.344  0.7522  0.4294 -0.3886
 3912SOL     OW23197   3.794   0.483   7.999 -0.8347  0.3516  0.2572
 3912SOL    HW123198   3.752   0.401   8.025 -0.3586  1.0706  3.2207
 3912SOL    HW223199   3.870   0.464   7.945 -2.0375 -0.8103 -1.0455
 3913SOL     OW23200   4.677   1.909   8.170 -0.0930  0.0258 -0.1505
 3913SOL    HW123201   4.710   1.929   8.083 -1.2098  1.8181 -0.1827
 3913SOL    HW223202   4.652   1.996   8.203  0.3303  0.3239 -0.6190
 3914SOL     OW23203   2.765   4.194   3.184  0.7589  0.2443  0.1154
 3914SOL    HW123204   2.762   4.277   3.137  2.5258  0.6494  0.7047
 3914SOL    HW223205   2.711   4.145   3.122  0.3983 -2.5572  2.6580
 3915SOL     OW23206   4.603   4.541   8.360  0.6008  0.8838  0.1609
 3915SOL    HW123207   4.659   4.559   8.436  0.0495  0.0696  0.7671
 3915SOL    HW223208   4.555   4.470   8.402  0.3817  0.0845 -1.4262
 3916SOL     OW23209   4.501   3.943   3.078 -0.4216  0.7090  0.1740
 3916SOL    HW123210   4.445   3.957   3.154  1.1042 -0.5466  1.5472
 3916SOL    HW223211   4.439   3.921   3.008 -0.6817 -0.4790  0.7813
 3917SOL     OW23212   4.667   4.700  11.576 -0.3088  0.0923 -0.1603
 3917SOL    HW123213   4.653   0.058  11.529 -1.1558 -0.2206 -0.4649
 3917SOL    HW223214   4.640   4.637  11.509  0.5971 -1.6865  1.1410
 3918SOL     OW23215   4.367   3.399   8.608  0.2607  0.3032 -0.3207
 3918SOL    HW123216   4.348   3.321   8.557 -0.3208  0.0626  0.2564
 3918SOL    HW223217   4.460   3.391   8.632  0.1628  0.6553  0.1779
 3919SOL     OW23218   3.798   1.222  11.049 -0.2082 -0.5005  0.1708
 3919SOL    HW123219   3.844   1.268  11.120 -3.4676  1.6522  0.8878
 3919SOL    HW223220   3.869   1.201  10.988 -0.1847 -2.0100  0.7214
 3920SOL     OW23221   3.189   1.670  12.131 -1.0501 -0.1833  0.5748
 3920SOL    HW123222   3.109   1.710  12.166 -1.6535 -1.0794  0.2457
 3920SOL    HW223223   3.151   1.594  12.086 -1.5091 -0.9291  2.2064
 3921SOL     OW23224   3.176   3.602   3.654 -0.2916 -0.0330  0.3419
 3921SOL    HW123225   3.266   3.610   3.686 -0.4771 -0.3980  0.9614
 3921SOL    HW223226   3.164   3.693   3.626 -0.7460 -0.2656 -0.2202
 3922SOL     OW23227   1.408   2.845  15.982  0.6102 -0.1161 -0.3907
 3922SOL    HW123228   1.376   2.908  16.047 -0.5061  0.8775 -1.9141
 3922SOL    HW223229   1.503   2.859  15.985  0.7069 -0.7593 -0.4275
 3923SOL     OW23230   1.547   4.690  16.794  0.4919  0.1994  0.4040
 3923SOL    HW123231   1.531   4.599  16.819 -1.8842  0.4834 -0.0556
 3923SOL    HW223232   1.492   4.706  16.717 -0.8046 -2.1888  0.8296
 3924SOL     OW23233   3.141   4.287  13.791 -0.0030  0.6464 -0.5225
 3924SOL    HW123234   3.045   4.288  13.785  0.0562  1.5128 -1.4065
 3924SOL    HW223235   3.160   4.222  13.723  2.7211  0.5952  0.3200
 3925SOL     OW23236   4.584   3.645  11.285  0.0191  0.0837 -0.4784
 3925SOL    HW123237   4.528   3.720  11.306  0.5815  0.0377  1.1846
 3925SOL    HW223238   4.523   3.573  11.299 -1.4499  0.6957 -3.8795
 3926SOL     OW23239   2.582   1.179   8.562 -0.3421 -0.5629  0.0236
 3926SOL    HW123240   2.533   1.109   8.519 -0.8799 -0.0242 -0.2455
 3926SOL    HW223241   2.584   1.164   8.656  1.9917  2.3621  0.4229
 3927SOL     OW23242   1.132   0.653   1.189 -0.7185 -0.1377 -0.7744
 3927SOL    HW123243   1.171   0.585   1.244 -1.5519  0.3115  0.3591
 3927SOL    HW223244   1.182   0.730   1.216 -0.7139 -0.2690 -0.4174
 3928SOL     OW23245   3.082   3.177   7.965 -0.0036  0.2202 -0.0853
 3928SOL    HW123246   3.063   3.125   8.043 -0.9209 -0.5863 -0.8380
 3928SOL    HW223247   3.172   3.206   7.981 -0.2822  0.2673  1.4161
 3929SOL     OW23248   4.521   0.550  10.912  0.7646  0.4064 -0.6063
 3929SOL    HW123249   4.532   0.463  10.876  2.6992  0.1153  0.6871
 3929SOL    HW223250   4.563   0.538  10.997 -0.8249 -1.2684 -0.0584
 3930SOL     OW23251   4.549   2.181   8.168  0.8991  0.3628 -0.1054
 3930SOL    HW123252   4.537   2.194   8.074  0.8420  0.1037 -0.1357
 3930SOL    HW223253   4.637   2.215   8.186  0.8723  0.6189 -0.4476
 3931SOL     OW23254   1.625   3.214   8.110  0.1661 -0.1096  0.4383
 3931SOL    HW123255   1.677   3.142   8.073  0.2701 -0.7713  1.8508
 3931SOL    HW223256   1.579   3.233   8.029 -0.2755 -0.9154  0.4988
 3932SOL     OW23257   1.012   3.267  13.809 -0.2890  0.3298 -0.2540
 3932SOL    HW123258   0.952   3.300  13.741 -1.5797  0.0009  0.7308
 3932SOL    HW223259   1.042   3.347  13.851 -0.6428  1.5050 -2.2437
 3933SOL     OW23260   0.188   3.969   2.585 -0.5563 -0.4842 -0.1262
 3933SOL    HW123261   0.241   3.946   2.509 -1.5904 -1.1935 -0.6335
 3933SOL    HW223262   0.245   3.938   2.656 -1.2126 -1.6567 -0.1049
 3934SOL     OW23263   1.843   0.520   6.748 -0.2978  0.6771  0.5094
 3934SOL    HW123264   1.799   0.525   6.832 -0.3550 -0.7468  0.5522
 3934SOL    HW223265   1.933   0.534   6.777  0.0270 -1.3486  0.4470
 3935SOL     OW23266   2.809   1.825   3.306 -0.4360 -0.1340 -0.4011
 3935SOL    HW123267   2.750   1.829   3.382  0.6900 -1.9321  0.5701
 3935SOL    HW223268   2.776   1.748   3.260 -3.6056  0.5555  0.6916
 3936SOL     OW23269   0.873   0.332  16.999  0.3784 -0.6930 -0.2838
 3936SOL    HW123270   0.870   0.380  17.082  1.9833  0.1511 -0.7162
 3936SOL    HW223271   0.890   0.396  16.930 -1.3337  1.6338  1.4177
 3937SOL     OW23272   2.448   4.628   3.950 -0.5777  0.2323  0.0049
 3937SOL    HW123273   2.533   4.595   3.978 -0.6812  1.2007  1.4896
 3937SOL    HW223274   2.471   4.626   3.858  0.4126 -2.1463  0.3028
 3938SOL     OW23275   1.594   0.227   6.599  0.0019 -0.1332  0.2548
 3938SOL    HW123276   1.529   0.271   6.545 -1.3573  1.5639  3.2841
 3938SOL    HW223277   1.633   0.299   6.649  1.7673 -1.9748  1.5783
 3939SOL     OW23278   3.247   0.464  15.004 -0.2088 -0.1313 -0.3633
 3939SOL    HW123279   3.327   0.490  15.050 -1.7128  2.0543  1.0125
 3939SOL    HW223280   3.195   0.544  15.017  0.4859 -0.3953  4.0514
 3940SOL     OW23281   2.337   2.027  10.100  0.3663  0.1875  0.1483
 3940SOL    HW123282   2.412   1.974  10.126  0.3305 -0.7397 -1.6457
 3940SOL    HW223283   2.380   2.104  10.064 -3.4964  1.5333 -1.6409
 3941SOL     OW23284   1.088   2.396  16.607  0.3896 -0.1402  0.4167
 3941SOL    HW123285   1.051   2.308  16.615 -0.4848  0.3456  1.6360
 3941SOL    HW223286   1.152   2.395  16.679  0.3217  0.2414  0.4821
 3942SOL     OW23287   4.585   2.010   7.758 -0.6576  0.1898 -0.1582
 3942SOL    HW123288   4.497   2.030   7.790 -0.5226  0.0067  0.3142
 3942SOL    HW223289   4.554   1.925   7.726 -0.5109  0.4715 -1.0646
 3943SOL     OW23290   0.509   1.631   2.753  0.3935 -0.4284  0.0939
 3943SOL    HW123291   0.476   1.693   2.818  0.3955 -0.7324  0.3854
 3943SOL    HW223292   0.471   1.673   2.676 -0.3078 -0.7440  0.2691
 3944SOL     OW23293   0.973   2.562   7.686  0.0377 -0.6992  0.2446
 3944SOL    HW123294   0.973   2.648   7.645  1.1592 -0.9403 -0.2531
 3944SOL    HW223295   1.055   2.529   7.649  1.0990  2.2301  0.0306
 3945SOL     OW23296   2.491   0.034   5.382 -0.1304 -0.2145  0.1266
 3945SOL    HW123297   2.492   0.058   5.474  1.0663 -0.9910  0.3136
 3945SOL    HW223298   2.577   0.061   5.351 -1.5342  0.6893 -3.0904
 3946SOL     OW23299   4.249   4.202  16.183 -0.6699  0.4976  0.3189
 3946SOL    HW123300   4.320   4.217  16.120  0.6336  0.5812  1.8040
 3946SOL    HW223301   4.204   4.132  16.135  3.3477 -1.3562 -0.8298
 3947SOL     OW23302   4.156   2.348   5.157  0.3332  0.6429  0.2321
 3947SOL    HW123303   4.246   2.322   5.136  0.7398  1.2614  1.2085
 3947SOL    HW223304   4.153   2.331   5.251 -2.0193 -3.6547 -0.6272
 3948SOL     OW23305   4.069   3.799   5.250  0.4987 -0.3542 -0.5002
 3948SOL    HW123306   4.030   3.854   5.318  1.7291 -0.1647  0.0483
 3948SOL    HW223307   4.055   3.712   5.286  3.2962 -0.4089  0.4770
 3949SOL     OW23308   3.079   4.491   5.594 -0.0083  0.2833  0.2323
 3949SOL    HW123309   3.029   4.545   5.655 -1.1782 -1.7959  1.1109
 3949SOL    HW223310   3.099   4.417   5.652  2.2269  0.9606  0.3185
 3950SOL     OW23311   0.709   1.158  15.436 -0.0869  0.6628 -0.2511
 3950SOL    HW123312   0.721   1.063  15.435  0.3878  0.7222 -0.4829
 3950SOL    HW223313   0.759   1.180  15.514 -0.9943  0.7500  0.2964
 3951SOL     OW23314   4.232   3.720   1.480 -0.1567  0.4977  0.3224
 3951SOL    HW123315   4.283   3.769   1.416 -3.0573 -0.4281 -2.6903
 3951SOL    HW223316   4.205   3.788   1.541 -0.4414  1.5036 -0.9311
 3952SOL     OW23317   3.896   0.797   6.857  0.3050 -0.1402 -0.4392
 3952SOL    HW123318   3.824   0.736   6.869  0.7399 -0.6484 -0.4142
 3952SOL    HW223319   3.950   0.775   6.933 -0.3874 -2.0967 -0.5254
 3953SOL     OW23320   4.298   3.361   4.725  0.0294  0.7261  0.2409
 3953SOL    HW123321   4.354   3.434   4.697  1.3308 -0.5493 -0.4652
 3953SOL    HW223322   4.256   3.330   4.644 -0.2799 -0.4691  0.8639
 3954SOL     OW23323   2.509   2.066   5.080 -0.2407 -0.0885  0.0250
 3954SOL    HW123324   2.597   2.031   5.065  0.3450  1.0058  0.9149
 3954SOL    HW223325   2.453   1.988   5.079 -0.9021  0.3758  0.8558
 3955SOL     OW23326   3.277   4.050   2.029 -0.0854  0.0282  1.2167
 3955SOL    HW123327   3.247   4.136   2.060 -0.1985  0.4423 -0.0416
 3955SOL    HW223328   3.368   4.075   2.009  0.6123 -1.3018  2.7812
 3956SOL     OW23329   0.799   1.378   4.744  0.0364  0.1919  0.2663
 3956SOL    HW123330   0.740   1.448   4.774 -0.3708 -0.2920  0.5815
 3956SOL    HW223331   0.840   1.360   4.829  0.3733 -0.4270 -0.0298
 3957SOL     OW23332   0.626   0.445   3.221  0.2514  0.0809  0.1122
 3957SOL    HW123333   0.710   0.436   3.266 -0.3227  0.8689  1.3316
 3957SOL    HW223334   0.569   0.448   3.298  0.6526  1.7463  0.3359
 3958SOL     OW23335   2.155   0.232   3.529 -0.2998  0.2176 -0.0790
 3958SOL    HW123336   2.160   0.230   3.625 -0.9103  2.5395 -0.0066
 3958SOL    HW223337   2.248   0.234   3.508  0.6820  2.0208  4.2966
 3959SOL     OW23338   1.526   0.988   5.507  0.1074  0.0429  0.3585
 3959SOL    HW123339   1.502   1.081   5.497 -0.7898 -0.3388 -1.0786
 3959SOL    HW223340   1.607   0.990   5.558  0.4198  0.8584 -0.1673
 3960SOL     OW23341   2.049   2.902   8.568 -0.5838 -0.1181 -0.1261
 3960SOL    HW123342   2.124   2.943   8.525  0.0056 -0.8637  0.1908
 3960SOL    HW223343   2.078   2.906   8.660  0.2763  1.5747 -0.4554
 3961SOL     OW23344   3.834   4.178  15.853 -0.0728  0.5348 -0.3955
 3961SOL    HW123345   3.868   4.128  15.778  1.2251 -0.4070  0.8085
 3961SOL    HW223346   3.743   4.170  15.826 -0.5175  1.8719  0.7450
 3962SOL     OW23347   4.492   1.386   2.100  0.0628  0.5061 -0.3368
 3962SOL    HW123348   4.520   1.477   2.110  3.5755 -0.4282 -1.6446
 3962SOL    HW223349   4.491   1.346   2.187 -2.6363 -2.2204 -1.6089
 3963SOL     OW23350   4.392   1.827   2.188 -0.5024 -0.2280 -0.1225
 3963SOL    HW123351   4.417   1.897   2.249  0.7739  1.1319 -2.1891
 3963SOL    HW223352   4.395   1.879   2.107 -0.2971  0.8014  0.5352
 3964SOL     OW23353   2.844   2.696   1.135 -0.1217 -0.2479  0.1750
 3964SOL    HW123354   2.925   2.714   1.088 -0.5890 -0.5211 -0.7492
 3964SOL    HW223355   2.873   2.629   1.197 -1.1557 -2.6333 -1.9106
 3965SOL     OW23356   4.110   2.923   0.844 -0.0118  0.3921 -0.1547
 3965SOL    HW123357   4.038   2.884   0.794 -0.3061  1.3667 -0.4895
 3965SOL    HW223358   4.067   2.993   0.894  0.7351  0.8191 -0.1114
 3966SOL     OW23359   3.685   3.447   4.472 -0.1216 -0.0485 -0.0151
 3966SOL    HW123360   3.676   3.358   4.437  1.3551  0.0421 -0.6257
 3966SOL    HW223361   3.776   3.453   4.501 -0.0052  0.2698 -0.4529
 3967SOL     OW23362   0.133   1.637   8.154  0.1567  0.7794  0.1102
 3967SOL    HW123363   0.171   1.574   8.215  0.0159  1.7755  1.2276
 3967SOL    HW223364   0.041   1.628   8.177  0.6050 -0.4889  1.3974
 3968SOL     OW23365   2.872   2.558   4.837  0.6228 -0.2687 -0.3226
 3968SOL    HW123366   2.848   2.583   4.748 -1.3933 -1.6602 -0.1620
 3968SOL    HW223367   2.823   2.612   4.899 -0.3095  1.8902 -2.9490
 3969SOL     OW23368   0.617   0.813   7.064  0.0512 -0.1478 -0.4177
 3969SOL    HW123369   0.526   0.841   7.056 -0.6140 -1.1621  3.5189
 3969SOL    HW223370   0.632   0.851   7.151 -0.1214 -0.9147 -0.0548
 3970SOL     OW23371   0.162   4.212  11.173  0.1835 -0.4398  0.1089
 3970SOL    HW123372   0.153   4.270  11.098 -1.0975 -0.5273  0.1993
 3970SOL    HW223373   0.075   4.196  11.211  0.1217 -2.0230 -0.7341
 3971SOL     OW23374   1.512   0.500   3.987 -0.2737 -0.6379 -0.9085
 3971SOL    HW123375   1.499   0.433   3.919 -0.1218  0.5805 -2.1252
 3971SOL    HW223376   1.424   0.528   4.010  0.5287  0.8544  0.3584
 3972SOL     OW23377   4.530   4.358   3.254 -0.1953 -0.0867  0.2746
 3972SOL    HW123378   4.565   4.270   3.239 -1.8068 -0.8577  1.0557
 3972SOL    HW223379   4.614   4.402   3.267  0.4452 -1.3738  0.4629
 3973SOL     OW23380   1.074   3.005  16.132  0.4413 -0.2075 -0.1578
 3973SOL    HW123381   1.161   3.043  16.143 -0.6467  2.4068 -0.7335
 3973SOL    HW223382   1.087   2.922  16.179  0.9314 -0.5309 -0.8538
 3974SOL     OW23383   0.376   0.218   3.691 -0.0696  0.2128  0.2695
 3974SOL    HW123384   0.402   0.155   3.623  0.4464  0.9033 -0.1676
 3974SOL    HW223385   0.455   0.215   3.745 -0.2129  0.1730  0.4739
 3975SOL     OW23386   1.588   0.679   3.232  0.0824 -0.1838  0.0081
 3975SOL    HW123387   1.622   0.590   3.226  1.6191  0.4887 -1.4308
 3975SOL    HW223388   1.660   0.710   3.287 -1.4164  1.7868  0.8727
 3976SOL     OW23389   4.572   4.537   7.045 -0.4977  0.1988 -0.5501
 3976SOL    HW123390   4.520   4.457   7.049 -0.6354  0.2369 -1.5937
 3976SOL    HW223391   4.609   4.539   7.134  1.9455  0.2333 -1.5613
 3977SOL     OW23392   4.647   3.093   4.948 -0.1647  0.0634 -0.0635
 3977SOL    HW123393   4.569   3.043   4.971 -0.6483 -0.2088 -2.2993
 3977SOL    HW223394   4.641   3.113   4.854  2.1437 -1.6092 -0.5582
 3978SOL     OW23395   3.181   3.611  14.138  0.1201  0.1323 -0.0557
 3978SOL    HW123396   3.241   3.681  14.113 -0.3031  0.7973  0.7694
 3978SOL    HW223397   3.111   3.664  14.177  2.9839  3.4773  0.4872
 3979SOL     OW23398   2.200   1.218   3.335  0.0004  0.2475  0.6487
 3979SOL    HW123399   2.185   1.159   3.262  0.4662  0.7244  0.1668
 3979SOL    HW223400   2.193   1.297   3.280 -1.0340  0.0045  0.4468
 3980SOL     OW23401   2.475   3.640   2.055  0.0728  0.2542 -0.6903
 3980SOL    HW123402   2.548   3.608   2.003 -1.0655 -3.0591 -0.2636
 3980SOL    HW223403   2.495   3.732   2.075 -0.3641  0.5730 -1.7456
 3981SOL     OW23404   3.299   2.035  14.777  0.6332 -0.0928 -0.1560
 3981SOL    HW123405   3.292   2.130  14.785 -1.7618 -0.2050 -1.0246
 3981SOL    HW223406   3.272   2.004  14.864 -0.2507 -0.6578 -0.6291
 3982SOL     OW23407   2.728   1.810   4.727  0.6959  0.2381 -0.1179
 3982SOL    HW123408   2.640   1.808   4.688  0.3041  2.5123  0.6433
 3982SOL    HW223409   2.760   1.725   4.698  2.5872  0.5711  1.0138
 3983SOL     OW23410   0.776   0.475   2.985  0.6609  0.2378 -0.0091
 3983SOL    HW123411   0.810   0.386   3.000  0.8248 -0.0217 -1.8592
 3983SOL    HW223412   0.707   0.478   3.051  0.4517  1.9737 -0.3268
 3984SOL     OW23413   0.788   2.891   3.548  0.2527 -0.2620  0.1389
 3984SOL    HW123414   0.700   2.868   3.518  0.5096  0.1971 -0.9910
 3984SOL    HW223415   0.836   2.880   3.465  0.6412 -1.6000  0.5382
 3985SOL     OW23416   0.706   4.267   6.694 -0.0584  0.1745  0.3610
 3985SOL    HW123417   0.758   4.262   6.774 -0.8336  0.8728  0.9079
 3985SOL    HW223418   0.693   4.362   6.684  3.4422  0.7860  1.7709
 3986SOL     OW23419   4.691   1.955   3.899 -0.5114 -0.0986 -0.4395
 3986SOL    HW123420   4.609   1.965   3.948  0.6044 -0.5801  1.5352
 3986SOL    HW223421   4.680   2.021   3.831 -1.7800  2.2828  2.0875
 3987SOL     OW23422   3.825   2.752   2.440 -0.4631  0.0093  0.4842
 3987SOL    HW123423   3.913   2.762   2.403  0.2794  0.6571  2.3933
 3987SOL    HW223424   3.845   2.751   2.533 -0.6221  0.1664  0.5211
 3988SOL     OW23425   4.672   1.332   4.712 -0.1690  0.3952  0.1204
 3988SOL    HW123426   4.702   1.291   4.631 -1.9276  1.0354 -0.8503
 3988SOL    HW223427   4.648   1.416   4.673 -0.0084  0.5465  0.3446
 3989SOL     OW23428   0.702   2.208   4.671  0.2537 -0.2595 -0.2415
 3989SOL    HW123429   0.650   2.129   4.687 -1.2951  0.3741 -2.1846
 3989SOL    HW223430   0.724   2.239   4.759 -0.3735 -0.2587 -0.0864
 3990SOL     OW23431   0.448   2.043   4.471  0.1253 -0.2748 -0.0931
 3990SOL    HW123432   0.386   2.067   4.402  0.8472 -0.1575 -0.7056
 3990SOL    HW223433   0.527   2.033   4.418 -0.0473  1.3285 -0.6552
 3991SOL     OW23434   4.126   3.924   5.790  0.5529 -0.4919  0.2508
 3991SOL    HW123435   4.218   3.950   5.784  0.4862 -0.0626  0.9862
 3991SOL    HW223436   4.115   3.922   5.886 -1.1724 -1.7246  0.0346
 3992SOL     OW23437   1.944   2.255   6.839 -0.5978  0.0098  0.0518
 3992SOL    HW123438   1.894   2.214   6.769 -0.2862 -2.5001  1.3215
 3992SOL    HW223439   1.872   2.262   6.901  0.5007  2.0375  1.1018
 3993SOL     OW23440   1.455   4.009  11.750 -0.4087  0.0161  0.4023
 3993SOL    HW123441   1.533   4.054  11.780 -0.4405  1.5364 -1.7814
 3993SOL    HW223442   1.436   3.968  11.834  1.2637 -1.2721  0.1560
 3994SOL     OW23443   0.867   4.648  14.948  0.2877 -0.1399  0.4964
 3994SOL    HW123444   0.957   4.639  14.915  0.1363 -0.2554  0.1189
 3994SOL    HW223445   0.880   4.639  15.042  1.8470 -1.0896  0.1948
 3995SOL     OW23446   4.286   3.604  15.395 -0.2343  0.0089 -0.5003
 3995SOL    HW123447   4.356   3.609  15.329 -0.4193  0.5257 -0.6607
 3995SOL    HW223448   4.323   3.666  15.458 -1.0937 -0.9251  0.9036
 3996SOL     OW23449   4.265   4.362  10.816 -0.1192 -0.1536 -0.1721
 3996SOL    HW123450   4.238   4.405  10.735 -0.6303  0.4552  0.3172
 3996SOL    HW223451   4.192   4.389  10.872  1.8230  2.8161  0.9156
 3997SOL     OW23452   3.426   4.311  17.125  0.1097  0.6182  0.1572
 3997SOL    HW123453   3.517   4.336  17.141  0.0123  1.8862 -1.2571
 3997SOL    HW223454   3.411   4.372  17.053  0.6149  1.5727  0.8506
 3998SOL     OW23455   0.906   3.850  13.141 -0.0801 -0.1079  0.1751
 3998SOL    HW123456   0.831   3.901  13.171 -0.4722 -0.8779  0.4988
 3998SOL    HW223457   0.905   3.870  13.047 -0.4782 -0.1733  0.1663
 3999SOL     OW23458   0.671   3.401   4.514 -0.1111  0.1304 -0.3821
 3999SOL    HW123459   0.671   3.306   4.498 -0.8227 -0.1542  1.2558
 3999SOL    HW223460   0.577   3.415   4.529 -0.6195 -2.0215 -1.5554
 4000SOL     OW23461   3.210   3.894   6.045  0.6675 -0.3111 -0.3828
 4000SOL    HW123462   3.165   3.903   5.961  2.8864 -0.6538 -1.6071
 4000SOL    HW223463   3.197   3.803   6.072  0.0127  0.3825  1.6058
 4001SOL     OW23464   1.388   3.696   9.159  0.0139 -0.5554 -0.5062
 4001SOL    HW123465   1.299   3.720   9.133 -0.8554 -0.9751  2.0422
 4001SOL    HW223466   1.429   3.769   9.112  1.6063 -1.8604 -1.1479
 4002SOL     OW23467   1.826   2.704   8.671  0.3749 -0.9563  0.2317
 4002SOL    HW123468   1.821   2.752   8.753  2.9481  0.2297 -0.3325
 4002SOL    HW223469   1.913   2.669   8.687  1.2944  0.7157 -1.1398
 4003SOL     OW23470   1.716   2.935   9.835 -0.5244 -0.0706 -0.2538
 4003SOL    HW123471   1.643   2.966   9.781 -1.1995 -2.4215 -0.7023
 4003SOL    HW223472   1.704   2.992   9.911  3.3226 -0.6994  0.7983
 4004SOL     OW23473   0.751   3.005   2.617  0.8782 -0.1389 -0.0772
 4004SOL    HW123474   0.814   3.060   2.570  1.2854  0.7805  1.5363
 4004SOL    HW223475   0.708   2.958   2.546  1.0541 -0.1389 -0.1836
 4005SOL     OW23476   0.424   3.995   7.856  0.1965  0.0290 -0.4710
 4005SOL    HW123477   0.354   4.026   7.799 -0.2794  0.7526  0.5113
 4005SOL    HW223478   0.433   4.068   7.917 -0.3744 -1.8200  1.8544
 4006SOL     OW23479   0.981   2.334   4.264  0.3941  0.0541  0.9696
 4006SOL    HW123480   0.950   2.293   4.184  1.8308 -1.3503  1.1260
 4006SOL    HW223481   1.013   2.269   4.327 -0.1014 -1.7583 -0.6530
 4007SOL     OW23482   1.681   0.771  17.136  0.7656  0.3303  0.6868
 4007SOL    HW123483   1.693   0.769  17.041  0.1823  2.1776  0.5909
 4007SOL    HW223484   1.586   0.764  17.134  0.9203 -1.6853 -0.1147
 4008SOL     OW23485   3.345   3.071   3.568  0.1854 -0.0313  0.1935
 4008SOL    HW123486   3.268   3.085   3.622  1.6714 -0.9865  2.5324
 4008SOL    HW223487   3.316   3.001   3.509  1.4183 -1.1787  0.9438
 4009SOL     OW23488   4.349   4.514   7.754  0.3211  0.2567 -0.1622
 4009SOL    HW123489   4.338   4.420   7.767  2.7816  0.3786  2.9307
 4009SOL    HW223490   4.379   4.537   7.842  0.7782  1.8328 -0.7235
 4010SOL     OW23491   3.820   4.456   2.570  0.7370 -0.1256  0.0593
 4010SOL    HW123492   3.727   4.479   2.575  0.4883 -0.7538 -1.7422
 4010SOL    HW223493   3.842   4.474   2.479  1.7336  0.9003  0.5064
 4011SOL     OW23494   2.237   4.620   6.939  0.0876  0.7258 -0.0677
 4011SOL    HW123495   2.328   4.607   6.967  0.3536  1.4574 -0.5969
 4011SOL    HW223496   2.248   4.633   6.844 -1.3925 -1.3049 -0.5131
 4012SOL     OW23497   2.983   4.046   4.961  0.3063 -0.2878  0.0371
 4012SOL    HW123498   3.039   4.090   5.025 -1.1881 -1.1344  1.9302
 4012SOL    HW223499   2.926   4.117   4.932 -1.2529 -1.3902  0.3910
 4013SOL     OW23500   1.251   3.252  16.392  0.0165 -0.4243  1.0629
 4013SOL    HW123501   1.223   3.327  16.340 -1.2909 -2.2509 -0.9084
 4013SOL    HW223502   1.332   3.279  16.434 -0.7628 -0.4741  2.5759
 4014SOL     OW23503   2.269   0.482   5.370  0.4770 -0.6283  0.2070
 4014SOL    HW123504   2.295   0.403   5.323  0.6370 -0.3582 -0.1675
 4014SOL    HW223505   2.314   0.480   5.454  0.4033 -1.2490  0.2336
 4015SOL     OW23506   2.984   0.800   0.924  0.1405  0.5489 -0.6434
 4015SOL    HW123507   2.889   0.796   0.913  0.2446 -0.5806 -1.1280
 4015SOL    HW223508   2.996   0.783   1.018 -1.4326 -1.3971 -0.7907
 4016SOL     OW23509   2.030   3.138  14.532  0.4455 -0.4575 -0.3997
 4016SOL    HW123510   1.990   3.186  14.460  0.1781  2.2609  1.5851
 4016SOL    HW223511   2.032   3.191  14.612  0.2940 -1.1195  0.0514
 4017SOL     OW23512   3.521   0.447   2.131  0.0888  0.0069 -0.6651
 4017SOL    HW123513   3.556   0.524   2.086  0.9998 -0.5288 -0.8818
 4017SOL    HW223514   3.545   0.381   2.066 -0.8938 -2.3350  1.3246
 4018SOL     OW23515   4.267   1.098   2.144 -0.2002  0.3606 -0.0266
 4018SOL    HW123516   4.204   1.111   2.215  1.4686 -0.6251  1.6270
 4018SOL    HW223517   4.264   1.003   2.131 -0.9627  0.2118  1.1885
 4019SOL     OW23518   4.441   3.896   9.902 -0.5893 -0.6058  0.0384
 4019SOL    HW123519   4.505   3.850   9.848 -0.3536 -1.0370  0.6749
 4019SOL    HW223520   4.473   3.980   9.871  0.2192 -1.5540 -1.6847
 4020SOL     OW23521   1.860   0.433  12.203  0.5088  0.4167 -0.3141
 4020SOL    HW123522   1.782   0.378  12.219  1.6779 -1.0385  0.3743
 4020SOL    HW223523   1.836   0.469  12.118  1.3129  1.5428 -0.0563
 4021SOL     OW23524   0.301   3.291  16.657 -0.0212 -0.0064 -0.3309
 4021SOL    HW123525   0.386   3.332  16.643  0.5860 -1.2484 -0.3435
 4021SOL    HW223526   0.254   3.308  16.575 -0.0359 -1.2508 -0.5943
 4022SOL     OW23527   3.630   3.466   3.827  0.1039 -0.4015 -0.5850
 4022SOL    HW123528   3.582   3.549   3.836  0.5500 -0.1078 -0.8801
 4022SOL    HW223529   3.607   3.422   3.908 -0.6974  1.8896  0.4356
 4023SOL     OW23530   3.536   3.472  12.256  0.0069  0.4488 -0.2267
 4023SOL    HW123531   3.583   3.512  12.183  0.9559  0.2866  0.2978
 4023SOL    HW223532   3.600   3.433  12.315 -1.8373  0.4071  1.7611
 4024SOL     OW23533   2.902   3.435   6.006 -0.4604 -0.3589  0.2760
 4024SOL    HW123534   2.984   3.386   5.995  0.6365  1.6148 -0.2360
 4024SOL    HW223535   2.829   3.373   6.007 -1.1799  0.4584 -2.6772
 4025SOL     OW23536   0.202   0.396   2.778 -0.5436 -0.5923  0.2513
 4025SOL    HW123537   0.270   0.393   2.710 -0.2181  2.4803  0.4363
 4025SOL    HW223538   0.229   0.481   2.814  0.2536  0.2986 -2.4757
 4026SOL     OW23539   2.560   0.072   8.458  0.0739 -0.0696  0.1409
 4026SOL    HW123540   2.479   0.037   8.423  0.8780  0.5491 -2.2888
 4026SOL    HW223541   2.617   0.048   8.385  1.1983  0.4877  0.8204
 4027SOL     OW23542   1.577   3.959   1.987 -0.5563 -0.1799 -0.0729
 4027SOL    HW123543   1.657   3.917   1.954 -0.0746  0.6973 -0.0213
 4027SOL    HW223544   1.547   4.009   1.911 -2.7241 -1.9775 -0.3703
 4028SOL     OW23545   4.722   1.281   8.446  0.3373  0.4022 -0.6196
 4028SOL    HW123546   0.062   1.224   8.404 -0.5032  1.1614 -2.9087
 4028SOL    HW223547   4.639   1.235   8.430 -0.3694  2.4195 -2.8077
 4029SOL     OW23548   0.120   0.923   4.527  0.5002 -0.5502  0.5346
 4029SOL    HW123549   0.138   1.005   4.482  0.1664  0.5144  2.3181
 4029SOL    HW223550   0.180   0.920   4.601  0.4584  1.2378  0.6570
 4030SOL     OW23551   0.469   4.476   6.105 -0.1495 -0.3756  0.5782
 4030SOL    HW123552   0.454   4.564   6.071  0.4371 -0.3008  0.5240
 4030SOL    HW223553   0.560   4.486   6.131  0.0259  0.6651 -0.4353
 4031SOL     OW23554   4.269   3.028   8.279 -0.8673 -0.0508  0.1682
 4031SOL    HW123555   4.310   3.110   8.307 -0.3246 -0.0515 -0.6170
 4031SOL    HW223556   4.317   3.034   8.196 -0.0666 -1.4700  0.5293
 4032SOL     OW23557   0.633   3.968   7.391 -0.5322  0.7363 -0.0426
 4032SOL    HW123558   0.673   3.985   7.305 -2.9713 -0.7034 -1.4720
 4032SOL    HW223559   0.691   3.900   7.423 -0.3587  1.2707  0.7732
 4033SOL     OW23560   2.401   0.139  13.901  0.0600 -0.4110  0.1221
 4033SOL    HW123561   2.317   0.177  13.928  1.1757  2.2627 -0.1849
 4033SOL    HW223562   2.376   0.062  13.850 -1.1328 -0.5040  0.8488
 4034SOL     OW23563   4.374   4.516  16.814 -0.0850 -0.2925  0.2465
 4034SOL    HW123564   4.395   4.590  16.871 -2.0027  0.6239 -0.2578
 4034SOL    HW223565   4.293   4.484  16.853 -1.7971  1.5935 -1.7423
 4035SOL     OW23566   2.717   3.839  14.376 -0.5906 -0.1271  0.2819
 4035SOL    HW123567   2.641   3.782  14.391 -0.1770 -1.1502 -1.4607
 4035SOL    HW223568   2.729   3.868  14.467  2.4434  2.1107 -0.8444
 4036SOL     OW23569   1.105   2.494  14.668 -0.1528 -0.3760 -0.1143
 4036SOL    HW123570   1.191   2.511  14.705  0.3039  0.4663 -1.5412
 4036SOL    HW223571   1.047   2.548  14.722  0.1181 -2.2514  2.0353
 4037SOL     OW23572   0.787   3.665  13.411 -0.1520 -0.0933 -0.0401
 4037SOL    HW123573   0.824   3.618  13.337 -0.7763 -3.4558  1.7828
 4037SOL    HW223574   0.861   3.676  13.472 -1.6458 -2.3075  2.2065
 4038SOL     OW23575   1.060   0.271   9.518  0.2538  0.0608 -0.2028
 4038SOL    HW123576   1.127   0.232   9.574 -0.0298 -0.2388 -0.0760
 4038SOL    HW223577   0.984   0.215   9.533  0.5710 -0.5774 -0.9552
 4039SOL     OW23578   0.484   0.413   6.163  0.2018  0.0209 -0.0329
 4039SOL    HW123579   0.421   0.484   6.176 -0.5302 -1.1898  2.8963
 4039SOL    HW223580   0.537   0.460   6.097  0.4371  0.6883  0.6315
 4040SOL     OW23581   2.497   2.343   7.147  0.2366 -0.1847 -0.1743
 4040SOL    HW123582   2.443   2.420   7.164 -1.7112 -1.5667 -0.1078
 4040SOL    HW223583   2.521   2.328   7.239  0.5828  1.3245 -0.0163
 4041SOL     OW23584   4.247   4.417   5.440  0.6054 -0.4554 -0.3603
 4041SOL    HW123585   4.333   4.435   5.479  0.4531 -0.1427 -0.1695
 4041SOL    HW223586   4.273   4.361   5.367 -1.3000 -2.9635  0.9193
 4042SOL     OW23587   2.873   2.610  10.935 -0.4996 -0.2790 -0.3325
 4042SOL    HW123588   2.891   2.641  10.847 -1.1695  3.0945  0.7100
 4042SOL    HW223589   2.955   2.566  10.959 -1.5812 -2.2440 -0.2277
 4043SOL     OW23590   2.518   1.717   8.219  0.2511 -0.0430  0.1876
 4043SOL    HW123591   2.502   1.786   8.283 -1.1722  1.2315 -1.5455
 4043SOL    HW223592   2.426   1.694   8.201  0.3193  0.7648 -1.1930
 4044SOL     OW23593   2.259   0.944   8.496  0.2162  0.0912  0.7400
 4044SOL    HW123594   2.295   0.907   8.577 -0.8354 -0.3310  1.0211
 4044SOL    HW223595   2.165   0.939   8.515  0.0834  0.7680  0.2255
 4045SOL     OW23596   4.532   3.216   7.432  0.5570  0.5053 -0.2676
 4045SOL    HW123597   4.506   3.167   7.354 -1.0406  0.0121  0.5795
 4045SOL    HW223598   4.617   3.184   7.461 -0.1768 -1.4964 -0.3648
 4046SOL     OW23599   3.274   3.831   3.147 -0.2996  0.1685 -0.1661
 4046SOL    HW123600   3.211   3.900   3.124  1.3101  1.8609  0.5027
 4046SOL    HW223601   3.304   3.815   3.058  0.1393 -2.5170  0.4521
 4047SOL     OW23602   3.185   3.829   1.503 -0.3625 -0.1479  0.6239
 4047SOL    HW123603   3.157   3.738   1.499 -1.1059  0.1194 -0.2312
 4047SOL    HW223604   3.124   3.872   1.443  1.8253 -0.9187 -2.1861
 4048SOL     OW23605   2.674   0.990   2.506 -0.6106 -0.5587 -0.5957
 4048SOL    HW123606   2.596   0.939   2.486  0.5160 -1.0325 -3.7286
 4048SOL    HW223607   2.649   1.075   2.469 -1.1544 -0.0678  0.8856
 4049SOL     OW23608   0.576   0.510   5.912 -0.0248 -0.1229  0.2566
 4049SOL    HW123609   0.565   0.605   5.912  2.6373  0.2031  0.7982
 4049SOL    HW223610   0.646   0.506   5.846 -0.0845 -0.3149  0.2040
 4050SOL     OW23611   3.953   4.636   7.817 -0.3658 -0.6258 -0.3167
 4050SOL    HW123612   4.035   4.665   7.857 -0.6991 -0.0277 -0.0756
 4050SOL    HW223613   3.887   4.663   7.880 -0.4154 -1.3128 -0.0697
 4051SOL     OW23614   3.657   1.806  12.085 -0.5690 -0.2142  0.4830
 4051SOL    HW123615   3.569   1.793  12.051 -0.4390 -0.7015  0.3276
 4051SOL    HW223616   3.664   1.721  12.128 -1.2924  0.3773  1.7594
 4052SOL     OW23617   4.304   1.319  11.591 -0.0836  0.2666  0.0879
 4052SOL    HW123618   4.374   1.377  11.622  0.8510 -0.1965 -1.1475
 4052SOL    HW223619   4.255   1.283  11.665  0.3196  2.1703  1.2789
 4053SOL     OW23620   4.470   4.461   3.864 -0.3742 -0.0340 -0.0543
 4053SOL    HW123621   4.459   4.553   3.890 -1.5605 -0.1445 -0.1723
 4053SOL    HW223622   4.386   4.431   3.899 -1.7147  1.3476 -2.0619
 4054SOL     OW23623   0.475   3.355   0.918 -0.1146 -0.8405  0.1866
 4054SOL    HW123624   0.535   3.404   0.974  0.0835  1.5970 -2.1454
 4054SOL    HW223625   0.389   3.356   0.960 -1.0601  0.9396 -1.7737
 4055SOL     OW23626   1.619   1.035   7.392  0.0668 -0.0730 -0.1125
 4055SOL    HW123627   1.524   1.028   7.386  0.0155  1.2592 -0.9148
 4055SOL    HW223628   1.642   0.970   7.458 -1.2002  0.4494  0.8427
 4056SOL     OW23629   3.808   1.698   6.671 -0.1291 -0.0497 -0.5179
 4056SOL    HW123630   3.857   1.628   6.628  0.2309  0.4880 -0.9831
 4056SOL    HW223631   3.824   1.681   6.764 -1.6479 -2.4444 -0.7114
 4057SOL     OW23632   2.020   0.338   3.245  0.1762  0.1590 -0.8163
 4057SOL    HW123633   1.965   0.282   3.300  0.6863  0.0317 -0.4334
 4057SOL    HW223634   1.967   0.351   3.167  0.8413 -0.7242 -1.4206
 4058SOL     OW23635   1.338   0.171   0.812  0.3514  0.4306  0.0863
 4058SOL    HW123636   1.380   0.110   0.873 -0.2883  1.2703  1.3639
 4058SOL    HW223637   1.262   0.117   0.791 -0.7458  2.5099 -1.2470
 4059SOL     OW23638   0.115   0.887   2.378 -0.4735 -0.3193  0.0559
 4059SOL    HW123639   0.043   0.932   2.334  1.9767  3.6402  0.0762
 4059SOL    HW223640   0.177   0.871   2.307 -0.5924 -3.2926  0.6078
 4060SOL     OW23641   1.670   4.585   3.720 -0.0811 -0.2417 -0.2674
 4060SOL    HW123642   1.651   4.607   3.628 -0.8876  0.4153  0.0633
 4060SOL    HW223643   1.639   4.661   3.768 -0.2200 -0.2398 -0.3588
 4061SOL     OW23644   4.361   2.949  12.202 -0.0668  0.4448  0.6816
 4061SOL    HW123645   4.452   2.930  12.226  0.0268  0.9097  0.7015
 4061SOL    HW223646   4.323   2.883  12.259 -0.3892 -1.4421 -1.7315
 4062SOL     OW23647   3.407   4.385   9.373  0.3300  0.1016 -0.3752
 4062SOL    HW123648   3.314   4.375   9.354  0.2776  1.0165 -0.5817
 4062SOL    HW223649   3.416   4.480   9.370 -0.9847  0.2120 -0.7109
 4063SOL     OW23650   3.142   0.249   9.052 -0.3742 -0.4470 -0.1279
 4063SOL    HW123651   3.131   0.177   9.115 -1.0104  1.0190  1.4576
 4063SOL    HW223652   3.122   0.324   9.107  0.2728 -0.6414  0.3676
 4064SOL     OW23653   2.877   2.086  12.741 -0.0199 -0.1297  0.1589
 4064SOL    HW123654   2.905   2.121  12.825 -2.2452  1.3672  0.2670
 4064SOL    HW223655   2.944   2.125  12.686 -0.9412  1.1377 -0.0568
 4065SOL     OW23656   3.687   0.206   8.578 -0.2600  0.2595  0.0596
 4065SOL    HW123657   3.765   0.237   8.531  0.0042 -0.6377 -0.0841
 4065SOL    HW223658   3.721   0.151   8.649 -0.4828  0.7345  0.5354
 4066SOL     OW23659   1.222   4.013   8.187  0.5162 -0.6791 -0.2036
 4066SOL    HW123660   1.134   4.009   8.224  0.0019  1.4034 -1.2209
 4066SOL    HW223661   1.268   3.984   8.266  0.7939  0.7320  0.1460
 4067SOL     OW23662   1.499   2.989  15.184 -0.4573  0.0304 -0.1192
 4067SOL    HW123663   1.472   2.897  15.182 -0.2173 -0.0242 -0.8478
 4067SOL    HW223664   1.541   3.004  15.099  1.0406  1.0109  0.7914
 4068SOL     OW23665   4.126   0.503   0.689  0.5052 -0.5383  0.6327
 4068SOL    HW123666   4.039   0.470   0.670  0.0082  0.5690  0.9939
 4068SOL    HW223667   4.188   0.430   0.683  1.4611  0.5773 -3.2188
 4069SOL     OW23668   1.251   2.505  10.232  0.2382 -0.2379  0.1566
 4069SOL    HW123669   1.329   2.450  10.237 -0.2793 -1.1059 -1.7532
 4069SOL    HW223670   1.217   2.492  10.144 -1.2751 -0.5826  0.7833
 4070SOL     OW23671   0.917   4.700   3.478  0.6057 -0.1242  0.7023
 4070SOL    HW123672   0.886   4.660   3.559 -0.7174  1.7913  1.1496
 4070SOL    HW223673   0.838   4.695   3.425 -1.0216  1.1823  3.0322
 4071SOL     OW23674   3.564   3.957   1.605  0.0382 -0.3912 -0.0376
 4071SOL    HW123675   3.470   3.975   1.610  0.5769  2.3329  0.5220
 4071SOL    HW223676   3.572   3.881   1.548 -4.0560 -1.0272  0.2582
 4072SOL     OW23677   3.636   2.709  11.230 -0.0094  0.1999 -0.0273
 4072SOL    HW123678   3.638   2.615  11.211 -1.0901  0.1972 -0.1135
 4072SOL    HW223679   3.609   2.704  11.321  0.3979 -1.1416  0.0162
 4073SOL     OW23680   0.565   0.872   0.764  0.1391  0.3310  0.3107
 4073SOL    HW123681   0.567   0.853   0.670 -3.8767  0.5909  0.1641
 4073SOL    HW223682   0.583   0.790   0.809  1.4031  0.6959  0.4798
 4074SOL     OW23683   3.290   1.772   2.981 -0.1970  0.0083  0.1354
 4074SOL    HW123684   3.217   1.831   2.962 -0.3707 -0.2566 -0.0229
 4074SOL    HW223685   3.369   1.819   3.007  0.2085 -2.0933  2.7166
 4075SOL     OW23686   0.866   4.438   7.332 -0.2153  0.0599 -0.1798
 4075SOL    HW123687   0.941   4.497   7.327 -0.0498 -0.2346 -1.0620
 4075SOL    HW223688   0.847   4.447   7.426  1.6726  0.4090  0.1622
 4076SOL     OW23689   1.125   3.872   3.860  0.0456 -0.4691  0.5844
 4076SOL    HW123690   1.128   3.777   3.862  0.7688 -0.4548 -0.1301
 4076SOL    HW223691   1.207   3.896   3.817 -0.1490 -0.7242  0.0603
 4077SOL     OW23692   0.850   3.894   3.773  0.3548 -0.3823 -0.1235
 4077SOL    HW123693   0.935   3.915   3.812 -0.8542 -0.3596  2.5267
 4077SOL    HW223694   0.878   3.829   3.709  0.6539 -0.9688  0.5921
 4078SOL     OW23695   2.372   2.984   7.726  0.2357 -0.1430 -0.0763
 4078SOL    HW123696   2.424   3.047   7.777  0.6795  0.6361 -1.4916
 4078SOL    HW223697   2.391   2.897   7.760  2.2490  0.9757  1.6682
 4079SOL     OW23698   2.385   1.412   2.473 -0.3338  0.3140  0.1410
 4079SOL    HW123699   2.352   1.470   2.404 -3.8348 -0.5898  1.0610
 4079SOL    HW223700   2.421   1.337   2.428 -2.6327  0.0094 -1.2041
 4080SOL     OW23701   2.879   0.853   2.621 -0.5155 -0.2661  0.0217
 4080SOL    HW123702   2.846   0.780   2.568  0.3029  0.0011 -0.8637
 4080SOL    HW223703   2.828   0.925   2.585  0.6888 -0.9976 -3.2210
 4081SOL     OW23704   4.629   2.296   4.491  0.0749 -0.2454  0.0633
 4081SOL    HW123705   4.576   2.350   4.433  0.8828 -2.6640 -2.9279
 4081SOL    HW223706   4.643   2.361   4.560 -1.4710  1.8406 -1.6131
 4082SOL     OW23707   2.664   3.193  14.863  0.2198  0.5374 -0.2307
 4082SOL    HW123708   2.578   3.233  14.879  0.2827  1.0432 -1.1191
 4082SOL    HW223709   2.670   3.195  14.767  1.5589 -4.2390 -0.2297
 4083SOL     OW23710   3.569   3.888  12.133  0.1230  0.6693 -0.0515
 4083SOL    HW123711   3.659   3.901  12.103  0.3282 -1.0396 -0.1973
 4083SOL    HW223712   3.528   3.974  12.136  1.7778  1.4569 -0.4463
 4084SOL     OW23713   0.493   3.342   9.513 -0.0285 -0.2446 -0.8043
 4084SOL    HW123714   0.438   3.373   9.441  0.7621  2.2773 -0.3246
 4084SOL    HW223715   0.552   3.409   9.548 -2.0518  0.0360  2.0609
 4085SOL     OW23716   2.229   2.887   2.547 -0.2216 -0.0596 -0.4552
 4085SOL    HW123717   2.308   2.834   2.543  1.4892  2.4299  0.1434
 4085SOL    HW223718   2.163   2.838   2.596 -1.0743  1.1123 -0.4256
 4086SOL     OW23719   0.933   0.482   0.869  0.0524 -0.2174  0.7191
 4086SOL    HW123720   1.026   0.505   0.868  0.7011 -2.8407  0.8463
 4086SOL    HW223721   0.921   0.449   0.780 -1.1152  2.2462 -0.0371
 4087SOL     OW23722   0.088   0.296   3.102  0.2965 -0.3599 -0.1500
 4087SOL    HW123723   0.161   0.302   3.040 -0.3567  0.8525 -0.8176
 4087SOL    HW223724   0.081   0.390   3.122  1.7988 -0.0801 -0.9167
 4088SOL     OW23725   3.689   4.371  17.135  0.0797  0.0855 -0.1910
 4088SOL    HW123726   3.753   4.364  17.205 -0.2113  2.1262  0.2619
 4088SOL    HW223727   3.716   4.444  17.079 -2.6968  0.8373 -0.5350
 4089SOL     OW23728   1.924   2.723   1.513 -0.9740  0.1139 -0.7057
 4089SOL    HW123729   1.990   2.670   1.469 -0.2955  1.7806 -1.7326
 4089SOL    HW223730   1.875   2.654   1.557 -0.7175 -0.3484 -1.1535
 4090SOL     OW23731   1.389   3.678   5.462 -0.1505 -0.0940 -0.1667
 4090SOL    HW123732   1.441   3.657   5.385 -0.0066  2.4196 -0.7663
 4090SOL    HW223733   1.347   3.763   5.445 -1.5402 -1.1158 -1.8129
 4091SOL     OW23734   3.017   4.484   4.619  0.1450 -0.2031 -0.0240
 4091SOL    HW123735   3.018   4.393   4.589 -2.3836 -0.3114  0.2494
 4091SOL    HW223736   2.933   4.494   4.662  0.0263 -1.1267 -0.0240
 4092SOL     OW23737   3.678   4.210   0.628 -0.0095 -0.5588 -0.3304
 4092SOL    HW123738   3.645   4.123   0.652 -1.6844 -0.2784 -1.6042
 4092SOL    HW223739   3.631   4.229   0.547 -0.5090 -1.4993 -0.2688
 4093SOL     OW23740   0.021   1.242   4.460 -0.2435  0.2159 -0.2091
 4093SOL    HW123741   0.002   1.176   4.394 -2.2532  1.0149 -0.4279
 4093SOL    HW223742   0.116   1.231   4.469 -0.2777 -0.6762 -0.9313
 4094SOL     OW23743   4.365   1.569   6.362 -0.3812 -0.0709 -0.3829
 4094SOL    HW123744   4.408   1.565   6.277  3.2997 -0.2808  1.4771
 4094SOL    HW223745   4.308   1.645   6.353  0.5941  0.7089  0.1328
 4095SOL     OW23746   4.436   0.672   8.067  0.3479 -0.9987  0.1939
 4095SOL    HW123747   4.381   0.731   8.017 -0.5197 -2.0373 -0.0881
 4095SOL    HW223748   4.503   0.656   8.000  2.0338 -0.9056  1.8479
 4096SOL     OW23749   0.185   0.458   0.155  0.3250 -0.3267 -0.4914
 4096SOL    HW123750   0.189   0.451   0.059  0.5038  0.7145 -0.5559
 4096SOL    HW223751   0.262   0.512   0.173 -0.0883  0.4635 -1.0751
 4097SOL     OW23752   0.772   0.953  16.665 -0.2896 -0.1748  0.0945
 4097SOL    HW123753   0.778   0.943  16.760  2.8878 -1.8565 -0.3093
 4097SOL    HW223754   0.763   1.048  16.668  0.7443 -0.0476 -1.3761
 4098SOL     OW23755   2.277   4.076   6.709 -0.2881 -0.0758  0.0612
 4098SOL    HW123756   2.247   4.007   6.768 -0.9986 -0.0369 -0.2566
 4098SOL    HW223757   2.299   4.030   6.627 -0.2177 -1.2796  0.7582
 4099SOL     OW23758   4.197   4.641   5.888  0.7343  0.0263  0.0724
 4099SOL    HW123759   4.262   4.692   5.839  0.4488  1.3489  1.0587
 4099SOL    HW223760   4.154   4.710   5.938  0.6751 -0.6044  0.8853
 4100SOL     OW23761   0.133   2.871  13.706  0.3591  0.3473  0.0289
 4100SOL    HW123762   0.178   2.950  13.738  3.2225 -0.2626 -2.4474
 4100SOL    HW223763   0.109   2.892  13.616  1.1363  1.1159 -0.0094
 4101SOL     OW23764   0.347   3.706  11.092  0.6986  0.0903 -0.0347
 4101SOL    HW123765   0.346   3.703  11.188 -0.4909 -1.1547 -0.0898
 4101SOL    HW223766   0.274   3.767  11.076  0.2442 -0.2211  0.8626
 4102SOL     OW23767   3.036   1.451  15.501 -0.1854  0.1790 -0.0760
 4102SOL    HW123768   3.042   1.478  15.593 -1.8107  0.2630  0.0091
 4102SOL    HW223769   3.057   1.536  15.462 -0.0232  0.5091  0.7241
 4103SOL     OW23770   3.860   0.868   6.511  0.3166 -0.0170  0.1605
 4103SOL    HW123771   3.914   0.881   6.588  0.7104 -0.8669  0.0350
 4103SOL    HW223772   3.830   0.958   6.504 -0.2769 -0.0969  1.5677
 4104SOL     OW23773   3.264   4.703   2.254 -0.0594 -0.3305  0.6056
 4104SOL    HW123774   3.250   4.701   2.160  2.5698 -0.7980  0.2547
 4104SOL    HW223775   3.343   0.033   2.257 -0.7003  0.6604 -0.1646
 4105SOL     OW23776   0.237   0.069  15.629 -0.6727  0.1562 -0.4074
 4105SOL    HW123777   0.144   0.054  15.612 -0.3179 -0.1187 -2.1703
 4105SOL    HW223778   0.272   4.713  15.589 -2.1112 -0.2649 -0.8464
 4106SOL     OW23779   0.193   0.535   3.170 -0.1825  0.0406 -0.4656
 4106SOL    HW123780   0.277   0.489   3.170 -0.7349 -0.9685  0.5900
 4106SOL    HW223781   0.218   0.611   3.117 -0.0573 -0.5632 -1.2715
 4107SOL     OW23782   2.260   4.293   3.787 -0.1933  0.2520 -0.4021
 4107SOL    HW123783   2.348   4.288   3.751 -0.1015 -1.4791  0.0424
 4107SOL    HW223784   2.246   4.381   3.822 -0.8249 -0.8142  2.0487
 4108SOL     OW23785   1.703   2.288   1.164  0.1856 -0.2094  0.7445
 4108SOL    HW123786   1.610   2.312   1.165  0.0144 -1.0058  2.5462
 4108SOL    HW223787   1.701   2.223   1.094  3.4283 -0.1029  0.5336
 4109SOL     OW23788   2.940   2.218   6.067 -0.2490 -0.1325 -0.3021
 4109SOL    HW123789   2.930   2.253   6.156 -0.8066 -1.3292  0.1084
 4109SOL    HW223790   2.862   2.259   6.030 -1.3363 -1.5992  0.3821
 4110SOL     OW23791   0.208   3.750  17.161  0.3139 -0.2820 -0.6311
 4110SOL    HW123792   0.239   3.675  17.212 -0.0670  0.8405  1.2554
 4110SOL    HW223793   0.156   3.803  17.221  1.3151  1.2710 -1.1103
 4111SOL     OW23794   2.199   1.100   5.961 -0.1078 -0.0446  0.0294
 4111SOL    HW123795   2.194   1.190   5.994 -3.8925 -0.4821  0.6026
 4111SOL    HW223796   2.153   1.055   6.032  0.7785 -0.8959  0.0754
 4112SOL     OW23797   2.253   0.219   4.496  0.2434 -0.0234  0.1497
 4112SOL    HW123798   2.269   0.300   4.545 -3.7762  1.7966 -1.5014
 4112SOL    HW223799   2.315   0.229   4.424  3.0251  0.5093  2.5900
 4113SOL     OW23800   1.154   3.302   2.166 -0.1834 -0.3550  0.6284
 4113SOL    HW123801   1.147   3.397   2.156 -2.9967 -0.5644  0.5999
 4113SOL    HW223802   1.236   3.294   2.117 -0.6352  1.8308 -0.4992
 4114SOL     OW23803   1.231   3.258  15.756 -0.2633 -0.2302  0.0255
 4114SOL    HW123804   1.174   3.190  15.791  0.9162 -0.9554  0.5262
 4114SOL    HW223805   1.308   3.256  15.814  0.4284 -0.8085 -0.9089
 4115SOL     OW23806   2.362   4.385  13.533  0.8113 -0.4587  0.7692
 4115SOL    HW123807   2.372   4.475  13.501 -1.6390 -1.3042 -2.3551
 4115SOL    HW223808   2.400   4.337  13.460 -1.0912  1.0478 -1.1963
 4116SOL     OW23809   3.011   4.515  10.846  0.2320  0.6588 -0.7537
 4116SOL    HW123810   2.919   4.514  10.873 -0.6132 -1.0858 -3.7284
 4116SOL    HW223811   3.007   4.493  10.753 -0.7829 -1.7520 -0.1593
 4117SOL     OW23812   1.177   0.702   7.097  0.5170  0.1981 -0.3213
 4117SOL    HW123813   1.119   0.753   7.040 -0.4431 -1.5176 -0.8740
 4117SOL    HW223814   1.120   0.688   7.172 -1.2034  1.3686 -1.4074
 4118SOL     OW23815   0.219   2.114  15.591  0.0592  0.3614  0.2652
 4118SOL    HW123816   0.252   2.190  15.639 -3.4402  2.5034 -0.7039
 4118SOL    HW223817   0.294   2.059  15.612 -1.4032 -1.2530  1.3012
 4119SOL     OW23818   1.547   2.646   9.164 -0.1970  0.0740 -0.0048
 4119SOL    HW123819   1.535   2.561   9.206 -0.3159  0.1394  0.0929
 4119SOL    HW223820   1.643   2.650   9.165 -0.1935 -0.4736  1.2825
 4120SOL     OW23821   2.512   0.131   6.885  0.3717  0.0052  0.0162
 4120SOL    HW123822   2.574   0.193   6.846  2.5755 -2.6900 -0.7779
 4120SOL    HW223823   2.466   0.117   6.802 -0.3271 -1.2864  0.6202
 4121SOL     OW23824   0.680   3.906   1.426 -0.0821  0.3788  0.0644
 4121SOL    HW123825   0.665   3.864   1.342  1.0541  1.6278 -0.7477
 4121SOL    HW223826   0.710   3.830   1.476  0.1265 -0.0755 -0.7605
 4122SOL     OW23827   1.389   2.655   4.103  0.7066 -0.3415  0.5555
 4122SOL    HW123828   1.342   2.588   4.153 -0.3127 -0.5678 -0.7169
 4122SOL    HW223829   1.327   2.677   4.033  3.1512  1.9873 -0.9010
 4123SOL     OW23830   2.548   3.025  14.172  0.6569  0.1458 -0.6874
 4123SOL    HW123831   2.571   3.007  14.081 -0.6537 -0.9201 -0.8151
 4123SOL    HW223832   2.634   3.038  14.212 -0.6567  1.5614  1.6727
 4124SOL     OW23833   4.377   0.035   3.802  0.1784 -0.6908  0.0386
 4124SOL    HW123834   4.411   0.038   3.891  1.1913  1.9004 -0.4297
 4124SOL    HW223835   4.464   0.052   3.767 -0.3030  1.3989 -0.1444
 4125SOL     OW23836   0.483   0.075   8.336 -0.0650 -0.0568  0.2074
 4125SOL    HW123837   0.530   4.716   8.324 -0.2591 -0.2527  0.7891
 4125SOL    HW223838   0.486   0.114   8.249  0.9754 -1.0090 -0.2003
 4126SOL     OW23839   0.239   4.100   6.372  0.1852  0.0245 -0.1272
 4126SOL    HW123840   0.267   4.183   6.333  1.0475  1.0437  2.7325
 4126SOL    HW223841   0.316   4.094   6.429  1.4207  0.0533 -1.7885
 4127SOL     OW23842   4.408   4.335   6.985 -0.3568 -0.0388 -0.3543
 4127SOL    HW123843   4.432   4.245   7.009  0.3541  0.7886  2.0290
 4127SOL    HW223844   4.418   4.334   6.890 -1.6242  1.2789 -0.4940
 4128SOL     OW23845   1.609   1.775   6.452 -0.0625 -0.7096  0.0534
 4128SOL    HW123846   1.644   1.806   6.536 -1.8002  1.8006 -0.1315
 4128SOL    HW223847   1.696   1.753   6.419  1.5127  2.6969  1.9344
 4129SOL     OW23848   0.955   4.437   6.226  0.3753 -0.2264  0.0733
 4129SOL    HW123849   0.870   4.475   6.204  0.1554 -0.2415  0.8968
 4129SOL    HW223850   0.943   4.344   6.210  1.4883 -0.2166 -0.8405
 4130SOL     OW23851   0.882   1.662   4.087 -0.1203 -0.2231  0.2097
 4130SOL    HW123852   0.841   1.577   4.106 -1.4773  0.1642 -0.9857
 4130SOL    HW223853   0.846   1.696   4.005 -0.2519  1.8196  1.1030
 4131SOL     OW23854   0.837   2.421   7.426  0.0090  0.4358  0.2227
 4131SOL    HW123855   0.830   2.510   7.392  0.6175  0.4774  0.2142
 4131SOL    HW223856   0.926   2.420   7.461  0.1224 -2.0266 -0.0894
 4132SOL     OW23857   3.694   4.472  12.017  0.2076 -0.1998 -0.3680
 4132SOL    HW123858   3.643   4.531  12.074 -0.3588 -0.6581 -0.3958
 4132SOL    HW223859   3.748   4.431  12.085  1.3213  0.6680 -0.7357
 4133SOL     OW23860   2.465   2.799   0.311  0.2104 -0.0547  0.2436
 4133SOL    HW123861   2.446   2.790   0.404  0.8001  0.1523  0.3896
 4133SOL    HW223862   2.378   2.793   0.272  0.6643 -0.6492 -0.6780
 4134SOL     OW23863   4.721   3.035   3.500  0.2375 -0.0070 -0.4813
 4134SOL    HW123864   0.018   3.071   3.586  1.3100 -1.2617 -0.2110
 4134SOL    HW223865   0.085   3.004   3.476  0.8657  0.1000  1.6962
 4135SOL     OW23866   0.013   0.120   0.084 -0.1600 -0.4500  0.0201
 4135SOL    HW123867   4.679   0.048   0.058 -1.0611  0.5918 -0.8439
 4135SOL    HW223868   0.011   0.174   0.005 -2.2597  0.0754  0.4379
 4136SOL     OW23869   0.264   0.740   8.166  0.4502 -0.5192 -0.1041
 4136SOL    HW123870   0.346   0.727   8.214  2.8362 -0.1733 -4.1087
 4136SOL    HW223871   0.298   0.779   8.086 -0.4770 -0.0729 -0.2753
 4137SOL     OW23872   2.073   2.100  10.052  0.0549 -0.0533  1.1537
 4137SOL    HW123873   2.017   2.080  10.127 -0.0516 -1.4650  0.7135
 4137SOL    HW223874   2.160   2.098  10.092  1.5155 -0.3922 -2.0665
 4138SOL     OW23875   4.655   0.135   5.391 -0.1930 -0.2148  0.8687
 4138SOL    HW123876   4.587   0.156   5.327  0.5968  0.3214  0.2015
 4138SOL    HW223877   0.002   0.102   5.335 -0.6825  1.5818 -0.8212
 4139SOL     OW23878   2.500   0.789   1.340  0.3616 -0.1732  0.1930
 4139SOL    HW123879   2.460   0.778   1.253 -0.6192 -0.5144  0.6941
 4139SOL    HW223880   2.593   0.800   1.316 -0.0963  0.0363 -1.5230
 4140SOL     OW23881   4.705   2.732   3.367 -0.4583 -0.0667  0.2006
 4140SOL    HW123882   0.028   2.657   3.404 -0.2050  0.2851  0.5904
 4140SOL    HW223883   0.008   2.812   3.412 -0.4195  0.7988 -1.3357
 4141SOL     OW23884   3.874   1.319   8.081 -0.2727 -0.2237 -0.0178
 4141SOL    HW123885   3.909   1.321   8.171  1.6595 -3.1464 -0.7277
 4141SOL    HW223886   3.952   1.358   8.042 -0.3523  2.5636  2.5595
 4142SOL     OW23887   1.746   0.616  17.427 -0.3941 -1.0277 -0.6867
 4142SOL    HW123888   1.654   0.643  17.423 -0.3046 -0.8016 -1.3243
 4142SOL    HW223889   1.756   0.612  17.522  2.6792  0.9153 -0.9302
 4143SOL     OW23890   4.373   3.324   5.610 -0.5711  0.0124  0.3989
 4143SOL    HW123891   4.324   3.371   5.542 -0.7008 -1.2766 -0.3956
 4143SOL    HW223892   4.418   3.400   5.649 -0.5628  0.2173 -0.0134
 4144SOL     OW23893   4.433   3.845  11.359  0.1589 -0.3860 -0.1587
 4144SOL    HW123894   4.368   3.823  11.425 -0.8993 -1.2223 -1.4869
 4144SOL    HW223895   4.379   3.902  11.303 -0.9254 -0.8744  0.3917
 4145SOL     OW23896   0.268   1.267  14.075 -0.0498  0.3241 -0.2220
 4145SOL    HW123897   0.247   1.174  14.067 -1.7685  0.6182  0.7782
 4145SOL    HW223898   0.334   1.285  14.008  0.8725  1.2422  0.9248
 4146SOL     OW23899   1.349   0.580   5.575 -0.2708  0.3471 -0.0997
 4146SOL    HW123900   1.365   0.556   5.667  1.6913 -1.7784 -1.0073
 4146SOL    HW223901   1.338   0.675   5.578  1.1481  0.5004  0.3855
 4147SOL     OW23902   0.507   2.725   7.312  0.1443  0.1003 -0.7470
 4147SOL    HW123903   0.464   2.748   7.394 -0.2031 -0.1243 -0.8641
 4147SOL    HW223904   0.441   2.715   7.243 -1.7167 -1.3263  1.2812
 4148SOL     OW23905   4.329   2.207  11.552  0.2397 -0.3055  0.0018
 4148SOL    HW123906   4.259   2.267  11.528 -0.0437 -1.1283 -1.2528
 4148SOL    HW223907   4.279   2.161  11.619  0.5544  0.5544  0.8277
 4149SOL     OW23908   3.129   3.745   0.341 -0.0892  0.7920  0.4086
 4149SOL    HW123909   3.106   3.767   0.251  1.5200  2.1916  0.3295
 4149SOL    HW223910   3.103   3.654   0.352  2.5655 -0.1686 -1.3871
 4150SOL     OW23911   1.710   0.078  14.654  0.4320 -0.0215 -0.0871
 4150SOL    HW123912   1.762   0.020  14.598  1.3888  0.5812  0.1982
 4150SOL    HW223913   1.756   0.072  14.737  0.8754 -1.2478 -0.4191
 4151SOL     OW23914   1.649   1.124   8.755  0.2432  0.5185  0.3714
 4151SOL    HW123915   1.627   1.039   8.792  2.3025  0.0205  0.4409
 4151SOL    HW223916   1.643   1.111   8.660 -3.5412  4.2205  0.1056
 4152SOL     OW23917   4.470   4.131   7.489 -0.2022  0.2120 -0.1600
 4152SOL    HW123918   4.442   4.104   7.576 -0.1030 -1.6866 -0.7131
 4152SOL    HW223919   4.447   4.224   7.490  2.8609  0.9610 -0.8761
 4153SOL     OW23920   0.035   0.652   2.512  0.2611  0.0561 -0.2568
 4153SOL    HW123921   4.664   0.665   2.506  0.5611  1.6734 -1.4575
 4153SOL    HW223922   0.061   0.722   2.453  2.2160 -1.2028 -0.8823
 4154SOL     OW23923   1.611   3.623  16.539  0.2812 -0.1671  0.0405
 4154SOL    HW123924   1.625   3.646  16.631 -0.6306  0.5816 -0.0123
 4154SOL    HW223925   1.703   3.615  16.515  0.2161 -1.9836  0.3933
 4155SOL     OW23926   2.421   2.199   5.891  0.8499 -0.2006  0.4844
 4155SOL    HW123927   2.438   2.194   5.986 -0.2627 -1.4437  0.6266
 4155SOL    HW223928   2.325   2.199   5.887  0.8507 -0.7211  0.3731
 4156SOL     OW23929   1.962   4.592   8.834 -0.2928 -0.0980  0.0136
 4156SOL    HW123930   1.876   4.550   8.840  0.2715 -1.3770 -0.7782
 4156SOL    HW223931   1.950   4.675   8.879 -2.5739 -0.5424  0.2235
 4157SOL     OW23932   4.625   2.816   5.097 -0.6263  0.6589 -0.0322
 4157SOL    HW123933   4.598   2.894   5.145 -0.9224  0.0098  0.8723
 4157SOL    HW223934   4.545   2.782   5.059  1.1772 -0.7211 -2.5730
 4158SOL     OW23935   0.293   4.142   5.055  0.1697  0.2293  0.1113
 4158SOL    HW123936   0.294   4.122   4.962 -0.6753  1.2655 -0.1256
 4158SOL    HW223937   0.197   4.151   5.054  0.0895 -0.9226 -2.2552
 4159SOL     OW23938   2.420   0.438  13.186  0.4473  0.4743 -0.4686
 4159SOL    HW123939   2.433   0.448  13.281 -0.0890  0.2406 -0.3702
 4159SOL    HW223940   2.436   0.344  13.180 -0.7551  0.0355  2.9135
 4160SOL     OW23941   2.829   2.537   0.343  0.1518 -0.3849 -0.7460
 4160SOL    HW123942   2.775   2.564   0.268  1.2502  3.0439 -0.3046
 4160SOL    HW223943   2.882   2.474   0.294 -0.7656 -1.7423  0.0105
 4161SOL     OW23944   0.689   0.205   0.967  0.5870 -0.6935 -0.0120
 4161SOL    HW123945   0.681   0.149   0.890 -3.2183  0.7482 -0.6897
 4161SOL    HW223946   0.778   0.178   0.990  0.3024 -0.2476  1.6010
 4162SOL     OW23947   1.048   0.884   7.809  0.4655  0.8225  0.6463
 4162SOL    HW123948   1.116   0.841   7.756  1.2483  0.5396  1.8724
 4162SOL    HW223949   1.108   0.953   7.838  1.0990  0.0864  1.0970
 4163SOL     OW23950   4.515   3.646   7.586  0.1960  0.7139 -0.2096
 4163SOL    HW123951   4.476   3.643   7.498 -0.0677  0.3963 -0.0820
 4163SOL    HW223952   4.605   3.614   7.594 -0.1317  0.3322  1.8768
 4164SOL     OW23953   0.347   3.230  13.568  0.1712 -0.7414 -0.1489
 4164SOL    HW123954   0.422   3.284  13.542 -0.1577 -1.6107 -2.9310
 4164SOL    HW223955   0.388   3.147  13.592  0.3262 -1.0425 -1.4356
 4165SOL     OW23956   3.220   4.279   2.185 -0.1271  0.1173  0.1778
 4165SOL    HW123957   3.169   4.358   2.171 -3.2794 -1.8283  0.6919
 4165SOL    HW223958   3.156   4.220   2.224  0.6655 -1.0845 -0.2990
 4166SOL     OW23959   4.590   1.816   4.923 -0.5681  0.6226 -0.0130
 4166SOL    HW123960   4.569   1.860   5.005 -1.5219  0.4018 -0.1314
 4166SOL    HW223961   4.574   1.889   4.863  1.8638  0.5060 -0.7828
 4167SOL     OW23962   1.390   3.107   3.662  0.6220  0.2803 -0.1619
 4167SOL    HW123963   1.419   3.041   3.725 -1.4415 -1.2307 -0.8100
 4167SOL    HW223964   1.460   3.170   3.679  0.7333  0.3007 -0.6732
 4168SOL     OW23965   0.266   3.457   0.029 -0.0459  0.1836  0.2988
 4168SOL    HW123966   0.315   3.434  17.648 -0.5877  2.1442 -0.6011
 4168SOL    HW223967   0.290   3.549   0.018 -2.5023  0.7422 -0.4696
 4169SOL     OW23968   3.633   0.413   7.047 -0.0982 -0.3855  0.1208
 4169SOL    HW123969   3.586   0.377   6.971 -1.4221  1.3077  0.1069
 4169SOL    HW223970   3.567   0.404   7.116 -0.0801 -1.1093  0.0416
 4170SOL     OW23971   2.682   4.335  13.432 -0.4270  0.3278  0.2830
 4170SOL    HW123972   2.771   4.327  13.397 -0.9460  0.7530 -1.1636
 4170SOL    HW223973   2.643   4.267  13.377 -0.4885  0.5205  0.0870
 4171SOL     OW23974   0.776   3.638  15.261 -0.1440 -0.0557 -0.3257
 4171SOL    HW123975   0.730   3.721  15.272  0.0857  0.2417 -1.6279
 4171SOL    HW223976   0.768   3.611  15.169  1.1789  0.2699 -0.5398
 4172SOL     OW23977   4.176   2.031   6.283 -0.2688 -0.0162  0.4447
 4172SOL    HW123978   4.123   2.111   6.290 -0.8084 -0.2654 -0.8920
 4172SOL    HW223979   4.230   2.034   6.361  1.4198 -0.2025 -0.7292
 4173SOL     OW23980   0.110   1.089   0.329 -0.2607  0.0995  0.0908
 4173SOL    HW123981   0.051   1.058   0.260  0.9801  1.9471 -1.8091
 4173SOL    HW223982   0.052   1.088   0.406 -0.5225 -1.5324 -0.1146
 4174SOL     OW23983   4.278   3.495   7.430 -0.0081 -0.4136  0.3763
 4174SOL    HW123984   4.214   3.523   7.495  1.0440 -2.6797  2.3725
 4174SOL    HW223985   4.219   3.469   7.359 -2.9845  3.8487  1.2787
 4175SOL     OW23986   3.620   3.301   4.804 -0.2027 -0.3353 -0.2524
 4175SOL    HW123987   3.561   3.330   4.734 -0.8421  0.5048  0.6430
 4175SOL    HW223988   3.560   3.269   4.870 -0.8246 -0.4783 -0.8856
 4176SOL     OW23989   1.661   3.268   4.881  0.4148 -0.0426 -0.2168
 4176SOL    HW123990   1.699   3.185   4.851 -4.4850 -1.6857 -1.7604
 4176SOL    HW223991   1.569   3.244   4.876  0.7387 -0.9315 -2.0053
 4177SOL     OW23992   0.199   1.703   6.108  0.2227  0.1374  0.2522
 4177SOL    HW123993   0.260   1.772   6.084 -0.4452  0.4371 -0.5744
 4177SOL    HW223994   0.264   1.633   6.119 -1.0833 -1.2033 -0.5126
 4178SOL     OW23995   3.945   1.939   0.965  0.0821 -0.2542  0.1173
 4178SOL    HW123996   4.023   1.908   0.918 -0.7513 -0.4592 -1.1459
 4178SOL    HW223997   3.987   1.978   1.041 -0.1708  1.5925 -0.6941
 4179SOL     OW23998   2.618   1.527   3.412  0.1821 -0.1972 -0.3671
 4179SOL    HW123999   2.709   1.514   3.438 -1.0677 -1.7237  3.3083
 4179SOL    HW224000   2.567   1.496   3.487  0.7233  0.4206  0.2510
 4180SOL     OW24001   2.235   1.506   7.601 -0.2365 -0.6969  0.1182
 4180SOL    HW124002   2.265   1.434   7.657  0.2946 -2.8300 -2.9667
 4180SOL    HW224003   2.163   1.539   7.656 -0.0027  0.3306 -0.1974
 4181SOL     OW24004   0.568   4.121   4.876  0.3177  0.1149  0.0136
 4181SOL    HW124005   0.476   4.110   4.852  0.6419 -0.4045 -0.9802
 4181SOL    HW224006   0.604   4.164   4.799  1.2594  1.0459  0.9800
 4182SOL     OW24007   0.131   3.057  14.910 -0.2988 -0.0176  0.5309
 4182SOL    HW124008   0.121   3.058  14.815  1.9753 -0.6640  0.2703
 4182SOL    HW224009   0.072   2.983  14.924  1.2980 -1.2050  1.0069
 4183SOL     OW24010   2.116   2.645   4.053 -0.7928 -0.7026 -0.0379
 4183SOL    HW124011   2.193   2.689   4.087  0.0057 -0.7309 -1.8120
 4183SOL    HW224012   2.077   2.700   3.985  0.3280  2.4646  1.8855
 4184SOL     OW24013   4.663   0.318  16.689  1.0928 -0.3100  0.1930
 4184SOL    HW124014   0.016   0.375  16.700  0.8390 -0.1753  1.3436
 4184SOL    HW224015   4.587   0.365  16.723  1.1290  0.2131 -0.4503
 4185SOL     OW24016   1.089   2.699  11.314  0.4414 -0.1262 -0.5036
 4185SOL    HW124017   1.157   2.766  11.310 -0.3856  0.7255 -0.4663
 4185SOL    HW224018   1.006   2.746  11.309  1.9408  2.1171 -4.0461
 4186SOL     OW24019   1.358   1.841   8.196  0.0756  0.5368  0.0065
 4186SOL    HW124020   1.396   1.919   8.156 -0.1683  0.2038 -0.8782
 4186SOL    HW224021   1.345   1.863   8.288  0.4199  3.3328 -0.6154
 4187SOL     OW24022   0.336   1.211   2.371 -0.1145  0.3109 -0.6201
 4187SOL    HW124023   0.260   1.268   2.360 -1.3049 -1.3713 -1.1339
 4187SOL    HW224024   0.332   1.169   2.285 -0.8221 -1.0036  0.0592
 4188SOL     OW24025   4.055   0.684  11.521 -0.4471 -0.2672 -0.6406
 4188SOL    HW124026   3.990   0.750  11.501  0.3240  0.7249  0.1122
 4188SOL    HW224027   4.090   0.721  11.602 -0.5172 -0.6374 -0.4405
 4189SOL     OW24028   0.319   0.998   5.819  0.0118  0.6881  0.1707
 4189SOL    HW124029   0.350   0.984   5.729  0.6806 -2.9837  0.9612
 4189SOL    HW224030   0.319   1.094   5.820 -0.1532  0.6921 -0.4292
 4190SOL     OW24031   0.806   3.348  12.320 -0.2446  0.1250 -0.3661
 4190SOL    HW124032   0.893   3.361  12.358 -1.1113  0.7316  1.3906
 4190SOL    HW224033   0.807   3.254  12.302  3.0063 -0.3019  2.0318
 4191SOL     OW24034   3.623   1.582  12.254 -0.5935 -0.7810 -0.0127
 4191SOL    HW124035   3.576   1.642  12.313  0.2472 -1.3981  1.2715
 4191SOL    HW224036   3.549   1.522  12.241 -0.3612 -1.2986  1.1027
 4192SOL     OW24037   2.775   3.566   6.604 -0.1051  0.0577  0.1257
 4192SOL    HW124038   2.713   3.639   6.610 -0.9952 -0.8873  2.3331
 4192SOL    HW224039   2.728   3.497   6.650 -0.0197  0.5639  0.9616
 4193SOL     OW24040   0.328   1.018   0.855  0.4281 -0.2871  0.1446
 4193SOL    HW124041   0.394   0.960   0.816 -0.8311 -4.3551  4.0854
 4193SOL    HW224042   0.276   0.959   0.909 -0.2986  1.3954  1.2635
 4194SOL     OW24043   0.141   3.090   6.888  0.0332 -0.0717  0.3286
 4194SOL    HW124044   0.176   3.142   6.816  1.6329  1.3144  2.0896
 4194SOL    HW224045   0.063   3.145   6.901  0.0606  0.5058 -2.0499
 4195SOL     OW24046   3.615   1.545  15.349 -0.1230  0.1537  0.0588
 4195SOL    HW124047   3.649   1.530  15.261  0.5179  1.2043  0.1359
 4195SOL    HW224048   3.654   1.628  15.376 -0.8612  0.6038 -0.2493
 4196SOL     OW24049   0.949   3.651   6.808 -0.4228  0.3696  0.0362
 4196SOL    HW124050   0.991   3.567   6.829  0.0984  0.2992 -1.2278
 4196SOL    HW224051   0.946   3.640   6.713  1.8721 -1.4142  0.1634
 4197SOL     OW24052   4.050   3.493   3.546  0.0045 -0.1302  0.2078
 4197SOL    HW124053   3.971   3.532   3.507  0.3252 -0.7323 -1.0486
 4197SOL    HW224054   3.998   3.450   3.615 -1.0670 -2.0893 -1.8123
 4198SOL     OW24055   3.491   3.384  11.365  0.1780 -0.3679  0.0580
 4198SOL    HW124056   3.545   3.369  11.443  0.5234  1.9310  0.2680
 4198SOL    HW224057   3.407   3.392  11.410 -0.7498  1.2102 -1.9265
 4199SOL     OW24058   3.968   1.783   3.336  0.2466 -0.0441 -0.2376
 4199SOL    HW124059   4.026   1.789   3.412 -0.3029 -0.8043  0.2393
 4199SOL    HW224060   4.027   1.793   3.261  1.8711  0.9613  1.1853
 4200SOL     OW24061   3.322   2.608   6.652  0.4181 -0.2070  0.2226
 4200SOL    HW124062   3.375   2.622   6.573 -0.6362 -1.5674 -0.7411
 4200SOL    HW224063   3.376   2.648   6.720 -0.2732 -1.6721  1.6344
 4201SOL     OW24064   4.711   2.884   7.186 -0.7267 -0.9261  0.3108
 4201SOL    HW124065   0.023   2.808   7.142 -1.3824 -0.9895 -0.1251
 4201SOL    HW224066   4.650   2.928   7.126  0.4259  2.9562  1.9347
 4202SOL     OW24067   3.706   3.113   8.703 -0.7382  0.4021  0.3919
 4202SOL    HW124068   3.661   3.031   8.681  2.0447 -0.5268 -1.8180
 4202SOL    HW224069   3.744   3.091   8.789  0.0276 -0.5265 -0.1826
 4203SOL     OW24070   3.927   0.028  13.996  0.6042 -0.0643  0.4342
 4203SOL    HW124071   3.878   0.048  14.075  1.8589  1.0696  0.9359
 4203SOL    HW224072   3.861   0.024  13.927  0.1432  1.1520  0.8052
 4204SOL     OW24073   3.663   3.280   6.602  0.1236  0.4401 -0.3632
 4204SOL    HW124074   3.686   3.210   6.663 -0.1122 -0.9326 -1.8302
 4204SOL    HW224075   3.665   3.239   6.515 -2.2514  1.9014 -1.0939
 4205SOL     OW24076   1.210   2.001  15.110 -0.4817 -0.2306  0.0235
 4205SOL    HW124077   1.165   2.031  15.031  1.3155 -0.9264 -1.2577
 4205SOL    HW224078   1.258   2.079  15.138  0.8602 -1.0807  0.0741
 4206SOL     OW24079   3.758   0.841   4.688 -0.3966 -0.4906  0.9387
 4206SOL    HW124080   3.852   0.855   4.692 -0.5314  0.6203  0.4227
 4206SOL    HW224081   3.740   0.923   4.735 -1.3011 -1.0543  1.5812
 4207SOL     OW24082   0.973   3.287   5.747  0.0930 -0.3684 -0.1204
 4207SOL    HW124083   0.970   3.334   5.664 -0.2015  2.9514  1.8024
 4207SOL    HW224084   1.052   3.234   5.746  0.3847  0.0255  2.2359
 4208SOL     OW24085   1.655   1.082  11.149 -0.2520  0.0649  0.2989
 4208SOL    HW124086   1.607   1.088  11.232 -2.6469  1.4446 -1.1587
 4208SOL    HW224087   1.666   0.988  11.157  1.9057  0.3526  0.5375
 4209SOL     OW24088   1.804   2.103   6.659 -0.0185 -0.0549 -0.3020
 4209SOL    HW124089   1.778   2.014   6.684 -0.3021  0.3191  0.7681
 4209SOL    HW224090   1.719   2.147   6.651 -1.0225 -1.4779  2.3053
 4210SOL     OW24091   0.860   2.462   6.967 -0.3404 -0.2069  0.2659
 4210SOL    HW124092   0.770   2.493   6.960 -0.0757 -0.2538 -3.2313
 4210SOL    HW224093   0.878   2.458   6.873 -3.3569 -2.3020 -0.2026
 4211SOL     OW24094   2.007   1.189   4.223 -0.3390 -0.1063  0.0788
 4211SOL    HW124095   2.012   1.194   4.319  2.0647  0.0675 -0.0419
 4211SOL    HW224096   1.924   1.144   4.212 -0.7267  0.8471 -0.8251
 4212SOL     OW24097   4.317   1.103   7.183 -0.2236  0.4485 -0.1474
 4212SOL    HW124098   4.278   1.052   7.112  1.7220 -0.3285 -0.6469
 4212SOL    HW224099   4.327   1.032   7.247 -2.8717 -0.4850 -0.7562
 4213SOL     OW24100   3.859   3.260   6.252  0.3424  0.3766  0.1050
 4213SOL    HW124101   3.776   3.301   6.276 -0.3002 -0.6153 -0.3965
 4213SOL    HW224102   3.874   3.312   6.172  0.3077  0.0890 -0.0897
 4214SOL     OW24103   3.340   4.178   2.673  0.0686 -0.1908  0.2112
 4214SOL    HW124104   3.339   4.197   2.766 -1.2554  1.3052 -0.1112
 4214SOL    HW224105   3.279   4.247   2.647  0.8976  0.7042  0.6139
 4215SOL     OW24106   1.075   0.926  15.821 -0.0073 -0.5340 -0.4259
 4215SOL    HW124107   1.071   0.926  15.917  0.6475 -2.4112 -0.4043
 4215SOL    HW224108   1.031   0.845  15.796 -0.2806  0.0545 -1.8858
 4216SOL     OW24109   3.548   4.607  11.479  0.1262  0.1018 -0.4711
 4216SOL    HW124110   3.483   4.598  11.549 -0.6730  1.5443 -1.0451
 4216SOL    HW224111   3.494   4.615  11.400 -0.6253 -1.7076 -0.1456
 4217SOL     OW24112   1.125   2.548   6.290 -0.6873  0.5319 -0.0416
 4217SOL    HW124113   1.152   2.640   6.293  0.3816  0.2207 -0.1287
 4217SOL    HW224114   1.146   2.524   6.381  0.0248 -0.1900 -0.3980
 4218SOL     OW24115   2.160   3.108   2.677  0.0880 -0.1313 -0.6418
 4218SOL    HW124116   2.196   3.030   2.634 -0.8005 -1.5687  1.2156
 4218SOL    HW224117   2.084   3.134   2.625 -0.6929 -0.4424  0.3377
 4219SOL     OW24118   4.465   4.472   4.221 -0.0517  0.0457  0.5833
 4219SOL    HW124119   4.440   4.536   4.154  2.8793 -0.2551 -0.8027
 4219SOL    HW224120   4.457   4.525   4.301 -0.2547 -0.6613  1.0269
 4220SOL     OW24121   4.174   1.787   8.490  0.2894 -0.1279 -0.5110
 4220SOL    HW124122   4.131   1.843   8.426 -1.8167 -1.5624 -0.3535
 4220SOL    HW224123   4.118   1.791   8.568  0.0420 -2.0318 -0.5978
 4221SOL     OW24124   1.318   3.643  14.390 -0.0049  0.4969  0.3379
 4221SOL    HW124125   1.307   3.716  14.450 -1.3687  1.4172 -1.0396
 4221SOL    HW224126   1.410   3.629  14.412 -0.4570 -0.6730  1.5050
 4222SOL     OW24127   0.393   2.430  15.143 -0.8222 -0.5661 -0.0207
 4222SOL    HW124128   0.397   2.373  15.220 -2.9619 -0.7034 -0.0131
 4222SOL    HW224129   0.299   2.448  15.139 -0.7168 -0.5824 -2.6409
 4223SOL     OW24130   3.768   0.880   5.565  0.4742  0.4326  0.5629
 4223SOL    HW124131   3.742   0.905   5.476 -2.5380 -1.7238  0.8334
 4223SOL    HW224132   3.859   0.852   5.560  0.5855  0.9157 -0.2586
 4224SOL     OW24133   4.711   0.008   2.240 -0.0849 -0.0243 -0.0703
 4224SOL    HW124134   4.685   4.668   2.174 -0.9531 -0.3878  0.6359
 4224SOL    HW224135   4.706   0.080   2.177 -0.3233 -0.0398 -0.0700
 4225SOL     OW24136   2.591   3.399   8.332 -0.2973  0.1240 -0.0402
 4225SOL    HW124137   2.512   3.414   8.280 -0.2242  3.2369  0.7006
 4225SOL    HW224138   2.644   3.351   8.269  1.9736  1.5073  0.8139
 4226SOL     OW24139   4.523   1.192   0.396  0.2234 -0.1762 -0.2362
 4226SOL    HW124140   4.477   1.113   0.368  0.4387 -0.0384 -0.9732
 4226SOL    HW224141   4.601   1.165   0.444 -0.8257  2.7245  3.0701
 4227SOL     OW24142   4.355   0.262   6.895 -0.0636 -1.0592  0.1218
 4227SOL    HW124143   4.323   0.215   6.972  2.5143  0.0487  1.8307
 4227SOL    HW224144   4.388   0.185   6.849 -1.9060 -1.3550 -0.7331
 4228SOL     OW24145   2.664   4.432   2.999 -0.1041  0.5609 -0.0636
 4228SOL    HW124146   2.726   4.428   2.927 -0.8412 -0.6879 -0.6292
 4228SOL    HW224147   2.588   4.458   2.948  0.0766  0.8246 -0.1988
 4229SOL     OW24148   3.945   2.341   7.926 -0.4713  0.1506 -0.0453
 4229SOL    HW124149   3.851   2.322   7.914 -0.1726 -2.5478  1.9638
 4229SOL    HW224150   3.942   2.432   7.896  2.5329  0.2790  0.0717
 4230SOL     OW24151   3.709   0.818   7.854 -0.1495  0.1657 -0.4054
 4230SOL    HW124152   3.716   0.737   7.805  0.2306  0.5778 -1.0348
 4230SOL    HW224153   3.801   0.843   7.849  0.0662 -0.2585  1.4043
 4231SOL     OW24154   1.063   2.552   3.723  0.5012 -0.6340  0.3242
 4231SOL    HW124155   1.069   2.474   3.778  1.8204 -0.1184  0.9084
 4231SOL    HW224156   0.984   2.598   3.752  0.7756 -0.5963  1.0227
 4232SOL     OW24157   0.451   2.320   4.169 -0.1486 -0.1903  0.0947
 4232SOL    HW124158   0.406   2.249   4.215 -2.2718  1.2860  0.2681
 4232SOL    HW224159   0.502   2.266   4.107  4.4388  1.0885  2.7465
 4233SOL     OW24160   1.315   0.258   3.329 -0.1966  0.1829  0.0011
 4233SOL    HW124161   1.291   0.312   3.254 -0.8080 -0.7589 -0.4872
 4233SOL    HW224162   1.322   0.171   3.290  1.1529 -0.0651  0.8180
 4234SOL     OW24163   3.882   0.362  12.773  0.2189  0.1541 -1.1072
 4234SOL    HW124164   3.914   0.275  12.798  2.0102  0.5735 -1.9342
 4234SOL    HW224165   3.863   0.404  12.856 -2.0144 -3.1854  0.0866
 4235SOL     OW24166   3.489   0.830  17.614 -0.5099 -0.4365 -0.6757
 4235SOL    HW124167   3.548   0.833  17.689  0.7023 -1.6259 -1.5850
 4235SOL    HW224168   3.509   0.740  17.587  0.9571 -1.3172  3.3162
 4236SOL     OW24169   3.664   0.086   8.974  0.3156 -0.3055 -0.8962
 4236SOL    HW124170   3.626   0.080   9.062 -0.0091 -1.2106 -1.0973
 4236SOL    HW224171   3.672   0.181   8.978  0.3966 -0.3368 -0.2924
 4237SOL     OW24172   1.061   2.338  12.518 -0.0023 -0.8710  0.4616
 4237SOL    HW124173   1.011   2.275  12.467  0.8089 -1.9333  0.9844
 4237SOL    HW224174   1.026   2.306  12.600 -2.9518  1.3742  0.0829
 4238SOL     OW24175   1.292   0.529   0.605  0.1024  0.5358 -0.2689
 4238SOL    HW124176   1.362   0.480   0.649 -2.0868 -1.1613  1.3090
 4238SOL    HW224177   1.264   0.471   0.535  2.0738  1.1410 -1.5487
 4239SOL     OW24178   3.338   2.481   7.430  0.7620  0.1719 -0.3648
 4239SOL    HW124179   3.368   2.562   7.388 -0.1918  0.2242 -0.9397
 4239SOL    HW224180   3.382   2.492   7.514  0.6041 -2.5724  0.0640
 4240SOL     OW24181   1.947   2.264   5.000 -0.3952  0.0227  0.9106
 4240SOL    HW124182   2.001   2.226   5.068  0.1017  0.3971  0.7267
 4240SOL    HW224183   1.939   2.355   5.028 -0.7802  1.1032 -2.6059
 4241SOL     OW24184   1.113   3.338   5.990  0.1128  0.2183 -0.1957
 4241SOL    HW124185   1.126   3.245   5.969  0.4969 -0.0017  1.0614
 4241SOL    HW224186   1.037   3.352   5.932 -0.9613  2.0936  1.6671
 4242SOL     OW24187   0.507   1.033  12.590  0.2595 -0.2783  0.1963
 4242SOL    HW124188   0.480   0.966  12.528  1.4805  0.0165 -0.6604
 4242SOL    HW224189   0.453   1.100  12.548  0.0614 -2.0275 -2.3099
 4243SOL     OW24190   1.301   0.874  10.846  0.5548 -0.0845 -0.2096
 4243SOL    HW124191   1.361   0.931  10.894  4.0491 -1.3539 -3.0540
 4243SOL    HW224192   1.232   0.937  10.829  1.0343  0.3092 -0.7062
 4244SOL     OW24193   4.599   4.153   1.018  0.5917 -0.5755 -0.3769
 4244SOL    HW124194   4.541   4.087   0.982 -0.6946 -1.4042  3.1660
 4244SOL    HW224195   4.645   4.107   1.089 -0.6594 -1.4536 -0.1277
 4245SOL     OW24196   4.060   0.826   3.556  0.0935  0.2897 -0.3832
 4245SOL    HW124197   4.032   0.861   3.471  1.8731  0.0500 -1.0612
 4245SOL    HW224198   4.142   0.784   3.531  0.2787  0.8238 -0.6551
 4246SOL     OW24199   3.401   3.459  14.110  0.3372 -0.7180  0.1977
 4246SOL    HW124200   3.380   3.413  14.029 -0.6262 -0.3887  0.2570
 4246SOL    HW224201   3.318   3.500  14.134 -0.4217 -1.4452 -1.2073
 4247SOL     OW24202   4.245   3.698   4.778 -0.4142  0.3572 -0.1747
 4247SOL    HW124203   4.169   3.708   4.721 -0.7882 -1.2724  0.0373
 4247SOL    HW224204   4.216   3.648   4.854  1.1251 -0.1187  0.1040
 4248SOL     OW24205   1.599   2.461  17.175  0.0831 -0.1050  0.1956
 4248SOL    HW124206   1.579   2.370  17.195  2.4939 -0.2460  1.9175
 4248SOL    HW224207   1.509   2.491  17.160  0.4040 -0.0478 -1.6117
 4249SOL     OW24208   3.075   1.337   8.639 -0.3019  0.2756  0.0867
 4249SOL    HW124209   3.050   1.274   8.706 -1.2278 -0.1481 -0.6445
 4249SOL    HW224210   3.057   1.288   8.559 -3.1124  0.2431  0.7373
 4250SOL     OW24211   2.970   0.298   6.612  0.0300  0.4074 -0.6235
 4250SOL    HW124212   2.918   0.373   6.581  0.0416  0.8097  0.3387
 4250SOL    HW224213   3.031   0.356   6.657 -0.3221  0.2166  0.0990
 4251SOL     OW24214   2.268   0.633   4.786  0.5401 -0.1386 -0.2170
 4251SOL    HW124215   2.355   0.637   4.825 -0.5149 -1.2024  2.2112
 4251SOL    HW224216   2.278   0.678   4.702  0.2430 -3.3177 -1.9998
 4252SOL     OW24217   0.436   1.035   6.421 -0.1256 -0.1587 -0.3712
 4252SOL    HW124218   0.482   1.116   6.400  0.0775  0.1370  1.2417
 4252SOL    HW224219   0.504   0.979   6.458 -0.0372 -0.2883 -0.7289
 4253SOL     OW24220   3.931   1.439   8.639 -0.6363  0.0274  0.4745
 4253SOL    HW124221   3.881   1.358   8.627  2.4222 -1.9079  0.7834
 4253SOL    HW224222   3.886   1.491   8.572  0.6645  0.5445  0.0127
 4254SOL     OW24223   1.740   2.218   4.290  0.0560  0.5560  0.4150
 4254SOL    HW124224   1.790   2.281   4.342  0.2840  0.2168  0.6035
 4254SOL    HW224225   1.660   2.267   4.272  1.5654  2.4934 -1.0122
 4255SOL     OW24226   1.134   3.966   4.685 -0.3311  0.4228 -0.1796
 4255SOL    HW124227   1.220   4.006   4.673 -0.7874  1.5804  0.5094
 4255SOL    HW224228   1.070   4.027   4.720  0.0438  1.1731 -0.8121
 4256SOL     OW24229   2.040   1.680   2.498 -0.2006  0.6211 -0.5598
 4256SOL    HW124230   1.947   1.656   2.501 -0.1375  0.4599  0.2770
 4256SOL    HW224231   2.032   1.775   2.490 -3.5494  0.3489 -0.5715
 4257SOL     OW24232   0.104   0.644  16.432  0.2024 -0.5092 -0.1409
 4257SOL    HW124233   0.037   0.668  16.367  3.1677 -0.4652 -3.1938
 4257SOL    HW224234   0.177   0.630  16.372  2.0556  0.0816  2.0099
 4258SOL     OW24235   1.835   0.832  13.774  0.3223  0.0133  0.5768
 4258SOL    HW124236   1.927   0.839  13.800  1.1312  0.2724 -2.3776
 4258SOL    HW224237   1.840   0.756  13.716 -2.0095  0.5069 -0.2722
 4259SOL     OW24238   1.617   3.044   4.436 -0.1639  0.2029  0.0960
 4259SOL    HW124239   1.588   3.017   4.349  2.9722 -0.8656 -0.6345
 4259SOL    HW224240   1.590   2.971   4.492 -0.7467  0.7022  0.4593
 4260SOL     OW24241   2.424   0.446   5.581 -0.0087 -0.0006 -0.1931
 4260SOL    HW124242   2.507   0.493   5.573 -0.5475  0.7321 -1.3222
 4260SOL    HW224243   2.412   0.427   5.674 -0.9002  0.5473 -0.1973
 4261SOL     OW24244   0.501   2.735   1.833  0.6023  0.3087  1.0196
 4261SOL    HW124245   0.528   2.764   1.746 -1.2810  3.3016  1.4408
 4261SOL    HW224246   0.581   2.686   1.854  1.2311  0.7356 -0.3574
 4262SOL     OW24247   0.416   3.302   3.619 -0.4520  0.4237  0.0068
 4262SOL    HW124248   0.453   3.241   3.556 -1.4757 -0.7594  0.5598
 4262SOL    HW224249   0.326   3.310   3.586  0.0678  2.3802 -0.9826
 4263SOL     OW24250   1.279   3.083  14.876  0.2762 -0.0810 -0.0401
 4263SOL    HW124251   1.373   3.095  14.863  0.2177 -0.9310 -1.2599
 4263SOL    HW224252   1.258   3.135  14.953 -1.9567  0.3046 -0.9243
 4264SOL     OW24253   4.599   0.147   7.791  0.4666  0.3710 -0.2557
 4264SOL    HW124254   4.574   0.094   7.867  1.0395 -0.5319 -0.6962
 4264SOL    HW224255   4.690   0.167   7.815  1.0745 -2.0837 -0.4736
 4265SOL     OW24256   1.972   2.543  13.602  0.2817 -0.0579  0.1875
 4265SOL    HW124257   1.991   2.610  13.536 -0.0236  2.3647  2.5492
 4265SOL    HW224258   2.044   2.543  13.665 -0.0251  1.5257  0.5415
 4266SOL     OW24259   3.201   4.298   8.228  0.8524 -0.4574  0.1293
 4266SOL    HW124260   3.291   4.271   8.210  0.4518 -0.2157 -2.2217
 4266SOL    HW224261   3.185   4.281   8.321  0.9277 -1.0012  0.0444
 4267SOL     OW24262   3.124   0.206   0.965 -0.2861  0.0041 -0.1709
 4267SOL    HW124263   3.036   0.211   1.004 -1.0272  1.4172 -2.0215
 4267SOL    HW224264   3.150   0.298   0.970 -0.7334  0.0126  2.2979
 4268SOL     OW24265   0.685   2.314  14.736 -0.8022  0.1748 -0.1039
 4268SOL    HW124266   0.629   2.280  14.806 -0.3729 -1.1278 -0.3876
 4268SOL    HW224267   0.633   2.392  14.719 -0.5890  0.8391  2.3392
 4269SOL     OW24268   1.757   3.418  17.584 -0.1943  0.2881  0.3076
 4269SOL    HW124269   1.738   3.508  17.557  0.5305  0.4064  0.1858
 4269SOL    HW224270   1.821   3.384  17.521 -0.4118  0.9455 -0.2707
 4270SOL     OW24271   3.755   1.935   0.582  0.0911  0.0590  0.0175
 4270SOL    HW124272   3.744   1.882   0.661  0.3084 -0.9850 -0.6542
 4270SOL    HW224273   3.756   2.020   0.626 -0.1713  0.5613 -0.9326
 4271SOL     OW24274   0.190   3.986  10.195 -0.1136 -0.2683  0.3471
 4271SOL    HW124275   0.194   3.897  10.162  0.7822  0.6491 -2.0578
 4271SOL    HW224276   0.223   3.967  10.283  1.9101 -0.8314 -0.5442
 4272SOL     OW24277   0.796   2.437  12.326  0.6082  0.1801  0.6337
 4272SOL    HW124278   0.708   2.459  12.358  0.5561 -0.9856  1.2910
 4272SOL    HW224279   0.809   2.348  12.358  0.1037 -0.3124 -0.5422
 4273SOL     OW24280   1.370   4.050   9.464  0.0260  0.1790  0.3221
 4273SOL    HW124281   1.369   4.145   9.452  1.3592 -0.0876 -1.9497
 4273SOL    HW224282   1.427   4.043   9.541 -0.3848 -2.8248  0.3537
 4274SOL     OW24283   2.793   0.687  15.831 -0.2689 -0.1695 -0.5907
 4274SOL    HW124284   2.722   0.661  15.889  1.2020  0.9180  1.7053
 4274SOL    HW224285   2.749   0.726  15.755  0.1174 -0.5726 -1.0234
 4275SOL     OW24286   1.485   0.709  17.353  0.0299 -0.2464 -0.9940
 4275SOL    HW124287   1.422   0.739  17.288 -0.1180 -0.5412 -0.9892
 4275SOL    HW224288   1.469   0.776  17.419  1.2543  0.0265 -0.9776
 4276SOL     OW24289   2.779   4.419   5.134 -0.1908  0.8284 -0.3412
 4276SOL    HW124290   2.789   4.360   5.209 -0.8091  1.8846  0.5786
 4276SOL    HW224291   2.833   4.493   5.162 -0.8335  0.8850  0.7667
 4277SOL     OW24292   0.198   1.832  14.917 -0.4404 -0.4867 -0.4707
 4277SOL    HW124293   0.128   1.881  14.874  1.3732  0.9555 -1.7953
 4277SOL    HW224294   0.210   1.894  14.990  0.6055 -0.8806 -0.3135
 4278SOL     OW24295   4.449   4.716  10.939  0.5454  0.1721  0.4211
 4278SOL    HW124296   4.442   0.084  10.913 -0.3594  0.0432  0.1947
 4278SOL    HW224297   4.374   4.706  10.998 -2.6680  2.3070 -3.3091
 4279SOL     OW24298   1.588   2.452  15.778 -0.3260  0.1052  0.5598
 4279SOL    HW124299   1.575   2.523  15.715 -1.8738 -1.4218 -0.8160
 4279SOL    HW224300   1.510   2.461  15.832 -0.4948  0.9905  0.1723
 4280SOL     OW24301   2.091   3.427   8.418 -0.4968  0.1139 -0.2771
 4280SOL    HW124302   2.160   3.395   8.475  0.8680 -0.1812 -2.0842
 4280SOL    HW224303   2.134   3.498   8.371  1.3973 -0.9539 -0.1318
 4281SOL     OW24304   2.323   1.865   2.542 -0.4038  0.6724  0.2009
 4281SOL    HW124305   2.230   1.885   2.551 -0.7127 -0.0003 -1.5481
 4281SOL    HW224306   2.347   1.832   2.629 -0.4958 -0.9860 -0.4015
 4282SOL     OW24307   3.921   3.123   0.910 -0.2609  0.1725 -0.0967
 4282SOL    HW124308   3.912   3.209   0.950  2.2269  0.8206 -0.9444
 4282SOL    HW224309   3.953   3.149   0.824 -0.5367 -1.6157 -0.7417
 4283SOL     OW24310   2.084   3.444   8.054  0.0639 -0.1154  0.4921
 4283SOL    HW124311   2.100   3.476   8.142 -3.1777  0.0553  1.0063
 4283SOL    HW224312   2.171   3.453   8.014  1.4955 -3.3131  2.8991
 4284SOL     OW24313   3.651   2.564   1.269 -1.0382 -0.2273 -0.3338
 4284SOL    HW124314   3.646   2.592   1.178  0.7893 -0.3356 -0.4762
 4284SOL    HW224315   3.633   2.470   1.266 -1.4696 -0.1330 -0.6242
 4285SOL     OW24316   3.574   2.943   3.017  0.2111 -0.2259 -0.6596
 4285SOL    HW124317   3.632   2.880   3.060  1.0486  0.9115 -0.1481
 4285SOL    HW224318   3.632   2.963   2.943  0.6719 -0.5117 -0.3779
 4286SOL     OW24319   3.330   1.730   4.838  0.4555 -0.7410  0.0413
 4286SOL    HW124320   3.299   1.802   4.783  1.6816 -0.7419 -0.6391
 4286SOL    HW224321   3.418   1.717   4.803  0.9552 -0.1265  1.0469
 4287SOL     OW24322   4.671   1.257   5.729  0.4704 -0.2049  0.3550
 4287SOL    HW124323   4.599   1.282   5.786  1.5392 -0.3609  1.7938
 4287SOL    HW224324   4.629   1.287   5.648 -0.6408  2.0532  1.7672
 4288SOL     OW24325   3.014   0.302  15.499 -0.1296  0.0877 -0.8369
 4288SOL    HW124326   2.996   0.334  15.410 -1.1549 -1.2458 -1.1129
 4288SOL    HW224327   2.939   0.245  15.519 -0.5370  0.7857 -0.3628
 4289SOL     OW24328   2.759   4.109  17.564  0.0751  0.4297  0.2062
 4289SOL    HW124329   2.749   4.171  17.636  0.4541 -1.7793  2.1666
 4289SOL    HW224330   2.671   4.107  17.526 -0.4037 -1.5286  1.3885
 4290SOL     OW24331   1.603   3.647   8.640  0.2583 -0.1767 -0.1798
 4290SOL    HW124332   1.574   3.558   8.618  0.1701 -0.2567  0.2774
 4290SOL    HW224333   1.648   3.673   8.559 -0.4134  1.1386 -0.1169
 4291SOL     OW24334   3.828   0.577  15.413  0.7673 -0.2930 -0.7913
 4291SOL    HW124335   3.797   0.488  15.400  2.5704 -0.8323 -1.3749
 4291SOL    HW224336   3.827   0.579  15.509 -0.0377 -0.8014 -0.7899
 4292SOL     OW24337   0.415   4.637   7.926  0.1715  0.0782 -0.0731
 4292SOL    HW124338   0.412   0.002   7.960  2.4537 -0.3448  1.2652
 4292SOL    HW224339   0.510   4.623   7.934  0.3697  0.7904 -1.1944
 4293SOL     OW24340   4.028   0.372   3.696 -0.3995  0.1156  0.2018
 4293SOL    HW124341   4.014   0.407   3.608 -0.4998 -1.2349 -0.3163
 4293SOL    HW224342   4.115   0.408   3.711 -0.7268  1.0037 -0.0490
 4294SOL     OW24343   2.746   3.701   2.170 -0.6119 -0.1690  0.3669
 4294SOL    HW124344   2.716   3.659   2.250 -0.1559 -2.6500 -0.7384
 4294SOL    HW224345   2.733   3.633   2.104  0.9385  0.4990 -0.6332
 4295SOL     OW24346   1.759   4.397   9.179  0.8778 -0.0857 -0.0500
 4295SOL    HW124347   1.739   4.381   9.086 -0.6209  0.1513  0.2415
 4295SOL    HW224348   1.758   4.306   9.209 -2.0904 -0.5012 -1.4148
 4296SOL     OW24349   3.886   4.257   1.492 -0.0640  0.0152  0.0692
 4296SOL    HW124350   3.960   4.316   1.483 -0.0340  0.2705  2.1682
 4296SOL    HW224351   3.934   4.181   1.460  0.1059 -0.3288  1.1555
 4297SOL     OW24352   3.389   4.269  10.917  0.6595 -0.3410 -0.1821
 4297SOL    HW124353   3.368   4.346  10.863  1.3389 -1.5537 -2.1795
 4297SOL    HW224354   3.485   4.267  10.910  0.6617  0.2293 -0.3689
 4298SOL     OW24355   4.473   2.597   3.823  0.5243  0.0868 -0.4638
 4298SOL    HW124356   4.506   2.649   3.750 -0.9966  1.4920 -0.1440
 4298SOL    HW224357   4.379   2.607   3.812  0.4828  0.9432  0.5981
 4299SOL     OW24358   1.662   4.287   3.886 -0.6835 -0.5244 -0.3129
 4299SOL    HW124359   1.738   4.343   3.875 -0.8793 -0.6407 -2.2726
 4299SOL    HW224360   1.691   4.205   3.845  0.3718  0.2618 -1.1142
 4300SOL     OW24361   1.384   0.870  14.063  0.0580 -0.8157  0.1007
 4300SOL    HW124362   1.298   0.829  14.067  0.7707 -2.4441 -1.4318
 4300SOL    HW224363   1.368   0.964  14.051 -1.5318 -1.1769 -0.7021
 4301SOL     OW24364   2.498   1.781   9.755  0.3324 -0.1823 -0.1485
 4301SOL    HW124365   2.573   1.796   9.697  0.0040 -2.6649 -1.2127
 4301SOL    HW224366   2.545   1.708   9.796  0.1411  1.7375  3.5504
 4302SOL     OW24367   3.659   0.006   4.945 -0.2288 -0.3481 -0.4326
 4302SOL    HW124368   3.573   0.001   4.987 -0.9456 -1.3227 -2.0214
 4302SOL    HW224369   3.645   0.044   4.858 -0.3393  1.3350  0.3147
 4303SOL     OW24370   1.127   2.251   9.427 -0.1335 -0.1121 -0.0418
 4303SOL    HW124371   1.203   2.195   9.442 -0.4795 -0.4021  0.6168
 4303SOL    HW224372   1.170   2.333   9.453 -0.3292  0.2098 -0.7099
 4304SOL     OW24373   3.458   0.464   4.686 -0.6039  0.3401 -0.1299
 4304SOL    HW124374   3.420   0.377   4.698 -1.7989  1.4174  3.8028
 4304SOL    HW224375   3.385   0.510   4.644 -2.1221 -0.6456  1.4117
 4305SOL     OW24376   2.386   4.694   4.886  0.3508  0.3177  0.4449
 4305SOL    HW124377   2.340   4.715   4.968 -0.3492  0.0657  0.1210
 4305SOL    HW224378   2.465   0.019   4.908  0.9518 -0.4702  0.0209
 4306SOL     OW24379   2.535   0.201  13.283 -0.1382  0.4439 -0.2073
 4306SOL    HW124380   2.556   0.113  13.252  2.9802  0.5157  1.7272
 4306SOL    HW224381   2.552   0.197  13.377  1.4280 -1.8696 -0.5832
 4307SOL     OW24382   0.064   0.382   8.607  0.2891  0.3548 -0.5685
 4307SOL    HW124383   0.061   0.451   8.673  2.0815 -0.4366  0.3302
 4307SOL    HW224384   0.022   0.421   8.530 -1.9955 -0.4648  0.2588
 4308SOL     OW24385   0.316   0.054   8.642 -0.6682  0.1328  0.2022
 4308SOL    HW124386   0.317   4.718   8.568  1.4841  1.6195 -1.0173
 4308SOL    HW224387   0.223   0.059   8.662 -0.4796  0.1106  1.0859
 4309SOL     OW24388   1.375   1.598  14.785 -0.7119  0.1944 -0.4482
 4309SOL    HW124389   1.341   1.537  14.851  2.6619 -0.0078  1.1247
 4309SOL    HW224390   1.471   1.587  14.789 -0.6169  1.8534  1.7356
 4310SOL     OW24391   3.648   2.591   7.493 -0.2288  0.4425  0.1263
 4310SOL    HW124392   3.603   2.540   7.560 -0.2932 -1.3502 -1.2670
 4310SOL    HW224393   3.718   2.529   7.471  0.7359  0.7966  2.2350
 4311SOL     OW24394   0.978   3.953  16.900  0.0948 -0.1949  0.0035
 4311SOL    HW124395   1.062   3.908  16.904 -0.1698 -0.6106  0.9178
 4311SOL    HW224396   0.998   4.032  16.950 -2.6450  0.9521 -0.7023
 4312SOL     OW24397   3.896   3.150  16.609  0.1965  0.1257  0.0110
 4312SOL    HW124398   3.987   3.127  16.623  0.1076 -1.5908 -2.2369
 4312SOL    HW224399   3.867   3.121  16.696 -2.8133  0.0971 -0.9792
 4313SOL     OW24400   0.024   0.159   2.710 -0.1193  0.0162  0.3377
 4313SOL    HW124401   0.098   0.219   2.715  0.7595 -1.1414  1.2733
 4313SOL    HW224402   4.692   0.198   2.777 -0.9655  0.3293 -0.5453
 4314SOL     OW24403   0.467   4.522   3.428 -0.1138 -0.0575 -0.0218
 4314SOL    HW124404   0.404   4.473   3.375 -0.8566  0.7704  0.0782
 4314SOL    HW224405   0.456   4.473   3.510 -0.7680 -1.0933 -0.7295
 4315SOL     OW24406   0.628   0.748   6.139 -0.1866  0.5713  0.0241
 4315SOL    HW124407   0.698   0.812   6.149  0.1258  0.3568 -0.7831
 4315SOL    HW224408   0.553   0.808   6.143  0.3666  1.2075  0.6613
 4316SOL     OW24409   0.915   1.456  12.933  0.1630  0.2801 -0.2933
 4316SOL    HW124410   0.984   1.466  12.868 -0.6876 -0.3752 -1.2905
 4316SOL    HW224411   0.877   1.377  12.896 -0.0113  0.1767  0.0996
 4317SOL     OW24412   1.921   2.750   6.661 -0.3308 -0.0750 -0.0800
 4317SOL    HW124413   1.991   2.686   6.648  1.1373  1.2743  1.1927
 4317SOL    HW224414   1.854   2.685   6.682  0.4130 -0.7320  0.2622
 4318SOL     OW24415   4.713   1.912  14.760  0.4718  0.7825  0.3863
 4318SOL    HW124416   4.657   1.887  14.686 -0.1058  1.1526  0.6974
 4318SOL    HW224417   4.666   1.873  14.834  1.0299 -0.5802  0.0327
 4319SOL     OW24418   0.496   4.577   7.227  0.2676 -0.8856 -0.1236
 4319SOL    HW124419   0.575   4.594   7.175  3.2117 -1.4301  4.1768
 4319SOL    HW224420   0.467   4.488   7.206 -0.1823 -0.7325 -0.1524
 4320SOL     OW24421   1.100   1.192   6.710  0.1482 -0.5799  0.1128
 4320SOL    HW124422   1.169   1.146   6.757 -0.1316 -1.4895 -0.3486
 4320SOL    HW224423   1.143   1.273   6.682 -1.1647 -0.0665 -0.4594
 4321SOL     OW24424   1.932   0.845   7.901 -0.4057 -0.1917  0.2401
 4321SOL    HW124425   1.899   0.776   7.958  0.8111 -1.5465 -0.6928
 4321SOL    HW224426   1.863   0.906   7.926 -0.6774 -1.9398  3.7458
 4322SOL     OW24427   1.057   0.087   0.702 -0.5890  0.6697 -0.2564
 4322SOL    HW124428   0.973   0.114   0.664 -2.1075 -1.3251  1.7067
 4322SOL    HW224429   1.031   0.083   0.794 -0.2404 -0.0797 -0.1922
 4323SOL     OW24430   2.303   4.240   6.212 -0.9029 -0.2611  0.3822
 4323SOL    HW124431   2.264   4.323   6.183  0.0488 -0.1193 -0.4758
 4323SOL    HW224432   2.301   4.257   6.306  0.6144 -0.4399  0.4377
 4324SOL     OW24433   0.897   3.098   5.357  0.4909 -0.4534 -0.0731
 4324SOL    HW124434   0.992   3.093   5.368  0.4213 -0.8996  0.3192
 4324SOL    HW224435   0.899   3.192   5.342  2.0225 -0.8200 -2.2796
 4325SOL     OW24436   3.423   1.091   2.945  0.3322 -0.5865  0.0133
 4325SOL    HW124437   3.380   1.084   2.859  1.0333 -2.9764 -0.1347
 4325SOL    HW224438   3.499   1.147   2.929 -0.3197  0.9778  2.4030
 4326SOL     OW24439   2.154   1.782   9.959 -0.5703  0.2209 -0.1058
 4326SOL    HW124440   2.153   1.858   9.901 -0.4293  1.9093  2.1230
 4326SOL    HW224441   2.239   1.788  10.001  0.5322  0.0380 -2.3197
 4327SOL     OW24442   2.935   4.270  11.595  0.2859  0.2485  0.4432
 4327SOL    HW124443   2.934   4.179  11.564 -1.5698  1.1216 -2.0852
 4327SOL    HW224444   2.843   4.284  11.620 -0.1299 -1.6734  0.0273
 4328SOL     OW24445   2.463   0.904  16.963  0.0412  0.3059  0.1911
 4328SOL    HW124446   2.536   0.855  17.001 -1.7926 -2.7853 -0.2737
 4328SOL    HW224447   2.503   0.987  16.937  2.3297 -0.7970  0.1638
 4329SOL     OW24448   0.079   0.950  17.282  0.2733  0.2541  0.1269
 4329SOL    HW124449   0.038   0.939  17.368  0.6005 -2.5648 -0.0736
 4329SOL    HW224450   0.128   0.871  17.262 -0.1020  0.5574 -1.9511
 4330SOL     OW24451   2.977   4.117  15.668 -0.0400 -0.2667 -0.0338
 4330SOL    HW124452   2.956   4.181  15.600 -0.8965 -1.5514 -0.9736
 4330SOL    HW224453   2.958   4.177  15.740  0.1872  0.7818 -0.8330
 4331SOL     OW24454   0.574   1.155   2.107  0.0170  0.0573 -0.3423
 4331SOL    HW124455   0.582   1.105   2.026 -2.1287 -1.0398  0.1330
 4331SOL    HW224456   0.481   1.137   2.123  0.8744 -1.6056  2.6606
 4332SOL     OW24457   0.085   0.121  13.019  0.1322 -0.8726 -0.5174
 4332SOL    HW124458   0.042   0.042  13.051 -3.5235  1.9038  1.4045
 4332SOL    HW224459   0.135   0.148  13.097 -1.3312 -1.2027  0.5291
 4333SOL     OW24460   3.571   3.943   6.544  0.0496  0.0367  0.4114
 4333SOL    HW124461   3.507   3.877   6.517 -0.2262  0.1882  0.6987
 4333SOL    HW224462   3.595   3.970   6.455 -1.7446  0.0194 -0.0900
 4334SOL     OW24463   3.285   1.048  11.305 -0.0627  0.3258  0.4943
 4334SOL    HW124464   3.293   0.964  11.351  2.3225  1.2242  1.7471
 4334SOL    HW224465   3.270   1.107  11.379  0.5352 -0.1049  0.9626
 4335SOL     OW24466   3.410   4.719   8.823 -0.3732  0.3140 -0.2565
 4335SOL    HW124467   3.496   0.010   8.864 -0.5527  1.3724 -0.2756
 4335SOL    HW224468   3.343   4.701   8.890  1.2872 -0.5161  1.1980
 4336SOL     OW24469   3.979   4.179   4.127  0.2829  0.2422 -0.7043
 4336SOL    HW124470   3.933   4.149   4.206  0.4603 -1.0759 -1.0987
 4336SOL    HW224471   4.022   4.098   4.099  0.2130  0.2053 -0.7063
 4337SOL     OW24472   3.811   1.639   9.250  0.2174 -0.4207  0.3463
 4337SOL    HW124473   3.715   1.632   9.249  0.3777 -2.6438  0.4454
 4337SOL    HW224474   3.821   1.719   9.302 -0.4871 -0.2718  0.2508
 4338SOL     OW24475   3.700   2.652   1.901  0.1288  0.0400  0.1192
 4338SOL    HW124476   3.716   2.682   1.812 -1.2267 -1.6881 -0.7165
 4338SOL    HW224477   3.607   2.636   1.890  0.6149 -1.5017 -1.7899
 4339SOL     OW24478   4.217   2.056  14.888 -0.0160 -0.1880 -0.1315
 4339SOL    HW124479   4.159   2.080  14.816 -0.1611 -0.5218 -0.1281
 4339SOL    HW224480   4.303   2.070  14.848  0.1151 -1.8816 -0.4511
 4340SOL     OW24481   0.900   1.868   5.277  0.8811 -0.3962 -0.4531
 4340SOL    HW124482   0.867   1.929   5.211  0.5545  2.2887  2.1632
 4340SOL    HW224483   0.947   1.935   5.327 -0.8679 -0.9903  2.0329
 4341SOL     OW24484   0.060   4.590  13.089  0.3637 -0.0712  0.3638
 4341SOL    HW124485   0.031   4.526  13.024 -1.6337 -0.0332  1.2194
 4341SOL    HW224486   0.033   4.556  13.174 -2.0637 -1.3000 -0.8869
 4342SOL     OW24487   0.995   1.566  11.959 -0.0298  0.2983 -0.0595
 4342SOL    HW124488   1.036   1.653  11.959  0.0678  0.2502  2.4691
 4342SOL    HW224489   0.903   1.583  11.978  0.0962  1.4099 -0.4296
 4343SOL     OW24490   0.865   1.508   0.128 -0.3050 -0.2313  0.3222
 4343SOL    HW124491   0.877   1.553   0.211  0.7387 -0.9741  0.5776
 4343SOL    HW224492   0.923   1.431   0.135  3.1816  2.4020  0.4792
 4344SOL     OW24493   0.411   3.870   8.895 -0.4135 -0.0273 -0.4240
 4344SOL    HW124494   0.326   3.826   8.905 -0.7738  0.6178 -0.6224
 4344SOL    HW224495   0.378   3.955   8.865  1.3432 -0.5285 -3.8301
 4345SOL     OW24496   1.523   0.184   2.797 -0.3401 -0.1129 -0.0074
 4345SOL    HW124497   1.432   0.155   2.808 -0.1268 -1.4721 -1.7234
 4345SOL    HW224498   1.514   0.275   2.771 -0.8184 -0.4463 -1.0442
 4346SOL     OW24499   0.195   3.323  11.787  0.2009  0.2316 -0.5345
 4346SOL    HW124500   0.246   3.242  11.788 -0.0140  0.0732 -3.3639
 4346SOL    HW224501   0.145   3.299  11.709  2.1752  1.4114 -2.1517
 4347SOL     OW24502   2.732   4.362   9.126 -0.0607  0.4728  0.0738
 4347SOL    HW124503   2.669   4.404   9.184 -0.8170 -1.3512  0.5634
 4347SOL    HW224504   2.712   4.412   9.046 -1.0852  3.2536  2.0752
 4348SOL     OW24505   4.038   3.179   1.929  0.5673 -0.0935  0.7273
 4348SOL    HW124506   4.071   3.258   1.971 -2.2609  2.2753 -1.5316
 4348SOL    HW224507   4.117   3.139   1.893 -0.7813 -0.5287 -1.7562
 4349SOL     OW24508   2.846   0.530   5.133  0.5710  0.1412 -0.2054
 4349SOL    HW124509   2.825   0.503   5.222  0.1159 -1.5507 -0.8278
 4349SOL    HW224510   2.787   0.487   5.071  0.3911 -3.0204  2.1808
 4350SOL     OW24511   1.972   4.103   6.849  0.4749  0.5511 -0.1787
 4350SOL    HW124512   1.917   4.117   6.927  0.3303 -0.0276 -0.1779
 4350SOL    HW224513   2.017   4.023   6.877 -1.0863 -0.4271 -0.4796
 4351SOL     OW24514   0.287   0.160   3.353  0.2013  0.4846  0.0550
 4351SOL    HW124515   0.221   0.185   3.288 -0.1595  1.0196  0.6227
 4351SOL    HW224516   0.246   0.097   3.411 -1.1476  1.6097  0.3248
 4352SOL     OW24517   3.509   4.342   0.429  0.2985 -0.0404  0.0780
 4352SOL    HW124518   3.447   4.273   0.451 -0.0792 -0.1915 -1.4683
 4352SOL    HW224519   3.476   4.377   0.346 -1.6997  0.3176  1.0102
 4353SOL     OW24520   3.779   2.631  10.952  0.8995  0.0521 -0.3183
 4353SOL    HW124521   3.717   2.562  10.977  1.9952  0.1745  2.7177
 4353SOL    HW224522   3.730   2.708  10.924  0.0606  0.2244  1.5978
 4354SOL     OW24523   2.040   4.711   5.201 -0.4323 -0.1933 -0.5284
 4354SOL    HW124524   2.054   0.024   5.288  3.4511 -2.1702 -0.2878
 4354SOL    HW224525   2.129   4.674   5.197 -0.6902 -0.9396  0.7553
 4355SOL     OW24526   3.227   2.707   8.323 -0.1558  0.1615 -0.3584
 4355SOL    HW124527   3.228   2.792   8.278  1.2170 -0.4760 -1.5266
 4355SOL    HW224528   3.150   2.678   8.274  1.5915 -2.7877 -1.3341
 4356SOL     OW24529   0.902   3.021   8.951  0.0667  0.4630 -0.1557
 4356SOL    HW124530   0.872   3.087   8.888 -1.6653 -0.4102 -0.2615
 4356SOL    HW224531   0.822   2.988   8.994 -0.6810 -0.2218 -2.0815
 4357SOL     OW24532   2.493   0.146  15.620 -0.0661  0.4277 -0.4414
 4357SOL    HW124533   2.419   0.121  15.675  1.1592 -0.6894  0.6838
 4357SOL    HW224534   2.462   0.117  15.535 -0.4593 -1.8819  0.5161
 4358SOL     OW24535   1.467   4.079  12.908  0.6342  0.6584  0.2602
 4358SOL    HW124536   1.551   4.080  12.864  0.8856  1.8645  0.7469
 4358SOL    HW224537   1.462   4.001  12.963 -0.2710  1.7541  1.7359
 4359SOL     OW24538   4.368   4.464   1.899 -0.3345 -0.1416  0.0432
 4359SOL    HW124539   4.346   4.493   1.810 -0.9838  1.9636  0.8877
 4359SOL    HW224540   4.288   4.479   1.949  1.0525  0.2845  2.1469
 4360SOL     OW24541   4.140   1.369   7.781  0.5451  0.0567 -0.3061
 4360SOL    HW124542   4.147   1.302   7.848 -1.2474 -1.7761 -1.9354
 4360SOL    HW224543   4.106   1.315   7.709  1.5890  1.8190 -2.1294
 4361SOL     OW24544   0.305   4.675   6.434 -0.5760 -0.4017  0.5706
 4361SOL    HW124545   0.258   0.027   6.468  1.8199  0.6176  1.6144
 4361SOL    HW224546   0.317   4.626   6.515 -3.5647  0.7491  1.6771
 4362SOL     OW24547   1.443   3.164   5.905 -0.4376  0.2362  0.1739
 4362SOL    HW124548   1.455   3.170   6.000  1.2807  1.3988 -0.1324
 4362SOL    HW224549   1.516   3.217   5.874 -0.2870 -0.1944 -0.2109
 4363SOL     OW24550   0.245   1.464   6.581  0.7246  0.6162 -0.2897
 4363SOL    HW124551   0.253   1.556   6.608 -1.8771  0.3504  1.3528
 4363SOL    HW224552   0.195   1.430   6.654  0.7275  1.0945 -0.0633
 4364SOL     OW24553   4.329   4.564   1.646 -0.0555 -0.1209 -0.4810
 4364SOL    HW124554   4.313   4.633   1.582 -0.3693  0.1191 -0.1451
 4364SOL    HW224555   4.245   4.520   1.635  0.4205 -1.2277  0.3252
 4365SOL     OW24556   2.810   1.943   7.171 -0.3977  0.2814  0.2243
 4365SOL    HW124557   2.865   1.915   7.098 -0.8579 -2.2376  0.8491
 4365SOL    HW224558   2.807   2.037   7.155  1.0689  0.0784 -1.2166
 4366SOL     OW24559   1.741   4.591  12.042 -0.3587 -0.3573  0.1603
 4366SOL    HW124560   1.785   4.632  11.968  0.0224  1.9163  1.6505
 4366SOL    HW224561   1.657   4.570  12.001  0.6729 -3.3202 -0.4797
 4367SOL     OW24562   0.739   3.466   9.578  0.8629  0.3623 -0.0227
 4367SOL    HW124563   0.812   3.410   9.554  0.8873  0.7902 -0.9314
 4367SOL    HW224564   0.743   3.462   9.674 -1.3370  0.2739  0.0594
 4368SOL     OW24565   4.036   0.670   0.984 -0.4945  0.0105  0.1457
 4368SOL    HW124566   4.080   0.585   0.984 -3.2863 -1.4115 -1.2711
 4368SOL    HW224567   4.064   0.710   1.067 -1.5731  0.4667  0.2843
 4369SOL     OW24568   3.989   2.864   7.511 -0.2461  0.6399 -0.0878
 4369SOL    HW124569   3.999   2.957   7.530 -0.8217  0.5419  0.6990
 4369SOL    HW224570   4.030   2.823   7.587 -2.9356 -0.4231  0.7897
 4370SOL     OW24571   0.340   2.327   3.702 -0.3218  0.0535  0.6797
 4370SOL    HW124572   0.435   2.336   3.709 -0.2308 -0.7502  0.5451
 4370SOL    HW224573   0.317   2.393   3.767 -0.8217  1.1703 -0.6588
 4371SOL     OW24574   2.898   0.311   0.439  0.0087 -0.2126  0.0199
 4371SOL    HW124575   2.962   0.350   0.379  0.4609 -1.6855 -0.4478
 4371SOL    HW224576   2.838   0.385   0.454  2.5768  1.1453  3.5251
 4372SOL     OW24577   3.404   0.345   5.176 -0.4911  0.3869 -0.1642
 4372SOL    HW124578   3.389   0.433   5.140 -0.6974 -0.4484 -2.0638
 4372SOL    HW224579   3.500   0.340   5.178 -0.5451 -1.0072 -1.6201
 4373SOL     OW24580   0.445   3.557   6.605  0.1821 -0.0235  0.3689
 4373SOL    HW124581   0.436   3.517   6.519 -2.1743 -2.3443  1.6993
 4373SOL    HW224582   0.480   3.492   6.666  0.5455  1.2486  1.5166
 4374SOL     OW24583   3.278   3.309   6.644  0.0020 -0.1347  0.0355
 4374SOL    HW124584   3.305   3.217   6.647  0.2493 -0.0521  0.3162
 4374SOL    HW224585   3.208   3.315   6.578  2.4082  3.8164 -2.2024
 4375SOL     OW24586   1.227   0.042   6.616 -0.3530 -0.0615  0.2862
 4375SOL    HW124587   1.157   4.712   6.654 -1.6115 -0.3462 -2.4693
 4375SOL    HW224588   1.223   0.124   6.665  2.6591  1.0721 -1.4325
 4376SOL     OW24589   2.446   1.367   8.302 -0.3263  0.1272  0.0627
 4376SOL    HW124590   2.419   1.279   8.329 -3.5497  1.1444  0.1442
 4376SOL    HW224591   2.400   1.375   8.218 -1.6206 -1.9322  0.5997
 4377SOL     OW24592   4.083   1.193  12.086  0.2766 -0.4202  0.2784
 4377SOL    HW124593   4.109   1.241  12.007 -0.3121 -2.0226 -0.8929
 4377SOL    HW224594   4.134   1.114  12.070 -0.5879 -0.8817 -0.2345
 4378SOL     OW24595   2.248   1.235  11.507 -0.3556  0.5431  0.1305
 4378SOL    HW124596   2.201   1.312  11.540 -2.2224 -0.3765 -0.4153
 4378SOL    HW224597   2.262   1.262  11.416  0.1053  2.0861  0.6661
 4379SOL     OW24598   3.385   4.500   2.405 -0.0568 -0.3852 -0.3845
 4379SOL    HW124599   3.446   4.497   2.331  0.9126  1.6681  0.3347
 4379SOL    HW224600   3.317   4.554   2.364  0.8206  0.6846 -0.4242
 4380SOL     OW24601   4.592   2.054   6.565  0.3228 -0.1470 -0.1279
 4380SOL    HW124602   4.657   2.099   6.620 -1.5658  2.3083  0.0909
 4380SOL    HW224603   4.628   2.059   6.477  1.5186  1.3233  0.4331
 4381SOL     OW24604   4.325   0.359   9.617 -0.5168  0.7191  0.0158
 4381SOL    HW124605   4.397   0.325   9.669 -0.1259  1.2879 -0.1561
 4381SOL    HW224606   4.368   0.357   9.531 -0.7400  2.7265 -0.1409
 4382SOL     OW24607   1.499   4.232   1.945 -0.2350  0.1249 -0.2289
 4382SOL    HW124608   1.447   4.185   1.880  2.8780 -2.9069 -0.5327
 4382SOL    HW224609   1.440   4.307   1.945  0.4181  0.6482 -1.8506
 4383SOL     OW24610   2.663   3.921   7.193 -0.6941  0.3097  0.8694
 4383SOL    HW124611   2.710   3.988   7.243 -0.5978  1.3164 -0.5685
 4383SOL    HW224612   2.698   3.842   7.235 -0.2935 -0.5318 -1.0684
 4384SOL     OW24613   4.284   1.495   7.590  0.1353 -0.0897 -0.1255
 4384SOL    HW124614   4.224   1.446   7.645  0.4795 -2.1572 -1.5982
 4384SOL    HW224615   4.312   1.564   7.651  1.3555 -1.2618  0.6357
 4385SOL     OW24616   1.660   3.893   6.503  0.2003  0.0743 -0.0299
 4385SOL    HW124617   1.736   3.914   6.556  1.2361  0.2970 -1.5991
 4385SOL    HW224618   1.654   3.964   6.440  0.2104 -2.3035 -2.7383
 4386SOL     OW24619   1.318   3.493   6.416  0.2880  0.3966  0.1414
 4386SOL    HW124620   1.410   3.506   6.391 -0.4235  0.0625 -2.5380
 4386SOL    HW224621   1.286   3.584   6.416  0.5582  0.4856 -1.2883
 4387SOL     OW24622   4.662   3.204  13.226 -0.0990  0.2178  0.3312
 4387SOL    HW124623   0.014   3.262  13.217 -1.3793  1.7422 -0.5554
 4387SOL    HW224624   4.597   3.271  13.205  1.6735  1.7231 -0.3972
 4388SOL     OW24625   2.216   0.143   2.612  0.1010 -0.5849 -0.3265
 4388SOL    HW124626   2.265   0.126   2.532  0.2011  0.9036 -0.5758
 4388SOL    HW224627   2.231   0.237   2.616 -0.7143 -0.3921 -1.7935
 4389SOL     OW24628   0.795   4.628   3.697 -0.4222 -0.3216  0.0656
 4389SOL    HW124629   0.713   4.611   3.743 -0.2669  1.0241  0.8364
 4389SOL    HW224630   0.859   4.594   3.759  1.6911  2.0126 -0.8082
 4390SOL     OW24631   0.248   4.537  15.561 -0.1004 -0.2322  0.1686
 4390SOL    HW124632   0.184   4.501  15.499 -0.3972  0.5817  0.0058
 4390SOL    HW224633   0.304   4.462  15.579  2.9753  2.5709  2.0748
 4391SOL     OW24634   3.332   1.216   8.227 -0.2036  0.0619 -0.2896
 4391SOL    HW124635   3.421   1.188   8.249  0.3025  0.9129 -1.2368
 4391SOL    HW224636   3.286   1.133   8.239 -1.8571  1.1664  1.0188
 4392SOL     OW24637   4.015   0.772  12.184  0.5013 -0.2244 -0.2516
 4392SOL    HW124638   3.927   0.808  12.175  0.1451 -0.4661  2.3553
 4392SOL    HW224639   4.060   0.827  12.120 -0.1819  2.3482  1.4801
 4393SOL     OW24640   0.686   0.753   1.995  0.3028 -0.2239  0.4360
 4393SOL    HW124641   0.643   0.676   2.030 -0.7518  0.9043  1.6266
 4393SOL    HW224642   0.702   0.710   1.911  1.0358  0.3554  0.2762
 4394SOL     OW24643   1.303   0.884   2.562  0.1661 -0.6450  0.2085
 4394SOL    HW124644   1.373   0.932   2.517 -1.3756  0.1674 -1.2884
 4394SOL    HW224645   1.237   0.879   2.493 -0.4409 -1.3035  0.8418
 4395SOL     OW24646   0.781   4.290   2.090 -0.5630 -0.1635 -0.2969
 4395SOL    HW124647   0.804   4.227   2.022 -2.4474 -0.4868 -0.6456
 4395SOL    HW224648   0.686   4.279   2.081 -0.6782  0.9349 -0.4396
 4396SOL     OW24649   2.970   0.889   7.243 -0.0975  0.0310  0.0275
 4396SOL    HW124650   3.003   0.932   7.164  0.0817  2.1738  1.2712
 4396SOL    HW224651   2.928   0.958   7.295  0.0984 -0.9892  1.5389
 4397SOL     OW24652   4.480   2.752   5.861  0.8297 -0.1449 -0.6293
 4397SOL    HW124653   4.453   2.822   5.920  0.8494 -1.3759  0.8460
 4397SOL    HW224654   4.413   2.686   5.880  0.3578  0.1386 -1.3005
 4398SOL     OW24655   1.321   1.762   6.494  0.2531 -0.0282  0.7656
 4398SOL    HW124656   1.402   1.747   6.444  0.7692 -0.0742  1.6270
 4398SOL    HW224657   1.282   1.826   6.433  1.3184  0.2626  0.3865
 4399SOL     OW24658   4.074   1.841   2.460  0.4034  0.5726 -0.5671
 4399SOL    HW124659   3.995   1.845   2.408  0.0877  1.4265 -0.0327
 4399SOL    HW224660   4.061   1.922   2.510 -2.1636 -0.3550  0.2170
 4400SOL     OW24661   2.633   1.024   3.536 -0.2427 -0.7352  0.2606
 4400SOL    HW124662   2.670   0.946   3.496  1.2126 -1.8849  3.8129
 4400SOL    HW224663   2.574   1.057   3.469  0.9099  0.8712  0.0314
 4401SOL     OW24664   3.738   4.277   7.341  0.2982  0.5351  0.8342
 4401SOL    HW124665   3.707   4.204   7.287 -0.2603  0.1039  1.7391
 4401SOL    HW224666   3.762   4.346   7.279 -0.3039 -0.2064 -0.2315
 4402SOL     OW24667   1.763   2.162   7.382  0.0819  0.2746 -0.2548
 4402SOL    HW124668   1.765   2.105   7.305 -0.0554 -0.6025  0.3824
 4402SOL    HW224669   1.798   2.102   7.449 -0.2551  0.2996 -0.0589
 4403SOL     OW24670   1.766   3.924   5.211 -0.5550  0.2515 -0.3061
 4403SOL    HW124671   1.791   3.943   5.121  0.5345  0.8668  0.1332
 4403SOL    HW224672   1.711   4.002   5.224  0.6096  0.6465  2.2649
 4404SOL     OW24673   4.564   1.493   5.258  0.0644 -0.1187 -0.2165
 4404SOL    HW124674   4.546   1.443   5.178  1.2321  0.6316 -0.9569
 4404SOL    HW224675   4.492   1.477   5.319  0.9061 -0.9058  0.5855
 4405SOL     OW24676   2.337   3.786   2.498  0.5649 -0.4163  0.2075
 4405SOL    HW124677   2.284   3.709   2.478 -1.8593  0.6467  2.6127
 4405SOL    HW224678   2.421   3.745   2.518  1.1158 -0.4302 -2.1319
 4406SOL     OW24679   2.281   1.922   9.750 -0.0821  0.4170  0.8911
 4406SOL    HW124680   2.360   1.872   9.773  0.8449  0.5236 -2.0114
 4406SOL    HW224681   2.266   1.882   9.664 -1.4064 -2.3805  2.4436
 4407SOL     OW24682   3.979   1.582  11.862  0.4573  0.0674  0.0985
 4407SOL    HW124683   3.948   1.667  11.895 -1.4733 -0.4891 -0.3445
 4407SOL    HW224684   3.911   1.530  11.904 -0.4929  1.3170  0.1121
 4408SOL     OW24685   0.485   3.758   9.616 -0.3205  0.0462 -0.1393
 4408SOL    HW124686   0.449   3.669   9.615 -0.6147  0.1669 -0.1228
 4408SOL    HW224687   0.458   3.791   9.531 -3.4135 -0.6808  0.5667
 4409SOL     OW24688   3.679   4.468  16.073  0.0496  0.0735  0.2665
 4409SOL    HW124689   3.618   4.395  16.082  0.7260 -1.1565 -4.6359
 4409SOL    HW224690   3.614   4.537  16.085  1.3926  1.2977  0.5330
 4410SOL     OW24691   3.801   0.169   6.295 -0.6805  0.0023  0.7490
 4410SOL    HW124692   3.876   0.225   6.316 -0.5519  0.2153 -0.2818
 4410SOL    HW224693   3.827   0.081   6.323 -1.4270 -0.5566 -0.3518
 4411SOL     OW24694   0.998   0.077  15.923  0.0246 -0.4271 -1.0565
 4411SOL    HW124695   0.911   0.048  15.953  1.6481 -1.1266  2.9846
 4411SOL    HW224696   1.053   0.045  15.994 -1.4246 -0.9611 -0.1810
 4412SOL     OW24697   2.626   2.979   5.338  0.1974  0.0987  0.2823
 4412SOL    HW124698   2.710   2.940   5.315  0.6487  1.9329 -1.0702
 4412SOL    HW224699   2.655   3.012   5.423  0.5497 -0.2398  0.2935
 4413SOL     OW24700   1.677   4.695   5.802 -0.1395  0.4800 -0.3283
 4413SOL    HW124701   1.630   4.615   5.825 -1.1817  0.4085 -2.6868
 4413SOL    HW224702   1.686   0.010   5.889  1.3230 -0.3881 -0.0949
 4414SOL     OW24703   0.069   2.554   4.469 -0.6131 -0.0610 -0.4805
 4414SOL    HW124704   0.117   2.636   4.456 -0.2849  0.0623  1.4641
 4414SOL    HW224705   0.003   2.585   4.532 -3.4897 -2.3122 -2.3770
 4415SOL     OW24706   4.123   4.003   6.683  0.2409 -0.1861 -0.4456
 4415SOL    HW124707   4.098   4.050   6.763 -2.7050 -1.7763 -0.4109
 4415SOL    HW224708   4.039   4.010   6.638  0.1698  1.0465 -0.1204
 4416SOL     OW24709   2.118   0.069   5.462 -0.3475 -0.2648 -0.4805
 4416SOL    HW124710   2.161   0.021   5.532  2.6283  3.1436 -0.0214
 4416SOL    HW224711   2.173   0.146   5.450 -0.3319 -0.0425  1.0251
 4417SOL     OW24712   2.362   4.045   0.921 -0.1087 -0.3071  0.0778
 4417SOL    HW124713   2.400   4.082   0.841  3.6455 -1.3364  1.3880
 4417SOL    HW224714   2.378   3.952   0.904  0.8326 -0.2719  0.8000
 4418SOL     OW24715   2.069   4.597  11.792 -0.1482 -0.0107 -0.1808
 4418SOL    HW124716   2.136   4.609  11.725 -0.8643  0.4316 -0.8093
 4418SOL    HW224717   2.048   4.504  11.781  0.9273 -0.3823  0.8245
 4419SOL     OW24718   0.487   2.879   4.816 -0.0549 -0.1230 -0.3383
 4419SOL    HW124719   0.504   2.959   4.767 -0.8974  0.4385  0.2832
 4419SOL    HW224720   0.517   2.909   4.902 -0.3968  2.4779 -1.1184
 4420SOL     OW24721   3.978   1.096   3.419  0.1759 -0.1423  0.2999
 4420SOL    HW124722   4.015   1.104   3.507  0.7321 -0.8194  0.1365
 4420SOL    HW224723   4.059   1.096   3.368 -1.5238 -1.3085 -2.3781
 4421SOL     OW24724   3.268   1.286   6.145 -0.4212 -0.7941  0.3370
 4421SOL    HW124725   3.267   1.308   6.052 -0.4158 -0.2330  0.4682
 4421SOL    HW224726   3.354   1.250   6.165  0.3707  0.4795 -0.7575
 4422SOL     OW24727   4.144   1.723   6.402  0.1726 -0.7385  0.0290
 4422SOL    HW124728   4.058   1.695   6.434 -1.1371  1.0250 -1.9809
 4422SOL    HW224729   4.123   1.723   6.309  0.5623 -0.8004 -0.0582
 4423SOL     OW24730   3.684   4.449   4.737  0.4476  0.4085 -0.2412
 4423SOL    HW124731   3.642   4.490   4.661 -1.4536 -1.8514 -0.3854
 4423SOL    HW224732   3.691   4.360   4.703  3.5703 -0.8395  3.7240
 4424SOL     OW24733   3.132   0.896  10.818  0.4057 -0.2977  0.1244
 4424SOL    HW124734   3.217   0.905  10.773  0.8294  0.4209  1.0820
 4424SOL    HW224735   3.148   0.940  10.901 -1.1466  1.2563 -0.4111
 4425SOL     OW24736   2.562   1.722  13.508  0.1871  0.0350 -1.0550
 4425SOL    HW124737   2.641   1.729  13.561 -0.2151 -0.8047 -0.3469
 4425SOL    HW224738   2.522   1.805  13.534  6.5276  1.1393  5.3132
 4426SOL     OW24739   1.511   4.066  10.236 -0.1772 -0.2190 -0.2277
 4426SOL    HW124740   1.536   4.055  10.144 -1.1166 -0.4105 -0.4667
 4426SOL    HW224741   1.538   3.981  10.272  2.2275  0.2643 -0.8899
 4427SOL     OW24742   2.825   3.427   8.773  0.2674  0.4724 -0.2289
 4427SOL    HW124743   2.876   3.411   8.694 -1.3613  0.7738 -1.3449
 4427SOL    HW224744   2.811   3.521   8.784  0.4190  0.0515  3.5683
 4428SOL     OW24745   1.355   1.686   8.910 -0.5596  0.0982  0.6959
 4428SOL    HW124746   1.292   1.693   8.981  0.5704  1.6474  1.5322
 4428SOL    HW224747   1.326   1.605   8.867 -1.1140  0.1100  1.0478
 4429SOL     OW24748   4.430   2.477   4.365 -0.2589 -0.0927 -0.6359
 4429SOL    HW124749   4.371   2.531   4.418 -0.4886  0.1450 -1.1390
 4429SOL    HW224750   4.400   2.506   4.280 -1.9095  0.0495  0.0051
 4430SOL     OW24751   3.268   2.565   4.049  0.1088 -0.0894  0.1727
 4430SOL    HW124752   3.203   2.586   4.116 -0.1389  0.0833 -0.1210
 4430SOL    HW224753   3.321   2.508   4.105 -0.6174  0.5993  1.5473
 4431SOL     OW24754   0.468   1.916  13.438  0.3639  0.0779  0.2452
 4431SOL    HW124755   0.462   1.952  13.350 -1.0631 -1.1261 -0.1565
 4431SOL    HW224756   0.446   1.991  13.493 -1.1293 -0.3397  0.2039
 4432SOL     OW24757   1.713   3.358   6.237 -0.6464 -0.5400  0.1176
 4432SOL    HW124758   1.752   3.320   6.315 -0.1810  0.8327  0.5433
 4432SOL    HW224759   1.749   3.446   6.230  0.6105 -1.0057  0.7487
 4433SOL     OW24760   3.261   1.515   2.960 -0.0721 -0.2923  0.5163
 4433SOL    HW124761   3.269   1.610   2.969 -2.6633  0.0107 -0.2628
 4433SOL    HW224762   3.352   1.490   2.977  0.0302  0.5237  1.1827
 4434SOL     OW24763   4.297   3.882   2.128  0.0080  0.4577 -0.7705
 4434SOL    HW124764   4.275   3.796   2.091 -2.0384  0.6313  0.0583
 4434SOL    HW224765   4.304   3.860   2.221 -0.2345  1.8156 -0.4385
 4435SOL     OW24766   4.314   1.742   1.769 -0.4152  0.2202  0.1966
 4435SOL    HW124767   4.267   1.825   1.775  0.1227  0.6198 -1.0340
 4435SOL    HW224768   4.281   1.717   1.855  0.9666 -0.4983  0.5245
 4436SOL     OW24769   4.247   0.529  12.754  0.0588  0.2377  0.2130
 4436SOL    HW124770   4.335   0.544  12.787  0.6108 -2.7863  0.1646
 4436SOL    HW224771   4.205   0.473  12.820  3.8862  0.0669  2.5111
 4437SOL     OW24772   1.831   4.501  17.571 -0.1572  0.1460 -0.0493
 4437SOL    HW124773   1.796   4.590  17.576 -1.9859 -0.7456  3.2113
 4437SOL    HW224774   1.925   4.505  17.591 -0.0448 -0.2231 -0.5267
 4438SOL     OW24775   2.559   2.085   4.648  0.0418  0.3497  0.3765
 4438SOL    HW124776   2.532   2.109   4.560  0.7301 -1.0537 -0.2223
 4438SOL    HW224777   2.525   1.996   4.651 -0.4620  0.4756 -1.8080
 4439SOL     OW24778   4.693   2.227   8.578  0.6219  0.5843 -0.3980
 4439SOL    HW124779   0.051   2.277   8.581  1.4134 -0.5506 -2.5688
 4439SOL    HW224780   4.661   2.269   8.499  1.4838 -0.2688 -1.2126
 4440SOL     OW24781   3.303   2.843   4.237 -0.7843 -0.4173 -0.1440
 4440SOL    HW124782   3.364   2.878   4.301  0.6581  1.0400 -2.3197
 4440SOL    HW224783   3.325   2.901   4.164  0.1484 -0.2374  0.2782
 4441SOL     OW24784   1.447   3.781   2.175  0.0675 -0.4905  0.3393
 4441SOL    HW124785   1.449   3.853   2.238  1.4234  0.3364 -0.6685
 4441SOL    HW224786   1.511   3.813   2.112 -1.4313  1.2492 -0.3077
 4442SOL     OW24787   3.575   1.601   5.369  0.1062  0.4696  0.0130
 4442SOL    HW124788   3.667   1.590   5.345  1.3447  1.1186  4.5498
 4442SOL    HW224789   3.534   1.644   5.294 -0.5548 -0.7599 -0.3447
 4443SOL     OW24790   0.697   4.715  15.527 -0.6339  0.0743  0.5256
 4443SOL    HW124791   0.704   4.633  15.479  2.0680 -0.6291  2.0674
 4443SOL    HW224792   0.684   0.051  15.453  1.0391  0.4122  0.5015
 4444SOL     OW24793   4.174   4.411   3.516 -0.3932 -0.9511  0.7518
 4444SOL    HW124794   4.205   4.502   3.512  0.0625 -1.1399 -0.0396
 4444SOL    HW224795   4.156   4.403   3.610 -1.8178  1.8005  0.7161
 4445SOL     OW24796   0.412   4.556   9.529 -0.1355  0.0712 -0.3554
 4445SOL    HW124797   0.361   4.480   9.555 -1.4223  0.9963 -0.1463
 4445SOL    HW224798   0.429   4.591   9.616  0.8060  1.1717 -0.9791
 4446SOL     OW24799   0.801   1.516   2.653  0.4505  0.2308 -0.0191
 4446SOL    HW124800   0.776   1.424   2.657 -3.0737  1.1678 -0.4201
 4446SOL    HW224801   0.734   1.564   2.702 -0.3068  0.5894 -1.4138
 4447SOL     OW24802   1.737   0.192  16.766 -0.1518  0.3589 -0.0643
 4447SOL    HW124803   1.678   0.120  16.788 -1.9371  2.2357  1.2028
 4447SOL    HW224804   1.786   0.157  16.691 -0.2188  1.9606 -0.8377
 4448SOL     OW24805   4.093   2.313  12.636 -0.4039 -0.1575 -0.1100
 4448SOL    HW124806   4.142   2.259  12.575  0.2643  0.4945 -0.1549
 4448SOL    HW224807   4.153   2.389  12.637 -0.4291 -0.1296 -0.7432
 4449SOL     OW24808   1.487   1.954   3.739  0.1914 -0.5590  0.1219
 4449SOL    HW124809   1.491   1.974   3.646  1.2237 -0.6578  0.1500
 4449SOL    HW224810   1.561   1.895   3.753  1.0244  0.2709 -0.8205
 4450SOL     OW24811   0.382   2.773   6.688 -0.4770  0.0343  0.1183
 4450SOL    HW124812   0.401   2.684   6.717  1.6007  0.7304  0.8903
 4450SOL    HW224813   0.383   2.758   6.593  0.6556 -2.1784  0.4760
 4451SOL     OW24814   4.224   0.251  16.363  0.5149  0.4168  0.1624
 4451SOL    HW124815   4.277   0.285  16.291  0.7393  0.7670  0.4948
 4451SOL    HW224816   4.160   0.322  16.361  0.5540  0.3925 -2.7567
 4452SOL     OW24817   4.277   0.030   2.787  0.3460 -0.2122  0.0900
 4452SOL    HW124818   4.349   4.694   2.809  0.8444  0.3317 -0.0602
 4452SOL    HW224819   4.302   0.048   2.696  0.2434 -2.2799 -0.3570
 4453SOL     OW24820   2.513   0.597   6.024  0.2313  0.1509 -0.2551
 4453SOL    HW124821   2.530   0.594   5.929  1.6625 -3.0571  0.1039
 4453SOL    HW224822   2.590   0.645   6.053 -0.3041  2.3107 -2.3900
 4454SOL     OW24823   0.279   2.512   7.975 -0.1746  0.1470 -0.2013
 4454SOL    HW124824   0.308   2.570   7.905 -1.5048 -1.5288 -2.1427
 4454SOL    HW224825   0.272   2.431   7.925  2.5716 -0.9458  1.2146
 4455SOL     OW24826   4.517   2.049   2.920  0.0239  0.1216 -0.0688
 4455SOL    HW124827   4.558   2.132   2.897  1.3357 -0.4962  0.0574
 4455SOL    HW224828   4.528   2.002   2.837  0.3428 -1.1609  0.6971
 4456SOL     OW24829   0.874   2.448  14.006 -0.3152 -0.6781  0.4168
 4456SOL    HW124830   0.886   2.529  14.056 -1.1498 -0.3790  0.1361
 4456SOL    HW224831   0.950   2.442  13.948 -0.9248  1.2480 -0.5839
 4457SOL     OW24832   0.763   4.532   8.679 -0.1704 -0.4900 -0.2447
 4457SOL    HW124833   0.796   4.514   8.766 -1.2448  0.2817  0.3311
 4457SOL    HW224834   0.677   4.572   8.696  1.2891  2.2031  0.6566
 4458SOL     OW24835   0.220   2.086   8.263  0.5947 -0.2747  0.3581
 4458SOL    HW124836   0.253   2.017   8.206  1.3916 -0.8129  1.4818
 4458SOL    HW224837   0.180   2.026   8.325 -0.9232  0.1818 -0.1852
 4459SOL     OW24838   3.381   0.696  12.660 -0.8125 -0.3666 -0.2930
 4459SOL    HW124839   3.464   0.654  12.683  0.8923  2.1681 -1.7920
 4459SOL    HW224840   3.386   0.690  12.565 -1.3915  2.4467 -0.5106
 4460SOL     OW24841   3.669   0.900   0.092 -0.4003  0.1329  0.2669
 4460SOL    HW124842   3.686   0.874   0.182 -0.5103  3.2869  1.2116
 4460SOL    HW224843   3.756   0.937   0.076 -0.3122 -1.0199 -1.9465
 4461SOL     OW24844   2.083   0.483   1.026  0.5801 -0.1174 -0.2600
 4461SOL    HW124845   2.172   0.517   1.016  1.5219 -1.9907  1.6939
 4461SOL    HW224846   2.051   0.536   1.099  2.1660  0.6801 -0.1535
 4462SOL     OW24847   2.740   2.402   3.494 -0.1877  0.0563 -0.0848
 4462SOL    HW124848   2.720   2.452   3.573 -0.1794 -0.8998  0.5284
 4462SOL    HW224849   2.764   2.313   3.518  0.2472  0.1932 -0.0190
 4463SOL     OW24850   0.449   0.033   7.483  0.1067  0.4461 -0.5362
 4463SOL    HW124851   0.541   0.014   7.501 -1.2068 -5.0587  0.3805
 4463SOL    HW224852   0.404   4.686   7.528 -0.5750  1.3737  0.2539
 4464SOL     OW24853   3.746   4.035   2.716  0.5235  0.1492 -0.2607
 4464SOL    HW124854   3.675   4.052   2.655  1.6270  0.4606 -1.4682
 4464SOL    HW224855   3.719   4.073   2.799 -0.9664  0.5825 -0.9601
 4465SOL     OW24856   2.453   2.412  13.686  0.5205  0.3147  0.5373
 4465SOL    HW124857   2.443   2.479  13.618  3.2130 -0.3148 -0.4816
 4465SOL    HW224858   2.395   2.447  13.753  1.4637 -0.1157  1.5741
 4466SOL     OW24859   0.815   0.090   8.586 -0.0518  0.4336 -0.1422
 4466SOL    HW124860   0.739   0.039   8.613 -1.2336  2.2216 -0.0707
 4466SOL    HW224861   0.882   0.022   8.580 -0.5505 -0.0506 -0.1843
 4467SOL     OW24862   1.956   4.342   9.454  0.3437 -0.0170 -0.2594
 4467SOL    HW124863   1.984   4.259   9.493 -1.6683 -0.4418  0.2787
 4467SOL    HW224864   1.866   4.313   9.439 -0.0653  0.2697  1.5792
 4468SOL     OW24865   1.789   2.985   3.710 -0.0481 -0.1099  0.3759
 4468SOL    HW124866   1.808   2.962   3.619  1.8097  0.7723  0.5446
 4468SOL    HW224867   1.714   2.931   3.736 -0.3446 -1.0879 -2.4929
 4469SOL     OW24868   0.964   4.724   7.033 -0.3412 -0.3316 -0.1488
 4469SOL    HW124869   1.054   4.700   7.012  0.1199  0.4128  0.9498
 4469SOL    HW224870   0.951   0.057   6.957  5.0578  0.7553 -0.2270
 4470SOL     OW24871   1.989   2.693   9.933  0.6472  0.2005 -0.9746
 4470SOL    HW124872   2.043   2.635   9.879  1.6106 -0.5187  0.7975
 4470SOL    HW224873   1.903   2.651   9.929  1.0265 -0.7229  0.8375
 4471SOL     OW24874   1.016   4.439   7.831 -0.1910  0.3080 -0.0059
 4471SOL    HW124875   1.089   4.447   7.893 -2.1166  1.8998  2.0491
 4471SOL    HW224876   0.949   4.458   7.897 -0.7927 -1.2294 -0.1638
 4472SOL     OW24877   0.154   2.295   0.996  0.5975  0.1565  0.5421
 4472SOL    HW124878   0.158   2.199   0.988 -0.5550  0.1280  0.3968
 4472SOL    HW224879   0.065   2.312   1.027 -0.2654 -2.5594 -0.3980
 4473SOL     OW24880   1.189   4.617  15.795 -0.2943  0.1420  0.0553
 4473SOL    HW124881   1.139   4.580  15.868 -0.1673 -0.9240 -0.3921
 4473SOL    HW224882   1.222   4.541  15.748  1.7472  0.7590  0.4911
 4474SOL     OW24883   2.647   0.842   3.826 -0.1126 -0.0951  0.0047
 4474SOL    HW124884   2.610   0.924   3.794 -1.2155 -0.2702  0.8575
 4474SOL    HW224885   2.739   0.864   3.842 -0.3654  0.7720  0.2384
 4475SOL     OW24886   1.189   3.668  16.730  0.1836  0.2362  0.0827
 4475SOL    HW124887   1.188   3.740  16.667 -0.5069 -1.2091 -1.5494
 4475SOL    HW224888   1.277   3.677  16.765  0.0799  0.1329  0.3683
 4476SOL     OW24889   0.891   0.837   5.654 -0.3534  0.4929  1.1737
 4476SOL    HW124890   0.957   0.902   5.629  1.3935 -0.6082  2.9154
 4476SOL    HW224891   0.842   0.830   5.572 -0.2663 -0.0504  1.1632
 4477SOL     OW24892   1.571   1.145  12.393 -0.1305  0.5333 -0.2878
 4477SOL    HW124893   1.581   1.160  12.299  2.7126  0.0517 -0.0456
 4477SOL    HW224894   1.493   1.196  12.413  2.2801  4.5577 -1.2964
 4478SOL     OW24895   1.360   4.524   0.246  0.5031 -0.3134  0.4977
 4478SOL    HW124896   1.317   4.599   0.286  1.0235  0.3222 -0.1358
 4478SOL    HW224897   1.373   4.470   0.324  1.3567  1.4786  1.5919
 4479SOL     OW24898   0.535   1.785  16.684  0.4497  0.5684 -0.5533
 4479SOL    HW124899   0.502   1.717  16.626 -0.1572 -1.4428  2.1529
 4479SOL    HW224900   0.476   1.774  16.759 -0.0090  0.2489 -0.9584
 4480SOL     OW24901   2.209   2.411   7.967 -0.7313  0.0340  0.0947
 4480SOL    HW124902   2.237   2.338   8.024 -3.6765 -1.8441 -0.8909
 4480SOL    HW224903   2.134   2.368   7.925  0.4507 -2.3077  0.3349
 4481SOL     OW24904   4.130   2.969   6.582 -0.3429 -0.2839 -0.0751
 4481SOL    HW124905   4.082   3.038   6.537  0.1217  0.4148  0.4911
 4481SOL    HW224906   4.199   3.023   6.621  0.7153 -2.3536  0.9462
 4482SOL     OW24907   3.775   4.615  14.696  0.4147  0.1651  0.1985
 4482SOL    HW124908   3.711   4.684  14.679 -1.9994 -2.1533 -0.1608
 4482SOL    HW224909   3.849   4.673  14.709 -0.4679  1.4070 -0.3849
 4483SOL     OW24910   0.678   0.540  15.428 -0.7228 -0.1979  0.2292
 4483SOL    HW124911   0.760   0.574  15.463 -0.6808  0.1054 -0.1654
 4483SOL    HW224912   0.704   0.448  15.426 -1.2268 -0.3515  0.8748
 4484SOL     OW24913   4.261   0.312   1.831  0.3725  0.7785 -0.1368
 4484SOL    HW124914   4.218   0.388   1.792  1.2669  1.2794 -0.1368
 4484SOL    HW224915   4.188   0.252   1.816  2.0709 -0.8144 -2.1031
 4485SOL     OW24916   4.437   3.584   7.935 -0.7403 -0.4365  0.6004
 4485SOL    HW124917   4.424   3.544   7.849 -3.1966  1.4509  0.1022
 4485SOL    HW224918   4.386   3.662   7.915  1.3222  0.2127 -2.0120
 4486SOL     OW24919   2.878   1.319   7.714  0.1997 -0.3626 -0.2946
 4486SOL    HW124920   2.849   1.228   7.701 -2.4904  0.5463 -0.6257
 4486SOL    HW224921   2.799   1.372   7.721  1.0003  0.6525  0.9969
 4487SOL     OW24922   2.209   1.271  10.716  0.7907  0.6784 -0.2599
 4487SOL    HW124923   2.185   1.288  10.807  3.1234  1.1697  0.2467
 4487SOL    HW224924   2.303   1.258  10.722  0.5156 -1.0967  0.2667
 4488SOL     OW24925   0.566   2.929   6.809  0.3278 -0.2035 -0.0322
 4488SOL    HW124926   0.500   2.874   6.767 -0.9117  0.5319  0.9364
 4488SOL    HW224927   0.641   2.874   6.788  2.2844  2.0562  1.0290
 4489SOL     OW24928   1.206   2.999   6.495  0.0555 -0.3808 -0.0445
 4489SOL    HW124929   1.289   3.012   6.541 -0.2565 -0.5227  0.5646
 4489SOL    HW224930   1.150   3.003   6.573 -0.6391 -0.7602 -0.5255
 4490SOL     OW24931   2.316   2.320   1.324 -0.1297 -0.2051  0.5795
 4490SOL    HW124932   2.231   2.312   1.279 -0.4896  1.3116  0.9978
 4490SOL    HW224933   2.322   2.415   1.323 -1.0008 -0.2252 -4.5262
 4491SOL     OW24934   1.548   4.304   1.088  0.1576  0.3235 -0.2868
 4491SOL    HW124935   1.526   4.347   1.005 -0.4149 -0.9005 -0.7656
 4491SOL    HW224936   1.604   4.368   1.133  0.4990 -0.7046  0.7235
 4492SOL     OW24937   3.116   2.914   3.493  0.6381 -0.0332 -0.2968
 4492SOL    HW124938   3.056   2.840   3.478  1.1094 -0.5260  0.2398
 4492SOL    HW224939   3.073   2.945   3.573 -2.9852  2.1612 -3.1171
 4493SOL     OW24940   3.740   1.117   7.927 -0.3649  0.2776  0.1693
 4493SOL    HW124941   3.789   1.167   7.993  0.3916  1.1399 -1.0557
 4493SOL    HW224942   3.713   1.191   7.873  1.4982  0.6498 -0.2502
 4494SOL     OW24943   3.899   1.954   7.093 -0.4085  0.2221 -0.1325
 4494SOL    HW124944   3.960   2.010   7.045 -1.7980  0.2009 -1.9047
 4494SOL    HW224945   3.922   1.975   7.183  1.3827  0.0534 -0.5508
 4495SOL     OW24946   2.833   4.602   0.511  0.5680  0.1385  0.3191
 4495SOL    HW124947   2.837   4.629   0.603 -3.2661  1.3096  0.1165
 4495SOL    HW224948   2.911   4.645   0.476  0.0198  0.8353 -0.0463
 4496SOL     OW24949   1.589   2.798   8.208  0.2712  0.0003 -0.2781
 4496SOL    HW124950   1.628   2.782   8.294 -2.2070 -2.0921  0.4541
 4496SOL    HW224951   1.584   2.709   8.174 -2.2887 -0.4190  1.1799
 4497SOL     OW24952   3.817   2.727   6.114 -0.1107 -0.6171  0.4971
 4497SOL    HW124953   3.803   2.816   6.147 -0.3326  0.2109 -1.8636
 4497SOL    HW224954   3.732   2.702   6.077  0.7409 -0.3361 -1.6384
 4498SOL     OW24955   2.234   3.041   9.326 -0.3363 -0.1630 -0.3283
 4498SOL    HW124956   2.260   3.127   9.359 -2.6922  0.8696 -1.1632
 4498SOL    HW224957   2.146   3.071   9.303  0.9465  2.1389 -2.2571
 4499SOL     OW24958   1.126   4.418   5.105  0.5179 -0.4536 -0.1131
 4499SOL    HW124959   1.113   4.468   5.185  0.5623 -4.3485  2.3561
 4499SOL    HW224960   1.124   4.327   5.136  0.5149 -0.3642  0.1491
 4500SOL     OW24961   0.052   1.708   5.148 -0.2378  0.7274  0.1271
 4500SOL    HW124962   4.699   1.654   5.133 -0.7214  0.6201  3.0183
 4500SOL    HW224963   0.061   1.754   5.064 -3.1597 -0.4423 -0.8026
 4501SOL     OW24964   3.549   3.304   5.596 -0.4681  0.0440  0.5768
 4501SOL    HW124965   3.531   3.210   5.594  0.9397 -0.2322  1.0618
 4501SOL    HW224966   3.484   3.334   5.533 -0.3257 -1.9401 -0.5200
 4502SOL     OW24967   1.992   0.527  17.297 -0.0248 -0.4823  0.2371
 4502SOL    HW124968   1.988   0.587  17.223  1.4562  1.2139  1.5298
 4502SOL    HW224969   1.934   0.567  17.361 -0.3548 -3.1176  1.6107
 4503SOL     OW24970   3.463   0.754   2.687 -0.5361 -0.0616  0.0791
 4503SOL    HW124971   3.460   0.768   2.592  0.2090 -2.6024 -0.3079
 4503SOL    HW224972   3.405   0.827   2.708  0.2606  0.1717  1.4575
 4504SOL     OW24973   3.659   4.365  15.487  0.6331 -0.1681 -0.5994
 4504SOL    HW124974   3.607   4.352  15.566 -0.7901 -1.0394 -1.6797
 4504SOL    HW224975   3.607   4.402  15.415  0.8585  0.9019 -0.2065
 4505SOL     OW24976   3.833   1.815   5.162  0.1305  0.3571  0.1704
 4505SOL    HW124977   3.900   1.748   5.171 -0.1370 -0.1181 -1.4183
 4505SOL    HW224978   3.807   1.808   5.070  0.3540 -1.8536  0.2692
 4506SOL     OW24979   2.513   4.606   8.668 -0.2920 -0.5354 -0.2469
 4506SOL    HW124980   2.439   4.630   8.723 -1.1594  0.3237 -1.7794
 4506SOL    HW224981   2.511   4.676   8.601 -1.0542  1.2340  1.6347
 4507SOL     OW24982   0.891   3.595   3.199 -0.3016  0.3730 -0.1626
 4507SOL    HW124983   0.841   3.666   3.238 -0.9002 -1.1002  1.7890
 4507SOL    HW224984   0.836   3.578   3.122 -1.7817  0.1408  0.9469
 4508SOL     OW24985   3.426   4.316   1.706 -0.7430 -0.1503 -0.1026
 4508SOL    HW124986   3.481   4.326   1.628 -0.6411 -0.1415 -0.0299
 4508SOL    HW224987   3.383   4.233   1.686 -1.3805  0.1273  0.1100
 4509SOL     OW24988   2.030   4.709   4.328 -0.0772  0.0553 -0.1267
 4509SOL    HW124989   2.011   0.077   4.313 -2.8255 -0.9751 -2.9975
 4509SOL    HW224990   1.966   4.656   4.281 -1.1045  1.2412 -0.0547
 4510SOL     OW24991   2.933   3.937   7.581 -0.2025  0.0273 -0.1153
 4510SOL    HW124992   2.841   3.917   7.563 -0.3800  0.0691  0.7691
 4510SOL    HW224993   2.943   3.916   7.674 -1.8140  0.0264  0.0648
 4511SOL     OW24994   4.631   3.914  16.935 -0.3182  0.1797  0.4495
 4511SOL    HW124995   4.694   3.868  16.879 -3.5018 -3.2620 -0.2941
 4511SOL    HW224996   4.592   3.840  16.982 -2.8273  1.3149  0.1377
 4512SOL     OW24997   3.244   1.396   8.031 -0.2728 -0.2538 -0.2062
 4512SOL    HW124998   3.293   1.316   8.014  1.1382  0.7106 -0.6637
 4512SOL    HW224999   3.224   1.397   8.125 -1.8382 -1.2515 -0.5218
 4513SOL     OW25000   3.807   4.270  16.416  0.0172  0.1496 -0.5016
 4513SOL    HW125001   3.885   4.259  16.470  0.1725 -0.7526 -0.9204
 4513SOL    HW225002   3.848   4.321  16.347  3.7583  0.8726  2.2740
 4514SOL     OW25003   3.153   1.841  15.290  0.0797  0.5943  0.5640
 4514SOL    HW125004   3.158   1.795  15.373 -1.3949  0.7096  0.7170
 4514SOL    HW225005   3.092   1.785  15.242 -1.1779  1.4624  1.1645
 4515SOL     OW25006   4.352   0.755   5.209  0.6964  0.3044 -0.1035
 4515SOL    HW125007   4.288   0.693   5.176 -0.2712  1.6947 -0.8465
 4515SOL    HW225008   4.403   0.689   5.255 -0.0984  1.0009  1.7535
 4516SOL     OW25009   3.698   3.219   2.387 -0.5664 -0.1635 -0.5252
 4516SOL    HW125010   3.698   3.129   2.354 -0.9602  0.3536 -1.9292
 4516SOL    HW225011   3.743   3.206   2.471 -2.6350 -0.3921  0.5419
 4517SOL     OW25012   2.225   3.646   4.635  0.5404 -0.6494 -0.1331
 4517SOL    HW125013   2.189   3.570   4.589 -1.7517  0.4274 -0.0842
 4517SOL    HW225014   2.247   3.708   4.566 -1.1052  2.4265  2.1472
 4518SOL     OW25015   2.782   4.432   4.712 -0.3926  0.2036  0.2617
 4518SOL    HW125016   2.702   4.441   4.660  0.2706  0.5684 -0.6775
 4518SOL    HW225017   2.753   4.369   4.778  1.5249 -0.7461  0.2010
 4519SOL     OW25018   0.228   0.479   8.077 -0.2740 -0.3543  0.1833
 4519SOL    HW125019   0.292   0.512   8.015 -1.2868  1.5302  0.1601
 4519SOL    HW225020   0.224   0.554   8.136 -1.6673  0.6323 -1.1744
 4520SOL     OW25021   0.884   2.980   0.424 -0.1882  0.0692 -0.0416
 4520SOL    HW125022   0.819   2.923   0.384 -1.1560  1.5305 -0.5748
 4520SOL    HW225023   0.829   3.022   0.490  0.2660 -0.4910  0.6911
 4521SOL     OW25024   1.031   2.785   5.163 -0.1478 -0.0636 -0.3424
 4521SOL    HW125025   1.016   2.812   5.254  0.3856  0.8096 -0.5155
 4521SOL    HW225026   1.037   2.867   5.114  0.0473  0.5933  0.7601
 4522SOL     OW25027   4.714   2.713   8.343  0.0616  0.2552  0.0399
 4522SOL    HW125028   0.039   2.710   8.425  0.8423 -0.0065 -0.4277
 4522SOL    HW225029   0.036   2.656   8.281 -1.1590 -1.4103  0.6973
 4523SOL     OW25030   1.519   4.634  11.642 -0.1166  0.6234 -0.0457
 4523SOL    HW125031   1.464   4.573  11.593 -0.1452  2.0964 -1.8562
 4523SOL    HW225032   1.590   4.648  11.580  0.8111  2.1891  1.3619
 4524SOL     OW25033   3.348   2.991   2.775  0.1015  0.5438 -0.0485
 4524SOL    HW125034   3.290   3.003   2.850 -0.2016 -3.2132  0.3357
 4524SOL    HW225035   3.403   3.069   2.776  0.8627  0.0281 -1.2496
 4525SOL     OW25036   0.351   1.977   0.625  0.0370  0.0598 -0.2210
 4525SOL    HW125037   0.362   2.004   0.716 -3.1389  2.2544 -0.4744
 4525SOL    HW225038   0.420   1.913   0.610 -0.6516 -1.5681  3.7481
 4526SOL     OW25039   2.997   0.494   1.239  0.5086 -0.1161  0.2039
 4526SOL    HW125040   2.946   0.429   1.190 -1.1255  1.8359 -0.6884
 4526SOL    HW225041   3.083   0.476   1.200 -0.0494 -0.6915 -0.7549
 4527SOL     OW25042   1.505   1.543   2.474 -0.0604  0.2656 -0.1486
 4527SOL    HW125043   1.492   1.638   2.474  0.3951  0.3308 -1.2446
 4527SOL    HW225044   1.447   1.523   2.547 -2.3473 -0.3600 -2.1445
 4528SOL     OW25045   0.611   4.223   3.119 -0.4350  0.0560  0.9700
 4528SOL    HW125046   0.622   4.314   3.146 -0.1253  0.0016  1.0303
 4528SOL    HW225047   0.581   4.227   3.028  0.4208  0.9661  0.7296
 4529SOL     OW25048   1.138   3.501  16.954 -0.2681 -0.1715  0.7239
 4529SOL    HW125049   1.129   3.586  16.997 -1.1084  0.6793 -1.1346
 4529SOL    HW225050   1.156   3.544  16.870 -0.3168  0.5446  1.0747
 4530SOL     OW25051   3.270   1.954   2.203 -0.2925 -0.5583 -0.1095
 4530SOL    HW125052   3.249   1.899   2.278  0.1189  1.3532  1.3981
 4530SOL    HW225053   3.364   1.934   2.199  0.3746  2.4608  0.4648
 4531SOL     OW25054   0.830   3.091   8.361  0.0094 -0.0632 -0.2430
 4531SOL    HW125055   0.871   3.077   8.275  0.2425  1.8573 -0.4247
 4531SOL    HW225056   0.748   3.042   8.359 -0.6392  1.0294  0.1957
 4532SOL     OW25057   2.830   4.126   7.278 -0.4894  0.1896  0.0625
 4532SOL    HW125058   2.919   4.149   7.251 -0.2037 -0.8044  0.1665
 4532SOL    HW225059   2.814   4.174   7.360  0.6142  2.5326 -1.0812
 4533SOL     OW25060   1.533   1.728   7.659  0.0048  0.5670 -0.2089
 4533SOL    HW125061   1.517   1.712   7.566 -0.2798 -0.9326  0.1020
 4533SOL    HW225062   1.477   1.660   7.695 -1.3630  2.3492  1.0498
 4534SOL     OW25063   0.225   1.339   4.962  0.0732 -0.1667  0.6177
 4534SOL    HW125064   0.191   1.265   4.912 -0.3600  1.2281 -1.1896
 4534SOL    HW225065   0.233   1.304   5.051 -0.3756  1.4224  1.2871
 4535SOL     OW25066   0.755   3.231   5.005 -0.0359  0.2798  0.3142
 4535SOL    HW125067   0.732   3.261   4.917  0.9825 -0.3739 -0.1846
 4535SOL    HW225068   0.850   3.237   5.012 -0.0342  0.3360  0.2299
 4536SOL     OW25069   0.714   1.054  11.158 -0.2371  0.2866 -0.4196
 4536SOL    HW125070   0.732   1.139  11.118 -1.7796  0.7671 -0.1005
 4536SOL    HW225071   0.798   1.010  11.151  0.1795  1.0714 -0.3665
 4537SOL     OW25072   1.177   4.411   3.141  0.6339 -0.1252 -0.0124
 4537SOL    HW125073   1.087   4.381   3.129  0.6911  0.6868 -2.3526
 4537SOL    HW225074   1.183   4.368   3.226 -2.2266  0.9814  0.7425
 4538SOL     OW25075   3.248   0.774   4.243 -0.4035  0.0171  0.1343
 4538SOL    HW125076   3.274   0.702   4.185 -3.6872 -1.4723  0.5473
 4538SOL    HW225077   3.213   0.720   4.314 -0.9107 -0.5451 -0.5494
 4539SOL     OW25078   3.959   3.555  11.072 -0.1458  0.2592 -0.1884
 4539SOL    HW125079   3.871   3.535  11.105  0.2362 -0.2918  0.5035
 4539SOL    HW225080   3.974   3.485  11.009 -3.4016 -1.4119  0.9052
 4540SOL     OW25081   0.118   1.570  14.066 -0.1095 -0.5191 -0.1722
 4540SOL    HW125082   0.116   1.621  13.985 -0.7318 -1.6843 -0.8920
 4540SOL    HW225083   0.040   1.517  14.048  0.2353 -2.0533  2.8733
 4541SOL     OW25084   0.318   0.968   5.511 -0.4718  0.3130 -0.3669
 4541SOL    HW125085   0.234   1.013   5.520 -0.6068 -0.0870  0.3909
 4541SOL    HW225086   0.317   0.912   5.434 -1.4855  1.0835 -0.9193
 4542SOL     OW25087   3.622   0.362  14.618  0.1849  0.2963 -0.3350
 4542SOL    HW125088   3.615   0.444  14.668 -1.0854  0.9250 -1.5318
 4542SOL    HW225089   3.618   0.290  14.681  0.6785  1.3906  0.9581
 4543SOL     OW25090   1.409   4.580  10.315  0.5830 -0.7054 -0.2238
 4543SOL    HW125091   1.318   4.597  10.340  0.5792  0.7742 -1.2801
 4543SOL    HW225092   1.411   4.485  10.303 -0.4686 -0.5447 -1.7681
 4544SOL     OW25093   3.904   4.284   3.300  0.1046 -0.8466 -0.4874
 4544SOL    HW125094   3.957   4.280   3.380  1.9093  1.2753 -1.5846
 4544SOL    HW225095   3.942   4.365   3.266  0.9850 -1.0286  0.0541
 4545SOL     OW25096   0.524   2.244  13.331 -0.1506 -0.2087  0.8360
 4545SOL    HW125097   0.544   2.333  13.360 -0.0839  0.1412 -0.2665
 4545SOL    HW225098   0.495   2.203  13.412 -1.8391 -1.2403 -0.2757
 4546SOL     OW25099   0.499   3.710   2.058 -0.2364  0.1319  0.4576
 4546SOL    HW125100   0.570   3.746   2.110  0.2708  0.3723 -0.4025
 4546SOL    HW225101   0.538   3.630   2.023  0.6049  1.0808 -0.8053
 4547SOL     OW25102   0.808   1.074   3.797 -0.1064  0.2469 -0.5429
 4547SOL    HW125103   0.799   1.152   3.741 -1.9669  2.3364  2.6778
 4547SOL    HW225104   0.724   1.048   3.833 -0.7224  0.6219 -1.6781
 4548SOL     OW25105   0.997   1.235   7.324  0.3298 -0.5144 -0.2172
 4548SOL    HW125106   0.916   1.184   7.328  0.6580 -0.9367  1.0169
 4548SOL    HW225107   1.052   1.203   7.252 -1.4102 -3.0202 -0.4368
 4549SOL     OW25108   3.463   0.501  13.669  0.1398  0.0847 -0.0968
 4549SOL    HW125109   3.555   0.485  13.646  0.7519  2.7096  0.5092
 4549SOL    HW225110   3.437   0.559  13.597  0.4268  0.9825  0.5347
 4550SOL     OW25111   1.002   1.586  14.183  0.0716  0.0556 -0.3516
 4550SOL    HW125112   1.095   1.567  14.197 -0.1979  0.3992  1.9406
 4550SOL    HW225113   0.961   1.536  14.254 -3.0545  0.8734 -1.6097
 4551SOL     OW25114   0.041   1.120   5.257 -0.1124  0.0478  0.3722
 4551SOL    HW125115   4.674   1.125   5.227  0.0181  1.9886  0.3544
 4551SOL    HW225116   0.067   1.038   5.213 -1.9643 -0.2399 -0.1876
 4552SOL     OW25117   1.490   1.852   5.914  0.4511  0.1321 -0.7338
 4552SOL    HW125118   1.472   1.774   5.966 -1.1211 -0.8464 -2.7543
 4552SOL    HW225119   1.577   1.879   5.942  0.6477 -1.0790 -0.1897
 4553SOL     OW25120   2.768   0.847   3.407  0.1557 -0.1997  0.2175
 4553SOL    HW125121   2.824   0.899   3.350 -0.4577 -0.4110 -0.5907
 4553SOL    HW225122   2.828   0.833   3.480  0.3639 -1.1710 -0.1433
 4554SOL     OW25123   0.493   2.413  10.184 -0.0638 -0.4924  0.1389
 4554SOL    HW125124   0.477   2.321  10.204  1.2271 -0.9918 -1.1099
 4554SOL    HW225125   0.432   2.451  10.247 -1.4219  1.6908 -2.5336
 4555SOL     OW25126   3.127   3.473   0.413  0.0145 -0.4050 -0.1415
 4555SOL    HW125127   3.104   3.382   0.396  0.1533 -0.3205 -0.7837
 4555SOL    HW225128   3.219   3.449   0.423 -0.2919 -2.1294 -1.5281
 4556SOL     OW25129   0.634   0.746  16.459  0.2500  0.6454 -0.4271
 4556SOL    HW125130   0.689   0.690  16.404  2.0950  1.9585  0.0771
 4556SOL    HW225131   0.570   0.685  16.494 -0.3393  0.4358 -1.8626
 4557SOL     OW25132   3.335   0.368   5.728 -0.8341  0.2561  0.4006
 4557SOL    HW125133   3.323   0.390   5.636 -1.3514 -2.2437 -0.1436
 4557SOL    HW225134   3.424   0.399   5.744 -0.5278 -0.0054 -0.7760
 4558SOL     OW25135   0.774   0.979   6.105  0.4418  0.1672  0.0472
 4558SOL    HW125136   0.746   0.950   6.018  1.9085  0.7151 -0.6114
 4558SOL    HW225137   0.809   1.066   6.087  0.2472  0.2478  0.0635
 4559SOL     OW25138   4.691   1.080   4.252 -0.0071  0.3669 -0.4815
 4559SOL    HW125139   0.025   1.006   4.239  0.1801  0.2495  1.1497
 4559SOL    HW225140   4.717   1.144   4.185  1.6572  0.7761  0.5587
 4560SOL     OW25141   0.865   1.472   7.452 -0.2352  0.2733  0.5037
 4560SOL    HW125142   0.924   1.397   7.450  1.2365  1.5661 -3.3418
 4560SOL    HW225143   0.888   1.506   7.539  0.1691  1.0867  0.0665
 4561SOL     OW25144   3.520   3.164   7.839 -0.3656 -0.6997 -0.0852
 4561SOL    HW125145   3.613   3.176   7.823 -0.2586  0.3200  1.3267
 4561SOL    HW225146   3.519   3.137   7.931  2.3801  1.4773  0.5820
 4562SOL     OW25147   2.978   1.559   5.568 -0.5334 -0.0875 -0.2514
 4562SOL    HW125148   2.989   1.639   5.619 -1.0725  0.3014 -0.7480
 4562SOL    HW225149   3.023   1.576   5.485 -1.2922  2.4516 -0.1266
 4563SOL     OW25150   2.052   3.162   9.669 -0.1267 -0.4790  0.0714
 4563SOL    HW125151   2.040   3.088   9.728 -1.5627  0.3744  0.8403
 4563SOL    HW225152   2.144   3.151   9.645 -0.7376 -0.2050 -2.4452
 4564SOL     OW25153   3.209   4.202   7.764  0.0642  0.2491  0.2059
 4564SOL    HW125154   3.187   4.120   7.806 -2.5287  1.6533  1.6036
 4564SOL    HW225155   3.171   4.191   7.677 -1.2833 -2.0585  1.1106
 4565SOL     OW25156   0.306   0.513   1.033 -0.2282 -0.4051 -0.2657
 4565SOL    HW125157   0.318   0.587   1.091  1.2558 -1.7052  1.0791
 4565SOL    HW225158   0.221   0.534   0.995  0.0843  0.2355 -0.6174
 4566SOL     OW25159   0.483   3.962   5.208  0.5614 -0.0346 -0.0414
 4566SOL    HW125160   0.404   4.014   5.193  0.0871 -1.3154 -2.0713
 4566SOL    HW225161   0.544   4.034   5.225 -0.5587  0.5373  1.4632
 4567SOL     OW25162   0.842   2.098   3.521 -0.2072  0.1527  0.4813
 4567SOL    HW125163   0.828   2.189   3.544  0.2504  0.4974 -0.5981
 4567SOL    HW225164   0.864   2.068   3.609 -0.5790  0.7112  0.7581
 4568SOL     OW25165   1.860   0.115   2.821  0.0891  0.2910  0.3112
 4568SOL    HW125166   1.955   0.119   2.814  0.1714 -0.3077  1.0115
 4568SOL    HW225167   1.835   0.138   2.732  0.3105  0.4848  0.2994
 4569SOL     OW25168   1.961   0.988  11.828  0.3411  1.1455  0.1483
 4569SOL    HW125169   1.981   0.894  11.828 -2.8019  0.4961 -0.2224
 4569SOL    HW225170   2.036   1.032  11.788 -0.2593  1.6799 -0.3751
 4570SOL     OW25171   1.364   0.226   4.768  0.6167  0.4735  0.1554
 4570SOL    HW125172   1.321   0.142   4.749 -1.7247  1.1299  2.6869
 4570SOL    HW225173   1.410   0.206   4.849 -0.7713 -3.2131  0.0508
 4571SOL     OW25174   0.984   1.489  11.172 -0.6935 -0.2997 -0.5851
 4571SOL    HW125175   0.998   1.435  11.094  0.9505  0.0726 -0.5453
 4571SOL    HW225176   1.004   1.575  11.134  0.4160 -0.3992 -0.2382
 4572SOL     OW25177   4.156   1.644   2.122  0.3667 -0.3431  0.1195
 4572SOL    HW125178   4.065   1.665   2.143  0.0394 -0.1725 -1.5087
 4572SOL    HW225179   4.205   1.725   2.137  0.1290 -0.7753  3.2815
 4573SOL     OW25180   4.287   2.788   5.537  0.1152 -0.3515 -0.2090
 4573SOL    HW125181   4.344   2.738   5.595  2.3836  1.7828 -0.5789
 4573SOL    HW225182   4.203   2.792   5.582  0.0713 -0.5093 -0.2759
 4574SOL     OW25183   2.927   0.407   5.647  0.1587  0.3170 -0.1196
 4574SOL    HW125184   3.020   0.390   5.630  0.7727  3.3991  0.0019
 4574SOL    HW225185   2.940   0.502   5.655  0.8696  0.0853  1.3930
 4575SOL     OW25186   4.485   2.275   5.451 -0.2149  0.9018 -0.2551
 4575SOL    HW125187   4.516   2.341   5.389 -1.2717  2.4060  0.8216
 4575SOL    HW225188   4.552   2.207   5.442  0.2526  1.4408 -0.8782
 4576SOL     OW25189   2.381   3.990  11.307 -0.3604  0.4693 -0.2151
 4576SOL    HW125190   2.305   3.996  11.249  0.7570  1.7997 -1.5333
 4576SOL    HW225191   2.343   3.920  11.361  0.2595 -0.2716 -0.7303
 4577SOL     OW25192   1.471   1.096   7.775  1.1098 -0.5440  0.0737
 4577SOL    HW125193   1.523   1.154   7.830  3.1446  0.5557 -2.9871
 4577SOL    HW225194   1.541   1.054   7.724  0.6938 -1.7181  0.4560
 4578SOL     OW25195   3.675   4.152   3.916  1.1202  0.4015  0.3099
 4578SOL    HW125196   3.677   4.159   3.820 -0.5567 -0.7660  0.1970
 4578SOL    HW225197   3.727   4.228   3.941  0.0110  0.5757  2.0504
 4579SOL     OW25198   0.243   4.571  12.860 -0.1967  1.0999 -0.0492
 4579SOL    HW125199   0.201   4.485  12.849  1.4309  0.2027  0.6344
 4579SOL    HW225200   0.199   4.601  12.940  3.8375 -2.0270  3.3843
 4580SOL     OW25201   3.735   2.062   7.544  0.1056  0.0348  0.0603
 4580SOL    HW125202   3.772   2.029   7.626 -0.4618  0.6088  0.5430
 4580SOL    HW225203   3.652   2.016   7.534  0.2357 -0.3127  0.5707
 4581SOL     OW25204   3.143   4.212   8.510  0.0903 -0.3187 -0.8569
 4581SOL    HW125205   3.200   4.174   8.577 -0.3240  1.2815  0.3950
 4581SOL    HW225206   3.091   4.134   8.488 -2.2802  0.8942  0.4288
 4582SOL     OW25207   4.322   0.838   1.641 -0.5253 -0.3469  0.7019
 4582SOL    HW125208   4.410   0.815   1.670 -0.7399  1.4418  2.7541
 4582SOL    HW225209   4.265   0.784   1.695 -2.0244 -0.1799 -0.7245
 4583SOL     OW25210   3.590   3.839   5.538 -0.2731 -0.2480 -0.2974
 4583SOL    HW125211   3.681   3.825   5.564 -0.7651 -0.3055  1.4403
 4583SOL    HW225212   3.585   3.925   5.498  3.6703 -0.0314 -0.2456
 4584SOL     OW25213   2.409   2.028  15.940 -0.1048 -0.0519 -0.4021
 4584SOL    HW125214   2.383   2.005  16.030  0.8171  1.7349  0.3216
 4584SOL    HW225215   2.363   2.111  15.928 -1.6164 -0.7132  0.8201
 4585SOL     OW25216   1.864   1.352   5.340  0.2229 -0.2907  0.0858
 4585SOL    HW125217   1.957   1.326   5.344  0.0903 -0.8583 -0.5862
 4585SOL    HW225218   1.841   1.324   5.429  1.0850 -0.4715  0.2550
 4586SOL     OW25219   2.281   3.029  10.097 -0.1805 -0.5271 -0.0172
 4586SOL    HW125220   2.345   3.046  10.028 -0.3765  3.7415  0.8629
 4586SOL    HW225221   2.348   2.995  10.156 -1.8139 -1.3228  1.4060
 4587SOL     OW25222   1.927   2.701   7.069 -0.1926 -0.5286 -0.0025
 4587SOL    HW125223   1.843   2.669   7.101  0.7460 -0.5931  2.4493
 4587SOL    HW225224   1.988   2.699   7.143  1.6153  0.6120 -1.4582
 4588SOL     OW25225   4.276   3.676  13.802 -0.5300  0.4595 -1.3335
 4588SOL    HW125226   4.343   3.726  13.755 -2.1341  3.5338 -0.3792
 4588SOL    HW225227   4.308   3.587  13.798  0.1042  0.6081  0.8539
 4589SOL     OW25228   3.421   4.688   6.274  0.2307 -0.3607  0.3178
 4589SOL    HW125229   3.420   4.644   6.359 -2.2217 -1.3922 -0.2404
 4589SOL    HW225230   3.343   0.018   6.289  1.3012  0.8535  1.5320
 4590SOL     OW25231   2.978   2.014   7.387  0.7408 -0.2811 -0.0800
 4590SOL    HW125232   3.051   1.954   7.368 -1.9994 -2.9500 -2.1488
 4590SOL    HW225233   2.904   1.979   7.339 -1.0303  2.0795  0.9420
 4591SOL     OW25234   4.029   2.260   6.278 -0.5315  0.3983  0.0960
 4591SOL    HW125235   4.000   2.331   6.221  0.9357 -0.5849 -1.8883
 4591SOL    HW225236   4.066   2.305   6.354 -0.2347 -1.9253  1.3450
 4592SOL     OW25237   3.395   1.155  10.857 -0.0634  0.1975 -0.3032
 4592SOL    HW125238   3.472   1.118  10.813 -1.3872  0.7074 -3.0162
 4592SOL    HW225239   3.437   1.186  10.938  0.4581  0.3665 -0.6390
 4593SOL     OW25240   1.727   4.172   7.842 -0.4224  0.7683 -0.5827
 4593SOL    HW125241   1.807   4.156   7.793  0.2212  0.1417  0.6696
 4593SOL    HW225242   1.675   4.214   7.774 -0.4389 -0.8234 -1.5580
 4594SOL     OW25243   2.738   4.325   0.065 -0.5774 -0.7631 -1.0968
 4594SOL    HW125244   2.770   4.386  17.695  0.5593 -0.6608 -0.4724
 4594SOL    HW225245   2.742   4.375   0.147 -1.6709  1.1921 -2.2123
 4595SOL     OW25246   2.674   3.091   1.785 -0.4453 -0.2267  0.6635
 4595SOL    HW125247   2.697   3.003   1.814 -0.2439  0.1488  1.6638
 4595SOL    HW225248   2.717   3.148   1.849 -1.2671 -2.8078  3.5611
 4596SOL     OW25249   4.054   2.239  16.267  0.6996 -0.3884 -0.6038
 4596SOL    HW125250   4.002   2.254  16.189  0.6815 -1.0360 -0.7121
 4596SOL    HW225251   4.131   2.291  16.245  0.4152 -0.4691 -1.7685
 4597SOL     OW25252   2.992   0.008   7.659  0.4195  0.5711 -0.6851
 4597SOL    HW125253   3.005   4.645   7.621 -1.1408  0.5137 -1.0856
 4597SOL    HW225254   2.911   4.721   7.709  0.3499  0.2561 -0.8673
 4598SOL     OW25255   3.850   1.550   5.340 -0.3352  0.0246 -0.2672
 4598SOL    HW125256   3.900   1.472   5.364  1.7415  1.3014 -0.4283
 4598SOL    HW225257   3.818   1.522   5.254 -0.5645  1.6680 -0.7204
 4599SOL     OW25258   1.124   3.402  12.362 -0.1847  0.2100  0.5400
 4599SOL    HW125259   1.208   3.358  12.355  0.0789  0.3600  3.0510
 4599SOL    HW225260   1.098   3.385  12.452  2.4958 -1.8477  0.9086
 4600SOL     OW25261   1.248   1.836   9.144  0.5750 -0.0593  0.1292
 4600SOL    HW125262   1.337   1.852   9.113 -0.4553  0.0273 -2.8647
 4600SOL    HW225263   1.261   1.822   9.237  2.2914  0.9024  0.0468
 4601SOL     OW25264   2.163   1.844  10.559 -0.5062  0.1649 -0.4127
 4601SOL    HW125265   2.099   1.880  10.621 -2.6879  0.9236 -3.1126
 4601SOL    HW225266   2.196   1.774  10.615 -0.0707 -1.2375 -2.4736
 4602SOL     OW25267   2.977   2.146   5.202 -0.4905 -0.5056 -0.3335
 4602SOL    HW125268   2.934   2.219   5.157  1.7278  0.7308 -0.4412
 4602SOL    HW225269   3.013   2.106   5.123 -1.9681  0.2061 -1.3609
 4603SOL     OW25270   4.347   2.992  11.310 -0.1572 -0.5694  0.3475
 4603SOL    HW125271   4.260   2.977  11.273 -0.4484 -2.8179  1.9454
 4603SOL    HW225272   4.380   2.902  11.315 -1.4615 -1.2117 -2.4863
 4604SOL     OW25273   2.993   0.865  11.245  0.2397 -0.3476  0.0148
 4604SOL    HW125274   2.967   0.831  11.160  0.8391  0.9260 -0.6902
 4604SOL    HW225275   2.908   0.895  11.278  0.1146 -2.8441  1.8983
 4605SOL     OW25276   1.303   1.244   2.992 -0.2273 -0.1185  0.0707
 4605SOL    HW125277   1.353   1.324   3.010 -0.3830 -0.0642  0.2644
 4605SOL    HW225278   1.210   1.265   3.005 -0.4458  0.1176 -1.9107
 4606SOL     OW25279   3.485   0.541  11.239 -0.6319  0.2120  0.9278
 4606SOL    HW125280   3.401   0.522  11.280 -1.7670  0.4968 -1.2797
 4606SOL    HW225281   3.476   0.628  11.198  2.2333 -1.0287 -2.3276
 4607SOL     OW25282   2.717   3.604   5.587  0.0065 -0.0912 -0.3997
 4607SOL    HW125283   2.707   3.640   5.499 -0.7888 -0.6659 -0.5495
 4607SOL    HW225284   2.811   3.604   5.603 -0.2019 -1.2489  0.8585
 4608SOL     OW25285   4.585   3.060   2.493  0.0657 -0.4569  0.0333
 4608SOL    HW125286   4.545   3.089   2.411  1.9718 -1.6227 -1.2977
 4608SOL    HW225287   4.513   3.000   2.512 -0.6374  0.6145  0.7426
 4609SOL     OW25288   1.561   0.879   8.814  0.6588 -0.2666 -0.1480
 4609SOL    HW125289   1.520   0.808   8.764  0.7131  0.7621 -1.6455
 4609SOL    HW225290   1.582   0.824   8.890 -0.9322  1.3497  1.4822
 4610SOL     OW25291   0.454   2.077   4.763 -0.5468 -0.3271 -0.0245
 4610SOL    HW125292   0.448   2.105   4.671 -0.9431 -0.5951 -0.0803
 4610SOL    HW225293   0.423   1.986   4.756 -0.7619 -0.1911 -0.8583
 4611SOL     OW25294   2.803   2.149   3.250 -0.1137 -0.0059 -0.2272
 4611SOL    HW125295   2.731   2.099   3.211 -0.0910 -0.0267 -0.2425
 4611SOL    HW225296   2.768   2.165   3.338 -0.6933  3.3410 -1.0584
 4612SOL     OW25297   0.018   2.549   6.656  1.2209 -0.6964 -0.0507
 4612SOL    HW125298   0.030   2.638   6.689 -0.7502 -0.3995 -0.1192
 4612SOL    HW225299   4.713   2.571   6.567  0.1545 -0.3989  0.3721
 4613SOL     OW25300   1.238   1.098   5.418  0.3218  0.7690 -0.4650
 4613SOL    HW125301   1.291   1.177   5.416  0.0608  0.9392 -0.6879
 4613SOL    HW225302   1.217   1.077   5.327  0.8730 -2.9017  0.2410
 4614SOL     OW25303   0.733   1.524   8.054  0.2641 -0.3781  0.3759
 4614SOL    HW125304   0.825   1.541   8.033 -0.1102 -0.2248 -1.0952
 4614SOL    HW225305   0.722   1.612   8.089 -0.1366 -1.1684  2.2650
 4615SOL     OW25306   1.310   4.335   2.595  0.8257  0.4234 -0.4476
 4615SOL    HW125307   1.329   4.271   2.526 -3.2569  0.2280 -1.4337
 4615SOL    HW225308   1.375   4.298   2.655  1.5266  0.8791 -0.9214
 4616SOL     OW25309   0.027   0.206  10.789  0.3465 -0.1333 -0.5978
 4616SOL    HW125310   0.009   0.200  10.883 -0.2652 -0.2197 -0.7207
 4616SOL    HW225311   0.079   0.286  10.784  0.1020  0.1101  0.9287
 4617SOL     OW25312   0.533   3.557   3.355 -0.7793 -0.0529  0.2082
 4617SOL    HW125313   0.456   3.614   3.356 -1.6272 -1.1908 -0.6276
 4617SOL    HW225314   0.600   3.625   3.347 -1.5713  0.9283  1.8504
 4618SOL     OW25315   2.892   3.954  10.197  0.5247 -0.6655  0.1188
 4618SOL    HW125316   2.838   4.029  10.223  0.8914 -0.3684  0.0204
 4618SOL    HW225317   2.822   3.891  10.179 -0.6772  0.4846  0.7644
 4619SOL     OW25318   2.358   3.555   5.956  0.4735  0.1832  0.1419
 4619SOL    HW125319   2.382   3.633   6.005 -2.0463  0.1970  1.3255
 4619SOL    HW225320   2.435   3.563   5.899  2.1279  1.0949  2.5577
 4620SOL     OW25321   3.038   1.035   5.907 -0.0491 -0.3087  0.3704
 4620SOL    HW125322   3.096   1.084   5.966  0.5049 -1.4748  0.7801
 4620SOL    HW225323   3.072   0.949   5.930  1.1306  0.3693  1.1768
 4621SOL     OW25324   2.298   3.109   4.731 -0.5796 -0.5165 -0.5297
 4621SOL    HW125325   2.241   3.065   4.668 -0.7923 -0.2123 -0.5523
 4621SOL    HW225326   2.254   3.189   4.761 -3.7745 -1.9228 -1.4799
 4622SOL     OW25327   1.190   4.656  17.506  0.2974 -0.4284 -0.4197
 4622SOL    HW125328   1.265   4.601  17.486 -0.1473 -1.5553  0.9763
 4622SOL    HW225329   1.152   4.654  17.418 -3.2957 -0.3117  1.1353
 4623SOL     OW25330   3.927   2.275   7.193 -0.1149 -0.0207 -0.4841
 4623SOL    HW125331   3.887   2.206   7.246 -1.7268  0.0808 -1.5581
 4623SOL    HW225332   3.965   2.221   7.123  0.6051 -0.4245  0.2191
 4624SOL     OW25333   1.042   0.690   5.041 -0.9142 -0.7305  0.0221
 4624SOL    HW125334   1.037   0.678   4.946 -0.8260 -1.1342  0.0685
 4624SOL    HW225335   1.126   0.650   5.063 -0.7050  0.3122  1.0987
 4625SOL     OW25336   1.736   1.249  15.745  0.0140  0.6964  0.2841
 4625SOL    HW125337   1.784   1.239  15.662 -1.6808  1.6129 -0.8034
 4625SOL    HW225338   1.806   1.282  15.802 -0.0460  0.4866  0.4784
 4626SOL     OW25339   0.271   1.713   5.537  0.6916 -0.1656 -0.3171
 4626SOL    HW125340   0.290   1.731   5.629 -1.5772 -0.4727  0.1985
 4626SOL    HW225341   0.336   1.655   5.497  2.2206  1.4415 -0.1668
 4627SOL     OW25342   3.178   4.045   4.343 -0.0706 -0.0256  0.6077
 4627SOL    HW125343   3.195   4.016   4.432 -3.6169 -0.6452  1.0838
 4627SOL    HW225344   3.252   4.005   4.297 -0.7797  0.2606 -0.8067
 4628SOL     OW25345   2.783   4.229   2.639  0.3065  0.1508 -0.1099
 4628SOL    HW125346   2.783   4.202   2.547 -0.4416  0.2463 -0.1352
 4628SOL    HW225347   2.797   4.324   2.639 -2.3914  0.5460  0.8079
 4629SOL     OW25348   3.332   1.012   9.306 -0.1300  0.8124 -0.0939
 4629SOL    HW125349   3.341   1.097   9.262 -1.7127  0.8593 -0.3249
 4629SOL    HW225350   3.299   0.959   9.234  0.9534  0.5351 -0.3855
 4630SOL     OW25351   2.564   1.726   5.367 -0.0673 -0.3742  0.5095
 4630SOL    HW125352   2.479   1.767   5.351 -0.6558 -1.1349  1.6891
 4630SOL    HW225353   2.614   1.769   5.297  1.9885  0.3045  2.4005
 4631SOL     OW25354   0.442   3.529  14.302  0.8084 -0.3083  0.2579
 4631SOL    HW125355   0.457   3.451  14.249 -0.3214 -1.3536  1.4738
 4631SOL    HW225356   0.484   3.595  14.247 -1.1747  1.9133  1.3901
 4632SOL     OW25357   1.895   4.297  14.905  0.6980 -0.0057  0.2450
 4632SOL    HW125358   1.912   4.353  14.830  1.6892  2.8792  2.6144
 4632SOL    HW225359   1.799   4.306  14.900  0.4803 -2.0212  0.6336
 4633SOL     OW25360   4.137   1.212   2.985 -0.5669  0.1770  0.1079
 4633SOL    HW125361   4.079   1.137   2.974 -0.2126 -0.2400  1.0998
 4633SOL    HW225362   4.104   1.255   3.064 -2.1520  0.6167 -0.7943
 4634SOL     OW25363   1.536   2.984   2.624  0.5577  0.5976 -0.2192
 4634SOL    HW125364   1.520   2.927   2.550  0.1179 -0.6411  0.8399
 4634SOL    HW225365   1.452   2.993   2.669 -1.8206  1.0178 -4.7230
 4635SOL     OW25366   3.060   1.226   4.397  0.2497  0.1420 -0.6554
 4635SOL    HW125367   3.127   1.246   4.331 -0.7151  2.5494 -0.9282
 4635SOL    HW225368   3.113   1.172   4.455 -0.4883 -1.2027 -1.2510
 4636SOL     OW25369   2.349   1.123   8.312  0.2034 -0.1124 -0.4348
 4636SOL    HW125370   2.305   1.065   8.374  0.7915  1.5802  1.5336
 4636SOL    HW225371   2.374   1.065   8.239  0.2463  0.5940 -0.9782
 4637SOL     OW25372   3.004   3.912   2.642  0.0481 -0.5172 -0.3089
 4637SOL    HW125373   3.093   3.892   2.614  0.5973 -0.8180  1.6230
 4637SOL    HW225374   2.963   3.901   2.556 -1.0782 -0.5738  0.2349
 4638SOL     OW25375   0.166   3.560   4.428  0.0526 -0.0988 -0.1351
 4638SOL    HW125376   0.161   3.502   4.353 -0.7309  3.1990 -2.6409
 4638SOL    HW225377   0.221   3.631   4.395  0.8069 -0.9275 -0.6615
 4639SOL     OW25378   2.909   4.288   5.980  0.5871 -0.0660  0.0825
 4639SOL    HW125379   2.964   4.311   6.054  1.9670 -1.8318 -0.3816
 4639SOL    HW225380   2.896   4.193   5.980  2.3146 -0.2840  1.5607
 4640SOL     OW25381   0.517   3.008  16.735  0.8370 -0.5305  0.1945
 4640SOL    HW125382   0.496   2.922  16.771  1.0850 -1.4022 -1.7184
 4640SOL    HW225383   0.465   2.994  16.656 -1.8193  0.2905  1.7797
 4641SOL     OW25384   2.997   2.069   5.846  0.4549  0.0591  0.2487
 4641SOL    HW125385   2.921   2.052   5.791 -0.9317 -0.7046  2.3644
 4641SOL    HW225386   2.946   2.109   5.917  1.3481  0.0689  0.8894
 4642SOL     OW25387   2.899   0.264   6.298  0.0404 -0.1922  0.0556
 4642SOL    HW125388   2.944   0.281   6.381  0.6910 -1.4367 -0.0514
 4642SOL    HW225389   2.926   0.175   6.277  0.5783 -0.2290  0.9450
 4643SOL     OW25390   2.762   3.933   0.487 -0.1189  0.1694 -0.2463
 4643SOL    HW125391   2.749   3.919   0.393  1.9393 -0.3341 -0.4706
 4643SOL    HW225392   2.679   3.902   0.522  1.3850 -0.4937  2.7709
 4644SOL     OW25393   3.382   1.238  16.906  0.6181  0.8287 -0.0235
 4644SOL    HW125394   3.422   1.228  16.993  0.3769  2.8126  0.3211
 4644SOL    HW225395   3.446   1.183  16.862  1.6286  1.2236  0.9379
 4645SOL     OW25396   0.069   1.716   3.683 -0.2503 -0.1691 -0.3275
 4645SOL    HW125397   0.139   1.651   3.692 -1.9174 -1.8811  0.4338
 4645SOL    HW225398   0.083   1.776   3.756  2.8009 -1.6112  0.2813
 4646SOL     OW25399   4.285   0.474   4.302  0.2261  0.0979 -0.5689
 4646SOL    HW125400   4.326   0.398   4.260  1.7903  0.5316  0.1584
 4646SOL    HW225401   4.333   0.553   4.275 -0.2301  0.6608  0.2742
 4647SOL     OW25402   3.591   3.781   9.659 -0.6252 -0.2943 -0.5045
 4647SOL    HW125403   3.529   3.850   9.683 -0.4164 -0.5407  0.7560
 4647SOL    HW225404   3.642   3.783   9.740  1.4386  1.8019 -1.8494
 4648SOL     OW25405   1.872   0.175   3.730  0.4418 -0.3039 -0.1828
 4648SOL    HW125406   1.890   0.105   3.667  0.9155  0.7723 -1.2297
 4648SOL    HW225407   1.924   0.165   3.810  1.0938  1.0929 -0.4296
 4649SOL     OW25408   1.353   4.475   8.532 -0.0456  0.8045 -0.2366
 4649SOL    HW125409   1.282   4.447   8.590  0.6489 -0.0618  0.1918
 4649SOL    HW225410   1.396   4.550   8.573 -1.3758 -0.1148  2.8572
 4650SOL     OW25411   1.314   3.673   8.425 -0.0137  0.4434 -0.3449
 4650SOL    HW125412   1.293   3.763   8.451 -0.0205  0.2623  0.2576
 4650SOL    HW225413   1.277   3.632   8.503  1.3880  1.3692  0.7973
 4651SOL     OW25414   1.767   2.071   2.602  0.0314 -0.5770  0.8209
 4651SOL    HW125415   1.673   2.068   2.585 -0.0123  0.9474  0.8183
 4651SOL    HW225416   1.770   2.029   2.688  3.6740  1.2459  1.6063
 4652SOL     OW25417   0.506   0.541   2.419  0.5328  0.3068 -0.5109
 4652SOL    HW125418   0.414   0.520   2.406  1.3638 -0.7089 -4.4408
 4652SOL    HW225419   0.512   0.637   2.427 -1.2566  0.4065 -0.3417
 4653SOL     OW25420   3.554   1.599   6.187  0.2597 -0.7029 -0.4706
 4653SOL    HW125421   3.505   1.551   6.253 -2.1723  1.0530 -1.0028
 4653SOL    HW225422   3.521   1.556   6.108  1.1146 -1.3285 -0.4918
 4654SOL     OW25423   1.879   4.516   8.035 -0.0627  0.1592 -0.7744
 4654SOL    HW125424   1.783   4.520   8.035 -0.0008  1.5822 -1.2248
 4654SOL    HW225425   1.901   4.525   7.942 -0.9596 -1.5969 -1.1700
 4655SOL     OW25426   0.602   3.993  16.091 -0.3421 -0.3058  0.4643
 4655SOL    HW125427   0.657   4.013  16.016  0.7888 -0.6305  1.2027
 4655SOL    HW225428   0.598   3.899  16.076 -2.5602 -0.2032  0.3991
 4656SOL     OW25429   3.192   3.036   5.407 -0.2395  0.3720  0.4079
 4656SOL    HW125430   3.161   3.081   5.485  2.6821  2.8442  0.1857
 4656SOL    HW225431   3.220   2.952   5.444 -0.4275 -0.9685 -2.4828
 4657SOL     OW25432   3.389   0.940  12.328  0.1160 -0.2089 -0.0112
 4657SOL    HW125433   3.411   0.853  12.360 -0.5893 -0.1947  0.5461
 4657SOL    HW225434   3.453   0.952  12.258 -1.9433  1.7888 -1.5562
 4658SOL     OW25435   0.961   1.899  12.383 -0.5346  0.0921  0.0593
 4658SOL    HW125436   0.978   1.847  12.304 -2.3153  0.8062 -0.7925
 4658SOL    HW225437   0.956   1.824  12.443 -0.2618 -1.8498 -2.3321
 4659SOL     OW25438   0.045   2.702   4.893  0.5362  0.4585 -0.2551
 4659SOL    HW125439   0.105   2.777   4.902  0.8831  0.1678 -0.1351
 4659SOL    HW225440   4.703   2.725   4.958  0.6655 -1.3305  0.4975
 4660SOL     OW25441   4.545   3.742   2.802  0.5719 -0.0527 -0.2997
 4660SOL    HW125442   4.622   3.793   2.828  0.0722 -0.4049  1.8541
 4660SOL    HW225443   4.570   3.678   2.735 -1.0082 -0.1036 -0.8232
 4661SOL     OW25444   2.071   3.300   0.051 -0.6748  0.1726 -0.2062
 4661SOL    HW125445   2.061   3.394   0.059 -0.4567  0.1677  0.1514
 4661SOL    HW225446   2.076   3.279   0.145  0.4466  1.0837 -0.0590
 4662SOL     OW25447   1.729   3.126   6.707 -0.4010 -0.0150  0.0823
 4662SOL    HW125448   1.714   3.146   6.800  0.6401  1.3255 -0.0354
 4662SOL    HW225449   1.723   3.031   6.717  0.1006 -0.1118 -0.5673
 4663SOL     OW25450   0.108   0.576   4.716 -0.3741  0.1348 -0.0052
 4663SOL    HW125451   0.111   0.660   4.763  0.1135 -0.3770  0.8820
 4663SOL    HW225452   0.114   0.518   4.792  0.4326  0.4294  0.1606
 4664SOL     OW25453   3.432   1.380   2.648 -0.4543  0.2271  0.4262
 4664SOL    HW125454   3.360   1.424   2.603 -0.0550 -2.2861 -2.6316
 4664SOL    HW225455   3.382   1.300   2.666 -0.0712 -0.4687 -1.6213
 4665SOL     OW25456   4.340   3.539   6.998 -1.0353 -0.4175  0.3028
 4665SOL    HW125457   4.286   3.587   6.935 -1.0320 -0.6992  0.0854
 4665SOL    HW225458   4.297   3.557   7.082  0.6805  2.9676  0.4549
 4666SOL     OW25459   3.451   2.174   9.635 -0.2879  0.3377 -0.2422
 4666SOL    HW125460   3.470   2.094   9.684  0.1045  0.7103  0.2129
 4666SOL    HW225461   3.437   2.135   9.549 -1.1435 -0.5519  0.3047
 4667SOL     OW25462   0.865   1.904   4.320 -0.5232  0.1232 -0.2673
 4667SOL    HW125463   0.917   1.916   4.400  2.1440  0.2764 -2.0083
 4667SOL    HW225464   0.924   1.858   4.259 -0.8713 -0.0241 -0.4899
 4668SOL     OW25465   4.128   1.872   9.287  0.2213  0.0224 -0.1153
 4668SOL    HW125466   4.056   1.865   9.350 -0.0385 -2.2817 -0.6771
 4668SOL    HW225467   4.101   1.797   9.235 -0.2950  1.0594 -1.3312
 4669SOL     OW25468   2.467   1.811   7.263  0.1507  0.3333 -0.1257
 4669SOL    HW125469   2.434   1.783   7.349  0.9684 -2.6623 -0.7832
 4669SOL    HW225470   2.392   1.790   7.207  1.7774 -1.6119 -1.5976
 4670SOL     OW25471   2.840   3.392   4.753  0.2346 -0.1799  0.1118
 4670SOL    HW125472   2.846   3.453   4.826  1.1677 -1.8505  1.4285
 4670SOL    HW225473   2.758   3.421   4.713 -0.0436 -1.8367 -0.5013
 4671SOL     OW25474   0.280   1.807  17.201  0.1008 -0.9026 -0.3753
 4671SOL    HW125475   0.318   1.887  17.164 -0.6486  0.7961  2.4692
 4671SOL    HW225476   0.343   1.797  17.272 -0.0668 -1.0372 -0.2433
 4672SOL     OW25477   1.163   0.480   5.872  0.0874  0.0801  0.0088
 4672SOL    HW125478   1.088   0.494   5.929  0.3041  0.8553  0.1010
 4672SOL    HW225479   1.122   0.494   5.786  1.7651 -0.4105 -0.8681
 4673SOL     OW25480   1.427   3.061   8.693 -0.2303 -0.3280  0.3265
 4673SOL    HW125481   1.347   3.108   8.718  1.0293  2.2474 -0.5072
 4673SOL    HW225482   1.493   3.123   8.723  0.8048 -0.8556 -0.8578
 4674SOL     OW25483   2.246   0.673   5.149 -0.1723  0.6468 -0.2853
 4674SOL    HW125484   2.261   0.604   5.213 -0.3488  1.0859  0.2308
 4674SOL    HW225485   2.159   0.649   5.117 -0.1911  2.6045 -1.7122
 4675SOL     OW25486   1.659   2.340   3.432 -0.8835 -0.0696 -0.5889
 4675SOL    HW125487   1.732   2.286   3.404 -1.2018 -1.7529  1.7886
 4675SOL    HW225488   1.598   2.331   3.359 -1.5703 -0.0486 -0.0281
 4676SOL     OW25489   1.989   1.758   5.950  0.1310  0.2032 -0.4680
 4676SOL    HW125490   2.053   1.814   5.995  0.4128 -0.3360 -0.1979
 4676SOL    HW225491   1.974   1.812   5.872 -3.2565 -0.4760 -0.2991
 4677SOL     OW25492   4.057   4.190   9.766 -0.2919  0.0656 -0.3609
 4677SOL    HW125493   4.144   4.206   9.730 -0.0076 -0.1718  0.2124
 4677SOL    HW225494   4.087   4.136   9.839  0.2997 -1.2605 -1.5883
 4678SOL     OW25495   4.645   1.632  15.132  0.0322  0.0849 -0.1107
 4678SOL    HW125496   4.721   1.583  15.162 -0.1050  0.1697  0.3842
 4678SOL    HW225497   4.577   1.566  15.127 -0.8651  0.7325  3.5071
 4679SOL     OW25498   2.309   2.843   1.942 -0.4166  0.7484 -0.1374
 4679SOL    HW125499   2.315   2.763   1.890  2.0369  0.5271  0.4832
 4679SOL    HW225500   2.301   2.801   2.028  1.2780  0.6758 -0.0183
 4680SOL     OW25501   3.493   2.359   5.362  0.7456 -0.4346 -0.0510
 4680SOL    HW125502   3.464   2.268   5.359 -1.0526  0.0651  1.8108
 4680SOL    HW225503   3.588   2.351   5.370  0.5686 -1.1904  1.3379
 4681SOL     OW25504   0.554   2.005   5.553  0.0121  0.0172  0.3513
 4681SOL    HW125505   0.530   2.093   5.524  0.5953  0.7927  2.2282
 4681SOL    HW225506   0.640   2.005   5.595  1.1729  0.9634 -2.0633
 4682SOL     OW25507   2.729   3.549   2.405 -0.1178  0.1560 -0.3959
 4682SOL    HW125508   2.705   3.470   2.357  1.5188 -0.5935  0.0506
 4682SOL    HW225509   2.743   3.502   2.487 -0.1945 -0.8243 -0.9442
 4683SOL     OW25510   2.360   1.817   3.266 -0.0199 -0.4423  0.5946
 4683SOL    HW125511   2.336   1.793   3.355 -0.5729  0.3032  0.6462
 4683SOL    HW225512   2.403   1.736   3.240 -0.3765 -0.6498  0.6535
 4684SOL     OW25513   2.317   4.435  16.674 -0.4725 -0.0752 -0.0777
 4684SOL    HW125514   2.275   4.353  16.649  0.8068 -0.0316 -2.3157
 4684SOL    HW225515   2.302   4.428  16.768 -1.2574 -1.1091 -0.2933
 4685SOL     OW25516   0.521   0.805   4.352  0.1453 -0.1477  0.2466
 4685SOL    HW125517   0.513   0.763   4.438  2.4896 -1.0122  0.0571
 4685SOL    HW225518   0.522   0.898   4.372  0.6688  0.4450 -2.5001
 4686SOL     OW25519   4.524   2.127  14.910  0.1011  0.4121  0.2357
 4686SOL    HW125520   4.606   2.169  14.884  0.0414  0.9638  0.9323
 4686SOL    HW225521   4.556   2.045  14.948 -1.5133  0.2708  1.2846
 4687SOL     OW25522   0.426   0.194   5.157  0.4954  0.5949 -0.0130
 4687SOL    HW125523   0.460   0.284   5.161  0.0221  0.8309 -1.2268
 4687SOL    HW225524   0.456   0.170   5.069  1.9232  1.4097  0.2385
 4688SOL     OW25525   0.863   2.633   5.880 -0.3422 -0.2653  0.2505
 4688SOL    HW125526   0.869   2.641   5.975  0.8120  1.1770  0.0613
 4688SOL    HW225527   0.815   2.551   5.869 -1.1316  0.1208  0.7951
 4689SOL     OW25528   3.099   3.731   0.050  0.5449 -0.0251  0.1381
 4689SOL    HW125529   3.066   3.820   0.063 -2.0089 -1.0436  0.5656
 4689SOL    HW225530   3.136   3.742  17.660 -2.1779  1.2021 -0.8730
 4690SOL     OW25531   2.497   2.628   4.533  0.4648  0.6116  0.0082
 4690SOL    HW125532   2.463   2.679   4.606 -0.1027 -0.6596  0.6257
 4690SOL    HW225533   2.483   2.691   4.463 -2.2248  0.4399  0.3976
 4691SOL     OW25534   3.291   1.579  11.204 -0.1550 -0.3466  0.0168
 4691SOL    HW125535   3.207   1.609  11.238  0.6069  0.0348  1.5522
 4691SOL    HW225536   3.260   1.552  11.118  0.5708 -2.3996  0.3900
 4692SOL     OW25537   3.870   3.848   6.206  0.4993 -0.2702  0.2370
 4692SOL    HW125538   3.903   3.938   6.198  0.3623 -0.2042  0.4476
 4692SOL    HW225539   3.938   3.802   6.255  1.7838 -0.0073 -1.2730
 4693SOL     OW25540   3.564   3.499  14.986 -0.4903 -0.2263  0.3730
 4693SOL    HW125541   3.544   3.428  14.925 -0.3044 -0.3912  0.5033
 4693SOL    HW225542   3.629   3.453  15.039  0.1927 -0.5602 -0.7595
 4694SOL     OW25543   2.415   3.643   3.509  0.0327  0.3870  0.2330
 4694SOL    HW125544   2.358   3.578   3.551 -1.1842  1.5757  0.4333
 4694SOL    HW225545   2.370   3.649   3.425  0.6951 -1.2937 -0.2488
 4695SOL     OW25546   0.650   4.585  16.594  0.9386 -0.4292 -0.2853
 4695SOL    HW125547   0.667   4.491  16.597 -0.0417 -0.6562 -2.1777
 4695SOL    HW225548   0.582   4.596  16.527 -1.0305 -1.8454  1.4914
 4696SOL     OW25549   2.572   2.761   3.173  0.5125  0.1395  0.7425
 4696SOL    HW125550   2.572   2.724   3.084 -0.6454 -1.3454  1.3530
 4696SOL    HW225551   2.494   2.714   3.204  0.9894  0.8197  2.9673
 4697SOL     OW25552   4.321   4.539  11.386  0.6904  0.6422 -0.1056
 4697SOL    HW125553   4.312   4.489  11.305 -1.1573  3.8576 -1.8447
 4697SOL    HW225554   4.416   4.534  11.388  0.5990 -0.8240  1.2068
 4698SOL     OW25555   0.268   1.111   2.865 -0.1020  0.1269 -0.1879
 4698SOL    HW125556   0.244   1.158   2.945  0.3765 -0.8399  0.5131
 4698SOL    HW225557   0.185   1.089   2.823  0.1280 -2.1077  0.5623
 4699SOL     OW25558   4.314   2.857   3.060  0.0181  0.2681  0.7867
 4699SOL    HW125559   4.402   2.828   3.082  0.2557  0.9817  0.7721
 4699SOL    HW225560   4.335   2.950   3.047  1.4285  0.0464  1.4961
 4700SOL     OW25561   0.590   0.100   4.878  0.2382  0.0299  0.3443
 4700SOL    HW125562   0.663   0.058   4.925 -0.7730 -1.4223  0.6328
 4700SOL    HW225563   0.638   0.156   4.817  1.2211 -0.8313  0.3196
 4701SOL     OW25564   1.712   2.166  14.324 -0.4991 -0.8126  1.2471
 4701SOL    HW125565   1.682   2.082  14.289  2.5308 -0.7504 -1.4705
 4701SOL    HW225566   1.626   2.203  14.344 -0.0808  0.2442  1.0781
 4702SOL     OW25567   2.868   3.849   3.816 -0.2326  0.1024  0.4289
 4702SOL    HW125568   2.877   3.845   3.720  1.2467  0.2180  0.5636
 4702SOL    HW225569   2.943   3.815   3.864  0.0889  0.5403  0.2294
 4703SOL     OW25570   3.015   0.109   5.021 -0.3343 -0.4517  0.1055
 4703SOL    HW125571   3.052   0.191   5.055 -1.7786 -0.3563  1.4863
 4703SOL    HW225572   3.015   0.054   5.099  0.6623 -1.3339 -0.5321
 4704SOL     OW25573   0.816   3.247   4.730 -0.3933  0.5114 -0.1485
 4704SOL    HW125574   0.910   3.254   4.715 -0.8284  2.8259 -1.6256
 4704SOL    HW225575   0.778   3.311   4.671  0.1530  1.3148  0.3732
 4705SOL     OW25576   2.064   2.336   3.942 -0.1690 -0.2623 -0.0599
 4705SOL    HW125577   2.090   2.324   4.033  1.7281  2.2911 -0.2711
 4705SOL    HW225578   1.978   2.377   3.954  0.3432  0.6930  0.3340
 4706SOL     OW25579   1.267   4.366  17.416 -0.5686  0.1837  0.4006
 4706SOL    HW125580   1.277   4.273  17.392  1.1109  0.7870 -1.2572
 4706SOL    HW225581   1.327   4.381  17.489 -0.6146  1.6893  0.1272
 4707SOL     OW25582   2.585   2.962   9.462 -0.6461 -0.3794  0.3810
 4707SOL    HW125583   2.639   2.996   9.533  0.2894  1.9470 -1.4423
 4707SOL    HW225584   2.647   2.895   9.436 -0.5992  0.3558 -1.4192
 4708SOL     OW25585   0.864   1.705   6.487 -0.0425  0.0759  0.1441
 4708SOL    HW125586   0.785   1.729   6.438  0.2757  0.0275 -0.3916
 4708SOL    HW225587   0.878   1.615   6.456 -1.3496  0.4937 -1.6861
 4709SOL     OW25588   3.695   3.295  11.542 -0.1343  0.1785 -0.6117
 4709SOL    HW125589   3.759   3.234  11.506  0.0817 -1.9246  3.3402
 4709SOL    HW225590   3.698   3.276  11.636 -0.7407  0.8669 -0.4527
 4710SOL     OW25591   3.823   2.839   6.414  0.3145  0.0659  0.4805
 4710SOL    HW125592   3.734   2.817   6.387  0.1268 -0.0539  1.1727
 4710SOL    HW225593   3.826   2.928   6.378 -1.3645 -0.5194 -1.1014
 4711SOL     OW25594   4.289   1.857  12.565  0.4814  0.0630  0.3862
 4711SOL    HW125595   4.334   1.913  12.628 -1.0194  1.1716  0.4699
 4711SOL    HW225596   4.305   1.769  12.599 -0.4509 -0.3803 -0.3168
 4712SOL     OW25597   0.454   3.799   3.706 -0.6630  0.1725 -0.4529
 4712SOL    HW125598   0.512   3.725   3.686  0.1323  0.5361  0.4730
 4712SOL    HW225599   0.449   3.840   3.619 -1.1508 -1.6069 -1.2571
 4713SOL     OW25600   1.518   1.749   3.044  0.1344  0.2971 -0.0761
 4713SOL    HW125601   1.565   1.738   2.961  0.7669  1.8320  0.0931
 4713SOL    HW225602   1.567   1.697   3.108  0.5758  0.7736 -0.0275
 4714SOL     OW25603   2.510   3.849   0.596 -0.4881 -0.1475  0.0441
 4714SOL    HW125604   2.444   3.907   0.558  0.6231  1.4657  0.5840
 4714SOL    HW225605   2.478   3.826   0.683  0.2033  0.8291  0.5624
 4715SOL     OW25606   2.547   3.550  16.845  0.1973 -0.0182 -0.0661
 4715SOL    HW125607   2.504   3.626  16.806 -1.2727 -1.1959 -0.7169
 4715SOL    HW225608   2.489   3.495  16.793  0.8969 -0.4488 -0.3958
 4716SOL     OW25609   2.367   1.784  11.867  0.3147  0.3767  0.0319
 4716SOL    HW125610   2.348   1.812  11.957 -2.1291  2.0934 -1.0085
 4716SOL    HW225611   2.358   1.870  11.824  1.4278  1.6297  2.2915
 4717SOL     OW25612   1.849   3.074   8.492 -0.1427  0.2539 -0.0074
 4717SOL    HW125613   1.907   2.999   8.505 -0.0323  0.4585  0.6932
 4717SOL    HW225614   1.762   3.042   8.517  0.1363 -0.7987 -0.3795
 4718SOL     OW25615   1.758   0.118  12.203  0.3497 -0.1481 -0.8343
 4718SOL    HW125616   1.789   0.028  12.189 -0.4649 -0.4863 -0.4826
 4718SOL    HW225617   1.788   0.124  12.294 -1.9803  2.7065 -0.2582
 4719SOL     OW25618   3.966   3.641   8.010 -0.0660  0.1326 -0.5939
 4719SOL    HW125619   3.968   3.621   8.104  1.8517 -0.9671 -0.8801
 4719SOL    HW225620   3.879   3.681   8.007 -0.8239 -1.2926  1.8337
 4720SOL     OW25621   4.435   2.510   9.928 -0.4647 -0.3146  0.1052
 4720SOL    HW125622   4.469   2.544  10.011 -2.1883  1.8281 -0.0725
 4720SOL    HW225623   4.517   2.482   9.888 -0.2477  3.4611 -2.0851
 4721SOL     OW25624   3.020   1.705  13.036 -0.4547 -0.7038  0.0258
 4721SOL    HW125625   3.086   1.772  13.052 -0.5930 -0.8139  1.0175
 4721SOL    HW225626   3.014   1.711  12.940 -3.5935  1.3773  0.3341
 4722SOL     OW25627   2.967   0.686   6.438 -0.0879  0.2116  0.2578
 4722SOL    HW125628   3.056   0.653   6.424 -0.6729 -1.2981  0.1069
 4722SOL    HW225629   2.983   0.757   6.499 -0.8057  0.7020 -0.1352
 4723SOL     OW25630   1.757   0.850  14.033 -0.3807 -0.0732  0.6318
 4723SOL    HW125631   1.734   0.850  13.940 -1.4551  0.6997  0.9024
 4723SOL    HW225632   1.745   0.759  14.061  0.3504 -0.2312  0.4413
 4724SOL     OW25633   3.787   2.847  16.673  0.3534  0.1479  0.7673
 4724SOL    HW125634   3.810   2.931  16.713 -1.8335  1.7350 -1.2971
 4724SOL    HW225635   3.806   2.870  16.582 -1.0126  1.7117  0.8750
 4725SOL     OW25636   4.191   0.958  12.084 -0.1514  0.4523  0.3232
 4725SOL    HW125637   4.249   0.960  12.161 -1.5072  1.7043  1.3097
 4725SOL    HW225638   4.252   0.923  12.019 -1.8380  1.9991 -2.0933
 4726SOL     OW25639   0.600   0.679   7.590  0.1556 -0.2647 -0.1156
 4726SOL    HW125640   0.657   0.613   7.630 -0.5762 -0.4451  0.6143
 4726SOL    HW225641   0.510   0.662   7.618  0.1941  0.5792  0.5273
 4727SOL     OW25642   2.083   2.491   3.186  0.7146 -0.3717  0.5400
 4727SOL    HW125643   2.090   2.405   3.227  0.3448 -0.2728  0.8163
 4727SOL    HW225644   2.086   2.459   3.096 -1.4232  2.0781 -0.3870
 4728SOL     OW25645   4.711   0.599  16.195  0.4315 -0.1234 -0.0001
 4728SOL    HW125646   0.001   0.504  16.202  2.7604  0.1463 -0.7790
 4728SOL    HW225647   4.703   0.597  16.099 -2.0104 -1.3612  0.2249
 4729SOL     OW25648   3.594   2.811   4.699  0.1079  0.3723 -0.1755
 4729SOL    HW125649   3.668   2.872   4.700 -0.9681  1.6619  1.2849
 4729SOL    HW225650   3.617   2.735   4.751  0.9453  1.2551  0.7423
 4730SOL     OW25651   1.958   0.936   8.969  0.1293 -0.1552  0.0614
 4730SOL    HW125652   2.034   0.987   8.940  0.5961  0.0468  1.6816
 4730SOL    HW225653   1.891   1.003   8.981  1.1151  0.2563  3.0200
 4731SOL     OW25654   4.140   3.932   0.306 -0.0712 -0.3988 -0.3760
 4731SOL    HW125655   4.108   3.929   0.397 -0.8271 -1.8099 -0.6971
 4731SOL    HW225656   4.212   3.871   0.291  0.1176 -0.0658 -0.7903
 4732SOL     OW25657   3.177   0.102   6.398  0.8309 -0.0109 -0.8357
 4732SOL    HW125658   3.133   0.047   6.463 -1.1119  0.3079 -1.8730
 4732SOL    HW225659   3.243   0.146   6.451 -1.8261  3.5960 -0.5603
 4733SOL     OW25660   2.336   1.846   2.990 -0.1396 -0.3475  0.0553
 4733SOL    HW125661   2.241   1.833   2.979 -0.3696  1.0864  0.3566
 4733SOL    HW225662   2.326   1.858   3.085  0.4425  0.4059  0.0218
 4734SOL     OW25663   3.603   3.236  10.843 -0.2339 -0.5583  0.2581
 4734SOL    HW125664   3.666   3.237  10.914 -0.4578  0.5142  0.4519
 4734SOL    HW225665   3.662   3.274  10.777  0.2790 -1.9197 -0.0646
 4735SOL     OW25666   0.505   2.954   4.453  0.0035 -0.1889  0.2234
 4735SOL    HW125667   0.540   2.868   4.477 -1.1200 -0.4645  0.8988
 4735SOL    HW225668   0.538   3.013   4.521 -1.3271 -0.4971  1.1560
 4736SOL     OW25669   0.181   4.594   4.835 -0.0674 -0.0685 -0.0984
 4736SOL    HW125670   0.276   4.603   4.837 -0.2315  1.3080  1.1690
 4736SOL    HW225671   0.155   4.645   4.759 -0.6792  0.2098  0.2974
 4737SOL     OW25672   0.449   2.212  16.096  0.2596 -0.4799  0.3960
 4737SOL    HW125673   0.509   2.240  16.027  0.7908  1.6393  1.7190
 4737SOL    HW225674   0.480   2.126  16.126 -0.2077 -0.0925  2.0077
 4738SOL     OW25675   3.866   2.834   3.050  0.1001 -0.1043 -0.3319
 4738SOL    HW125676   3.934   2.770   3.028  0.3041 -0.2322  0.6882
 4738SOL    HW225677   3.854   2.803   3.140 -0.4243  1.6751  0.2052
 4739SOL     OW25678   2.522   3.630   8.479  0.8566 -0.3481  0.0649
 4739SOL    HW125679   2.520   3.559   8.415  0.1622 -0.5983  0.3575
 4739SOL    HW225680   2.454   3.606   8.543 -0.1232  1.3569 -0.3284
 4740SOL     OW25681   4.295   2.437   7.300  0.7031 -0.5829  0.2757
 4740SOL    HW125682   4.348   2.410   7.375 -1.0873  0.4114  1.8607
 4740SOL    HW225683   4.224   2.373   7.296  2.0373 -2.1354  1.0945
 4741SOL     OW25684   3.003   4.291  11.299  0.3376 -0.6915 -0.2793
 4741SOL    HW125685   2.920   4.264  11.258  0.3796  1.2079 -1.6024
 4741SOL    HW225686   2.977   4.294  11.391 -0.9666  2.3344 -0.7592
 4742SOL     OW25687   2.611   1.358   4.751  0.4903 -0.9260  0.0642
 4742SOL    HW125688   2.520   1.371   4.777  0.7505 -1.6621  1.3174
 4742SOL    HW225689   2.614   1.283   4.692 -0.6407  2.3495 -4.2150
 4743SOL     OW25690   4.644   4.451   7.286  0.1972  0.2531  0.4423
 4743SOL    HW125691   4.700   4.448   7.363  0.0148 -1.7885  0.5220
 4743SOL    HW225692   4.709   4.419   7.223  2.1793  1.6354  1.7921
 4744SOL     OW25693   3.526   0.563  17.547 -0.0337 -0.1425 -0.8888
 4744SOL    HW125694   3.554   0.491  17.603 -1.4471 -1.0930 -1.4061
 4744SOL    HW225695   3.484   0.515  17.476 -3.0041  0.4997  0.4695
 4745SOL     OW25696   2.275   3.935   8.162  0.0823  0.1231 -0.0671
 4745SOL    HW125697   2.243   3.997   8.098  0.3989  0.2414 -0.1102
 4745SOL    HW225698   2.369   3.930   8.142 -0.2022 -2.6171 -0.7405
 4746SOL     OW25699   1.440   1.121   5.148 -0.5503  0.1488  0.3452
 4746SOL    HW125700   1.440   1.186   5.079  1.7003 -1.1078 -0.8487
 4746SOL    HW225701   1.347   1.108   5.163 -0.6298  0.5288  0.1609
 4747SOL     OW25702   0.531   4.366   8.299 -0.1324 -0.3748  0.1424
 4747SOL    HW125703   0.594   4.380   8.369  0.2665 -1.2074 -0.0575
 4747SOL    HW225704   0.464   4.328   8.357  0.3777 -0.5816  0.5948
 4748SOL     OW25705   1.864   3.196   0.426 -0.2042  0.6896 -0.6187
 4748SOL    HW125706   1.859   3.213   0.332  0.2288  0.5092 -0.6742
 4748SOL    HW225707   1.787   3.235   0.468  0.5944 -1.3273  2.7523
 4749SOL     OW25708   2.696   2.863   1.326  0.1713  0.1386 -0.5477
 4749SOL    HW125709   2.609   2.844   1.361  1.0320 -1.9122  0.4026
 4749SOL    HW225710   2.717   2.777   1.290 -2.2391 -0.8771  0.5197
 4750SOL     OW25711   0.462   2.189  15.389 -0.0965  0.0703 -0.0922
 4750SOL    HW125712   0.537   2.130  15.386  0.7018  1.1908 -1.7358
 4750SOL    HW225713   0.400   2.148  15.450  1.0674 -1.3820  0.1121
 4751SOL     OW25714   1.763   3.575  13.392  0.2194 -0.4598 -0.3734
 4751SOL    HW125715   1.734   3.639  13.327 -0.5849 -2.2707 -1.7775
 4751SOL    HW225716   1.771   3.630  13.470 -2.7991  0.4191 -0.6972
 4752SOL     OW25717   1.447   3.337   5.267  0.2307 -0.2069  0.0264
 4752SOL    HW125718   1.541   3.358   5.260 -0.3173  2.3508  0.0661
 4752SOL    HW225719   1.434   3.347   5.361 -0.6408  0.0592 -0.1244
 4753SOL     OW25720   4.484   0.263  11.785  0.0016 -0.4073  0.3789
 4753SOL    HW125721   4.557   0.226  11.835  1.1585  1.1806 -0.1078
 4753SOL    HW225722   4.404   0.222  11.818 -0.8186 -0.7029 -2.0055
 4754SOL     OW25723   4.457   2.105  12.452 -0.0527 -0.3781 -0.4152
 4754SOL    HW125724   4.454   2.092  12.547  1.1757 -0.3291 -0.3764
 4754SOL    HW225725   4.378   2.159  12.447 -0.9924 -1.8498 -1.2260
 4755SOL     OW25726   2.083   1.837   9.252 -0.0461  0.0152 -0.8143
 4755SOL    HW125727   2.172   1.806   9.237 -0.4312 -2.6595  2.4705
 4755SOL    HW225728   2.029   1.774   9.204  0.4786 -1.7853  0.9941
 4756SOL     OW25729   1.435   2.817   2.196  0.6759  0.1057  0.0181
 4756SOL    HW125730   1.416   2.724   2.210  3.2659 -0.7246 -1.9321
 4756SOL    HW225731   1.507   2.816   2.133  1.9242  2.0491  1.4135
 4757SOL     OW25732   3.546   4.440   2.622  0.1724 -0.0499  0.1480
 4757SOL    HW125733   3.515   4.406   2.538 -1.2607 -1.3996  1.2450
 4757SOL    HW225734   3.492   4.519   2.613  2.0220  1.1360 -0.6292
 4758SOL     OW25735   0.751   1.226   8.773  0.7586 -0.4467 -0.4565
 4758SOL    HW125736   0.793   1.184   8.698 -0.0059  1.1052 -1.7492
 4758SOL    HW225737   0.664   1.187   8.765  1.0968 -0.8983 -1.8708
 4759SOL     OW25738   4.354   4.167   4.443  0.4397 -0.0450  0.3280
 4759SOL    HW125739   4.410   4.091   4.459 -0.8633 -0.3911  3.3399
 4759SOL    HW225740   4.384   4.208   4.362  0.9421  1.1060  1.1029
 4760SOL     OW25741   2.129   2.831   1.673 -0.4413  0.5963 -0.6297
 4760SOL    HW125742   2.151   2.914   1.631 -0.6571  0.5014 -0.9316
 4760SOL    HW225743   2.060   2.799   1.614  1.2305 -2.6013 -0.8419
 4761SOL     OW25744   0.366   0.127  12.991  0.1160 -0.0879  0.0685
 4761SOL    HW125745   0.291   0.133  12.932 -1.9553  0.7433  2.7818
 4761SOL    HW225746   0.439   0.089  12.942  0.4056  0.0891  0.3568
 4762SOL     OW25747   4.136   1.740   6.926 -0.1909 -0.1548 -0.0106
 4762SOL    HW125748   4.142   1.741   7.021  1.4251 -0.4268 -0.1122
 4762SOL    HW225749   4.041   1.733   6.915 -0.1353  0.6387 -0.9959
 4763SOL     OW25750   1.448   4.694   9.495  0.5001 -0.2981 -0.1357
 4763SOL    HW125751   1.541   4.711   9.508 -0.0615  4.3842 -2.1670
 4763SOL    HW225752   1.442   4.689   9.400  4.0198  1.7037 -0.4508
 4764SOL     OW25753   0.641   0.213  16.865 -0.4626 -0.5277  0.3617
 4764SOL    HW125754   0.635   0.118  16.862 -1.6112 -0.4171 -0.8824
 4764SOL    HW225755   0.724   0.230  16.911 -1.1508  0.3717  1.2838
 4765SOL     OW25756   3.711   4.649  12.246 -0.7680  0.1336  0.2790
 4765SOL    HW125757   3.772   4.587  12.285 -0.3045 -0.5480 -1.5259
 4765SOL    HW225758   3.760   0.006  12.232  0.0584 -0.9832 -3.1665
 4766SOL     OW25759   2.536   3.283  12.842  0.4171 -0.0991 -0.2068
 4766SOL    HW125760   2.586   3.355  12.881  0.4202 -0.0304 -0.3355
 4766SOL    HW225761   2.469   3.343  12.809  1.0113 -1.1496 -3.3000
 4767SOL     OW25762   1.587   2.181   9.180 -0.6080 -0.2100  0.1472
 4767SOL    HW125763   1.638   2.108   9.214 -0.7115 -0.7119 -0.7811
 4767SOL    HW225764   1.646   2.221   9.117 -0.0544 -1.9424 -0.4201
 4768SOL     OW25765   0.135   4.569   1.984 -0.0755 -0.7674  0.1723
 4768SOL    HW125766   0.119   4.538   1.895 -1.7907 -1.3240  0.6545
 4768SOL    HW225767   0.047   4.555   2.021  0.1199  2.5052  1.8366
 4769SOL     OW25768   0.537   4.266   2.860  0.4768  0.8567  0.2861
 4769SOL    HW125769   0.490   4.342   2.825 -1.2952 -1.2364 -1.9019
 4769SOL    HW225770   0.568   4.219   2.782 -2.1137 -1.0048  0.3611
 4770SOL     OW25771   2.127   2.777   7.883  0.1525  0.0294  0.5161
 4770SOL    HW125772   2.084   2.717   7.944  0.2478 -1.0211 -0.4367
 4770SOL    HW225773   2.221   2.762   7.894  0.4240  0.0919 -1.5999
 4771SOL     OW25774   1.964   3.339   2.131 -0.2702  0.1669 -0.1962
 4771SOL    HW125775   2.021   3.326   2.054  0.0434  0.5914 -0.0361
 4771SOL    HW225776   1.884   3.353   2.081  1.0697  0.2180 -2.3235
 4772SOL     OW25777   1.064   3.827   7.648  0.2902  0.6307  0.1407
 4772SOL    HW125778   1.020   3.908   7.622  0.8310  0.6138 -0.8063
 4772SOL    HW225779   1.063   3.826   7.744 -2.4896  1.3855  0.1096
 4773SOL     OW25780   0.148   0.913   1.139 -0.1619  0.0474 -0.2190
 4773SOL    HW125781   0.230   0.865   1.151 -1.4757 -2.2739 -0.5480
 4773SOL    HW225782   0.138   0.944   1.229  1.2525  1.6417 -0.6157
 4774SOL     OW25783   2.867   4.500   2.566 -0.7425 -0.4210 -0.0095
 4774SOL    HW125784   2.931   4.551   2.617 -0.7190  1.3873 -1.8601
 4774SOL    HW225785   2.855   4.555   2.489  1.5429  1.1434  0.7576
 4775SOL     OW25786   1.147   0.311   6.502  0.2020 -0.3842  0.5930
 4775SOL    HW125787   1.062   0.274   6.528 -1.3139  0.7985 -2.6497
 4775SOL    HW225788   1.121   0.341   6.415 -1.2132 -1.3998  0.6609
 4776SOL     OW25789   1.335   3.529   9.726 -0.2322  0.2037  0.2341
 4776SOL    HW125790   1.333   3.482   9.643 -1.4460 -0.0161  0.4013
 4776SOL    HW225791   1.341   3.619   9.694  0.9754  1.0589  2.8654
 4777SOL     OW25792   2.980   3.322   5.726  0.1554  0.1460 -0.0401
 4777SOL    HW125793   3.027   3.344   5.645 -2.5526  1.9828 -1.1183
 4777SOL    HW225794   2.892   3.297   5.700  0.3078 -0.2150 -0.2247
 4778SOL     OW25795   2.595   1.791   2.523 -0.0965  0.3117  0.3076
 4778SOL    HW125796   2.535   1.764   2.453 -0.0704 -1.1978  0.8721
 4778SOL    HW225797   2.528   1.808   2.588 -1.9957 -2.0980 -1.0293
 4779SOL     OW25798   0.650   3.928  10.097  0.5119 -0.0325  0.2412
 4779SOL    HW125799   0.568   3.901  10.139  1.1731 -1.7775  0.4195
 4779SOL    HW225800   0.614   3.933  10.008 -0.2868 -1.6448  0.4668
 4780SOL     OW25801   1.931   0.979   1.644 -0.4150 -0.1788  0.3371
 4780SOL    HW125802   1.923   0.892   1.604  1.0323 -0.6936  1.1715
 4780SOL    HW225803   1.896   0.958   1.730  1.1846 -0.2327  0.9764
 4781SOL     OW25804   3.156   2.625   9.176 -0.0258  0.0679  0.5936
 4781SOL    HW125805   3.219   2.586   9.116 -0.8171 -0.0555 -0.1557
 4781SOL    HW225806   3.213   2.675   9.235  0.3677 -1.0343  1.1418
 4782SOL     OW25807   4.263   1.698   7.796 -0.1666 -0.3875  0.0192
 4782SOL    HW125808   4.328   1.728   7.732  0.0324 -0.5999  0.1174
 4782SOL    HW225809   4.321   1.692   7.872 -2.5615 -1.7905  1.6949
 4783SOL     OW25810   0.289   3.039  14.463  0.5151  0.5141 -0.4222
 4783SOL    HW125811   0.360   3.019  14.525 -0.5904 -1.6313  0.1633
 4783SOL    HW225812   0.325   3.071  14.380  1.3794  0.6566  0.0045
 4784SOL     OW25813   3.451   1.466   1.200 -0.3836 -0.1038 -0.2496
 4784SOL    HW125814   3.448   1.556   1.233  2.9179 -0.4405  0.9317
 4784SOL    HW225815   3.359   1.442   1.207  0.4615 -2.8792  1.3293
 4785SOL     OW25816   3.579   0.620   9.884 -0.3444  0.2575  0.5353
 4785SOL    HW125817   3.530   0.685   9.834  1.1965 -0.2025 -1.5637
 4785SOL    HW225818   3.577   0.540   9.831 -1.2334  0.0131  0.9275
 4786SOL     OW25819   0.428   3.660   7.109  0.6928  0.3575 -0.4350
 4786SOL    HW125820   0.374   3.648   7.187  1.4733  0.4123  0.1143
 4786SOL    HW225821   0.512   3.619   7.132  0.5116  0.8834  1.1684
 4787SOL     OW25822   0.838   2.680   7.315 -0.0072 -0.2065  0.0869
 4787SOL    HW125823   0.800   2.764   7.339  0.0623  0.0965 -0.8678
 4787SOL    HW225824   0.786   2.661   7.236 -1.4416  1.0831  0.7257
 4788SOL     OW25825   1.307   1.734   3.423 -0.2846 -0.1163  0.1118
 4788SOL    HW125826   1.384   1.681   3.439  0.3566  0.4459 -1.0997
 4788SOL    HW225827   1.331   1.772   3.338 -0.7109 -1.9932 -0.8624
 4789SOL     OW25828   1.122   0.489  16.191 -0.5713  0.4785  0.1927
 4789SOL    HW125829   1.138   0.417  16.130 -1.4671  0.6196 -0.2161
 4789SOL    HW225830   1.072   0.442  16.259  0.2856  1.9670  1.8508
 4790SOL     OW25831   3.726   1.102   6.481 -0.5363  0.1033  0.2640
 4790SOL    HW125832   3.751   1.084   6.390 -1.1427  1.9669 -0.2861
 4790SOL    HW225833   3.742   1.197   6.476 -0.4794  0.0286 -1.1930
 4791SOL     OW25834   0.772   0.283  15.504  0.6090 -0.3461 -0.1978
 4791SOL    HW125835   0.804   0.340  15.574 -0.5009 -0.5574  0.4903
 4791SOL    HW225836   0.856   0.246  15.477  1.1421  0.9061 -0.2635
 4792SOL     OW25837   1.217   1.995  11.250 -0.4404  0.7576 -0.1532
 4792SOL    HW125838   1.286   1.951  11.300  0.0349  0.6148 -0.9470
 4792SOL    HW225839   1.175   2.052  11.315  0.1956  0.3837  0.5782
 4793SOL     OW25840   1.014   0.011   2.066  0.4219  0.8790  0.1190
 4793SOL    HW125841   0.935   4.689   2.094 -0.2764  2.7057  1.1388
 4793SOL    HW225842   0.991   0.038   1.977 -0.4381  2.6991  0.8938
 4794SOL     OW25843   1.347   3.185   4.338  0.3721 -0.1824  0.2704
 4794SOL    HW125844   1.366   3.092   4.343 -2.1727 -0.7294  0.0980
 4794SOL    HW225845   1.251   3.183   4.328  0.5801 -1.4493 -1.5578
 4795SOL     OW25846   0.079   4.086   7.064 -0.1477  0.0876 -0.3464
 4795SOL    HW125847   0.126   4.003   7.055 -2.3588 -1.3761  1.6675
 4795SOL    HW225848   0.118   4.154   7.008  0.4369  1.7480  2.0579
 4796SOL     OW25849   3.375   2.211   3.777  0.0244  0.0690  0.2215
 4796SOL    HW125850   3.442   2.279   3.777  1.5890 -1.4850 -2.4257
 4796SOL    HW225851   3.329   2.231   3.696 -0.1300  2.8426  0.9917
 4797SOL     OW25852   2.814   2.791   5.883 -0.1272  0.0608  0.0804
 4797SOL    HW125853   2.730   2.784   5.838 -1.3668  3.0151  1.8858
 4797SOL    HW225854   2.778   2.818   5.968  1.2888 -0.7491  0.9296
 4798SOL     OW25855   3.407   0.440   3.267 -0.1907  0.3119  0.0519
 4798SOL    HW125856   3.433   0.531   3.285  0.3752 -0.0223  0.9065
 4798SOL    HW225857   3.442   0.397   3.345 -0.7458  0.9871  0.6906
 4799SOL     OW25858   3.170   4.042  13.627 -0.1619  0.2166 -0.1002
 4799SOL    HW125859   3.205   3.970  13.680  0.6782  0.1650 -0.7382
 4799SOL    HW225860   3.159   3.991  13.547 -1.3466  0.4599 -0.0860
 4800SOL     OW25861   1.459   2.918   9.453 -0.7027  0.1382  0.3900
 4800SOL    HW125862   1.487   2.827   9.466 -2.4225 -0.6262 -1.2370
 4800SOL    HW225863   1.380   2.903   9.401  0.5729 -2.2271 -0.9018
 4801SOL     OW25864   3.325   3.294   6.937 -0.0085  0.2327  0.3586
 4801SOL    HW125865   3.353   3.333   6.854  1.4530  0.5490  1.0018
 4801SOL    HW225866   3.274   3.372   6.961  0.4036  1.0581 -1.4535
 4802SOL     OW25867   0.385   0.155   4.009 -0.1946 -0.0832  0.0945
 4802SOL    HW125868   0.321   0.187   4.073 -2.0740 -0.3518 -1.6403
 4802SOL    HW225869   0.326   0.100   3.958  0.9184 -2.0791  0.9203
 4803SOL     OW25870   2.388   4.011   0.383  0.5705 -0.0759 -0.3053
 4803SOL    HW125871   2.309   4.059   0.405 -0.5907 -2.3609  0.4915
 4803SOL    HW225872   2.448   4.081   0.357 -0.9458  0.6827 -1.7206
 4804SOL     OW25873   0.445   0.584  13.749  0.0553  0.2376  1.1364
 4804SOL    HW125874   0.477   0.672  13.732 -0.2288 -0.1773 -1.5961
 4804SOL    HW225875   0.357   0.597  13.784 -0.0828  2.9444 -0.2601
 4805SOL     OW25876   0.465   0.504   4.719 -0.1116 -0.8843  0.4795
 4805SOL    HW125877   0.394   0.442   4.734 -2.3579  0.9883 -2.3566
 4805SOL    HW225878   0.515   0.454   4.654  1.5006  2.9749 -1.2624
 4806SOL     OW25879   0.040   4.136   4.944  0.2277 -0.3433 -0.0410
 4806SOL    HW125880   4.707   4.151   5.020 -1.5108 -0.7301 -1.2749
 4806SOL    HW225881   4.709   4.070   4.901  0.9069 -1.3741  0.6634
 4807SOL     OW25882   1.466   3.922   4.478  0.2559 -0.4069 -0.3614
 4807SOL    HW125883   1.379   3.902   4.443 -1.1640  2.6044  1.4444
 4807SOL    HW225884   1.483   4.001   4.428 -1.1042  0.1829  0.0852
 4808SOL     OW25885   3.465   3.191   4.494  0.2400  0.0100 -1.1086
 4808SOL    HW125886   3.414   3.115   4.522 -0.0318  0.3178 -0.7656
 4808SOL    HW225887   3.459   3.256   4.564  3.6491  0.1047 -0.9062
 4809SOL     OW25888   0.141   0.469  13.090  0.3599  0.4294 -1.0065
 4809SOL    HW125889   0.233   0.465  13.116 -0.6210 -1.2563  2.1229
 4809SOL    HW225890   0.105   0.547  13.132 -1.0233 -0.1747 -1.0548
 4810SOL     OW25891   0.408   2.853   1.337 -0.0389 -0.0495  0.5909
 4810SOL    HW125892   0.362   2.798   1.402  0.9369 -0.5156  0.8826
 4810SOL    HW225893   0.491   2.880   1.377 -0.1719  0.0120  0.8322
 4811SOL     OW25894   0.920   4.621   2.897 -0.3237 -0.1104 -0.0103
 4811SOL    HW125895   0.873   4.644   2.817 -2.0429  0.2530  1.1005
 4811SOL    HW225896   0.993   4.573   2.857 -0.7458 -0.5393 -0.2656
 4812SOL     OW25897   0.808   2.191  14.089 -0.2529 -0.7492  0.7107
 4812SOL    HW125898   0.849   2.274  14.064  1.1834 -2.7315 -3.5219
 4812SOL    HW225899   0.763   2.217  14.169 -2.7903 -0.4978 -0.7995
 4813SOL     OW25900   4.345   0.422   4.567  0.6136  0.1681 -0.1879
 4813SOL    HW125901   4.323   0.441   4.476  0.1371 -0.9229 -0.2961
 4813SOL    HW225902   4.395   0.340   4.562  0.7284  0.1609  1.0618
 4814SOL     OW25903   2.566   0.281  10.191 -0.6000  0.4045 -0.2545
 4814SOL    HW125904   2.597   0.301  10.279 -1.3028  1.0736 -0.1636
 4814SOL    HW225905   2.589   0.188  10.196 -0.8845  0.3650  0.3358
 4815SOL     OW25906   1.854   3.866   6.139  0.0105 -0.3617 -0.0723
 4815SOL    HW125907   1.792   3.934   6.165  0.5174 -1.0439  2.9129
 4815SOL    HW225908   1.932   3.920   6.123  0.3502 -0.5514  0.9732
 4816SOL     OW25909   1.673   4.206   9.470 -0.6418 -0.8232  0.1987
 4816SOL    HW125910   1.632   4.286   9.504 -0.8648 -1.5055  1.5106
 4816SOL    HW225911   1.618   4.175   9.398 -1.3417  3.5462 -1.1751
 4817SOL     OW25912   4.703   3.995   1.224 -0.4627 -0.3956  0.3501
 4817SOL    HW125913   4.714   3.903   1.203 -1.3931 -0.5202  0.4037
 4817SOL    HW225914   0.054   4.030   1.175 -0.6669 -3.1018 -1.8694
 4818SOL     OW25915   0.145   4.375   6.078  0.1015  0.1362  0.2538
 4818SOL    HW125916   0.164   4.369   5.984  0.1832  1.1821  0.2057
 4818SOL    HW225917   0.159   4.467   6.098 -1.1190  0.9205 -2.4309
 4819SOL     OW25918   4.199   4.080   9.011 -0.0215  0.2137 -0.1030
 4819SOL    HW125919   4.157   4.109   8.930 -0.9787 -1.1641 -0.0936
 4819SOL    HW225920   4.124   4.060   9.066 -1.0834 -1.1053 -2.0623
 4820SOL     OW25921   2.735   3.493  15.244  0.2040 -0.1387  0.4583
 4820SOL    HW125922   2.727   3.403  15.211  2.4124 -0.2927  0.3475
 4820SOL    HW225923   2.807   3.484  15.306  0.6613 -1.5606 -0.2925
 4821SOL     OW25924   0.186   3.287   3.464 -0.7295  0.3997  0.4642
 4821SOL    HW125925   0.211   3.194   3.461 -0.2057  0.5295  0.8052
 4821SOL    HW225926   0.170   3.310   3.372  0.6954 -1.5799 -0.2989
 4822SOL     OW25927   1.288   4.475   5.560  0.4977 -0.1052  0.1550
 4822SOL    HW125928   1.359   4.535   5.584 -0.5705  0.1656  2.6964
 4822SOL    HW225929   1.230   4.495   5.634  2.2387  1.6483  1.0466
 4823SOL     OW25930   4.254   3.772  10.827 -0.5971  0.3470  0.1115
 4823SOL    HW125931   4.298   3.704  10.877 -1.9275 -0.3670  0.3033
 4823SOL    HW225932   4.218   3.825  10.898  1.1465  2.3479 -0.4988
 4824SOL     OW25933   2.281   1.832   4.344  0.8641 -0.8037 -0.1974
 4824SOL    HW125934   2.245   1.756   4.298 -0.7202  0.0964 -0.4534
 4824SOL    HW225935   2.255   1.810   4.433  1.8481 -0.2216  0.2304
 4825SOL     OW25936   4.262   1.085   9.531  0.1134  0.5275  0.3427
 4825SOL    HW125937   4.311   1.019   9.581 -0.1336  0.4071  0.4237
 4825SOL    HW225938   4.178   1.068   9.573  0.0746  1.9731  0.8388
 4826SOL     OW25939   1.667   3.692   5.283  0.0783  0.1429 -0.3328
 4826SOL    HW125940   1.740   3.630   5.293  0.2172  0.3417 -0.1058
 4826SOL    HW225941   1.714   3.769   5.252 -1.1985  0.5928 -1.1425
 4827SOL     OW25942   0.063   0.821   4.840 -0.4999  0.7192 -0.7897
 4827SOL    HW125943   0.004   0.896   4.840 -3.0422 -1.2659 -1.3628
 4827SOL    HW225944   0.074   0.794   4.931 -0.3317  2.1564 -0.3910
 4828SOL     OW25945   3.762   1.440  11.933 -0.6463 -0.1358 -0.1205
 4828SOL    HW125946   3.741   1.390  12.011 -3.9452 -1.0905 -1.6068
 4828SOL    HW225947   3.676   1.441  11.890  0.3855  1.4546 -2.1841
 4829SOL     OW25948   4.328   4.717   4.906 -0.2590  0.2469 -0.0030
 4829SOL    HW125949   4.287   4.673   4.832 -2.4569  2.7467 -0.2813
 4829SOL    HW225950   4.408   0.026   4.865 -0.3391 -1.9896 -1.9464
 4830SOL     OW25951   3.891   3.605  16.268 -0.1845 -0.4082  0.3335
 4830SOL    HW125952   3.894   3.524  16.319  0.3147 -1.1661 -0.9001
 4830SOL    HW225953   3.961   3.654  16.311 -0.3856  1.2320 -1.2179
 4831SOL     OW25954   0.766   3.958   7.134  0.0591  0.1236  0.4149
 4831SOL    HW125955   0.851   3.994   7.110  0.4783 -1.1383 -0.0169
 4831SOL    HW225956   0.777   3.866   7.110 -2.3382  0.1619 -0.7563
 4832SOL     OW25957   0.887   0.114   6.790 -0.0118  0.6752 -0.0531
 4832SOL    HW125958   0.892   0.176   6.718 -1.7203  0.9034  0.0293
 4832SOL    HW225959   0.804   0.071   6.768  0.6544  0.2638 -1.7074
 4833SOL     OW25960   2.312   1.220  16.807 -0.1340 -0.7137  0.3364
 4833SOL    HW125961   2.390   1.166  16.815  0.0579 -0.2068  1.8990
 4833SOL    HW225962   2.252   1.146  16.797 -0.6347 -0.4650  1.4360
 4834SOL     OW25963   3.306   3.047   6.607  0.3871  0.4953  0.3104
 4834SOL    HW125964   3.277   3.039   6.516  0.8355 -1.5020  0.3444
 4834SOL    HW225965   3.230   3.018   6.657 -1.0406  1.8853 -1.0449
 4835SOL     OW25966   3.704   0.162   3.803 -0.0957 -0.7182 -0.0842
 4835SOL    HW125967   3.751   0.102   3.744  0.4784 -3.6872  3.4122
 4835SOL    HW225968   3.687   0.102   3.875 -1.2134 -1.5400 -1.0231
 4836SOL     OW25969   1.559   0.111   3.692  0.6638  0.1780 -0.0358
 4836SOL    HW125970   1.499   0.184   3.710 -0.2340 -0.7939  0.8653
 4836SOL    HW225971   1.645   0.148   3.711  1.0036 -0.2596 -0.7478
 4837SOL     OW25972   1.567   3.102  14.928 -0.1686  0.1533  0.0308
 4837SOL    HW125973   1.648   3.070  14.888  0.9351 -1.0668  3.1688
 4837SOL    HW225974   1.560   3.191  14.894 -1.6244 -0.4102 -1.0951
 4838SOL     OW25975   3.365   0.007   8.043  0.0300  0.4307  0.6263
 4838SOL    HW125976   3.419   4.668   8.090  0.9221  0.9212  0.2541
 4838SOL    HW225977   3.282   4.689   8.066 -0.1885  0.8854  0.6867
 4839SOL     OW25978   1.427   1.773   4.292 -0.3923 -0.0326 -0.0803
 4839SOL    HW125979   1.508   1.803   4.251 -1.3905  1.0117 -1.3099
 4839SOL    HW225980   1.410   1.689   4.249  0.8870 -0.3716  0.0951
 4840SOL     OW25981   3.480   1.869  15.126 -0.2864  0.1076  0.4668
 4840SOL    HW125982   3.527   1.892  15.206 -0.7489 -0.5464  0.9208
 4840SOL    HW225983   3.539   1.823  15.067 -2.8420  0.7731 -2.6393
 4841SOL     OW25984   4.516   2.833  12.517  0.3481 -0.1645  0.6528
 4841SOL    HW125985   4.457   2.770  12.476 -1.9254  1.5244  1.3041
 4841SOL    HW225986   4.561   2.873  12.443 -0.9478  3.0519  1.5760
 4842SOL     OW25987   1.089   3.755   6.401 -0.2777  0.2516 -0.3488
 4842SOL    HW125988   1.065   3.696   6.472  2.4444 -0.6500 -0.1834
 4842SOL    HW225989   1.145   3.805   6.460  0.3859  0.2249 -0.9558
 4843SOL     OW25990   0.988   3.240  15.291 -0.3046  0.3855  0.1217
 4843SOL    HW125991   1.039   3.206  15.365 -0.5360  1.2364  0.6822
 4843SOL    HW225992   0.972   3.325  15.333 -3.0470 -0.3478  0.5279
 4844SOL     OW25993   3.734   0.409   4.165  0.2443 -0.4076 -0.1593
 4844SOL    HW125994   3.761   0.388   4.075 -0.2085 -0.8007 -0.2060
 4844SOL    HW225995   3.808   0.371   4.212 -0.1842 -0.7744  0.2144
 4845SOL     OW25996   0.601   3.482  12.188  0.4129 -0.2550  0.1979
 4845SOL    HW125997   0.636   3.435  12.263  0.3922 -1.4841 -0.5633
 4845SOL    HW225998   0.512   3.495  12.221  0.7119  2.4187 -0.0800
 4846SOL     OW25999   2.632   2.960   7.531 -0.2126 -0.0483 -0.1326
 4846SOL    HW126000   2.657   2.881   7.578  0.9418  0.7670  0.6332
 4846SOL    HW226001   2.537   2.946   7.526  0.2110 -2.4630 -1.2052
 4847SOL     OW26002   0.019   4.303   4.622 -0.5831 -0.2185 -0.0204
 4847SOL    HW126003   0.026   4.214   4.587  2.3712  0.5021 -1.3220
 4847SOL    HW226004   4.651   4.302   4.648 -0.8370  3.8253 -0.6966
 4848SOL     OW26005   2.575   3.979  13.517  0.0614  0.2712 -0.1125
 4848SOL    HW126006   2.660   3.942  13.539  0.4927  1.7846  0.7571
 4848SOL    HW226007   2.524   3.902  13.495  0.6451 -0.3674  0.7521
 4849SOL     OW26008   4.351   4.021   5.958  0.6175 -0.3680 -0.1972
 4849SOL    HW126009   4.359   3.927   5.970 -0.0711  0.0592  3.6943
 4849SOL    HW226010   4.345   4.054   6.048 -0.8471 -0.7275 -0.1774
 4850SOL     OW26011   0.827   3.925   6.702  0.2667  0.4490 -0.6744
 4850SOL    HW126012   0.770   3.980   6.755 -0.7735 -1.9677  0.7285
 4850SOL    HW226013   0.760   3.865   6.670  2.5485 -2.8997  0.7944
 4851SOL     OW26014   4.591   2.006   1.112 -0.5013  0.1693 -0.2583
 4851SOL    HW126015   4.564   2.012   1.020  1.0594  1.3818 -0.6414
 4851SOL    HW226016   4.685   2.009   1.097 -0.4031 -0.8522  0.1456
 4852SOL     OW26017   1.971   1.820   9.597 -0.4487  0.4855 -0.4596
 4852SOL    HW126018   1.999   1.876   9.670  0.1261  1.7883 -1.6886
 4852SOL    HW226019   2.050   1.786   9.555  0.5605  1.3616  0.7271
 4853SOL     OW26020   1.821   3.356   9.277  0.4546  0.5634  0.1674
 4853SOL    HW126021   1.819   3.399   9.191  0.9143 -0.0471 -0.1522
 4853SOL    HW226022   1.781   3.419   9.336  0.7931 -0.3693  1.3938
 4854SOL     OW26023   3.866   2.568   5.295 -0.2453 -0.5250  0.1382
 4854SOL    HW126024   3.944   2.623   5.301  0.7869 -1.9390 -0.3649
 4854SOL    HW226025   3.853   2.590   5.202  1.3129  3.5512  0.8818
 4855SOL     OW26026   0.564   1.638  14.441  0.2052 -0.5791 -0.0742
 4855SOL    HW126027   0.572   1.554  14.396  3.3502  0.1628 -0.9157
 4855SOL    HW226028   0.505   1.686  14.383  0.1363  0.0980  0.5624
 4856SOL     OW26029   0.686   3.440  15.955  0.0438 -0.3819 -0.3848
 4856SOL    HW126030   0.746   3.458  15.883  0.6987  1.5819  0.6475
 4856SOL    HW226031   0.739   3.377  16.002 -1.7849 -1.7685 -0.1675
 4857SOL     OW26032   1.212   0.730   4.507  0.1033  0.1343  0.6080
 4857SOL    HW126033   1.116   0.726   4.508  0.0583  1.0161  0.0944
 4857SOL    HW226034   1.235   0.666   4.574 -0.4062 -1.6096 -0.8704
 4858SOL     OW26035   2.916   0.420   2.782 -0.3339  0.1075  0.0054
 4858SOL    HW126036   2.913   0.366   2.861 -0.1327  0.8182  0.5023
 4858SOL    HW226037   2.826   0.454   2.784 -0.2296  0.2698  2.1571
 4859SOL     OW26038   0.515   3.165   4.639 -0.4132  0.1365  0.2399
 4859SOL    HW126039   0.523   3.232   4.707  1.3292  0.5371 -0.3640
 4859SOL    HW226040   0.437   3.200   4.595 -0.1643  0.7651  0.2984
 4860SOL     OW26041   1.824   0.866   1.887 -0.0957 -0.0930 -0.1094
 4860SOL    HW126042   1.813   0.813   1.808 -1.2855 -0.3168  0.2120
 4860SOL    HW226043   1.745   0.844   1.937 -1.2289  0.4575 -1.6723
 4861SOL     OW26044   0.807   4.199   9.894 -0.3882  0.7106 -0.1033
 4861SOL    HW126045   0.821   4.142   9.819  1.2665 -1.5688  1.9226
 4861SOL    HW226046   0.883   4.185   9.950 -1.7858 -0.6885  1.4371
 4862SOL     OW26047   4.658   4.133   4.224  0.1930 -0.2367 -0.2492
 4862SOL    HW126048   0.005   4.125   4.161 -0.4671 -2.3102 -0.7415
 4862SOL    HW226049   4.580   4.113   4.171  0.6522 -0.4854 -0.8283
 4863SOL     OW26050   3.767   2.269   3.203 -1.0371  0.1840  0.2294
 4863SOL    HW126051   3.857   2.282   3.233 -0.9177  0.2807 -0.1685
 4863SOL    HW226052   3.762   2.335   3.133 -1.5978 -0.8391 -0.6925
 4864SOL     OW26053   2.184   3.650   6.612  0.0234 -0.1810  0.5221
 4864SOL    HW126054   2.161   3.710   6.683 -0.4022 -0.6739  0.8089
 4864SOL    HW226055   2.126   3.670   6.539 -3.2401 -0.4237  3.0086
 4865SOL     OW26056   1.659   2.040   0.990  0.2256 -0.1570  0.4095
 4865SOL    HW126057   1.752   2.033   0.968 -0.0571 -0.1753 -0.7856
 4865SOL    HW226058   1.635   1.949   1.006 -0.1190 -0.5461 -2.4162
 4866SOL     OW26059   2.265   3.799   7.135 -0.1565 -0.9054 -0.2995
 4866SOL    HW126060   2.292   3.868   7.194 -2.9704 -0.3072  0.2878
 4866SOL    HW226061   2.328   3.731   7.160  1.0960  0.1863 -0.5271
 4867SOL     OW26062   2.100   1.359  11.029 -0.9525  0.7501 -0.0254
 4867SOL    HW126063   2.012   1.386  11.005 -0.7987  1.7645  0.5791
 4867SOL    HW226064   2.083   1.264  11.023  1.2557  0.4184 -0.9085
 4868SOL     OW26065   0.135   1.419   2.864 -0.0832  0.2889 -0.2393
 4868SOL    HW126066   0.141   1.486   2.931  1.9586 -1.8723  1.7597
 4868SOL    HW226067   0.220   1.375   2.872  0.4875  1.7460  1.6296
 4869SOL     OW26068   0.075   0.414   0.515  0.4769 -0.0776 -0.3660
 4869SOL    HW126069   0.075   0.338   0.456  1.5554 -1.9164  2.0109
 4869SOL    HW226070   0.026   0.388   0.593 -0.3060  3.9427  0.4339
 4870SOL     OW26071   2.365   2.492   9.921 -0.7349  0.0442 -0.3270
 4870SOL    HW126072   2.386   2.585   9.931 -0.7579  0.0122  0.0179
 4870SOL    HW226073   2.282   2.492   9.874 -1.2255 -1.1998  0.5227
 4871SOL     OW26074   3.892   1.887   6.256 -0.3892  0.3610  0.4373
 4871SOL    HW126075   3.986   1.889   6.240 -0.2252 -1.2993  1.1484
 4871SOL    HW226076   3.886   1.917   6.347  0.6797 -0.7895  0.8788
 4872SOL     OW26077   2.221   4.518   7.500  0.0724  0.2993  0.5803
 4872SOL    HW126078   2.260   4.567   7.428 -1.3515  1.2413  0.4504
 4872SOL    HW226079   2.289   4.482   7.557 -0.4906 -1.0615  0.3963
 4873SOL     OW26080   1.029   0.429   4.532 -0.3292  0.2022  0.3255
 4873SOL    HW126081   0.961   0.363   4.543 -1.6348  1.8429  2.3793
 4873SOL    HW226082   1.026   0.436   4.437  1.0602  0.9850  0.3449
 4874SOL     OW26083   0.525   4.055   2.125  0.5651 -0.4359  0.0571
 4874SOL    HW126084   0.561   4.094   2.046  1.0167  2.4860  1.6909
 4874SOL    HW226085   0.484   3.974   2.094 -1.1493  0.8549 -1.0518
 4875SOL     OW26086   2.529   2.955   1.081 -0.2742  0.2597 -0.3639
 4875SOL    HW126087   2.621   2.981   1.089 -0.7017  2.2187 -1.9705
 4875SOL    HW226088   2.477   3.008   1.141 -0.5000 -0.1967 -0.1530
 4876SOL     OW26089   3.908   2.809   0.719 -0.8385  0.2071 -0.2047
 4876SOL    HW126090   3.873   2.805   0.630 -0.3279  0.6010 -0.4219
 4876SOL    HW226091   3.881   2.724   0.755  0.6637  0.2227  0.9569
 4877SOL     OW26092   2.171   0.211   3.803  0.0086  0.4722  0.3568
 4877SOL    HW126093   2.256   0.216   3.847 -0.4715  0.0024  1.3227
 4877SOL    HW226094   2.116   0.251   3.870 -1.6715  0.4711 -1.0246
 4878SOL     OW26095   0.918   1.211   1.903 -0.2369 -0.0774  0.5960
 4878SOL    HW126096   0.926   1.296   1.859  1.2595 -1.2803 -1.4525
 4878SOL    HW226097   0.970   1.221   1.982  1.3501 -1.5443 -0.2658
 4879SOL     OW26098   4.319   0.122   5.778 -0.5937 -0.0402 -0.4972
 4879SOL    HW126099   4.372   0.185   5.827 -1.4383  0.7421 -0.5835
 4879SOL    HW226100   4.254   0.187   5.749  2.1994  1.8518 -2.5132
 4880SOL     OW26101   0.269   0.723   4.302 -0.1369 -0.0254  0.0835
 4880SOL    HW126102   0.265   0.643   4.354 -0.6050 -0.2408 -0.2833
 4880SOL    HW226103   0.352   0.765   4.327 -0.4081 -0.8361  2.3285
 4881SOL     OW26104   0.981   2.622  15.964 -0.1521 -0.0248 -0.0328
 4881SOL    HW126105   0.920   2.693  15.945 -0.1326  0.3089  1.1535
 4881SOL    HW226106   1.049   2.667  16.014 -1.1075  1.3555  0.0374
 4882SOL     OW26107   3.001   3.178   4.367  0.3249 -0.2776  0.1221
 4882SOL    HW126108   3.044   3.163   4.451 -0.6990 -1.2543  0.4806
 4882SOL    HW226109   2.916   3.142   4.392 -0.2179  2.3642  2.0747
 4883SOL     OW26110   1.819   3.863  13.924 -0.0147  0.3593 -0.3383
 4883SOL    HW126111   1.838   3.843  14.015 -0.7068 -0.6256 -0.4082
 4883SOL    HW226112   1.732   3.824  13.913 -0.5417  1.0480  1.4135
 4884SOL     OW26113   2.075   0.022   9.189 -0.3396 -0.0337 -0.1393
 4884SOL    HW126114   2.021   4.676   9.226  0.7688 -1.7039 -1.6675
 4884SOL    HW226115   2.070   0.088   9.258 -2.2990  0.2072 -0.5220
 4885SOL     OW26116   1.169   2.206   7.343 -0.2058  0.1271  0.1104
 4885SOL    HW126117   1.169   2.287   7.395 -2.0779 -3.0726  5.0069
 4885SOL    HW226118   1.147   2.250   7.260 -2.3955  0.5353  0.9055
 4886SOL     OW26119   2.315   4.662   4.353  0.3165  0.5451  0.2679
 4886SOL    HW126120   2.232   4.706   4.373 -0.5425 -0.3266 -1.3247
 4886SOL    HW226121   2.345   4.658   4.443 -1.6176  1.2050  0.9573
 4887SOL     OW26122   4.366   1.590   2.739  0.5030  0.1245  0.0406
 4887SOL    HW126123   4.365   1.564   2.831  0.0877  0.1804  0.0523
 4887SOL    HW226124   4.280   1.564   2.705 -0.4574  1.5815  1.3523
 4888SOL     OW26125   4.019   3.170   6.448 -0.2373  0.0888  0.1080
 4888SOL    HW126126   3.949   3.222   6.410  0.3021  0.7428  0.0052
 4888SOL    HW226127   4.029   3.123   6.365  0.3238 -0.4943  0.5099
 4889SOL     OW26128   3.477   3.906   9.187 -0.4521  0.1277 -0.6019
 4889SOL    HW126129   3.473   3.960   9.266 -0.6988  0.1801 -0.6484
 4889SOL    HW226130   3.525   3.840   9.238 -0.2243 -0.7042 -1.8807
 4890SOL     OW26131   0.879   0.133   4.211 -0.8905 -0.0226  0.0213
 4890SOL    HW126132   0.808   0.084   4.170 -1.1211  0.1630  0.1981
 4890SOL    HW226133   0.861   0.142   4.305  1.5278 -2.2914  0.7048
 4891SOL     OW26134   0.473   4.118   9.379 -0.1682  0.9687 -0.0439
 4891SOL    HW126135   0.462   4.140   9.286  1.4308  4.9463  0.6955
 4891SOL    HW226136   0.417   4.183   9.422 -2.4917  0.4523 -2.2496
 4892SOL     OW26137   0.701   2.699   7.083  0.1097  0.2063 -0.1275
 4892SOL    HW126138   0.638   2.767   7.109  1.4008  0.7099  1.6958
 4892SOL    HW226139   0.708   2.724   6.991 -1.7151  1.1865 -0.0141
 4893SOL     OW26140   2.529   3.762   8.920  0.3082  0.0218  0.0764
 4893SOL    HW126141   2.559   3.837   8.972  0.9637 -1.3583  1.6813
 4893SOL    HW226142   2.448   3.797   8.882 -0.4084  0.7217  2.2515
 4894SOL     OW26143   1.026   2.731  10.001  0.4076 -0.0922 -0.3882
 4894SOL    HW126144   1.110   2.777   9.989  0.7001  0.3574  3.2536
 4894SOL    HW226145   0.991   2.730   9.913 -1.6893  0.6350  0.4465
 4895SOL     OW26146   3.737   0.571   0.200 -0.2302 -0.4369  0.5020
 4895SOL    HW126147   3.829   0.575   0.171 -1.0960  0.9310 -2.0031
 4895SOL    HW226148   3.697   0.526   0.126  0.0487  0.5127 -0.2217
 4896SOL     OW26149   3.517   3.734   7.956  0.3922 -0.2702 -0.3715
 4896SOL    HW126150   3.571   3.804   7.992 -0.7911  0.7940 -0.6547
 4896SOL    HW226151   3.544   3.662   8.012 -1.0783 -0.9197 -0.5083
 4897SOL     OW26152   0.868   0.142   3.884  0.3898  0.3919  0.2512
 4897SOL    HW126153   0.873   0.056   3.926  0.9038  1.2588  1.9786
 4897SOL    HW226154   0.949   0.180   3.917 -1.4022  2.7447  2.0223
 4898SOL     OW26155   1.420   0.125  11.734 -0.3398  0.2530  0.5141
 4898SOL    HW126156   1.469   0.048  11.706  0.5522  0.7033  0.8371
 4898SOL    HW226157   1.452   0.184  11.666  0.8206  0.0013  0.8444
 4899SOL     OW26158   3.702   3.514   7.117  0.2860  0.1869 -0.6898
 4899SOL    HW126159   3.660   3.545   7.036  0.7176 -0.0207 -0.9944
 4899SOL    HW226160   3.662   3.557   7.192  0.8026  0.0080 -0.3117
 4900SOL     OW26161   3.427   2.469   5.128  0.2347  0.2001 -0.0758
 4900SOL    HW126162   3.453   2.421   5.206  1.0823 -0.1128 -0.5495
 4900SOL    HW226163   3.360   2.412   5.089 -1.9069  1.0920  2.3072
 4901SOL     OW26164   0.579   3.182   2.886  0.4529 -0.1992 -0.1430
 4901SOL    HW126165   0.515   3.112   2.884  0.7057 -0.4998  2.6095
 4901SOL    HW226166   0.526   3.249   2.844 -0.9140  1.0105  3.4739
 4902SOL     OW26167   3.514   3.731   1.996 -0.0556  0.7799 -0.0979
 4902SOL    HW126168   3.568   3.787   1.940 -0.6573  2.6607  1.1946
 4902SOL    HW226169   3.512   3.656   1.936  1.2499 -0.3933  1.3619
 4903SOL     OW26170   2.171   0.812  11.652 -0.2111 -0.4192 -0.1570
 4903SOL    HW126171   2.098   0.751  11.665  0.6857 -1.6125 -0.8007
 4903SOL    HW226172   2.245   0.757  11.626  0.2301 -1.0629  2.4389
 4904SOL     OW26173   3.973   2.451   7.388 -0.0370 -0.7959  0.0721
 4904SOL    HW126174   3.969   2.411   7.301  0.5766 -0.0383 -0.3128
 4904SOL    HW226175   3.903   2.403   7.431 -1.3594 -0.5823 -1.8595
 4905SOL     OW26176   0.361   3.678   6.248 -0.5854 -0.3334 -0.1855
 4905SOL    HW126177   0.444   3.650   6.209 -1.1528 -0.1005 -1.5574
 4905SOL    HW226178   0.317   3.694   6.165 -0.6454 -0.6532 -0.2168
 4906SOL     OW26179   1.317   2.557  13.837  0.4754  0.8108  0.1421
 4906SOL    HW126180   1.330   2.541  13.931  0.7427  4.1537  0.6686
 4906SOL    HW226181   1.297   2.650  13.844  3.0493  1.5009 -2.0756
 4907SOL     OW26182   0.608   2.685  10.474  0.1244 -0.0356 -0.1330
 4907SOL    HW126183   0.641   2.606  10.431  1.1462  0.3895 -0.1232
 4907SOL    HW226184   0.525   2.657  10.512  0.6818 -2.8685 -1.0140
 4908SOL     OW26185   3.124   0.836   8.546 -0.0617 -0.2389 -0.6081
 4908SOL    HW126186   3.122   0.912   8.489 -1.9467  0.7265  0.7214
 4908SOL    HW226187   3.122   0.764   8.483  0.3607 -1.1120  0.3618
 4909SOL     OW26188   2.361   3.691   7.986 -0.0483  0.0677  0.1272
 4909SOL    HW126189   2.369   3.755   7.915 -1.6618  0.3429  0.2041
 4909SOL    HW226190   2.425   3.630   7.949 -2.0996 -2.4825  0.8338
 4910SOL     OW26191   3.097   1.113   5.626  0.0357  0.0156  0.4322
 4910SOL    HW126192   3.135   1.200   5.639  0.4655 -0.1907  0.5678
 4910SOL    HW226193   3.071   1.097   5.717  2.5673 -1.1576  0.9270
 4911SOL     OW26194   0.809   1.254   5.955 -0.0825 -0.8652  0.2664
 4911SOL    HW126195   0.864   1.332   5.944 -1.7981  0.3632  0.2671
 4911SOL    HW226196   0.755   1.257   5.876 -0.8895 -0.7750  0.8202
 4912SOL     OW26197   3.149   3.498  14.844  0.1837  0.6711  0.4404
 4912SOL    HW126198   3.150   3.496  14.749  0.6198  0.3502  0.4525
 4912SOL    HW226199   3.107   3.412  14.854 -2.4707  1.9400  0.2933
 4913SOL     OW26200   3.476   3.914  13.673  0.2236  0.5045 -0.1505
 4913SOL    HW126201   3.400   3.896  13.729  1.5541 -1.0991  1.1667
 4913SOL    HW226202   3.518   3.834  13.705 -0.9798 -0.0041  0.1335
 4914SOL     OW26203   1.741   1.334  12.598  0.6538  0.2128  0.5852
 4914SOL    HW126204   1.740   1.336  12.502  1.6260  1.2957  0.5927
 4914SOL    HW226205   1.773   1.245  12.607 -2.4824 -1.0841 -1.2208
 4915SOL     OW26206   2.652   4.664  16.881  0.2701 -0.1528  0.0261
 4915SOL    HW126207   2.739   4.699  16.898  0.2809 -0.2264  0.1258
 4915SOL    HW226208   2.668   4.620  16.798 -0.9819  0.3861 -0.5037
 4916SOL     OW26209   0.959   1.418   1.515 -0.6286 -0.8635  0.1640
 4916SOL    HW126210   0.879   1.405   1.565  0.1759  0.2779  1.7449
 4916SOL    HW226211   0.945   1.361   1.439  1.2838  1.1151 -1.7146
 4917SOL     OW26212   1.651   0.335   9.535  0.2341 -0.3210  0.2054
 4917SOL    HW126213   1.679   0.409   9.480 -1.5405  0.4246  0.3200
 4917SOL    HW226214   1.556   0.340   9.534  0.3021  0.9391 -1.6811
 4918SOL     OW26215   1.165   0.820  15.558  0.2258  0.4042  0.6077
 4918SOL    HW126216   1.229   0.884  15.528 -1.5286  1.3010 -1.1835
 4918SOL    HW226217   1.146   0.862  15.642  1.7175  1.4439  0.4368
 4919SOL     OW26218   1.701   3.082   3.190 -0.0772  0.0030  0.0999
 4919SOL    HW126219   1.670   3.020   3.256  1.8700 -1.1696 -0.0903
 4919SOL    HW226220   1.786   3.111   3.222 -0.8195  1.8702  0.3843
 4920SOL     OW26221   0.373   0.225  17.032 -0.0658  0.1205 -0.1914
 4920SOL    HW126222   0.467   0.219  17.014 -0.2354 -2.3732 -0.2539
 4920SOL    HW226223   0.340   0.267  16.953  2.2782  0.2630 -1.0975
 4921SOL     OW26224   2.664   1.966   8.897 -0.4873  0.1134 -0.0277
 4921SOL    HW126225   2.624   1.880   8.912  0.3793 -0.2534  0.1940
 4921SOL    HW226226   2.630   2.002   8.815 -1.4025  0.5181  0.5309
 4922SOL     OW26227   0.204   0.189  11.606  0.0063  0.4814 -0.2240
 4922SOL    HW126228   0.124   0.213  11.560  1.0809  1.3312 -1.6679
 4922SOL    HW226229   0.173   0.147  11.686 -0.2857  0.5190 -0.3175
 4923SOL     OW26230   1.632   3.680   2.743 -0.2896  0.0318  0.2548
 4923SOL    HW126231   1.654   3.742   2.814  0.7292  1.6153 -1.4403
 4923SOL    HW226232   1.540   3.705   2.733  0.1106  1.4565  0.1122
 4924SOL     OW26233   3.574   2.824   6.315  0.0792  0.6295  0.0677
 4924SOL    HW126234   3.481   2.815   6.337  0.4512  0.5218  1.6109
 4924SOL    HW226235   3.583   2.782   6.229  3.5514  0.7478  0.3975
 4925SOL     OW26236   2.765   0.377   0.777 -1.2837  0.1030 -0.0537
 4925SOL    HW126237   2.692   0.439   0.781 -0.6338  0.8893 -0.3347
 4925SOL    HW226238   2.831   0.431   0.733 -0.5576 -0.5132  0.2830
 4926SOL     OW26239   4.477   1.379   4.030 -0.2373 -0.2241  0.1767
 4926SOL    HW126240   4.469   1.468   4.064 -1.1522  0.2621 -1.3623
 4926SOL    HW226241   4.392   1.373   3.987 -0.4426  2.1140  0.2505
 4927SOL     OW26242   4.670   2.610   6.097 -0.3969 -0.1260  0.7954
 4927SOL    HW126243   0.018   2.669   6.121 -2.1534  1.1764  2.7911
 4927SOL    HW226244   4.620   2.657   6.030  1.1968 -0.9238 -0.9500
 4928SOL     OW26245   1.371   1.895  16.021  0.1311 -1.0273 -0.3221
 4928SOL    HW126246   1.284   1.907  15.983 -0.4752 -1.9621  0.7774
 4928SOL    HW226247   1.420   1.970  15.988 -0.9702  0.2119  0.8912
 4929SOL     OW26248   4.220   1.466   5.926  0.0950  0.7587 -0.3643
 4929SOL    HW126249   4.230   1.545   5.980 -2.2570  0.8223 -0.0197
 4929SOL    HW226250   4.227   1.500   5.837  0.6769  0.9970 -0.2253
 4930SOL     OW26251   4.541   0.625   0.724 -0.0574  0.0462 -0.0120
 4930SOL    HW126252   4.456   0.664   0.742  0.1796  0.4696  0.1859
 4930SOL    HW226253   4.552   0.661   0.635  3.3339  2.9284  1.5564
 4931SOL     OW26254   1.379   0.218   2.525  0.5453 -0.1477 -0.2780
 4931SOL    HW126255   1.294   0.262   2.517  0.9111  1.2490  3.6402
 4931SOL    HW226256   1.351   0.126   2.525  0.5022 -0.1326  0.8954
 4932SOL     OW26257   1.359   0.850   3.855  0.1843 -0.5250  0.0489
 4932SOL    HW126258   1.271   0.826   3.826  0.0025 -0.2064  0.3370
 4932SOL    HW226259   1.336   0.904   3.931 -1.8320 -0.1250 -0.8367
 4933SOL     OW26260   2.672   0.303   2.547  0.2185  0.3448  0.6049
 4933SOL    HW126261   2.583   0.332   2.562  0.5412  1.8795 -0.4708
 4933SOL    HW226262   2.689   0.325   2.455 -2.4334  0.9982  0.2896
 4934SOL     OW26263   3.774   3.254   1.901 -0.2034  0.1377 -0.2776
 4934SOL    HW126264   3.858   3.245   1.946  0.2915  0.1653 -1.2056
 4934SOL    HW226265   3.741   3.318   1.965 -0.6705 -0.3881  0.0074
 4935SOL     OW26266   3.859   0.536   7.007 -0.0547  0.1434  0.0541
 4935SOL    HW126267   3.783   0.479   7.020 -0.8825  1.4417  0.9000
 4935SOL    HW226268   3.918   0.469   6.974 -0.6694 -0.6857  0.6526
 4936SOL     OW26269   0.058   0.478   7.423 -0.0226  0.1938  0.6445
 4936SOL    HW126270   4.719   0.435   7.481 -0.7348  0.4728  0.0782
 4936SOL    HW226271   0.131   0.417   7.427  1.0370  1.4473  0.2433
 4937SOL     OW26272   4.208   4.356   8.362 -0.1073 -0.0621  0.1897
 4937SOL    HW126273   4.123   4.311   8.358 -0.2382  0.0955  1.0389
 4937SOL    HW226274   4.197   4.449   8.382 -0.2289  0.6133 -3.0832
 4938SOL     OW26275   1.202   2.708  17.213 -0.1863  0.2939  0.2047
 4938SOL    HW126276   1.163   2.714  17.126 -1.1029  1.1106  0.6781
 4938SOL    HW226277   1.122   2.718  17.264  0.5018 -1.7919  1.7262
 4939SOL     OW26278   2.611   1.979   3.165 -0.0700 -0.3498 -0.1046
 4939SOL    HW126279   2.558   1.923   3.221  2.3759 -1.1747  1.3896
 4939SOL    HW226280   2.695   1.935   3.172  0.3539  0.2695 -1.2806
 4940SOL     OW26281   0.448   0.828   3.515  0.5256 -0.2260 -0.3310
 4940SOL    HW126282   0.432   0.737   3.540 -2.3988 -0.0576 -1.6021
 4940SOL    HW226283   0.389   0.870   3.577  1.2365  0.9638 -0.4559
 4941SOL     OW26284   3.903   0.024   3.694  0.4409 -0.6702 -0.3745
 4941SOL    HW126285   3.986   4.700   3.698  0.4198 -0.6483  0.3930
 4941SOL    HW226286   3.902   0.067   3.609 -1.4034 -2.2517 -1.1420
 4942SOL     OW26287   2.026   2.793  10.336 -0.3317  0.5052  0.4084
 4942SOL    HW126288   2.099   2.826  10.388 -1.0610 -0.3206  1.9873
 4942SOL    HW226289   2.083   2.734  10.287 -0.4469  0.9192 -0.2257
 4943SOL     OW26290   1.969   2.476   2.709  0.0220 -0.4564  0.4099
 4943SOL    HW126291   1.900   2.451   2.771 -2.1844  1.0203 -1.4348
 4943SOL    HW226292   1.953   2.418   2.634 -0.3915 -3.0204  2.4995
 4944SOL     OW26293   0.975   3.278  17.007  0.2125 -0.5832  0.3306
 4944SOL    HW126294   1.027   3.358  16.998  1.9554 -1.7820 -0.3017
 4944SOL    HW226295   0.930   3.278  16.922  1.9940  1.8760 -0.6248
 4945SOL     OW26296   1.268   2.236   2.414 -0.0730 -0.1300  0.3273
 4945SOL    HW126297   1.260   2.222   2.319 -2.5061  1.5321  0.2851
 4945SOL    HW226298   1.178   2.238   2.446  0.2582 -0.0894  1.2532
 4946SOL     OW26299   2.202   0.777  15.323  0.1989  0.8293  0.2484
 4946SOL    HW126300   2.279   0.783  15.380  1.4428  0.8804 -1.4322
 4946SOL    HW226301   2.203   0.862  15.280  1.9971  0.7605  0.1677
 4947SOL     OW26302   3.669   3.577   3.563 -0.2910  0.2607 -0.3504
 4947SOL    HW126303   3.635   3.541   3.645  1.0326 -0.3939 -0.0879
 4947SOL    HW226304   3.591   3.556   3.512  0.5960  1.9165 -2.3560
 4948SOL     OW26305   0.470   1.545   5.914  0.0352 -0.0729 -0.4835
 4948SOL    HW126306   0.388   1.585   5.886  0.7330  2.1510  0.6588
 4948SOL    HW226307   0.499   1.617   5.971 -1.6334  1.7510 -1.9682
 4949SOL     OW26308   0.250   1.502   3.271  0.6270 -0.1249 -0.5131
 4949SOL    HW126309   0.316   1.441   3.238 -1.0769 -1.2705 -1.7515
 4949SOL    HW226310   0.254   1.478   3.364  0.0328  2.1041  0.0916
 4950SOL     OW26311   0.994   1.776   3.220  0.2400 -0.0787  0.2954
 4950SOL    HW126312   1.076   1.812   3.252  0.1855  1.7819 -1.6461
 4950SOL    HW226313   1.000   1.809   3.130 -2.0333  0.4757  0.3325
 4951SOL     OW26314   3.423   2.835  10.086  0.4460 -0.6677 -0.1886
 4951SOL    HW126315   3.503   2.821  10.136  0.8211 -1.5734 -1.0379
 4951SOL    HW226316   3.380   2.759  10.124  1.2339 -0.3329  1.3992
 4952SOL     OW26317   3.707   1.805   8.895 -0.7593  0.6412  0.5965
 4952SOL    HW126318   3.621   1.811   8.935  0.3767  0.8009  2.9858
 4952SOL    HW226319   3.700   1.865   8.821  2.5554 -1.1405 -1.1443
 4953SOL     OW26320   2.414   0.812   4.624  0.5951 -0.4424 -1.1500
 4953SOL    HW126321   2.375   0.873   4.561  0.8627  2.1588  1.2175
 4953SOL    HW226322   2.504   0.847   4.621  1.5027 -2.8798 -2.0230
 4954SOL     OW26323   0.046   3.337   5.552  0.2417  0.1208  0.0332
 4954SOL    HW126324   0.023   3.278   5.623  0.8550 -2.3107 -1.7924
 4954SOL    HW226325   0.141   3.344   5.556  0.1340  0.0351  2.3296
 4955SOL     OW26326   1.732   4.330   8.909  0.8044 -0.1113  0.1917
 4955SOL    HW126327   1.704   4.395   8.845 -1.8098 -1.2574  0.1621
 4955SOL    HW226328   1.772   4.256   8.864  1.9741  2.0337 -2.3207
 4956SOL     OW26329   0.095   1.225  17.225  0.5462  0.7533  0.7380
 4956SOL    HW126330   0.097   1.131  17.242 -1.2601  0.2270 -2.0360
 4956SOL    HW226331   0.184   1.239  17.258  0.0247 -1.4081  3.0427
 4957SOL     OW26332   4.476   0.625  16.308 -0.0532 -0.2806 -0.7262
 4957SOL    HW126333   4.510   0.616  16.397 -2.7170 -0.0574  0.2893
 4957SOL    HW226334   4.560   0.636  16.262  0.2910 -1.7401 -0.4384
 4958SOL     OW26335   0.225   2.928  14.040  0.4012 -0.0164  0.5004
 4958SOL    HW126336   0.222   2.966  13.952 -1.7241 -0.5780  0.3370
 4958SOL    HW226337   0.273   2.993  14.090  0.9542  0.0076 -0.0623
 4959SOL     OW26338   4.231   4.245  16.690 -0.2660 -0.1234  0.7980
 4959SOL    HW126339   4.321   4.211  16.700 -0.1923  0.3855  1.9022
 4959SOL    HW226340   4.196   4.178  16.748  3.1907 -1.2067  1.6712
 4960SOL     OW26341   2.209   4.652   5.737  0.3159  0.2718 -0.2605
 4960SOL    HW126342   2.149   4.591   5.780  0.9083  0.7106  1.1875
 4960SOL    HW226343   2.216   4.722   5.801 -2.0040  0.2514 -0.0008
 4961SOL     OW26344   3.785   2.523   6.329 -0.1762 -0.1093 -0.2494
 4961SOL    HW126345   3.846   2.565   6.269 -0.8757  1.1957 -0.0495
 4961SOL    HW226346   3.825   2.536   6.415 -0.5645 -3.7319  0.4793
 4962SOL     OW26347   4.243   1.339   0.095 -0.2145  0.4829  0.0410
 4962SOL    HW126348   4.178   1.382   0.040  0.0034 -0.6925 -1.1136
 4962SOL    HW226349   4.189   1.295   0.160 -1.9724  2.0988 -0.3242
 4963SOL     OW26350   0.606   2.946   8.435 -0.0438 -0.1204  0.1347
 4963SOL    HW126351   0.528   2.981   8.477 -1.0251 -0.4342 -1.4194
 4963SOL    HW226352   0.649   2.902   8.508  0.7357 -1.0382 -0.8847
 4964SOL     OW26353   2.380   0.816   7.633 -0.8340  0.0762 -0.2524
 4964SOL    HW126354   2.353   0.744   7.690 -1.0804  1.5847  1.5292
 4964SOL    HW226355   2.324   0.879   7.677  0.3216  1.6685 -1.0578
 4965SOL     OW26356   3.340   3.738   7.642 -0.4038  0.1728 -0.2980
 4965SOL    HW126357   3.366   3.829   7.633  0.5960 -0.1314 -0.4295
 4965SOL    HW226358   3.413   3.703   7.591 -0.7902 -2.9985  1.2782
 4966SOL     OW26359   1.955   0.107  14.805  0.2068  0.3127  0.0069
 4966SOL    HW126360   1.914   0.181  14.850  0.5050  0.6396 -0.2637
 4966SOL    HW226361   1.966   0.044  14.877  2.8051  1.1548  0.3388
 4967SOL     OW26362   3.609   0.175  10.720  0.3435  0.0283 -0.0280
 4967SOL    HW126363   3.671   0.248  10.717 -0.7921  1.0552  1.2364
 4967SOL    HW226364   3.620   0.139  10.632  3.6374 -0.3299  0.5251
 4968SOL     OW26365   3.257   0.572   8.691  0.2784  0.2317 -0.0469
 4968SOL    HW126366   3.332   0.512   8.695 -0.4894 -0.7782 -0.7759
 4968SOL    HW226367   3.292   0.628   8.621  1.3743 -1.2132 -0.6729
 4969SOL     OW26368   1.081   1.539   3.309 -0.1265  0.2925 -0.4576
 4969SOL    HW126369   1.068   1.619   3.258  1.4295 -0.3607 -1.8743
 4969SOL    HW226370   1.018   1.545   3.381 -0.4169  2.5775 -0.8892
 4970SOL     OW26371   3.899   3.384   3.718  0.6229 -0.6480  0.5354
 4970SOL    HW126372   3.806   3.403   3.726  0.6224  0.3911 -1.8496
 4970SOL    HW226373   3.900   3.291   3.693  1.5867  0.1270 -2.2577
 4971SOL     OW26374   2.861   1.751   7.859  0.3000  0.4057 -0.3346
 4971SOL    HW126375   2.783   1.789   7.899  0.4879  0.9320 -0.4781
 4971SOL    HW226376   2.863   1.789   7.772 -0.9414  1.0001 -0.1031
 4972SOL     OW26377   3.831   3.362   5.372  0.2444  0.2031  0.2217
 4972SOL    HW126378   3.844   3.302   5.445  0.2591  0.4579  0.4287
 4972SOL    HW226379   3.842   3.303   5.297 -3.3985 -0.3433  0.1093
 4973SOL     OW26380   4.671   1.345   7.268 -0.3651 -0.0957  0.0752
 4973SOL    HW126381   4.623   1.314   7.345 -0.0461 -2.6891 -0.7742
 4973SOL    HW226382   4.630   1.297   7.196 -2.7988  1.5285  0.3499
 4974SOL     OW26383   2.213   4.575  11.313  0.4270  0.0972 -0.5816
 4974SOL    HW126384   2.264   4.547  11.390 -0.3718 -0.7215 -0.3497
 4974SOL    HW226385   2.284   4.615  11.263 -0.6071  0.8088 -1.4731
 4975SOL     OW26386   3.227   3.281   9.426  0.6524  0.1793 -0.1588
 4975SOL    HW126387   3.212   3.280   9.332 -0.1398  0.8453 -0.0473
 4975SOL    HW226388   3.318   3.254   9.429  1.0210  1.4332  0.3111
 4976SOL     OW26389   1.634   4.723   6.772  0.4552  0.2497  0.0753
 4976SOL    HW126390   1.569   4.655   6.751  0.2117  0.5491 -0.1478
 4976SOL    HW226391   1.607   0.064   6.707 -1.0235  1.9975  2.4291
 4977SOL     OW26392   0.640   0.008   3.107 -0.2085  0.1339 -0.4467
 4977SOL    HW126393   0.724   0.048   3.083 -0.9462  0.8290 -1.8506
 4977SOL    HW226394   0.633   0.046   3.194  1.1857 -1.9818  0.5831
 4978SOL     OW26395   0.944   2.169  12.341 -0.6643 -0.0519 -0.1139
 4978SOL    HW126396   0.978   2.172  12.251  0.3204 -0.8234  0.2361
 4978SOL    HW226397   0.939   2.075  12.358 -0.4777 -0.2640 -1.2079
 4979SOL     OW26398   4.393   0.916   6.275  0.1746 -0.0164  0.0797
 4979SOL    HW126399   4.429   0.847   6.331 -3.7335  0.4258  3.0922
 4979SOL    HW226400   4.331   0.951   6.340 -1.2356 -1.2777 -0.6094
 4980SOL     OW26401   0.987   3.841   1.162 -0.5219  0.2063 -0.6854
 4980SOL    HW126402   0.935   3.787   1.221  0.8741  0.8523  1.1322
 4980SOL    HW226403   1.024   3.904   1.223  0.9128 -0.3795 -0.9431
 4981SOL     OW26404   4.610   0.250   3.702  0.0886 -0.1477 -0.1395
 4981SOL    HW126405   4.691   0.297   3.723 -1.6260  2.3524  0.8277
 4981SOL    HW226406   4.655   0.185   3.648 -0.1865  0.0751 -0.6346
 4982SOL     OW26407   0.635   3.733  12.389 -0.2441  0.3526  0.4866
 4982SOL    HW126408   0.693   3.702  12.320 -1.2610  1.3392 -0.7973
 4982SOL    HW226409   0.693   3.702  12.459 -1.1291  0.7809  1.4207
 4983SOL     OW26410   2.577   3.835   3.596 -0.2368 -0.0570  0.2434
 4983SOL    HW126411   2.540   3.922   3.613 -0.9477 -0.7791  2.4955
 4983SOL    HW226412   2.504   3.800   3.545 -0.0290 -1.8651  1.1903
 4984SOL     OW26413   1.824   1.406   3.390 -0.0691 -0.1728 -0.2675
 4984SOL    HW126414   1.790   1.408   3.479 -2.4542 -1.2932 -1.1437
 4984SOL    HW226415   1.779   1.326   3.363  1.7536 -1.6662  1.1740
 4985SOL     OW26416   0.033   0.428   5.412  1.0266 -0.3230  0.3398
 4985SOL    HW126417   0.095   0.413   5.483  0.9331 -0.0396  0.4803
 4985SOL    HW226418   4.717   0.341   5.402  1.0080 -0.3029  0.2453
 4986SOL     OW26419   1.209   0.780  17.245  0.6172  0.2101 -0.3354
 4986SOL    HW126420   1.167   0.722  17.308 -0.3225  2.0466  0.7441
 4986SOL    HW226421   1.138   0.841  17.224 -0.1679 -0.9399 -1.0374
 4987SOL     OW26422   3.616   3.707   6.264  0.1409 -0.0404 -0.2770
 4987SOL    HW126423   3.600   3.794   6.227 -0.0802 -0.6146 -1.5235
 4987SOL    HW226424   3.708   3.728   6.279 -0.1423 -1.4241  3.4489
 4988SOL     OW26425   2.756   1.507   2.351  0.4447 -0.1749  0.0002
 4988SOL    HW126426   2.675   1.557   2.342 -0.5387 -1.6384  0.6571
 4988SOL    HW226427   2.809   1.554   2.415  0.3324 -2.1083  1.5066
 4989SOL     OW26428   4.326   0.656  15.204 -0.2848  0.3905 -0.1754
 4989SOL    HW126429   4.354   0.708  15.279  1.0688  1.8227 -1.6672
 4989SOL    HW226430   4.404   0.609  15.174  0.8798  1.2236  1.5777
 4990SOL     OW26431   4.402   4.337  16.423  0.2805  0.4668  0.1533
 4990SOL    HW126432   4.364   4.422  16.443 -1.5528 -0.1193 -0.8373
 4990SOL    HW226433   4.336   4.295  16.368 -1.2548  0.0706  2.3058
 4991SOL     OW26434   2.732   2.364   3.009 -0.2012  0.0611  0.0983
 4991SOL    HW126435   2.798   2.427   2.981 -0.4587 -0.0330 -0.7194
 4991SOL    HW226436   2.738   2.382   3.103 -0.2602  1.8551 -0.2370
 4992SOL     OW26437   2.542   3.905   2.813  0.5399  0.1858 -0.2918
 4992SOL    HW126438   2.542   3.980   2.754 -2.1476 -0.0866 -0.6602
 4992SOL    HW226439   2.541   3.832   2.751  1.2334  0.0282 -0.1200
 4993SOL     OW26440   2.867   1.196   8.472  0.1096  0.1598 -0.1583
 4993SOL    HW126441   2.808   1.269   8.456 -0.6776 -0.5947 -0.7272
 4993SOL    HW226442   2.824   1.157   8.548 -2.4245  1.0306 -1.1495
 4994SOL     OW26443   2.187   2.290  10.245 -0.8477 -0.2291  0.0522
 4994SOL    HW126444   2.273   2.289  10.202 -1.2720  1.5880 -0.8198
 4994SOL    HW226445   2.190   2.199  10.273 -1.4077 -0.3245 -0.2018
 4995SOL     OW26446   0.374   0.238   2.581  0.3833  0.8931  0.1658
 4995SOL    HW126447   0.382   0.167   2.517  1.4445  1.0723  0.1052
 4995SOL    HW226448   0.343   0.307   2.521 -1.8723  1.5185  2.0285
 4996SOL     OW26449   4.074   0.047   1.228  0.3810  0.1522  0.7388
 4996SOL    HW126450   4.119   0.053   1.144  0.4647 -0.7091  0.7185
 4996SOL    HW226451   3.994   0.009   1.191  0.2674  1.2031 -0.0958
 4997SOL     OW26452   4.426   2.221   3.729 -0.2388 -0.6632 -0.0205
 4997SOL    HW126453   4.412   2.175   3.646  0.4520 -1.3220  0.2264
 4997SOL    HW226454   4.349   2.277   3.734  1.2878  1.4736 -0.4182
 4998SOL     OW26455   2.301   0.346   6.966  0.5578  0.3662 -0.2922
 4998SOL    HW126456   2.233   0.296   6.920  2.0631 -2.0270  0.0643
 4998SOL    HW226457   2.364   0.281   6.996 -0.0710 -0.8359 -1.5668
 4999SOL     OW26458   3.225   0.975   7.468  0.8651 -0.3358 -0.5334
 4999SOL    HW126459   3.244   1.028   7.390  0.7874 -0.9871 -0.9894
 4999SOL    HW226460   3.234   0.890   7.427  0.7898 -0.0782 -1.0813
 5000SOL     OW26461   0.981   0.631   7.948  0.0185  0.3043  0.0902
 5000SOL    HW126462   0.962   0.705   7.890 -0.4299 -0.4132 -0.6785
 5000SOL    HW226463   1.073   0.637   7.971 -0.6901  1.3951  2.6580
 5001SOL     OW26464   0.337   4.463   2.713  0.0839  0.0283  0.2172
 5001SOL    HW126465   0.386   4.530   2.760 -1.4469  1.3802 -0.1050
 5001SOL    HW226466   0.252   4.499   2.738 -0.2701 -0.4790 -0.2433
 5002SOL     OW26467   1.760   0.676  16.676 -0.1824  0.6807 -0.0216
 5002SOL    HW126468   1.814   0.671  16.755 -1.2635 -0.2490  0.6568
 5002SOL    HW226469   1.697   0.604  16.684  1.2101 -0.4887  0.3803
 5003SOL     OW26470   2.974   1.808  15.053 -0.2677 -1.0688 -0.0824
 5003SOL    HW126471   3.049   1.857  15.020 -0.0636 -2.0768 -1.1360
 5003SOL    HW226472   2.995   1.719  15.022  1.7247 -0.6813  0.2046
 5004SOL     OW26473   4.252   1.794  10.345 -0.1666  0.5776  0.5569
 5004SOL    HW126474   4.276   1.720  10.401  2.2009  2.1993  1.6729
 5004SOL    HW226475   4.212   1.748  10.271  2.2716 -1.0249  0.2298
 5005SOL     OW26476   3.451   3.969   8.461 -0.4601 -0.6351  0.0351
 5005SOL    HW126477   3.423   4.003   8.546  0.7354 -2.2475  1.0651
 5005SOL    HW226478   3.450   4.051   8.413 -3.6418  0.2376  1.5358
 5006SOL     OW26479   2.437   2.319   7.437  0.4032  0.0515  0.9865
 5006SOL    HW126480   2.366   2.297   7.377  0.8995 -0.9743  0.7772
 5006SOL    HW226481   2.421   2.259   7.510  0.0767  1.1257  1.7986
 5007SOL     OW26482   3.762   0.392   3.345  0.2564 -0.5520  0.0317
 5007SOL    HW126483   3.847   0.418   3.380 -0.7505 -0.2261  2.2055
 5007SOL    HW226484   3.723   0.479   3.341  3.0890  0.7315  0.3244
 5008SOL     OW26485   4.471   1.642  13.926  0.5102  0.0499  0.1931
 5008SOL    HW126486   4.545   1.655  13.866 -0.3287  0.0037 -0.8454
 5008SOL    HW226487   4.510   1.587  13.993  1.4632  1.0272  0.4493
 5009SOL     OW26488   4.400   0.541   1.579  0.0823  0.0952  0.3792
 5009SOL    HW126489   4.310   0.540   1.611  0.3689  3.2813  1.3086
 5009SOL    HW226490   4.411   0.635   1.561  1.6177  0.0509  1.1291
 5010SOL     OW26491   1.526   3.348   4.194 -0.2147 -0.1932 -0.3903
 5010SOL    HW126492   1.476   3.277   4.233  0.8939 -1.3727 -1.0992
 5010SOL    HW226493   1.459   3.417   4.186 -1.5651 -1.6759 -1.9605
 5011SOL     OW26494   0.224   1.167   8.913 -0.5737 -0.0210  0.0516
 5011SOL    HW126495   0.179   1.246   8.941  0.4609  0.6555 -0.2202
 5011SOL    HW226496   0.189   1.144   8.826 -2.6420 -0.0299  0.8881
 5012SOL     OW26497   0.128   4.123   4.026  0.1760  0.1370  0.6438
 5012SOL    HW126498   0.215   4.100   4.058  1.3273 -0.2201 -2.7374
 5012SOL    HW226499   0.158   4.154   3.941 -0.3328 -2.1797 -0.3875
 5013SOL     OW26500   2.896   4.597   8.427 -0.4294 -0.1001  0.0256
 5013SOL    HW126501   2.826   4.560   8.480  1.0635 -0.3080  1.8604
 5013SOL    HW226502   2.843   4.635   8.356 -0.0252 -0.2847 -0.3794
 5014SOL     OW26503   0.785   2.582   4.255 -0.1297 -0.4040 -0.0472
 5014SOL    HW126504   0.763   2.502   4.304  1.7267 -1.5405 -1.0935
 5014SOL    HW226505   0.752   2.647   4.317  1.0814 -0.4551  0.6533
 5015SOL     OW26506   0.274   4.412   3.231  0.1697 -0.1461  0.8179
 5015SOL    HW126507   0.309   4.422   3.143 -2.4162 -2.1144 -0.4276
 5015SOL    HW226508   0.267   4.317   3.235  0.2119 -0.2107 -0.8767
 5016SOL     OW26509   0.439   1.342   3.190  0.1254 -0.0085  1.2898
 5016SOL    HW126510   0.449   1.350   3.095  2.1198  0.7585  1.5654
 5016SOL    HW226511   0.511   1.286   3.221 -1.1089 -2.0922  0.3890
 5017SOL     OW26512   1.059   3.444   8.501  0.1491 -0.6254 -0.3787
 5017SOL    HW126513   1.045   3.538   8.488 -1.3885 -1.0651 -1.8120
 5017SOL    HW226514   1.095   3.452   8.589 -0.5303 -3.1011  0.1250
 5018SOL     OW26515   0.323   0.536  17.440  0.5625  0.5060 -0.0660
 5018SOL    HW126516   0.407   0.491  17.437  0.2747 -0.3038  3.5348
 5018SOL    HW226517   0.288   0.499  17.521  0.8156  1.0538  0.3004
 5019SOL     OW26518   3.918   2.221  13.942  0.3960 -0.2254 -0.4708
 5019SOL    HW126519   3.851   2.223  14.010 -0.5981 -0.0822 -1.4592
 5019SOL    HW226520   4.001   2.231  13.989 -0.6050  1.0376  1.0141
 5020SOL     OW26521   0.423   3.491   4.580 -0.0733 -0.4837 -0.1051
 5020SOL    HW126522   0.425   3.555   4.509  1.5052 -0.2507  0.1556
 5020SOL    HW226523   0.329   3.491   4.596  0.1620  0.9927  1.3123
 5021SOL     OW26524   1.400   4.116  13.614  0.0098 -0.2298  0.8344
 5021SOL    HW126525   1.470   4.054  13.636  0.7267  0.0886 -0.5342
 5021SOL    HW226526   1.327   4.073  13.658 -1.2514  0.7143 -0.3790
 5022SOL     OW26527   3.913   1.942   4.486  0.4655  0.6549  0.1942
 5022SOL    HW126528   3.941   1.853   4.509 -0.1573  0.5219  0.4383
 5022SOL    HW226529   3.907   1.986   4.570  0.7921  0.7598  0.1624
 5023SOL     OW26530   2.104   0.154  12.416  0.3202 -0.4867 -0.4815
 5023SOL    HW126531   2.076   0.064  12.403  0.1032 -0.3899 -0.6800
 5023SOL    HW226532   2.093   0.160  12.511 -0.4244  1.2408 -0.6613
 5024SOL     OW26533   3.611   0.976   4.126 -0.1250  0.4477 -0.0525
 5024SOL    HW126534   3.679   0.998   4.062  2.4978  2.5773  3.5339
 5024SOL    HW226535   3.654   0.898   4.158  3.2377  2.4832  0.3906
 5025SOL     OW26536   3.875   2.764   7.005  0.4073  0.3207  0.0655
 5025SOL    HW126537   3.803   2.796   7.059  0.9919  2.4252 -0.3959
 5025SOL    HW226538   3.934   2.735   7.075  0.6205  2.2896  0.7173
 5026SOL     OW26539   2.686   0.707   4.776 -0.1372  0.5118 -0.4580
 5026SOL    HW126540   2.742   0.784   4.784 -0.1772  0.7079 -1.9273
 5026SOL    HW226541   2.600   0.725   4.814 -0.7549 -1.6932 -0.8326
 5027SOL     OW26542   0.775   1.084  12.518  0.0230  0.0671 -0.3829
 5027SOL    HW126543   0.759   1.134  12.438  0.5357 -0.1545 -0.6284
 5027SOL    HW226544   0.693   1.088  12.567  0.3064 -2.5127  0.2998
 5028SOL     OW26545   3.552   0.183   4.200  0.1843 -0.3938  0.6092
 5028SOL    HW126546   3.626   0.239   4.177 -0.1625  0.2306  1.0280
 5028SOL    HW226547   3.551   0.114   4.133  1.1890  1.7206 -1.6025
 5029SOL     OW26548   4.007   0.176   2.555  0.3584  0.0844  0.0096
 5029SOL    HW126549   4.017   0.131   2.471 -1.5775  0.2606 -0.3192
 5029SOL    HW226550   3.950   0.248   2.526 -1.3266 -1.0226  0.6036
 5030SOL     OW26551   1.765   0.501   2.785  0.3032  0.0676 -0.3036
 5030SOL    HW126552   1.694   0.457   2.739 -0.1338  0.6159 -0.1473
 5030SOL    HW226553   1.833   0.461   2.732 -0.3777  0.7075 -1.6534
 5031SOL     OW26554   3.364   4.143   5.093 -0.0746  0.2500 -0.0571
 5031SOL    HW126555   3.269   4.136   5.100  0.1165 -1.8490  0.4241
 5031SOL    HW226556   3.385   4.221   5.145 -3.7948  2.0104 -1.2212
 5032SOL     OW26557   3.496   1.919   9.341  0.3841 -0.2760  0.1985
 5032SOL    HW126558   3.551   1.931   9.419  1.3567 -0.0722 -0.5234
 5032SOL    HW226559   3.421   1.970   9.371  0.7422  1.1519 -1.3593
 5033SOL     OW26560   3.522   0.579   2.357 -0.0570 -0.2733  0.2341
 5033SOL    HW126561   3.488   0.509   2.413 -0.9502 -0.9947 -1.2157
 5033SOL    HW226562   3.503   0.533   2.275 -0.8063  0.8593 -0.2299
 5034SOL     OW26563   2.116   2.973  17.016 -0.1399 -1.3757  0.4654
 5034SOL    HW126564   2.083   2.889  16.987 -1.5363 -0.6251 -0.1136
 5034SOL    HW226565   2.206   2.966  16.985 -0.1951 -0.6012  0.1224
 5035SOL     OW26566   0.198   0.705  16.960 -0.1332  0.3334 -0.1633
 5035SOL    HW126567   0.208   0.683  17.053 -2.4204 -2.4414 -0.5782
 5035SOL    HW226568   0.128   0.767  16.982 -0.1908  0.2251 -0.0440
 5036SOL     OW26569   2.166   2.776   5.363  0.3159 -0.3353 -0.0327
 5036SOL    HW126570   2.251   2.819   5.364  0.6349 -1.0106  1.1079
 5036SOL    HW226571   2.152   2.753   5.271 -1.6369  0.4084  0.0762
 5037SOL     OW26572   3.327   2.236   1.521 -0.1199 -0.4337  0.3437
 5037SOL    HW126573   3.334   2.143   1.501  0.5361  0.1352 -2.0778
 5037SOL    HW226574   3.412   2.251   1.563  0.6770 -1.6753 -0.8192
 5038SOL     OW26575   4.219   1.228  13.327  0.0068 -0.3306 -0.6569
 5038SOL    HW126576   4.160   1.181  13.268 -0.8165  0.7417 -0.6876
 5038SOL    HW226577   4.183   1.219  13.415 -2.9854  0.7444 -1.7393
 5039SOL     OW26578   3.215   0.905  10.544 -0.8641 -0.1892  0.5137
 5039SOL    HW126579   3.304   0.894  10.511 -0.2234  0.7892  1.9249
 5039SOL    HW226580   3.160   0.895  10.466 -0.2187 -1.8955  0.2779
 5040SOL     OW26581   0.536   0.495  17.074  0.2650  0.1736 -0.0755
 5040SOL    HW126582   0.447   0.464  17.059 -0.5845  2.2587  0.6686
 5040SOL    HW226583   0.526   0.589  17.090 -0.4580  0.0198  0.3563
 5041SOL     OW26584   3.969   2.397   5.521 -0.0949 -0.6826 -0.2136
 5041SOL    HW126585   4.064   2.397   5.516 -0.1513 -1.5818 -1.2796
 5041SOL    HW226586   3.929   2.456   5.456  1.1850 -0.3126 -0.6661
 5042SOL     OW26587   0.343   4.019   6.087 -0.3454 -0.2375  0.2063
 5042SOL    HW126588   0.272   4.051   6.031  0.4138 -1.0186 -1.2118
 5042SOL    HW226589   0.301   4.031   6.173  0.6350  1.2842  0.4731
 5043SOL     OW26590   1.504   2.267   7.007 -0.3588  0.2913  1.2980
 5043SOL    HW126591   1.416   2.260   6.969  0.3495 -0.5753 -0.1561
 5043SOL    HW226592   1.498   2.193   7.068  0.5532 -0.9939 -0.2032
 5044SOL     OW26593   2.152   2.073  12.291 -0.3069  0.1121 -0.1216
 5044SOL    HW126594   2.155   2.160  12.332 -1.1651  0.8349 -1.5839
 5044SOL    HW226595   2.131   2.010  12.359  1.6608 -1.8055 -1.3067
 5045SOL     OW26596   4.035   1.558   0.382  0.0785  0.3525 -0.3819
 5045SOL    HW126597   3.957   1.502   0.390  1.2627 -0.7044  3.5214
 5045SOL    HW226598   4.086   1.539   0.460 -1.9144  2.0643  1.3494
 5046SOL     OW26599   1.853   1.213   3.047  0.3139 -0.0264 -0.2866
 5046SOL    HW126600   1.924   1.156   3.016 -1.4383 -0.9985 -2.4497
 5046SOL    HW226601   1.821   1.157   3.118  0.4700 -1.5414 -1.4062
 5047SOL     OW26602   2.620   0.007   5.657  0.7107 -0.2216  0.1687
 5047SOL    HW126603   2.678   0.079   5.630  0.5802 -0.1594  0.0551
 5047SOL    HW226604   2.546   0.047   5.702  1.2873  2.5198 -1.3215
 5048SOL     OW26605   0.082   3.311  15.736 -0.0036  0.3362 -0.5913
 5048SOL    HW126606   0.071   3.279  15.646  1.5606  0.5902 -0.8730
 5048SOL    HW226607   0.083   3.224  15.776  1.4399  0.7803  0.3533
 5049SOL     OW26608   3.015   0.484   3.440 -0.2959  0.1273  0.3830
 5049SOL    HW126609   3.051   0.435   3.367  2.6068  1.2546  1.0396
 5049SOL    HW226610   3.072   0.560   3.451 -0.6052  0.4435 -0.2172
 5050SOL     OW26611   3.036   0.434   4.010 -0.0697 -0.3097 -0.3081
 5050SOL    HW126612   3.102   0.476   3.955  0.5022  0.2169  0.7941
 5050SOL    HW226613   2.996   0.370   3.951 -1.0356  2.7333 -2.9299
 5051SOL     OW26614   0.039   4.140   0.547  0.3061  0.9053 -0.3560
 5051SOL    HW126615   0.015   4.074   0.481 -0.4422  1.5031 -0.6747
 5051SOL    HW226616   4.703   4.210   0.523 -1.3664 -0.7580 -0.9757
 5052SOL     OW26617   3.956   0.318   1.194  0.1271 -0.3427  0.3704
 5052SOL    HW126618   4.008   0.271   1.259  0.5309 -0.4804 -0.0598
 5052SOL    HW226619   4.026   0.365   1.149 -1.1060 -0.1464 -1.3110
 5053SOL     OW26620   3.403   3.458   2.937 -0.4872 -0.1675  0.4413
 5053SOL    HW126621   3.343   3.455   3.012  3.2135 -0.2131  3.4096
 5053SOL    HW226622   3.483   3.424   2.975 -1.2076 -2.7161 -0.3290
 5054SOL     OW26623   3.934   0.094   5.492 -0.0464 -0.2963 -0.8988
 5054SOL    HW126624   3.933   0.091   5.587  0.7369 -2.1874 -0.9363
 5054SOL    HW226625   3.946   0.002   5.468 -1.1182 -0.6538 -0.0311
 5055SOL     OW26626   1.667   3.363  13.511  0.0846 -0.6016 -0.3044
 5055SOL    HW126627   1.578   3.398  13.513  0.3991  0.3590 -3.4687
 5055SOL    HW226628   1.708   3.430  13.456 -2.7908  0.7508 -0.8003
 5056SOL     OW26629   1.791   0.104  11.544 -0.3797  0.0654 -0.2592
 5056SOL    HW126630   1.836   0.186  11.524  1.2140 -0.7114  0.1085
 5056SOL    HW226631   1.811   0.061  11.461 -0.8224  0.9965 -0.8451
 5057SOL     OW26632   1.839   2.229  10.567 -0.3055  0.4234 -0.2756
 5057SOL    HW126633   1.857   2.295  10.634 -2.2440  1.0292 -0.3681
 5057SOL    HW226634   1.796   2.160  10.618 -0.9403  1.8374  1.1216
 5058SOL     OW26635   4.452   1.053   2.511 -0.1204 -0.0065  0.3251
 5058SOL    HW126636   4.484   1.016   2.593  2.2235 -1.5283 -1.2745
 5058SOL    HW226637   4.365   1.075   2.544 -0.4012  0.0427 -0.4448
 5059SOL     OW26638   3.278   2.428  10.238 -0.2994 -0.1543 -0.3748
 5059SOL    HW126639   3.289   2.334  10.223  0.9586 -0.2815  1.3980
 5059SOL    HW226640   3.202   2.428  10.296 -0.7444  0.0531 -0.9532
 5060SOL     OW26641   3.418   2.053   1.034  0.7266 -0.2573  0.0165
 5060SOL    HW126642   3.510   2.026   1.039  0.4630 -1.1818 -0.1555
 5060SOL    HW226643   3.406   2.072   1.128  1.6594 -1.4358  0.3662
 5061SOL     OW26644   3.866   1.766  14.348 -0.0508  0.3943  0.4530
 5061SOL    HW126645   3.840   1.833  14.285  1.8292  0.5935 -0.1163
 5061SOL    HW226646   3.782   1.764  14.395  0.3791  0.4072  1.2333
 5062SOL     OW26647   3.808   2.201  14.178  0.3880  0.1411  0.2372
 5062SOL    HW126648   3.852   2.224  14.260  2.3057 -0.8206 -0.5134
 5062SOL    HW226649   3.731   2.256  14.191 -1.8290 -2.7976 -0.3260
 5063SOL     OW26650   0.850   4.318   3.364  0.2316  0.3730 -0.5603
 5063SOL    HW126651   0.867   4.229   3.334 -1.9062  0.0244 -0.7557
 5063SOL    HW226652   0.822   4.353   3.279  2.1265  0.7775 -1.0185
 5064SOL     OW26653   3.999   4.674   2.091 -0.1145 -0.8042  0.4617
 5064SOL    HW126654   3.970   4.600   2.037 -3.9315 -0.0695  1.4656
 5064SOL    HW226655   4.071   4.628   2.134  0.3904 -0.1197  0.3438
 5065SOL     OW26656   1.664   3.461   2.592  0.4075 -0.3391  0.1125
 5065SOL    HW126657   1.677   3.540   2.645  0.6312  1.0991 -2.0627
 5065SOL    HW226658   1.622   3.402   2.654 -0.9861 -1.4488 -1.8838
 5066SOL     OW26659   1.302   3.884  10.060 -0.2807  0.7402 -0.2086
 5066SOL    HW126660   1.337   3.857  10.145  1.8620 -1.1235 -1.6762
 5066SOL    HW226661   1.211   3.860  10.076  0.7413 -2.8047  0.2975
 5067SOL     OW26662   3.638   0.626   3.388  0.1140  0.2699  0.1476
 5067SOL    HW126663   3.569   0.692   3.387  0.0666  0.2236  0.8547
 5067SOL    HW226664   3.706   0.671   3.439  0.3651  0.3708 -0.2721
 5068SOL     OW26665   1.732   0.758   8.501  0.4018 -0.0747 -0.8311
 5068SOL    HW126666   1.770   0.731   8.584  0.9039 -2.5589 -1.8902
 5068SOL    HW226667   1.795   0.723   8.439  2.4205  1.4604  0.3683
 5069SOL     OW26668   2.139   2.434   5.336  0.3724 -0.4069  0.8501
 5069SOL    HW126669   2.165   2.352   5.378  1.4678  0.3012  1.5557
 5069SOL    HW226670   2.212   2.490   5.363  1.9049 -0.3944 -3.2503
 5070SOL     OW26671   1.144   2.957   8.312 -0.2260 -0.0252 -1.2442
 5070SOL    HW126672   1.235   2.930   8.299  0.1312 -0.7083  2.7466
 5070SOL    HW226673   1.153   3.052   8.307  0.2000  0.0280  0.9222
 5071SOL     OW26674   1.443   1.895   7.888 -0.4047  0.3818  0.1504
 5071SOL    HW126675   1.489   1.842   7.823 -0.5740 -0.7315  0.9375
 5071SOL    HW226676   1.462   1.846   7.968  1.1287  0.9311  0.1288
 5072SOL     OW26677   4.214   2.013   6.824  0.5124 -0.0410  1.2485
 5072SOL    HW126678   4.142   1.958   6.793  0.2951  0.4469  0.9006
 5072SOL    HW226679   4.262   2.044   6.748  0.0400  0.1183  1.0139
 5073SOL     OW26680   2.956   2.015   1.569 -0.2579  0.0006  0.5925
 5073SOL    HW126681   2.960   1.927   1.531  1.1909  0.0786  0.5564
 5073SOL    HW226682   3.016   2.004   1.642 -1.6790 -1.7857  1.4847
 5074SOL     OW26683   3.575   1.740   3.002  1.0476  0.5755 -0.2051
 5074SOL    HW126684   3.598   1.812   2.944 -1.3708 -0.3313 -2.2409
 5074SOL    HW226685   3.575   1.668   2.939  0.7841 -0.0411  0.4887
 5075SOL     OW26686   4.304   0.958   1.367  0.0687 -0.0485 -0.5331
 5075SOL    HW126687   4.376   0.913   1.324 -0.7161 -2.6543  0.9025
 5075SOL    HW226688   4.336   0.962   1.457  1.0467 -1.5344 -0.8268
 5076SOL     OW26689   1.588   2.014   3.504  0.1388  0.0854 -0.5117
 5076SOL    HW126690   1.664   1.959   3.490  0.4135 -0.1908  2.0535
 5076SOL    HW226691   1.636   2.094   3.526  2.2357 -1.4894  0.6420
 5077SOL     OW26692   4.050   4.193  12.328  0.5175  0.3423 -0.3454
 5077SOL    HW126693   4.100   4.256  12.380 -1.6403  0.1073  2.0786
 5077SOL    HW226694   4.041   4.120  12.390  1.2126  0.2451 -0.3626
 5078SOL     OW26695   2.976   3.349   8.269  0.5127 -0.1084  0.4128
 5078SOL    HW126696   2.951   3.257   8.279 -1.6904  0.2897 -1.5422
 5078SOL    HW226697   3.055   3.354   8.323  2.1149 -1.3443 -1.8308
 5079SOL     OW26698   4.583   1.034   2.983  0.1315  0.5807 -0.4255
 5079SOL    HW126699   4.594   1.125   2.953  1.9535  0.8860  1.2013
 5079SOL    HW226700   4.490   1.031   3.007  0.4201 -0.8596  0.5086
 5080SOL     OW26701   1.210   1.402   6.592  0.1715 -0.0427  0.4046
 5080SOL    HW126702   1.237   1.437   6.506  0.1321 -0.4116  0.2400
 5080SOL    HW226703   1.272   1.454   6.643  0.1676 -1.5589  1.9397
 5081SOL     OW26704   4.157   0.309   7.238  0.1344  0.7947  0.1821
 5081SOL    HW126705   4.190   0.243   7.299 -0.5616  0.0605 -0.2389
 5081SOL    HW226706   4.064   0.299   7.260 -0.1936  2.7439 -0.3370
 5082SOL     OW26707   3.908   1.930   1.750  0.2148 -0.4421  0.0684
 5082SOL    HW126708   3.885   1.899   1.837 -0.4935 -1.0951 -0.3465
 5082SOL    HW226709   3.850   2.007   1.743  0.4825 -0.1982  0.5440
 5083SOL     OW26710   0.829   2.619  11.116 -0.1422  0.3793 -0.3491
 5083SOL    HW126711   0.824   2.711  11.143 -0.5772  0.5833 -1.1166
 5083SOL    HW226712   0.738   2.591  11.124  0.1293 -0.0506  1.3489
 5084SOL     OW26713   4.111   0.965  15.537 -0.2065 -0.7218  0.0119
 5084SOL    HW126714   4.116   1.013  15.620 -1.8217  1.0543 -0.9040
 5084SOL    HW226715   4.193   0.993  15.497  0.5972 -0.8806  1.5265
 5085SOL     OW26716   1.333   4.711   7.394  0.1102 -0.6291  0.6715
 5085SOL    HW126717   1.383   0.054   7.348 -0.5548 -1.0634 -0.6821
 5085SOL    HW226718   1.323   0.015   7.485 -2.0288 -0.1110  0.2802
 5086SOL     OW26719   2.030   1.815   5.607  0.1595  0.1358 -0.3658
 5086SOL    HW126720   1.936   1.822   5.589  0.5930 -2.8850 -3.8440
 5086SOL    HW226721   2.032   1.887   5.670  1.2924 -0.5026  0.3309
 5087SOL     OW26722   3.247   3.494  12.332 -0.0072 -0.6841  0.3421
 5087SOL    HW126723   3.339   3.472  12.319  0.2234  0.4563  0.0269
 5087SOL    HW226724   3.252   3.559  12.261  1.5358 -0.9153  0.2369
 5088SOL     OW26725   3.051   4.501   7.363 -0.4606 -0.3991 -0.5309
 5088SOL    HW126726   2.985   4.440   7.396  0.5908  0.4000  3.0137
 5088SOL    HW226727   2.994   4.544   7.299 -0.6825 -1.6468 -1.1844
 5089SOL     OW26728   3.344   0.525   4.136 -0.0967 -0.0784  0.5084
 5089SOL    HW126729   3.358   0.433   4.111 -0.0858  0.3248 -0.9785
 5089SOL    HW226730   3.425   0.535   4.186  1.0236 -1.0959 -1.0794
 5090SOL     OW26731   3.412   0.860   6.429 -0.0194  0.1572 -0.0197
 5090SOL    HW126732   3.473   0.825   6.365 -1.6734  1.9058 -2.5405
 5090SOL    HW226733   3.332   0.815   6.403 -0.5238  1.5881 -0.9874
 5091SOL     OW26734   2.362   1.292   8.826  0.0224 -0.4239  0.1418
 5091SOL    HW126735   2.430   1.231   8.800 -0.8531 -1.3532  0.0381
 5091SOL    HW226736   2.355   1.346   8.747  1.3706 -0.3202  0.0982
 5092SOL     OW26737   2.453   0.958   3.101  0.5735  0.0199  0.5461
 5092SOL    HW126738   2.517   0.889   3.081  0.6904  1.2431 -3.3243
 5092SOL    HW226739   2.472   0.989   3.190  0.3346  0.6456  0.3784
 5093SOL     OW26740   4.695   4.323   3.861 -0.0526  0.3155  0.1484
 5093SOL    HW126741   4.657   4.247   3.905  0.5909  0.7370  1.4079
 5093SOL    HW226742   4.617   4.378   3.854 -0.7736 -0.3897  2.6785
 5094SOL     OW26743   1.913   3.817   3.348  0.0101 -0.3411  0.4563
 5094SOL    HW126744   1.989   3.848   3.298  1.7908 -2.2853  1.9804
 5094SOL    HW226745   1.944   3.810   3.438 -1.0873 -0.1857  0.8496
 5095SOL     OW26746   3.670   1.827   4.842 -0.2431  0.6074 -0.6084
 5095SOL    HW126747   3.636   1.823   4.752 -1.1676 -0.3137 -0.2155
 5095SOL    HW226748   3.680   1.734   4.861 -2.0030  0.6886  0.6785
 5096SOL     OW26749   1.268   2.729   2.545 -0.1437  0.2288  0.5165
 5096SOL    HW126750   1.257   2.722   2.450 -0.7097  1.2994  0.5019
 5096SOL    HW226751   1.191   2.779   2.574 -3.2828 -3.7899 -0.8317
 5097SOL     OW26752   3.943   2.103   2.036  0.4868 -0.9138  0.2088
 5097SOL    HW126753   3.936   2.164   1.962  0.0955 -3.5308 -1.8882
 5097SOL    HW226754   4.012   2.132   2.097 -1.3068 -0.0014  1.8018
 5098SOL     OW26755   1.404   4.098   5.215 -0.4738 -0.2292  0.1474
 5098SOL    HW126756   1.397   4.139   5.129  1.7942  0.6688  0.3912
 5098SOL    HW226757   1.496   4.111   5.238 -0.8921  0.8553  1.1960
 5099SOL     OW26758   2.384   3.294   3.465  0.4283 -0.2200  0.0122
 5099SOL    HW126759   2.458   3.247   3.503  2.5652  1.1990 -2.3456
 5099SOL    HW226760   2.316   3.232   3.489  0.6262 -0.3528  0.2229
 5100SOL     OW26761   2.838   1.711   9.133 -0.1421  0.2786 -0.3813
 5100SOL    HW126762   2.781   1.635   9.148  1.4341 -0.7124  0.6413
 5100SOL    HW226763   2.862   1.687   9.043 -0.7642 -1.7533 -0.0098
 5101SOL     OW26764   4.227   1.287   2.544 -0.0991 -0.3045 -0.1091
 5101SOL    HW126765   4.237   1.362   2.603  0.6422 -1.0190  0.6728
 5101SOL    HW226766   4.273   1.321   2.468  1.8120 -2.0306  0.3001
 5102SOL     OW26767   2.786   3.584   6.961 -0.0443  0.0542 -0.2766
 5102SOL    HW126768   2.733   3.541   6.893 -1.3097  1.8452 -0.4146
 5102SOL    HW226769   2.789   3.529   7.039  1.0965  0.3278 -0.1399
 5103SOL     OW26770   0.672   2.399   4.464 -0.0492  0.1448 -0.0645
 5103SOL    HW126771   0.577   2.412   4.458  0.0406  0.7365 -0.1862
 5103SOL    HW226772   0.671   2.328   4.528  0.5215  1.2420  1.1922
 5104SOL     OW26773   4.623   3.603  12.599 -0.1860  0.4870 -0.1660
 5104SOL    HW126774   4.616   3.515  12.562 -0.6121  0.2554  0.4755
 5104SOL    HW226775   4.609   3.657  12.521  1.0824  1.6926  0.4574
 5105SOL     OW26776   2.663   0.640   1.083 -0.2702 -0.0209 -0.4466
 5105SOL    HW126777   2.575   0.627   1.049  0.1291 -0.6463 -1.2422
 5105SOL    HW226778   2.700   0.719   1.043 -0.7583 -0.3837 -1.6131
 5106SOL     OW26779   3.403   0.819   5.289  0.2126  0.2526  0.4272
 5106SOL    HW126780   3.398   0.820   5.193  1.2007 -2.4534  0.3388
 5106SOL    HW226781   3.456   0.897   5.301  1.8226 -0.6969 -0.4544
 5107SOL     OW26782   4.546   2.067   4.824  0.0262 -0.3216  0.0509
 5107SOL    HW126783   4.495   2.095   4.747 -2.2226  0.0179  1.6562
 5107SOL    HW226784   4.489   2.109   4.889  2.2100  1.3949  0.8644
 5108SOL     OW26785   2.079   0.638   8.707 -0.2873 -0.2443  0.4130
 5108SOL    HW126786   1.987   0.657   8.725 -0.4167  1.0927 -1.6214
 5108SOL    HW226787   2.125   0.716   8.739 -1.7921  0.6306  0.4484
 5109SOL     OW26788   0.200   0.524   4.107  0.0188  0.1368 -0.2447
 5109SOL    HW126789   0.291   0.523   4.077  0.3748  0.2593  0.8058
 5109SOL    HW226790   0.207   0.580   4.185 -1.9453  0.1467 -0.0694
 5110SOL     OW26791   3.893   2.459   1.938  0.0678  0.5558  0.5313
 5110SOL    HW126792   3.929   2.441   2.025 -0.5781  0.4821  0.7848
 5110SOL    HW226793   3.842   2.536   1.963 -0.2286  2.1504 -5.0682
 5111SOL     OW26794   1.706   0.292   9.228 -0.1347 -0.6814  0.5944
 5111SOL    HW126795   1.786   0.239   9.238 -0.0944 -0.9166 -1.0017
 5111SOL    HW226796   1.713   0.342   9.309  4.3792 -2.8425  1.5405
 5112SOL     OW26797   1.874   0.637   5.612 -0.3134  0.2322 -0.1483
 5112SOL    HW126798   1.953   0.583   5.613 -0.7939 -0.5048 -1.8100
 5112SOL    HW226799   1.811   0.567   5.596 -0.1721  0.7775 -2.9902
 5113SOL     OW26800   1.214   0.427  12.928 -0.9047 -0.2144 -0.0399
 5113SOL    HW126801   1.289   0.484  12.946  0.2379 -1.2361 -1.5685
 5113SOL    HW226802   1.192   0.475  12.848 -1.5019  0.0178  0.2688
 5114SOL     OW26803   1.070   1.357   3.044  0.5655  0.0990 -0.1513
 5114SOL    HW126804   1.048   1.424   3.109  1.7077 -1.4643  1.8435
 5114SOL    HW226805   1.014   1.393   2.974  0.1294  3.2048  1.7907
 5115SOL     OW26806   3.062   4.487   6.560 -0.3211 -0.3792 -0.2861
 5115SOL    HW126807   3.066   4.569   6.609 -1.1317  0.0475 -0.9347
 5115SOL    HW226808   3.150   4.478   6.524 -0.1937  2.6309 -0.7112
 5116SOL     OW26809   1.926   4.549  16.231 -0.2883  0.2178  0.2652
 5116SOL    HW126810   1.872   4.618  16.192  2.2154  2.1149  0.1860
 5116SOL    HW226811   2.008   4.597  16.243 -0.1886 -0.2630  1.4718
 5117SOL     OW26812   0.262   2.062   7.122 -0.5179 -0.2913  0.2154
 5117SOL    HW126813   0.330   2.018   7.174  0.3000  0.9333  0.1932
 5117SOL    HW226814   0.180   2.033   7.162 -1.5916  0.8758 -1.1528
 5118SOL     OW26815   3.717   2.450  15.446  0.0987  0.0807 -0.1012
 5118SOL    HW126816   3.790   2.448  15.383  1.8408 -3.3553  2.0354
 5118SOL    HW226817   3.730   2.364  15.486 -0.6375  1.0868  2.2685
 5119SOL     OW26818   4.125   0.470   8.186  0.2991  0.7888 -0.3686
 5119SOL    HW126819   4.160   0.418   8.258  0.8843  1.0362 -0.4720
 5119SOL    HW226820   4.204   0.524   8.184  0.4117  0.6509  0.3062
 5120SOL     OW26821   0.475   1.526  15.015  1.1330  0.2903 -0.4270
 5120SOL    HW126822   0.533   1.531  14.940  2.1961 -0.1415  0.3592
 5120SOL    HW226823   0.388   1.510  14.979  0.7163 -0.0020  0.7094
 5121SOL     OW26824   2.234   2.393   5.759  0.5279  0.1051  0.3945
 5121SOL    HW126825   2.207   2.444   5.835  1.8685  2.0291 -0.4306
 5121SOL    HW226826   2.267   2.457   5.696 -0.8314 -0.4798 -0.9281
 5122SOL     OW26827   3.520   2.551   1.624 -0.3456 -0.1840  0.7162
 5122SOL    HW126828   3.546   2.463   1.651 -2.0505 -0.8813  0.0925
 5122SOL    HW226829   3.564   2.556   1.539 -1.1977  2.1917  0.4004
 5123SOL     OW26830   0.503   1.723  13.612 -0.2884  0.5807 -0.1253
 5123SOL    HW126831   0.484   1.773  13.532 -1.1297 -0.2277 -0.4271
 5123SOL    HW226832   0.595   1.710  13.588 -0.4107  0.0779 -0.3112
 5124SOL     OW26833   3.997   3.229   6.799  0.6393 -0.5110  0.3864
 5124SOL    HW126834   4.041   3.237   6.714 -0.9128 -1.1729 -0.4787
 5124SOL    HW226835   3.971   3.320   6.815 -0.4103 -1.2421  2.8955
 5125SOL     OW26836   2.061   1.568   3.415  0.6038 -0.0682 -0.2034
 5125SOL    HW126837   2.107   1.522   3.344 -0.8422 -0.3915 -0.9412
 5125SOL    HW226838   1.983   1.515   3.431 -0.0687  0.6567 -1.1085
 5126SOL     OW26839   3.507   4.165   1.920 -0.2790 -0.0857  0.1797
 5126SOL    HW126840   3.577   4.219   1.955 -2.3190  0.1537  3.9484
 5126SOL    HW226841   3.482   4.214   1.842  1.4394 -0.4558 -0.5967
 5127SOL     OW26842   2.724   2.923   4.860  0.1697  0.5210  0.5079
 5127SOL    HW126843   2.815   2.941   4.885 -0.0706  0.1754  1.6265
 5127SOL    HW226844   2.696   3.001   4.812 -0.6787 -1.0329 -1.5230
 5128SOL     OW26845   2.226   1.576   2.274 -0.0131 -0.4320 -0.4139
 5128SOL    HW126846   2.176   1.651   2.309 -0.3642  0.0844 -2.0310
 5128SOL    HW226847   2.193   1.567   2.185 -0.7752  0.5332 -0.2389
 5129SOL     OW26848   2.884   1.091  13.344  0.1628  0.5430  0.1250
 5129SOL    HW126849   2.793   1.063  13.356 -0.2203  1.4259 -0.7279
 5129SOL    HW226850   2.864   1.180  13.317 -0.1586 -0.0742 -1.6914
 5130SOL     OW26851   4.529   4.374  11.176 -0.0111  0.5907  0.2724
 5130SOL    HW126852   4.460   4.432  11.142 -3.3234 -3.4482  0.1956
 5130SOL    HW226853   4.565   4.346  11.092 -0.4054 -0.9941  0.6342
 5131SOL     OW26854   4.403   2.083   2.331  0.4330 -0.4410 -0.1722
 5131SOL    HW126855   4.351   2.081   2.412  0.8894 -1.5182  0.0876
 5131SOL    HW226856   4.486   2.111   2.370 -0.3135 -0.7402  1.6653
 5132SOL     OW26857   3.283   3.698  12.132  0.0025 -0.2028 -0.6451
 5132SOL    HW126858   3.275   3.748  12.051 -1.2273 -1.2350 -1.1547
 5132SOL    HW226859   3.368   3.732  12.158  0.8465 -1.0061 -2.3373
 5133SOL     OW26860   3.914   4.481  14.492  0.3231  0.3499 -0.0627
 5133SOL    HW126861   3.989   4.530  14.526 -0.9792  0.4741  2.6169
 5133SOL    HW226862   3.851   4.485  14.563 -0.9722 -1.8539 -1.0799
 5134SOL     OW26863   1.066   2.893  15.094 -0.0588 -0.3328 -0.4496
 5134SOL    HW126864   1.139   2.948  15.065 -1.2083  1.1664 -0.4828
 5134SOL    HW226865   1.114   2.811  15.085  0.0404 -0.3256  0.0106
 5135SOL     OW26866   4.329   0.561  12.106 -0.4504 -0.3341  0.2018
 5135SOL    HW126867   4.413   0.562  12.059 -0.0916 -2.6004  0.7810
 5135SOL    HW226868   4.296   0.638  12.060  0.1888 -1.0966 -1.5391
 5136SOL     OW26869   0.416   4.468  13.424  0.2292 -0.7742 -0.3231
 5136SOL    HW126870   0.339   4.411  13.417 -0.3659 -0.0241  0.0492
 5136SOL    HW226871   0.389   4.536  13.362  0.9626 -1.2473 -1.1680
 5137SOL     OW26872   4.088   0.375   6.077  0.6090  0.0724 -0.4769
 5137SOL    HW126873   4.095   0.317   6.001 -3.0437  2.4217 -2.6447
 5137SOL    HW226874   4.178   0.397   6.102 -0.6117  2.5558  1.6929
 5138SOL     OW26875   3.248   1.978  15.033 -0.0865  0.2297  0.8074
 5138SOL    HW126876   3.330   1.932  15.053  0.0946  0.2061  0.0430
 5138SOL    HW226877   3.212   1.972  15.121  0.0984  2.4183  1.0261
 5139SOL     OW26878   2.190   1.270  14.653 -0.3018  0.3607 -0.1204
 5139SOL    HW126879   2.169   1.355  14.615 -2.8774 -0.2321 -0.0061
 5139SOL    HW226880   2.275   1.256  14.611 -2.1091 -1.0486 -3.3403
 5140SOL     OW26881   0.303   0.293   4.764 -0.2471 -0.0850  0.3006
 5140SOL    HW126882   0.270   0.268   4.850  0.4819  2.3285  1.2898
 5140SOL    HW226883   0.275   0.223   4.705 -1.7029  0.5276  0.2621
 5141SOL     OW26884   0.488   3.640   8.427  0.0009 -0.0940 -0.7980
 5141SOL    HW126885   0.482   3.545   8.432 -0.3909 -0.0265  0.0187
 5141SOL    HW226886   0.430   3.658   8.352 -0.4746 -1.2360 -0.6949
 5142SOL     OW26887   2.044   0.845   3.261  0.2393  0.0668 -0.1694
 5142SOL    HW126888   2.107   0.809   3.323 -2.1208 -1.5089  1.3429
 5142SOL    HW226889   2.104   0.917   3.241 -0.4529  0.5786 -0.4090
 5143SOL     OW26890   3.840   3.353  16.426  0.3342 -0.1310  0.2839
 5143SOL    HW126891   3.884   3.301  16.492 -1.6269 -1.7670  0.3217
 5143SOL    HW226892   3.776   3.289  16.393  1.4463 -1.0206 -0.1427
 5144SOL     OW26893   1.255   4.282   7.210  0.2144 -0.2569  0.4516
 5144SOL    HW126894   1.303   4.346   7.264  2.2152 -1.4961  0.1427
 5144SOL    HW226895   1.283   4.196   7.241  0.0987  0.4775  2.6213
 5145SOL     OW26896   2.541   4.120  13.297  0.0402  0.3642 -0.4831
 5145SOL    HW126897   2.463   4.067  13.277  0.3453  0.1541 -1.1094
 5145SOL    HW226898   2.582   4.071  13.368 -1.4669 -1.3644 -0.7902
 5146SOL     OW26899   4.226   0.121  11.814 -0.1285 -0.4087  0.1896
 5146SOL    HW126900   4.257   0.072  11.738 -1.5716  0.2184 -0.8010
 5146SOL    HW226901   4.151   0.155  11.765  0.5287  1.7751  0.7384
 5147SOL     OW26902   3.605   2.865   8.619 -0.2553 -0.0256 -0.1688
 5147SOL    HW126903   3.683   2.814   8.599 -1.1858 -0.3471 -2.9128
 5147SOL    HW226904   3.559   2.810   8.556 -0.2190 -0.4980  0.2206
 5148SOL     OW26905   2.897   1.015   3.214  0.0649  0.0327 -0.4185
 5148SOL    HW126906   2.943   1.083   3.265 -0.3285  0.3039 -0.4271
 5148SOL    HW226907   2.858   1.059   3.139 -0.3235 -0.9592 -0.7941
 5149SOL     OW26908   1.946   4.389   3.866 -0.0712  0.2770 -0.5374
 5149SOL    HW126909   1.968   4.335   3.942  0.3737  0.8846 -0.2336
 5149SOL    HW226910   2.010   4.460   3.875  0.4711  0.0370 -2.5173
 5150SOL     OW26911   3.148   2.298   7.433 -0.2782  0.6412  0.6967
 5150SOL    HW126912   3.223   2.353   7.413  0.4427  0.1274  1.9757
 5150SOL    HW226913   3.152   2.238   7.359 -1.5137  1.2038  0.1700
 5151SOL     OW26914   2.920   1.277   6.996 -0.3582  0.4880  0.0664
 5151SOL    HW126915   2.975   1.285   7.074  3.3455 -0.1997 -2.4193
 5151SOL    HW226916   2.829   1.285   7.024 -0.6304 -3.0734  0.2697
 5152SOL     OW26917   2.740   1.550  13.137 -0.4024 -0.1342 -0.2431
 5152SOL    HW126918   2.660   1.595  13.108  0.8295  2.5223  0.4694
 5152SOL    HW226919   2.806   1.606  13.095 -1.2147  0.3932 -0.8394
 5153SOL     OW26920   4.180   0.936   0.623  0.0964  0.2364  0.4040
 5153SOL    HW126921   4.198   1.005   0.560 -2.2061  1.6996  1.3746
 5153SOL    HW226922   4.181   0.996   0.697  0.0067  0.8712 -0.1082
 5154SOL     OW26923   3.064   2.712   0.485 -0.0290 -0.1007 -0.0554
 5154SOL    HW126924   3.041   2.619   0.486  0.5581 -0.2468 -0.3989
 5154SOL    HW226925   3.053   2.725   0.580  0.5698  0.5018 -0.0654
 5155SOL     OW26926   1.820   0.097   6.490 -0.1750  0.0764  0.1177
 5155SOL    HW126927   1.740   0.116   6.540 -0.6080  0.5536 -0.7489
 5155SOL    HW226928   1.881   0.086   6.563 -0.1827 -0.4720  0.0410
 5156SOL     OW26929   1.511   3.982   8.186 -0.2962  0.1234 -0.6545
 5156SOL    HW126930   1.456   3.983   8.108  0.1512 -0.0112 -0.9750
 5156SOL    HW226931   1.552   4.068   8.184 -1.0521  0.5021  0.7196
 5157SOL     OW26932   3.681   0.592   2.687  0.8073 -0.1527 -0.1971
 5157SOL    HW126933   3.643   0.529   2.747  0.9923 -0.8172 -0.7807
 5157SOL    HW226934   3.611   0.658   2.691 -0.1515 -1.2200  0.5549
 5158SOL     OW26935   2.014   0.994   8.317 -0.6269  0.4057  0.2150
 5158SOL    HW126936   2.011   0.975   8.411 -0.5393  1.5889  0.4583
 5158SOL    HW226937   2.046   0.911   8.281  0.8251  0.0557  2.2551
 5159SOL     OW26938   1.156   4.489  10.385  0.6476  0.0711 -0.2147
 5159SOL    HW126939   1.103   4.414  10.359 -0.3403  0.0243  1.9675
 5159SOL    HW226940   1.201   4.444  10.457 -0.8085 -1.7943 -0.4676
 5160SOL     OW26941   0.100   4.431  16.542  0.2643  1.0911  0.2676
 5160SOL    HW126942   0.095   4.372  16.617 -1.2944  2.3439  1.1477
 5160SOL    HW226943   0.048   4.386  16.476 -0.9569  0.0478  1.9717
 5161SOL     OW26944   2.069   2.100   9.354 -0.3341  0.7544  0.0900
 5161SOL    HW126945   2.072   2.020   9.301  2.1167  0.4843  0.6129
 5161SOL    HW226946   2.157   2.092   9.391 -1.5781 -0.0018  2.9339
 5162SOL     OW26947   2.713   2.250   4.322 -0.3022 -0.4096  0.1934
 5162SOL    HW126948   2.787   2.308   4.342  0.2588 -1.0228 -0.1089
 5162SOL    HW226949   2.756   2.172   4.285 -0.0122  0.0581 -0.4525
 5163SOL     OW26950   0.428   2.043   3.738 -0.0332  0.1482 -0.2351
 5163SOL    HW126951   0.359   2.105   3.760  2.2442  2.0396  1.6537
 5163SOL    HW226952   0.435   2.054   3.644  1.7265  1.6696  0.0842
 5164SOL     OW26953   0.515   0.142  11.388  0.0076  0.2700 -0.0911
 5164SOL    HW126954   0.451   0.209  11.366  0.3088  0.2140 -1.1597
 5164SOL    HW226955   0.500   0.126  11.481  1.9336  0.7274  0.2957
 5165SOL     OW26956   0.626   2.300  12.001  0.2323  0.0502  0.5482
 5165SOL    HW126957   0.696   2.365  12.014  0.8217 -0.7821  1.5252
 5165SOL    HW226958   0.559   2.348  11.953 -0.3183 -0.2010  1.0790
 5166SOL     OW26959   2.659   4.357  13.994  0.2023  1.0058 -0.1383
 5166SOL    HW126960   2.636   4.310  13.914 -0.2808 -0.2248  0.7215
 5166SOL    HW226961   2.718   4.293  14.033 -0.3123  0.7578  0.2302
 5167SOL     OW26962   0.604   2.333  10.599 -0.1147  0.8108  1.0614
 5167SOL    HW126963   0.630   2.375  10.517 -1.8820 -1.7036 -0.7664
 5167SOL    HW226964   0.509   2.330  10.589 -0.1876 -0.6043  2.1808
 5168SOL     OW26965   4.619   1.460  12.123  0.2590 -0.3572  0.3699
 5168SOL    HW126966   4.696   1.422  12.165  1.4593 -0.7191 -2.1332
 5168SOL    HW226967   4.631   1.555  12.130 -2.0056  0.0198 -0.9531
 5169SOL     OW26968   3.539   4.571   6.676 -0.1735 -0.6168 -0.2001
 5169SOL    HW126969   3.627   4.607   6.680 -1.2918  2.1290 -0.4981
 5169SOL    HW226970   3.514   4.547   6.765 -1.4613  1.6526  0.0507
 5170SOL     OW26971   1.714   4.006  13.135 -0.8280  0.3308  0.1244
 5170SOL    HW126972   1.661   4.083  13.158  0.3971  0.6867  1.7571
 5170SOL    HW226973   1.705   4.023  13.042 -2.3292 -0.4703  0.1244
 5171SOL     OW26974   2.869   2.131   8.922 -0.2054 -0.9288 -0.0632
 5171SOL    HW126975   2.789   2.078   8.919 -1.7717  1.4858 -0.3403
 5171SOL    HW226976   2.932   2.082   8.869  1.7162  0.8488  0.5789
 5172SOL     OW26977   1.319   1.280   3.684  0.3119  0.4727 -0.0354
 5172SOL    HW126978   1.240   1.263   3.632  0.6670  0.2639 -0.5049
 5172SOL    HW226979   1.307   1.372   3.707  0.5756  0.6142 -0.4743
 5173SOL     OW26980   1.859   2.784   2.986 -0.4748  0.6888 -0.5237
 5173SOL    HW126981   1.768   2.812   2.976 -1.1091 -1.0136  0.5405
 5173SOL    HW226982   1.901   2.852   2.933  2.7040  0.2070  1.3463
 5174SOL     OW26983   1.702   1.267   1.711 -0.0408  0.1017  0.3158
 5174SOL    HW126984   1.782   1.263   1.660 -0.5865 -1.0069 -0.4640
 5174SOL    HW226985   1.647   1.212   1.655 -0.5727 -0.7452  1.6524
 5175SOL     OW26986   1.638   4.125   6.359  0.1306 -0.4694  0.1220
 5175SOL    HW126987   1.693   4.196   6.394  0.2899  0.1994 -1.4911
 5175SOL    HW226988   1.633   4.147   6.266  1.1698 -1.8514 -0.2521
 5176SOL     OW26989   3.728   3.429  11.159  0.8453 -0.0782 -0.1221
 5176SOL    HW126990   3.639   3.431  11.125  0.7359 -3.4284 -0.0689
 5176SOL    HW226991   3.764   3.367  11.094 -0.1040 -0.5984 -0.1493
 5177SOL     OW26992   2.162   4.078   8.439 -0.1499 -0.8444 -0.0506
 5177SOL    HW126993   2.214   4.037   8.369  1.3714  0.3480  0.3692
 5177SOL    HW226994   2.153   4.167   8.405 -0.9676 -0.8071  0.2754
 5178SOL     OW26995   2.989   3.193   2.179  0.2477 -0.7449 -0.7231
 5178SOL    HW126996   3.033   3.213   2.262  2.0385 -0.7086 -1.6783
 5178SOL    HW226997   3.062   3.167   2.122  0.2985  2.5817 -2.1930
 5179SOL     OW26998   0.634   3.847   4.563 -0.0238  0.2323  0.2992
 5179SOL    HW126999   0.543   3.825   4.583 -0.2924 -0.8008 -2.1014
 5179SOL    HW227000   0.632   3.913   4.493  2.1514  0.9015  0.8955
 5180SOL     OW27001   2.261   0.956   4.125 -0.0268  0.1021  0.1501
 5180SOL    HW127002   2.180   0.925   4.165 -0.3540  0.7254 -0.0235
 5180SOL    HW227003   2.261   0.900   4.047  0.2134  1.0382 -0.5294
 5181SOL     OW27004   1.572   2.511  11.182 -0.3045 -0.6237  0.6627
 5181SOL    HW127005   1.569   2.507  11.086 -1.0457  1.7599  0.5909
 5181SOL    HW227006   1.502   2.571  11.203  0.0317  0.5872 -1.7011
 5182SOL     OW27007   1.466   0.756  10.629  0.3501  0.0534 -0.9078
 5182SOL    HW127008   1.412   0.757  10.550  0.2160 -2.8171 -0.8503
 5182SOL    HW227009   1.410   0.786  10.701 -1.0405 -1.8828 -1.1842
 5183SOL     OW27010   2.056   3.149  11.763  0.5371 -0.4031 -0.1215
 5183SOL    HW127011   2.035   3.136  11.856  0.7342 -2.1397 -0.3283
 5183SOL    HW227012   2.132   3.092  11.773 -0.0547 -1.0244  0.7914
 5184SOL     OW27013   2.975   1.626   3.662 -0.8150 -0.2968  0.2576
 5184SOL    HW127014   2.945   1.580   3.583  1.2419  1.1993 -1.4188
 5184SOL    HW227015   3.018   1.551   3.703  1.7484  0.2770 -1.3283
 5185SOL     OW27016   3.412   0.094  15.547  0.4843 -0.2603 -0.8316
 5185SOL    HW127017   3.483   0.050  15.594 -1.7301 -0.0087  2.8082
 5185SOL    HW227018   3.461   0.161  15.500  0.7512 -0.3395 -0.6681
 5186SOL     OW27019   3.426   1.781   5.850 -0.2714 -0.0575 -0.3604
 5186SOL    HW127020   3.392   1.757   5.764 -0.9608  1.7786 -0.6074
 5186SOL    HW227021   3.439   1.698   5.896 -2.0017 -0.2698 -0.2303
 5187SOL     OW27022   0.574   1.099   7.781  0.3599  0.0114 -0.2532
 5187SOL    HW127023   0.490   1.111   7.737  0.0664  2.0460  0.8470
 5187SOL    HW227024   0.578   1.004   7.782 -2.5411 -0.1052 -1.3563
 5188SOL     OW27025   1.015   0.265  11.909 -0.2001  0.2384 -0.6329
 5188SOL    HW127026   1.000   0.222  11.825  0.9340  0.4821 -0.9629
 5188SOL    HW227027   0.933   0.312  11.924 -0.6451 -0.6653 -0.2255
 5189SOL     OW27028   1.886   2.429   2.153  0.3965 -0.3794 -0.2742
 5189SOL    HW127029   1.886   2.359   2.218 -2.5187  0.4845  0.6510
 5189SOL    HW227030   1.968   2.413   2.106  0.8284  4.1406 -1.1249
 5190SOL     OW27031   1.257   4.719   6.358 -0.2359 -0.7531  0.2018
 5190SOL    HW127032   1.252   0.020   6.450 -0.5201 -0.6551  0.1577
 5190SOL    HW227033   1.264   4.624   6.367 -2.2529 -0.8043  1.1166
 5191SOL     OW27034   3.041   4.566   3.104  0.6880 -0.4462 -0.0665
 5191SOL    HW127035   3.079   4.508   3.038 -0.3764 -0.8672 -0.3181
 5191SOL    HW227036   2.970   4.604   3.054 -0.0596  0.0763  1.3764
 5192SOL     OW27037   0.268   3.255   7.974  0.4156 -0.1344  0.2225
 5192SOL    HW127038   0.211   3.238   8.049  2.0528 -1.4250  1.1809
 5192SOL    HW227039   0.353   3.229   8.012  1.9331  3.5826 -0.6461
 5193SOL     OW27040   0.472   0.799  14.491 -0.4122  0.8499 -0.0570
 5193SOL    HW127041   0.388   0.772  14.454 -0.2184 -1.0144  0.8722
 5193SOL    HW227042   0.458   0.891  14.512  2.1179  1.2602 -0.2551
 5194SOL     OW27043   0.715   3.096   7.915  0.5998  0.2402 -0.0324
 5194SOL    HW127044   0.709   3.189   7.893  0.1536  0.3031  0.3506
 5194SOL    HW227045   0.790   3.091   7.974  0.2059 -0.7774  0.3747
 5195SOL     OW27046   2.128   1.707   7.379 -0.3020 -0.3337  0.2356
 5195SOL    HW127047   2.099   1.793   7.408 -0.7233 -0.7558  1.0507
 5195SOL    HW227048   2.216   1.703   7.416 -0.2202  0.0906  0.0843
 5196SOL     OW27049   3.925   4.550   5.228  0.4739  0.6413  0.2651
 5196SOL    HW127050   3.981   4.624   5.208  0.5932  0.8872  1.5517
 5196SOL    HW227051   3.977   4.476   5.197  1.2912  0.4886  1.9958
 5197SOL     OW27052   4.263   2.093   9.130 -0.3386 -0.0975 -0.0767
 5197SOL    HW127053   4.294   2.136   9.209  1.7777 -0.0370 -0.9220
 5197SOL    HW227054   4.204   2.027   9.165 -0.0964 -0.2977 -0.0409
 5198SOL     OW27055   1.795   1.888   7.199  0.5969  0.2405 -0.7949
 5198SOL    HW127056   1.773   1.828   7.271 -2.5470 -1.1612 -2.9154
 5198SOL    HW227057   1.864   1.842   7.151 -0.3830 -0.2352 -1.7385
 5199SOL     OW27058   1.660   3.173   6.990 -0.0527  0.1349  0.0031
 5199SOL    HW127059   1.614   3.096   7.024  0.5787  0.1128  0.8140
 5199SOL    HW227060   1.724   3.186   7.060 -0.3709 -0.1011  0.3411
 5200SOL     OW27061   3.675   0.071   9.834 -0.1631  0.0207 -0.0716
 5200SOL    HW127062   3.647   0.132   9.766 -0.1570 -0.1485 -0.2238
 5200SOL    HW227063   3.614   0.105   9.900 -0.1061 -1.6775  0.8613
 5201SOL     OW27064   2.343   3.288   7.117  0.7273  0.3100  0.0807
 5201SOL    HW127065   2.426   3.241   7.130  0.4245  0.6822  3.4486
 5201SOL    HW227066   2.314   3.302   7.207  0.5342 -1.0010  0.2160
 5202SOL     OW27067   3.407   1.566   5.119  0.3936 -0.0243 -0.1955
 5202SOL    HW127068   3.437   1.633   5.058 -0.0366 -0.2350 -0.6358
 5202SOL    HW227069   3.312   1.571   5.131  0.1238 -1.8298 -1.5575
 5203SOL     OW27070   2.572   0.385   4.065  0.3559 -0.2520  0.4358
 5203SOL    HW127071   2.567   0.307   4.120  1.6322 -0.0734  0.7940
 5203SOL    HW227072   2.560   0.345   3.978 -0.5533  0.2100  0.3455
 5204SOL     OW27073   0.310   3.900   3.085  0.2611  0.0470 -0.4201
 5204SOL    HW127074   0.308   3.994   3.103 -0.5420 -0.0553  0.0376
 5204SOL    HW227075   0.220   3.881   3.057  0.3294 -0.5019 -0.2556
 5205SOL     OW27076   3.106   4.715   6.933 -0.6457 -0.2327 -0.1057
 5205SOL    HW127077   3.195   0.022   6.948 -0.5350 -0.9369  0.7168
 5205SOL    HW227078   3.094   4.666   7.015 -1.6548 -1.1513 -0.8035
 5206SOL     OW27079   1.446   0.999   4.265  0.2418  0.1805 -0.0355
 5206SOL    HW127080   1.377   1.011   4.199 -0.5038  0.2528  0.7627
 5206SOL    HW227081   1.520   1.013   4.206  4.0601 -0.1512  4.7056
 5207SOL     OW27082   2.721   0.099   3.673  0.6776  0.4537  0.3833
 5207SOL    HW127083   2.796   0.053   3.711 -0.4160 -1.2364  0.4836
 5207SOL    HW227084   2.650   0.036   3.685  1.4759 -0.5540 -0.1438
 5208SOL     OW27085   0.397   0.768  16.793  0.2848 -0.2357 -0.1009
 5208SOL    HW127086   0.427   0.845  16.841 -1.0272 -0.5784  1.2418
 5208SOL    HW227087   0.328   0.736  16.851  2.6907  0.5353  3.1788
 5209SOL     OW27088   4.146   2.558   2.422  0.1277 -0.4463 -0.8570
 5209SOL    HW127089   4.203   2.610   2.366  1.1709 -1.5385 -0.8230
 5209SOL    HW227090   4.203   2.493   2.462 -1.7052 -1.6383 -0.1423
 5210SOL     OW27091   3.967   3.878  10.613  0.0489  0.0379 -0.0902
 5210SOL    HW127092   4.045   3.866  10.559 -0.2416 -2.1209 -0.0046
 5210SOL    HW227093   3.975   3.808  10.677  3.0350  0.5558  0.1110
 5211SOL     OW27094   2.386   2.658   2.547  0.0336 -0.7497 -0.6138
 5211SOL    HW127095   2.359   2.580   2.500 -0.7380 -0.6640 -0.3236
 5211SOL    HW227096   2.424   2.621   2.627 -0.1235  0.6243  0.1036
 5212SOL     OW27097   4.219   0.566   6.559 -0.1028  0.3986  0.3945
 5212SOL    HW127098   4.200   0.623   6.485  1.3345 -2.1175 -1.9433
 5212SOL    HW227099   4.306   0.538   6.531 -0.4759 -0.7855  0.4305
 5213SOL     OW27100   1.021   4.711   6.188  0.0475  0.2854 -0.7948
 5213SOL    HW127101   1.093   4.711   6.250 -0.2711  0.4906 -0.4251
 5213SOL    HW227102   1.012   4.617   6.172 -1.7976  0.0085  1.9094
 5214SOL     OW27103   0.256   0.392  10.498  0.2264 -0.4802  0.7681
 5214SOL    HW127104   0.165   0.388  10.526 -0.1948  0.0450 -0.5862
 5214SOL    HW227105   0.266   0.486  10.483  0.1935 -1.0245 -2.6523
 5215SOL     OW27106   3.144   2.978   1.976  0.0864  0.2830  0.3535
 5215SOL    HW127107   3.073   2.948   2.033 -0.5255 -0.8733 -1.0129
 5215SOL    HW227108   3.125   2.960   1.884  1.1051  1.0091 -0.0038
 5216SOL     OW27109   0.748   0.491   7.945 -0.0058 -0.4507  0.7164
 5216SOL    HW127110   0.832   0.532   7.924  0.2670 -0.3905  1.9567
 5216SOL    HW227111   0.730   0.474   7.852 -1.3440  2.1770  0.5119
 5217SOL     OW27112   2.516   0.030  11.103 -0.0602  0.0665 -0.1186
 5217SOL    HW127113   2.541   4.662  11.104 -2.6046 -0.6300  1.5121
 5217SOL    HW227114   2.591   0.073  11.063  1.1448 -1.0313  0.9929
 5218SOL     OW27115   4.260   3.006   4.061 -0.0022 -0.4258  0.0103
 5218SOL    HW127116   4.351   3.036   4.058  0.1366 -0.8486  0.0512
 5218SOL    HW227117   4.239   2.994   3.968 -3.2763 -1.0058  0.8319
 5219SOL     OW27118   1.515   1.403   6.347 -0.0667  0.1013 -0.5459
 5219SOL    HW127119   1.606   1.383   6.326 -0.8705 -3.1038 -0.9216
 5219SOL    HW227120   1.522   1.499   6.353  2.2365 -0.2321  1.7679
 5220SOL     OW27121   1.820   1.754   7.856  0.4049  0.2891 -0.0624
 5220SOL    HW127122   1.776   1.682   7.902  1.7808 -0.6825 -0.2551
 5220SOL    HW227123   1.767   1.826   7.889 -0.9474 -1.1831  1.0152
 5221SOL     OW27124   1.065   3.272  17.391 -0.2071  0.4457 -0.5286
 5221SOL    HW127125   1.014   3.295  17.314 -1.1362  0.3277  0.0429
 5221SOL    HW227126   0.991   3.247  17.446  0.9667  1.1238  1.3549
 5222SOL     OW27127   0.046   2.490   8.812  0.8317  0.0942 -0.3843
 5222SOL    HW127128   0.076   2.499   8.903  0.0977  1.2322 -0.2504
 5222SOL    HW227129   4.706   2.421   8.828  2.0531 -0.7340  0.9147
 5223SOL     OW27130   1.612   4.027   5.814 -0.6452  0.0365  0.3715
 5223SOL    HW127131   1.648   3.941   5.793  2.0764  0.9388  1.4231
 5223SOL    HW227132   1.566   4.048   5.733 -0.6450  0.8658  0.5859
 5224SOL     OW27133   2.001   2.289   9.633  0.5042 -0.2026 -0.1724
 5224SOL    HW127134   2.003   2.205   9.679  1.3016  0.2243  0.5638
 5224SOL    HW227135   1.991   2.255   9.544 -0.3632  1.2929 -0.6383
 5225SOL     OW27136   1.041   3.991   8.555  0.1601 -0.4281  0.5699
 5225SOL    HW127137   1.120   3.985   8.608  1.5393 -1.3805 -1.6030
 5225SOL    HW227138   0.968   3.991   8.617  0.2438  1.2103  0.6653
 5226SOL     OW27139   0.867   0.673  17.259 -0.2656 -0.1187  0.3933
 5226SOL    HW127140   0.913   0.745  17.215  0.9548 -1.7469 -1.0009
 5226SOL    HW227141   0.926   0.598  17.258 -2.2765 -1.6526 -2.1001
 5227SOL     OW27142   1.140   2.479   0.782 -0.0093  0.3896  0.5605
 5227SOL    HW127143   1.223   2.510   0.817 -0.1705 -0.0275  1.3032
 5227SOL    HW227144   1.096   2.485   0.867 -1.8395 -2.5366 -0.1859
 5228SOL     OW27145   0.776   1.014   0.882  0.0580  0.0438  0.1830
 5228SOL    HW127146   0.742   0.982   0.966  0.4678  0.2512  0.4250
 5228SOL    HW227147   0.714   0.974   0.821 -1.2042  3.8200 -1.0429
 5229SOL     OW27148   0.939   0.563   9.263  0.0334 -0.3588  0.2114
 5229SOL    HW127149   0.993   0.641   9.273 -0.0147 -0.4790  1.3429
 5229SOL    HW227150   0.854   0.604   9.248  0.6450  0.9054  0.2158
 5230SOL     OW27151   1.071   4.392   7.046 -0.5055  0.4271 -0.4639
 5230SOL    HW127152   1.119   4.474   7.052 -1.0384  0.6584  0.4287
 5230SOL    HW227153   1.126   4.328   7.091  0.9068  1.2044 -1.0638
 5231SOL     OW27154   0.655   0.615   1.261  0.4002  0.2242 -0.6893
 5231SOL    HW127155   0.737   0.638   1.217  0.0791  0.2015 -1.3072
 5231SOL    HW227156   0.645   0.533   1.214 -0.5254  0.8191 -1.5389
 5232SOL     OW27157   4.293   2.509   1.850  0.6686 -0.5026 -0.4495
 5232SOL    HW127158   4.238   2.585   1.831  1.4504  0.6459  1.8465
 5232SOL    HW227159   4.368   2.535   1.796  0.7098 -0.9172 -0.5933
 5233SOL     OW27160   3.192   1.806   2.411  0.5078 -0.3954  0.1639
 5233SOL    HW127161   3.100   1.783   2.399  0.9105 -2.2600  0.6055
 5233SOL    HW227162   3.220   1.722   2.446 -0.7352 -1.3268 -1.0999
 5234SOL     OW27163   4.573   1.972   5.423  0.4006 -0.0525  0.0145
 5234SOL    HW127164   4.587   1.995   5.515 -1.3381  0.9949  0.0305
 5234SOL    HW227165   4.645   1.914   5.402 -0.6212 -0.8206 -1.3639
 5235SOL     OW27166   4.375   2.925   5.010 -0.8262 -0.4214  0.3135
 5235SOL    HW127167   4.370   2.942   5.104  0.6561  0.3482  0.2506
 5235SOL    HW227168   4.371   3.013   4.973  0.7041  0.2391  1.7198
 5236SOL     OW27169   2.376   4.040   3.124  0.2117  0.2727  0.4189
 5236SOL    HW127170   2.386   4.134   3.137  2.8830 -0.0697  0.6857
 5236SOL    HW227171   2.336   4.033   3.037 -2.9081 -0.7133  1.9305
 5237SOL     OW27172   3.841   1.374   0.434  0.7748  0.6941 -0.3565
 5237SOL    HW127173   3.829   1.291   0.482 -1.0348 -0.4436 -2.8403
 5237SOL    HW227174   3.807   1.430   0.504  0.0201  1.0211 -1.0009
 5238SOL     OW27175   2.035   3.978  11.857 -0.4199  0.4449  0.3582
 5238SOL    HW127176   1.974   3.904  11.863 -0.5535  0.5624  0.4573
 5238SOL    HW227177   2.077   3.967  11.772  0.1400 -2.4318  1.0077
 5239SOL     OW27178   4.120   2.182   8.352 -0.3340 -0.4406  0.8291
 5239SOL    HW127179   4.118   2.271   8.387 -2.3286 -0.9382  1.9828
 5239SOL    HW227180   4.156   2.202   8.265 -2.3602 -0.2893  0.0243
 5240SOL     OW27181   3.720   3.764   8.130  0.0271  0.5784 -0.2553
 5240SOL    HW127182   3.666   3.704   8.182 -0.7449  0.8576 -0.7410
 5240SOL    HW227183   3.729   3.832   8.196  0.4803  1.2321 -0.9918
 5241SOL     OW27184   3.307   1.801  13.284  0.1167  0.2611  0.2388
 5241SOL    HW127185   3.262   1.716  13.290 -0.2589  0.5593  1.5864
 5241SOL    HW227186   3.323   1.837  13.372 -2.2980 -0.8584  1.1456
 5242SOL     OW27187   4.073   0.017   6.301  0.1186 -0.3806  1.0675
 5242SOL    HW127188   3.990   4.698   6.323 -0.2144  0.1504  0.8710
 5242SOL    HW227189   4.135   4.708   6.366 -1.8540 -3.9698  1.1582
 5243SOL     OW27190   0.788   4.041   3.542 -0.2966  0.1763  0.1783
 5243SOL    HW127191   0.826   3.994   3.616 -0.8860 -0.4269  0.0981
 5243SOL    HW227192   0.774   4.130   3.573  0.4697 -0.1735  1.5646
 5244SOL     OW27193   0.442   4.249   7.287 -0.5785  0.2100 -0.3126
 5244SOL    HW127194   0.350   4.238   7.263 -1.0933  2.1022  0.8087
 5244SOL    HW227195   0.489   4.196   7.222 -1.0183 -0.3118 -0.2036
 5245SOL     OW27196   3.058   2.226  14.007 -0.4825  0.2874 -0.6276
 5245SOL    HW127197   3.092   2.139  14.028  1.3285  1.0116 -0.5672
 5245SOL    HW227198   2.964   2.212  13.995 -0.7706  0.2272  1.7773
 5246SOL     OW27199   0.035   2.847   6.363 -0.8233 -0.4684  0.1295
 5246SOL    HW127200   0.041   2.893   6.447 -0.5695  0.1492 -0.2318
 5246SOL    HW227201   0.011   2.926   6.314 -1.6290  0.4764  2.0467
 5247SOL     OW27202   2.955   1.828  12.188 -0.3909  0.3201  0.5636
 5247SOL    HW127203   2.942   1.903  12.245  3.9112  2.0798 -0.7481
 5247SOL    HW227204   2.879   1.769  12.191  2.0706 -2.7588  2.3486
 5248SOL     OW27205   0.025   0.158   5.826 -0.0004  0.2514 -0.1503
 5248SOL    HW127206   4.661   0.179   5.858 -1.2581 -1.3228 -2.5879
 5248SOL    HW227207   0.047   0.071   5.858 -1.1672 -0.1609 -0.4685
 5249SOL     OW27208   1.862   3.344   7.739 -0.2529  0.2796 -0.3739
 5249SOL    HW127209   1.768   3.356   7.750 -0.7692 -1.5672 -2.8411
 5249SOL    HW227210   1.874   3.313   7.829 -2.2559  2.7251  0.7404
 5250SOL     OW27211   3.750   4.230   4.581  0.1125 -0.0858 -0.1902
 5250SOL    HW127212   3.787   4.179   4.509 -1.1860  1.7823 -2.1687
 5250SOL    HW227213   3.712   4.157   4.630  0.5076  0.1056  0.4017
 5251SOL     OW27214   1.363   2.644   5.383 -0.3321 -0.0079 -0.3232
 5251SOL    HW127215   1.339   2.736   5.380  1.5127  0.4422 -1.1877
 5251SOL    HW227216   1.459   2.641   5.378 -0.2788  1.8155 -0.2055
 5252SOL     OW27217   2.821   1.109  16.197  0.1962 -0.8008 -0.7281
 5252SOL    HW127218   2.733   1.122  16.233  0.7293  0.8468 -0.0449
 5252SOL    HW227219   2.847   1.036  16.254 -0.2392  0.5548  1.2206
 5253SOL     OW27220   0.865   1.205   6.383 -0.6958 -0.5917  0.5810
 5253SOL    HW127221   0.844   1.179   6.472  0.7309  1.4100  1.5080
 5253SOL    HW227222   0.777   1.195   6.345 -1.0653 -0.4869  1.4114
 5254SOL     OW27223   0.265   1.324  10.394 -0.4518 -0.1514  0.2793
 5254SOL    HW127224   0.191   1.319  10.455 -0.2152 -0.6762  0.5282
 5254SOL    HW227225   0.309   1.405  10.420 -0.3704 -0.4942  1.2107
 5255SOL     OW27226   1.751   1.286   6.849 -0.0483 -0.7105 -0.4297
 5255SOL    HW127227   1.757   1.239   6.765 -0.1087 -1.1186 -0.2051
 5255SOL    HW227228   1.821   1.239   6.893 -0.5962 -0.0646  1.1148
 5256SOL     OW27229   2.978   1.282   6.740 -0.0358  0.2643  0.2651
 5256SOL    HW127230   3.069   1.304   6.722  0.4462 -1.8378  0.1294
 5256SOL    HW227231   2.973   1.260   6.833 -0.5349  0.1458  0.2152
 5257SOL     OW27232   2.643   1.476   6.865 -0.1163  0.2903  0.0600
 5257SOL    HW127233   2.718   1.434   6.907 -0.5404 -1.0029 -0.4860
 5257SOL    HW227234   2.585   1.400   6.870 -2.0620  1.6863 -1.6024
 5258SOL     OW27235   3.729   0.811   0.337  0.0063 -0.1941 -0.2373
 5258SOL    HW127236   3.801   0.806   0.399 -0.4668 -1.1782  0.2217
 5258SOL    HW227237   3.717   0.718   0.316  1.4720 -0.3497 -0.3927
 5259SOL     OW27238   1.322   4.423  16.522  0.4734  0.1916 -0.0192
 5259SOL    HW127239   1.394   4.387  16.575  0.9910  0.0342 -0.8321
 5259SOL    HW227240   1.365   4.415  16.437 -0.0801  1.4271 -0.4083
 5260SOL     OW27241   0.882   0.087   5.771  0.4405 -0.5156  0.4685
 5260SOL    HW127242   0.965   0.126   5.745  0.7511 -1.1174  0.5642
 5260SOL    HW227243   0.836   0.110   5.690 -0.3622  0.4677  1.1863
 5261SOL     OW27244   0.046   1.204   3.449 -0.5880 -0.1721 -0.7175
 5261SOL    HW127245   0.011   1.217   3.361 -1.2499 -3.8856 -1.0098
 5261SOL    HW227246   0.001   1.126   3.481  2.4505 -1.4278  0.4088
 5262SOL     OW27247   0.026   0.200  10.204 -0.4680  0.0492  0.5486
 5262SOL    HW127248   0.053   0.117  10.244 -0.8286 -0.1769  0.3214
 5262SOL    HW227249   4.667   0.218  10.249  0.7735  0.8774  2.5333
 5263SOL     OW27250   1.189   1.646   7.518 -0.3727  0.0579 -0.7964
 5263SOL    HW127251   1.127   1.699   7.568  1.3953  2.4265 -1.1138
 5263SOL    HW227252   1.160   1.682   7.434  0.3012  0.5107 -0.8359
 5264SOL     OW27253   0.799   2.176   2.873  0.4275  0.3760  0.4933
 5264SOL    HW127254   0.849   2.149   2.950 -0.1380 -2.0603 -0.0011
 5264SOL    HW227255   0.796   2.092   2.828  0.2172  0.0667  1.0859
 5265SOL     OW27256   1.647   1.292   7.505 -0.9411 -0.2468  0.5491
 5265SOL    HW127257   1.637   1.337   7.421  0.1339 -0.2086  0.4499
 5265SOL    HW227258   1.615   1.205   7.481 -1.9590  0.4637 -0.6720
 5266SOL     OW27259   0.331   0.458   0.584  0.2295 -0.3636  0.0570
 5266SOL    HW127260   0.236   0.447   0.593  0.1883  0.8600  1.1116
 5266SOL    HW227261   0.352   0.398   0.513 -0.3617 -0.0348 -0.3970
 5267SOL     OW27262   1.007   2.556   9.472 -0.0197 -0.0861 -0.1286
 5267SOL    HW127263   0.976   2.604   9.548 -1.7642  0.0338 -0.9052
 5267SOL    HW227264   1.083   2.506   9.502  0.6650  0.6913 -0.5661
 5268SOL     OW27265   3.048   1.678  16.031  0.2713  0.2101  0.8711
 5268SOL    HW127266   2.953   1.676  16.023  0.3721  0.0113 -0.1772
 5268SOL    HW227267   3.059   1.759  16.081  4.1652  0.3255 -0.1803
 5269SOL     OW27268   3.762   0.597   6.237 -0.4819  0.0085  0.2077
 5269SOL    HW127269   3.699   0.656   6.197 -0.6866 -0.9807 -0.9490
 5269SOL    HW227270   3.741   0.601   6.330  0.6008  1.5777  0.3775
 5270SOL     OW27271   2.079   0.760  17.506 -0.3231 -0.1897  0.0810
 5270SOL    HW127272   2.148   0.694  17.518  0.5158  0.3902 -1.6039
 5270SOL    HW227273   2.129   0.841  17.496 -1.4213  0.6240  1.2605
 5271SOL     OW27274   2.919   0.327   3.043  0.0759 -0.3523  0.1233
 5271SOL    HW127275   3.002   0.332   3.090  0.3695  0.3534 -0.4662
 5271SOL    HW227276   2.873   0.407   3.069 -1.1848 -0.7336 -0.9380
 5272SOL     OW27277   0.636   4.543   5.483 -0.8152  0.0439  0.1711
 5272SOL    HW127278   0.590   4.540   5.566 -2.5265 -0.3663 -0.7877
 5272SOL    HW227279   0.568   4.584   5.429  1.1868 -2.5319 -4.3607
 5273SOL     OW27280   0.117   3.083   5.139 -0.1836  0.1519 -0.0956
 5273SOL    HW127281   0.043   3.107   5.084 -1.0284 -0.5599  0.7184
 5273SOL    HW227282   0.163   3.167   5.134  1.0845 -0.6453 -1.9763
 5274SOL     OW27283   0.604   1.545  14.772  0.2454 -0.1409 -0.5308
 5274SOL    HW127284   0.644   1.460  14.752  2.2711  0.9020 -0.8907
 5274SOL    HW227285   0.619   1.587  14.687  0.6466  0.2133 -0.2885
 5275SOL     OW27286   3.885   0.519  12.204  1.1308 -0.0932  0.7025
 5275SOL    HW127287   3.934   0.601  12.205 -0.6621  0.9681  1.9864
 5275SOL    HW227288   3.948   0.452  12.177  0.3456  0.1342 -1.6345
 5276SOL     OW27289   3.726   3.874   6.925  0.2031  0.3500 -0.2363
 5276SOL    HW127290   3.735   3.786   6.886 -1.6209 -0.9017  2.1716
 5276SOL    HW227291   3.633   3.887   6.905 -0.7648 -2.2299  2.6327
 5277SOL     OW27292   1.822   2.610   4.653 -0.3713  0.0937  0.0765
 5277SOL    HW127293   1.779   2.629   4.570  3.0444 -0.5639 -1.8592
 5277SOL    HW227294   1.788   2.525   4.680  0.7277 -0.4001 -0.0856
 5278SOL     OW27295   2.659   2.478   7.487  0.0496 -0.4684 -0.0696
 5278SOL    HW127296   2.580   2.431   7.465 -0.7915  0.6732  0.4963
 5278SOL    HW227297   2.688   2.504   7.400 -0.0495 -0.0377  0.0230
 5279SOL     OW27298   0.030   3.519   4.903 -0.5529 -0.3715 -0.3039
 5279SOL    HW127299   0.019   3.537   4.997  0.9976  3.4389 -0.8218
 5279SOL    HW227300   4.683   3.568   4.861  0.5182  0.4021 -1.2242
 5280SOL     OW27301   0.135   0.315   6.062  0.3129  0.2878 -0.5715
 5280SOL    HW127302   0.217   0.309   6.110 -1.2015 -2.4942  1.6555
 5280SOL    HW227303   0.080   0.247   6.101 -1.4074  3.1386  1.9734
 5281SOL     OW27304   2.754   1.313   8.776 -0.7195 -0.2046 -0.1430
 5281SOL    HW127305   2.675   1.260   8.783 -1.7178  1.5887  2.5465
 5281SOL    HW227306   2.821   1.247   8.791 -0.2345 -0.0095 -1.5058
 5282SOL     OW27307   4.241   1.288  12.740  0.4461 -0.5348  0.4002
 5282SOL    HW127308   4.190   1.369  12.739  1.4600  0.1120  1.0561
 5282SOL    HW227309   4.301   1.311  12.669 -0.4899  0.7795  0.0273
 5283SOL     OW27310   2.928   1.464   3.417  0.2975 -0.6176 -0.4836
 5283SOL    HW127311   2.957   1.372   3.416 -1.5723 -1.1567 -4.7272
 5283SOL    HW227312   2.897   1.476   3.328  1.7092  2.0871 -0.6174
 5284SOL     OW27313   0.479   3.123   8.072  0.7363 -0.5544  0.1678
 5284SOL    HW127314   0.565   3.121   8.030 -1.5495  3.3330 -4.7325
 5284SOL    HW227315   0.487   3.037   8.113  1.3465  0.0168  1.2595
 5285SOL     OW27316   0.622   0.199   2.161 -0.2267  0.8718  0.3543
 5285SOL    HW127317   0.675   0.207   2.082 -0.0948 -0.5271  0.2946
 5285SOL    HW227318   0.598   0.290   2.175  1.1381  1.4170 -0.8361
 5286SOL     OW27319   3.965   2.300  13.683  0.2246  0.4863 -0.3718
 5286SOL    HW127320   3.945   2.279  13.774  1.8851 -0.5361 -0.2325
 5286SOL    HW227321   4.053   2.338  13.692  0.0433  1.4452 -2.6321
 5287SOL     OW27322   1.672   1.032   8.479 -0.1237  0.4240 -0.1266
 5287SOL    HW127323   1.716   0.948   8.485 -0.5088  0.2051 -0.3763
 5287SOL    HW227324   1.740   1.090   8.446  0.1930  1.3356  2.1060
 5288SOL     OW27325   1.313   4.348   4.748 -0.2039 -0.2267  0.0301
 5288SOL    HW127326   1.379   4.409   4.716  0.2894 -0.3665  0.7740
 5288SOL    HW227327   1.305   4.283   4.679  2.3695 -0.5941  0.1049
 5289SOL     OW27328   3.444   4.116  13.125  0.0603  0.3342  0.3377
 5289SOL    HW127329   3.392   4.110  13.205 -1.2183 -1.5483 -0.6104
 5289SOL    HW227330   3.501   4.191  13.141  0.3254 -0.0927  1.3690
 5290SOL     OW27331   2.624   0.498  11.715  0.0033 -0.0303  0.1294
 5290SOL    HW127332   2.684   0.496  11.790  0.5637  1.9522 -0.2661
 5290SOL    HW227333   2.562   0.430  11.740  0.2938  0.0340  1.0434
 5291SOL     OW27334   0.313   4.065   9.103 -0.2974  0.3220 -0.0519
 5291SOL    HW127335   0.277   4.109   9.027  1.5249  1.9058 -0.0196
 5291SOL    HW227336   0.321   3.975   9.070  1.9147  0.5832 -0.2871
 5292SOL     OW27337   3.302   3.245  15.889 -0.3385  0.0198 -0.2201
 5292SOL    HW127338   3.344   3.225  15.973 -1.0440 -1.0964 -0.1294
 5292SOL    HW227339   3.379   3.269  15.837  0.5615  1.3450  1.7088
 5293SOL     OW27340   1.877   2.815   6.161 -0.0454  0.2983  0.3117
 5293SOL    HW127341   1.884   2.857   6.247  0.8903 -0.1646  0.4679
 5293SOL    HW227342   1.921   2.873   6.099  0.2535 -2.9517 -2.5448
 5294SOL     OW27343   2.094   1.805   1.661 -0.2371 -0.2077 -0.4970
 5294SOL    HW127344   2.153   1.761   1.722 -0.4010  0.5167  0.1783
 5294SOL    HW227345   2.061   1.729   1.614 -0.2350 -1.7149  1.9605
 5295SOL     OW27346   0.808   2.808  15.885 -0.0671 -0.0020 -0.4118
 5295SOL    HW127347   0.784   2.878  15.824 -0.2337 -0.5912 -1.0208
 5295SOL    HW227348   0.724   2.762  15.883 -0.4758  0.7266 -0.2368
 5296SOL     OW27349   2.915   1.345  11.736 -0.0436 -0.1440 -0.3872
 5296SOL    HW127350   2.868   1.403  11.796 -1.1568 -0.4627 -0.9595
 5296SOL    HW227351   2.896   1.260  11.775  0.6825 -0.2229 -0.2142
 5297SOL     OW27352   2.250   0.223   5.212  0.4434 -0.0933  0.0570
 5297SOL    HW127353   2.303   0.237   5.134 -2.2068 -1.6414 -2.0229
 5297SOL    HW227354   2.166   0.253   5.177  0.8174  1.8223  0.7827
 5298SOL     OW27355   1.226   1.596  15.742 -0.0253 -0.0494  0.1636
 5298SOL    HW127356   1.273   1.517  15.769 -1.4675 -0.9745 -0.0377
 5298SOL    HW227357   1.226   1.597  15.647 -0.8265  0.7269  0.1738
 5299SOL     OW27358   3.572   1.030   0.403 -0.0265 -0.2557  0.5369
 5299SOL    HW127359   3.622   0.953   0.375 -2.0796 -1.8624  1.2913
 5299SOL    HW227360   3.490   1.025   0.354  0.3581 -1.7357  0.0361
 5300SOL     OW27361   0.482   1.946   8.213  0.1070 -0.5109  0.6532
 5300SOL    HW127362   0.472   1.958   8.307  0.0031 -2.4508  0.8888
 5300SOL    HW227363   0.400   1.915   8.176  0.4195 -0.3147 -0.2099
 5301SOL     OW27364   4.132   3.783   3.424 -0.0636 -0.5828  0.8519
 5301SOL    HW127365   4.053   3.734   3.400 -0.8749  0.4017  1.5173
 5301SOL    HW227366   4.155   3.741   3.507  1.3954 -1.1237  0.1722
 5302SOL     OW27367   0.588   0.796   5.137 -0.7176 -1.0069 -0.7538
 5302SOL    HW127368   0.509   0.766   5.093 -0.3221 -0.0424 -2.1266
 5302SOL    HW227369   0.653   0.728   5.121  0.2723  0.3204 -2.4671
 5303SOL     OW27370   1.817   4.484   7.259  0.0524  0.6662  0.4251
 5303SOL    HW127371   1.852   4.532   7.333 -0.0264  3.0780 -1.0883
 5303SOL    HW227372   1.863   4.533   7.190  0.7323 -2.0631 -1.0649
 5304SOL     OW27373   2.325   2.260  10.959  0.1325 -0.1046 -0.5782
 5304SOL    HW127374   2.290   2.338  11.004  0.4851  0.0709 -0.6124
 5304SOL    HW227375   2.419   2.265  10.976  0.3415 -0.3377 -1.7337
 5305SOL     OW27376   2.398   0.940   2.762  0.0911 -0.0175 -0.0369
 5305SOL    HW127377   2.422   0.896   2.844 -1.4256  3.1111  2.0686
 5305SOL    HW227378   2.309   0.910   2.745 -0.4293  2.3359 -1.4626
 5306SOL     OW27379   3.934   0.120   2.319 -0.0198 -0.4078  0.0421
 5306SOL    HW127380   3.975   0.088   2.238 -0.6370 -1.8149  0.2887
 5306SOL    HW227381   3.879   0.189   2.281  2.8403  1.2037 -1.1754
 5307SOL     OW27382   4.427   3.458  13.763  0.3407  0.0111  0.2309
 5307SOL    HW127383   4.492   3.464  13.833  0.6708 -0.5280 -0.0246
 5307SOL    HW227384   4.371   3.389  13.799 -0.8523  0.7366 -0.2590
 5308SOL     OW27385   0.965   1.642   8.396 -0.5289 -0.5274  0.5471
 5308SOL    HW127386   0.878   1.612   8.424 -1.5042  1.0463 -0.8379
 5308SOL    HW227387   1.002   1.559   8.364  1.0035  0.1519  0.5598
 5309SOL     OW27388   1.103   1.375  12.759  0.2716 -0.7825  0.7288
 5309SOL    HW127389   1.153   1.377  12.841  0.6861 -0.1894  0.4563
 5309SOL    HW227390   1.162   1.418  12.697  0.0064 -2.4909 -0.6905
 5310SOL     OW27391   0.488   0.648   5.583 -0.0900 -0.2051 -0.2762
 5310SOL    HW127392   0.518   0.706   5.653 -0.3657 -4.0224  2.9907
 5310SOL    HW227393   0.402   0.617   5.612 -0.9976 -1.4156 -4.2766
 5311SOL     OW27394   0.743   3.582   0.065  0.3237 -0.3145  0.1475
 5311SOL    HW127395   0.664   3.614   0.109  0.0243  0.1975 -0.7571
 5311SOL    HW227396   0.799   3.557   0.138  0.6280 -1.6572 -0.5360
 5312SOL     OW27397   4.568   3.525   6.643  0.1068 -0.0274 -0.0629
 5312SOL    HW127398   4.638   3.490   6.698  0.1465 -0.3038 -0.2894
 5312SOL    HW227399   4.580   3.619   6.634  1.2525 -0.1369  0.4009
 5313SOL     OW27400   3.570   2.890   5.017  0.0583  0.3667 -0.0918
 5313SOL    HW127401   3.558   2.795   5.022  0.6519  0.3140  0.3441
 5313SOL    HW227402   3.657   2.907   4.982 -0.2299  2.7664  0.3566
 5314SOL     OW27403   3.610   2.766   9.877  0.1822  0.1008 -0.4371
 5314SOL    HW127404   3.520   2.784   9.906  1.1250  1.7337  1.5187
 5314SOL    HW227405   3.656   2.849   9.888 -0.7150  0.6956 -1.1643
 5315SOL     OW27406   2.956   0.059   4.391  0.5498  0.4152 -0.4322
 5315SOL    HW127407   2.983   0.061   4.299  2.0678  0.1908 -0.0011
 5315SOL    HW227408   3.047   0.060   4.422 -0.1481 -0.2103  1.6382
 5316SOL     OW27409   1.113   1.365   8.312  0.4338 -0.2256  0.0884
 5316SOL    HW127410   1.021   1.371   8.286  0.7981  0.7483 -0.9498
 5316SOL    HW227411   1.106   1.283   8.362 -1.2463  0.7686  1.4666
 5317SOL     OW27412   1.070   3.566   2.103  0.2671  0.2272 -0.1590
 5317SOL    HW127413   1.057   3.513   2.025 -2.3756 -0.4189  0.7309
 5317SOL    HW227414   1.087   3.655   2.071 -0.0295  0.2022 -0.3838
 5318SOL     OW27415   4.091   1.345   3.205 -0.0776 -0.2951 -0.1175
 5318SOL    HW127416   4.012   1.325   3.254  1.6741 -2.5854  1.8028
 5318SOL    HW227417   4.109   1.436   3.229 -0.1688 -0.2427 -0.2473
 5319SOL     OW27418   4.453   2.736   3.562  0.5606  0.6524  0.0543
 5319SOL    HW127419   4.360   2.725   3.540  1.1037  3.1872 -3.5981
 5319SOL    HW227420   4.496   2.699   3.485 -0.8059 -1.7522  0.4483
 5320SOL     OW27421   3.181   0.064  17.124 -0.4256 -0.8844  0.0575
 5320SOL    HW127422   3.147   0.112  17.048 -3.0726 -1.4459  0.8838
 5320SOL    HW227423   3.177   4.699  17.089  0.8881 -0.5302 -0.9801
 5321SOL     OW27424   3.606   0.455   8.292 -0.0562  0.8381  0.5604
 5321SOL    HW127425   3.527   0.416   8.330  0.2491  0.5510  0.9042
 5321SOL    HW227426   3.653   0.480   8.371  1.9348 -0.6957 -0.1475
 5322SOL     OW27427   3.561   4.277   6.454 -0.4780 -0.9620  0.1117
 5322SOL    HW127428   3.635   4.300   6.510  0.2461  0.8525 -1.5830
 5322SOL    HW227429   3.578   4.340   6.384  1.1270  2.0117  3.1759
 5323SOL     OW27430   2.126   3.370   6.689  0.1724 -0.3872  0.0553
 5323SOL    HW127431   2.161   3.373   6.778 -0.5139 -2.1336  0.3936
 5323SOL    HW227432   2.159   3.454   6.659  2.2171 -0.3864  2.2851
 5324SOL     OW27433   1.525   1.695  12.602 -0.9706  0.2764  0.3178
 5324SOL    HW127434   1.587   1.700  12.530 -3.0916 -0.2864 -1.5587
 5324SOL    HW227435   1.576   1.651  12.669  1.4597  1.2762 -0.8734
 5325SOL     OW27436   0.405   2.980   2.908  0.0346  0.0525  0.7070
 5325SOL    HW127437   0.432   2.928   2.832  2.6834 -0.3046  1.8782
 5325SOL    HW227438   0.310   2.975   2.898  0.0590 -0.6510  0.7773
 5326SOL     OW27439   3.751   1.775  11.685 -0.3497  0.2910  0.3042
 5326SOL    HW127440   3.774   1.849  11.629  1.0108 -0.1648  0.2599
 5326SOL    HW227441   3.805   1.790  11.763  1.9874 -5.4374 -0.2065
 5327SOL     OW27442   4.099   3.945   1.111  0.0387 -0.3272 -0.1296
 5327SOL    HW127443   4.129   4.007   1.044  1.1629 -1.6760 -0.8595
 5327SOL    HW227444   4.160   3.873   1.103  0.2954 -0.2932  1.4745
 5328SOL     OW27445   3.445   4.163  17.367 -0.0911 -0.0999 -0.2192
 5328SOL    HW127446   3.417   4.215  17.291  2.2770 -0.3640 -1.2658
 5328SOL    HW227447   3.455   4.236  17.428 -2.1931 -0.6745  0.8138
 5329SOL     OW27448   2.643   1.547   0.804  0.5347  0.0411  0.0043
 5329SOL    HW127449   2.720   1.528   0.858 -0.3470  1.2877  1.6938
 5329SOL    HW227450   2.594   1.604   0.863 -0.8227 -0.8716 -0.2357
 5330SOL     OW27451   3.975   1.920   6.730  0.3675  0.1707 -0.5015
 5330SOL    HW127452   3.987   1.951   6.640  3.3013  1.6947  0.4213
 5330SOL    HW227453   3.903   1.860   6.710 -1.5720  2.3780 -0.0129
 5331SOL     OW27454   1.882   1.453   4.497  0.4978  0.5790 -0.0416
 5331SOL    HW127455   1.902   1.360   4.505  0.2842  0.2576 -3.6005
 5331SOL    HW227456   1.790   1.453   4.525  0.7672  0.3637  0.8592
 5332SOL     OW27457   1.338   4.439   7.445  0.5948 -0.5138  0.1009
 5332SOL    HW127458   1.309   4.529   7.427  0.5802 -0.4204  0.5872
 5332SOL    HW227459   1.434   4.445   7.439  0.5404 -0.2797 -0.6015
 5333SOL     OW27460   1.527   0.931  12.924 -0.2844 -0.5620  0.7259
 5333SOL    HW127461   1.519   0.977  13.007  1.1177  0.2476  0.3991
 5333SOL    HW227462   1.617   0.899  12.929 -0.5193 -1.5471 -1.0735
 5334SOL     OW27463   1.081   1.868  13.523 -0.2034 -0.6138  0.6333
 5334SOL    HW127464   1.157   1.827  13.565  0.8118  3.0263  2.3028
 5334SOL    HW227465   1.127   1.897  13.445 -0.2758 -0.4221  0.6627
 5335SOL     OW27466   4.344   0.295   8.100  0.0682 -0.3040  0.4008
 5335SOL    HW127467   4.390   0.355   8.041 -0.4268 -1.9676 -1.6787
 5335SOL    HW227468   4.411   0.296   8.167  0.1271 -3.1182  0.3652
 5336SOL     OW27469   3.856   2.636   8.129  0.0284 -0.9492 -0.3099
 5336SOL    HW127470   3.772   2.632   8.175 -0.1432  3.5944 -0.2839
 5336SOL    HW227471   3.916   2.641   8.204  0.4944 -1.2823 -0.6620
 5337SOL     OW27472   4.188   1.713   4.797 -0.4530 -0.1225  0.3182
 5337SOL    HW127473   4.103   1.669   4.793 -0.3001 -0.3283 -0.8345
 5337SOL    HW227474   4.215   1.705   4.705 -0.0045 -2.3149  0.6367
 5338SOL     OW27475   1.506   1.213   5.696 -0.5243 -0.7977  0.1656
 5338SOL    HW127476   1.469   1.250   5.616  0.6969  2.2383  1.0386
 5338SOL    HW227477   1.599   1.192   5.683 -0.7463 -2.2312  0.8293
 5339SOL     OW27478   0.553   4.185   3.838 -0.3172  0.5304 -0.7228
 5339SOL    HW127479   0.568   4.090   3.848  0.2437  0.7631  0.6785
 5339SOL    HW227480   0.642   4.217   3.826  0.2810 -0.1315  1.8095
 5340SOL     OW27481   4.354   2.857   2.480  0.2122  0.9816  0.2384
 5340SOL    HW127482   4.321   2.889   2.564 -1.0308  1.0435 -0.2709
 5340SOL    HW227483   4.418   2.795   2.513  0.0016  0.0238 -1.1610
 5341SOL     OW27484   2.966   4.640  13.538  0.1000 -0.8539 -0.1698
 5341SOL    HW127485   2.946   4.699  13.465 -0.0804 -1.9541 -1.0125
 5341SOL    HW227486   3.026   4.700  13.583  0.5661 -1.4285 -0.0302
 5342SOL     OW27487   1.643   2.029  10.574  0.3776 -0.3329  0.3942
 5342SOL    HW127488   1.688   1.962  10.626 -1.7959 -0.8186  1.6448
 5342SOL    HW227489   1.555   1.993  10.579  0.8973 -1.9719 -2.2560
 5343SOL     OW27490   0.506   1.889  14.619  0.2699 -0.2557  0.0810
 5343SOL    HW127491   0.545   1.821  14.563 -1.1708 -1.3935  0.4631
 5343SOL    HW227492   0.507   1.957  14.551  2.8011 -0.4890 -0.1244
 5344SOL     OW27493   3.823   2.702   8.585  0.6805 -0.3809  0.2258
 5344SOL    HW127494   3.810   2.608   8.596  0.9097 -0.5953 -1.3570
 5344SOL    HW227495   3.899   2.712   8.642  0.9582  1.7907 -0.5489
 5345SOL     OW27496   1.841   4.598  14.521 -0.3392  0.2980 -0.0751
 5345SOL    HW127497   1.935   4.615  14.513  0.1637 -2.1325  0.8309
 5345SOL    HW227498   1.841   4.537  14.594  1.5647  0.3798  0.0069
 5346SOL     OW27499   4.589   3.701  11.717  0.1485 -0.1673 -0.0980
 5346SOL    HW127500   4.515   3.654  11.678  0.6300 -2.7621  2.1177
 5346SOL    HW227501   4.568   3.741  11.802  0.5514  1.4149 -0.7470
 5347SOL     OW27502   1.955   3.126   1.799  0.6489  0.2207  0.4384
 5347SOL    HW127503   1.991   3.117   1.711 -0.3926  0.5041 -0.0066
 5347SOL    HW227504   2.010   3.193   1.840  2.1348 -0.3832 -0.5531
 5348SOL     OW27505   1.623   2.411   7.344  0.0506  0.3421 -0.0540
 5348SOL    HW127506   1.533   2.408   7.379 -0.2601  0.8319 -0.8134
 5348SOL    HW227507   1.664   2.329   7.371 -0.7502  0.0824  0.3751
 5349SOL     OW27508   4.262   0.578   3.495  0.2887  0.0251 -0.2289
 5349SOL    HW127509   4.326   0.627   3.443  1.4328 -4.2863 -2.8889
 5349SOL    HW227510   4.321   0.504   3.510  1.8247  1.3979  0.4709
 5350SOL     OW27511   0.841   1.383   5.010 -0.4567 -0.5560 -0.0252
 5350SOL    HW127512   0.840   1.331   5.090  3.2362 -0.2884  0.2057
 5350SOL    HW227513   0.747   1.400   5.021  0.7702  5.9214  0.5873
 5351SOL     OW27514   4.633   3.251   7.749 -0.0691  0.1599 -0.3026
 5351SOL    HW127515   4.611   3.173   7.800  0.7022 -0.1050 -0.3844
 5351SOL    HW227516   4.548   3.292   7.733  0.2653  0.9273 -0.1380
 5352SOL     OW27517   1.522   4.433   9.557 -0.1001  0.1186  0.8665
 5352SOL    HW127518   1.501   4.524   9.534 -0.6727  0.5900  3.2577
 5352SOL    HW227519   1.529   4.432   9.653 -1.5530 -0.2422  0.9675
 5353SOL     OW27520   3.448   1.525   5.944  0.4083  0.4308 -0.0015
 5353SOL    HW127521   3.520   1.511   5.883 -1.4559  1.8003 -2.5272
 5353SOL    HW227522   3.383   1.460   5.918  0.5086 -0.3404  1.6741
 5354SOL     OW27523   0.644   1.450  17.654  0.0867  0.1659  0.1540
 5354SOL    HW127524   0.735   1.454  17.686  0.0536  0.5416  0.2038
 5354SOL    HW227525   0.598   1.437   0.039 -0.7750  2.5895  0.0530
 5355SOL     OW27526   0.815   2.588   2.799 -0.4213  0.0378 -0.4539
 5355SOL    HW127527   0.788   2.559   2.712  2.9476  4.4393 -2.9554
 5355SOL    HW227528   0.825   2.681   2.782 -0.3353  0.1764  0.3683
 5356SOL     OW27529   0.078   4.420   1.748  0.2805  0.3370 -0.0128
 5356SOL    HW127530   0.028   4.355   1.698 -2.2601  2.3479 -0.1179
 5356SOL    HW227531   0.142   4.366   1.794  0.3071  1.5672  1.3844
 5357SOL     OW27532   0.943   3.700   3.606  0.3823 -0.3483  0.1062
 5357SOL    HW127533   1.012   3.680   3.542 -1.2402  1.3416 -2.1684
 5357SOL    HW227534   0.867   3.650   3.574  0.0216  0.1002  0.2598
 5358SOL     OW27535   0.950   3.525   2.347  0.2544  0.3184 -0.6960
 5358SOL    HW127536   0.886   3.455   2.334 -0.9426  1.2455  0.1913
 5358SOL    HW227537   0.992   3.541   2.263  2.1074 -2.7829 -0.3869
 5359SOL     OW27538   2.626   1.225  11.433  0.1406 -0.7264  0.7870
 5359SOL    HW127539   2.586   1.156  11.487 -0.1423  0.2652  1.8340
 5359SOL    HW227540   2.589   1.304  11.472 -1.5223 -1.1952  0.1855
 5360SOL     OW27541   3.709   0.382   4.793 -0.7654 -0.1272 -0.2546
 5360SOL    HW127542   3.675   0.320   4.729 -0.1462  1.3238 -2.0094
 5360SOL    HW227543   3.648   0.456   4.792 -0.2362  0.3323  1.5667
 5361SOL     OW27544   2.019   0.424   8.570 -0.0288 -0.0017  0.1771
 5361SOL    HW127545   2.035   0.494   8.633  1.1147 -0.4819  0.4269
 5361SOL    HW227546   2.105   0.403   8.534  0.0842 -0.4142  0.6779
 5362SOL     OW27547   2.760   3.353   8.123  0.0275 -0.6071  0.0633
 5362SOL    HW127548   2.849   3.355   8.159  1.2017 -1.7194 -2.7567
 5362SOL    HW227549   2.779   3.299   8.047  0.2027  0.3543 -0.5791
 5363SOL     OW27550   1.375   2.654  16.845 -1.1260 -0.7973  0.3881
 5363SOL    HW127551   1.437   2.689  16.909  1.0598 -1.0964 -1.5587
 5363SOL    HW227552   1.313   2.726  16.832  1.7540  1.4509 -0.8425
 5364SOL     OW27553   4.695   3.464   8.135 -0.0500  0.2024 -0.1031
 5364SOL    HW127554   0.032   3.408   8.183 -0.1951  2.2077  2.4566
 5364SOL    HW227555   4.679   3.539   8.192 -0.8700  0.5459 -0.7925
 5365SOL     OW27556   3.319   1.480  11.818  0.0895  0.6130  0.0778
 5365SOL    HW127557   3.259   1.501  11.747 -2.2017  1.9239  2.3668
 5365SOL    HW227558   3.400   1.511  11.778 -0.7082  2.0011 -0.4598
 5366SOL     OW27559   4.642   3.591   2.600 -0.9584 -0.2706 -0.2753
 5366SOL    HW127560   4.689   3.623   2.523 -2.3269  3.7697  0.6140
 5366SOL    HW227561   4.645   3.498   2.578  3.8439  0.3681 -2.5490
 5367SOL     OW27562   2.021   3.395   4.777  0.1610 -0.0843 -0.0443
 5367SOL    HW127563   2.029   3.341   4.856  0.3013  0.8127  0.5587
 5367SOL    HW227564   1.950   3.451   4.810 -0.1715 -0.3487 -0.3061
 5368SOL     OW27565   4.012   3.068   5.399  0.8470  0.4314 -0.3078
 5368SOL    HW127566   4.078   3.085   5.466 -0.1818 -1.0159  1.0860
 5368SOL    HW227567   3.948   3.021   5.453  2.1319  0.7884  1.5053
 5369SOL     OW27568   0.357   2.554   8.807 -0.0946  0.0271 -0.3412
 5369SOL    HW127569   0.421   2.485   8.820 -0.5785 -0.2597  0.5437
 5369SOL    HW227570   0.276   2.502   8.804 -0.8520  1.1374  0.6729
 5370SOL     OW27571   1.819   4.257  10.764 -0.3666 -0.3054 -0.2508
 5370SOL    HW127572   1.754   4.300  10.707  0.7622 -0.5327 -1.6986
 5370SOL    HW227573   1.889   4.253  10.699 -0.4996  1.4085 -0.5158
 5371SOL     OW27574   2.022   4.113  16.968 -0.2427 -0.7512  0.5597
 5371SOL    HW127575   1.928   4.131  16.960 -0.4972 -1.8887  1.0440
 5371SOL    HW227576   2.018   4.094  17.061 -1.5495 -1.0830  0.4452
 5372SOL     OW27577   3.512   4.505   7.832  0.0457 -0.2557 -0.0207
 5372SOL    HW127578   3.540   4.571   7.769 -1.2038 -0.0336 -0.3416
 5372SOL    HW227579   3.580   4.522   7.897  1.6201 -2.5419 -1.0853
 5373SOL     OW27580   2.295   0.018   8.851  0.0676  0.1701  0.1906
 5373SOL    HW127581   2.274   0.061   8.933 -1.6690  2.0069 -1.2104
 5373SOL    HW227582   2.294   4.650   8.877  2.4397 -1.0112 -3.9085
 5374SOL     OW27583   0.445   0.651   4.947  0.4164  0.3648 -0.2482
 5374SOL    HW127584   0.469   0.584   4.884  0.6446 -0.6576  0.9141
 5374SOL    HW227585   0.372   0.698   4.907  1.4633  0.2953 -2.2288
 5375SOL     OW27586   3.745   2.871   5.863  0.0736  0.0736  0.2902
 5375SOL    HW127587   3.784   2.913   5.939 -0.0705  0.1661  0.3122
 5375SOL    HW227588   3.651   2.883   5.878 -0.0081  0.5433 -0.5863
 5376SOL     OW27589   2.766   0.153   7.401  0.5719 -0.2639  0.2529
 5376SOL    HW127590   2.764   0.235   7.451  0.2339  0.9442 -1.7238
 5376SOL    HW227591   2.861   0.146   7.387  0.0003 -1.0924 -3.1955
 5377SOL     OW27592   3.491   2.275   9.065 -0.2008  0.9039  0.2199
 5377SOL    HW127593   3.546   2.328   9.123  3.1039 -0.2146 -1.8661
 5377SOL    HW227594   3.490   2.346   9.000  0.4040  1.3945  0.7384
 5378SOL     OW27595   1.223   2.007   2.932  0.1936  0.1073  0.2704
 5378SOL    HW127596   1.245   1.925   2.888 -0.7569 -0.0066  0.0079
 5378SOL    HW227597   1.204   2.064   2.857  0.5040 -2.8667 -2.0457
 5379SOL     OW27598   4.153   3.685  11.235  0.3520  0.9138 -0.4902
 5379SOL    HW127599   4.117   3.675  11.323  1.5731 -0.3799 -0.1265
 5379SOL    HW227600   4.086   3.635  11.189 -0.7890  1.5792  0.4590
 5380SOL     OW27601   1.551   1.157   0.128  0.7199 -0.0878 -0.1453
 5380SOL    HW127602   1.531   1.103   0.204  0.7066 -0.1495 -0.1930
 5380SOL    HW227603   1.635   1.118   0.104  0.2976 -0.2179 -1.4019
 5381SOL     OW27604   0.932   3.974   2.693 -0.0038  0.1243 -0.2766
 5381SOL    HW127605   0.978   3.960   2.610 -2.9597  2.3934 -2.2634
 5381SOL    HW227606   0.955   4.064   2.716 -1.1647  0.6440 -1.1520
 5382SOL     OW27607   2.025   1.710   4.802  0.6926  0.0753 -0.1884
 5382SOL    HW127608   1.931   1.726   4.793  0.9402  1.8855  0.4765
 5382SOL    HW227609   2.033   1.629   4.853  0.6361 -0.4283 -0.9762
 5383SOL     OW27610   2.498   1.465   7.161  0.3376 -0.0989  0.0200
 5383SOL    HW127611   2.438   1.460   7.236  0.5193  0.6663  0.2174
 5383SOL    HW227612   2.457   1.518   7.092 -0.5062 -0.5926  0.1438
 5384SOL     OW27613   3.444   2.060   8.560  0.0189  0.0349 -0.3580
 5384SOL    HW127614   3.466   2.062   8.653  0.0628 -3.6711 -0.2537
 5384SOL    HW227615   3.450   1.965   8.545  0.3296  0.1133 -0.7268
 5385SOL     OW27616   4.090   0.496  16.401 -0.2501  0.0263  0.4746
 5385SOL    HW127617   4.009   0.548  16.407 -0.7956 -0.7937  0.0991
 5385SOL    HW227618   4.147   0.573  16.409 -1.8610  1.2275  0.5480
 5386SOL     OW27619   2.020   4.623  12.337 -0.8545 -0.6305 -0.2087
 5386SOL    HW127620   2.008   4.564  12.263 -2.5718 -0.1423 -0.3213
 5386SOL    HW227621   1.933   4.631  12.376 -0.9539 -1.8471 -0.1879
 5387SOL     OW27622   0.563   3.435   2.477  0.0660  0.8084 -0.3333
 5387SOL    HW127623   0.632   3.415   2.541 -1.2564  0.5565  1.0010
 5387SOL    HW227624   0.604   3.428   2.390  0.2354 -0.9615 -0.1077
 5388SOL     OW27625   1.078   3.539  10.653 -0.2356  0.0398 -0.4243
 5388SOL    HW127626   1.169   3.510  10.643 -0.5352 -0.5528 -1.4803
 5388SOL    HW227627   1.092   3.595  10.729  0.6361  1.8309 -1.9096
 5389SOL     OW27628   3.004   3.916   8.537  0.5764 -0.4493  0.2168
 5389SOL    HW127629   3.008   3.905   8.442  0.3502  0.6302  0.0909
 5389SOL    HW227630   2.909   3.917   8.544  0.5431  1.3605 -0.5453
 5390SOL     OW27631   4.191   4.455   6.690 -0.2494 -0.1151 -0.4004
 5390SOL    HW127632   4.232   4.372   6.663  0.0954 -0.1855  0.3264
 5390SOL    HW227633   4.152   4.409   6.765  0.0275  2.6032  1.4047
 5391SOL     OW27634   1.695   2.118   4.009  0.0413 -0.1674  0.3456
 5391SOL    HW127635   1.761   2.107   3.940 -0.1701 -0.4983  0.1976
 5391SOL    HW227636   1.742   2.162   4.080  0.8866  0.5270 -0.6417
 5392SOL     OW27637   1.000   1.524  10.742 -0.0710  0.7338  0.5917
 5392SOL    HW127638   1.043   1.497  10.661  0.6655 -1.7304  1.8012
 5392SOL    HW227639   0.909   1.524  10.711  0.4550 -0.6876 -0.9555
 5393SOL     OW27640   1.144   2.460  11.175 -0.3544  0.1852 -0.0606
 5393SOL    HW127641   1.072   2.522  11.179 -0.1407  0.3597  1.0091
 5393SOL    HW227642   1.195   2.500  11.246  0.6157 -0.1586 -0.5509
 5394SOL     OW27643   0.304   4.315   9.574  0.6053 -0.3524 -0.2201
 5394SOL    HW127644   0.318   4.235   9.624  2.7905 -1.2395 -2.2656
 5394SOL    HW227645   0.214   4.302   9.544  0.6871  2.6439 -1.7726
 5395SOL     OW27646   4.347   3.542   5.847  0.1641  0.1893 -0.6259
 5395SOL    HW127647   4.409   3.576   5.783  1.2738 -2.1719 -0.8097
 5395SOL    HW227648   4.261   3.555   5.807 -0.0831  2.0542  0.5000
 5396SOL     OW27649   0.368   3.676   7.373  0.1267  0.2974 -0.5799
 5396SOL    HW127650   0.423   3.635   7.440 -0.6703  3.2218  1.9211
 5396SOL    HW227651   0.373   3.762   7.416  2.1546 -1.5005  2.8324
 5397SOL     OW27652   4.596   4.004   3.500 -0.4086 -0.1457  0.4840
 5397SOL    HW127653   4.567   3.997   3.591 -0.1806  1.6912  0.6997
 5397SOL    HW227654   4.511   3.996   3.456  0.2557  0.1406 -0.8516
 5398SOL     OW27655   3.413   4.528  16.963 -0.0283  0.3514  0.4825
 5398SOL    HW127656   3.358   4.530  16.885  1.4180 -0.9020 -0.5696
 5398SOL    HW227657   3.474   4.600  16.949  0.5639 -0.7860 -2.8357
 5399SOL     OW27658   1.899   3.015   9.239 -0.1765  0.3327 -0.5517
 5399SOL    HW127659   1.805   3.012   9.253 -0.0345  1.2204  0.5523
 5399SOL    HW227660   1.911   3.107   9.260 -1.1449  0.7281 -1.7010
 5400SOL     OW27661   2.939   3.483   4.020  0.0882  0.3821 -0.4742
 5400SOL    HW127662   2.867   3.487   4.083 -0.9268  0.8933 -1.6694
 5400SOL    HW227663   2.981   3.403   4.052 -2.3477  0.0976  2.0981
 5401SOL     OW27664   3.419   2.081   4.753 -0.3464  0.3269  0.1468
 5401SOL    HW127665   3.461   2.101   4.669  0.0882  1.1108  0.5511
 5401SOL    HW227666   3.366   2.010   4.716  0.2280  1.5300 -3.0454
 5402SOL     OW27667   2.534   3.992  13.835 -0.5659  0.3533 -0.2231
 5402SOL    HW127668   2.500   4.081  13.824 -0.0192  0.4439 -1.2161
 5402SOL    HW227669   2.471   3.953  13.895 -0.8119 -0.4273 -0.9906
 5403SOL     OW27670   1.757   2.744   0.876  0.5813 -0.5603 -0.2572
 5403SOL    HW127671   1.693   2.684   0.913 -0.4595  1.6386  1.4685
 5403SOL    HW227672   1.730   2.745   0.784  1.6282 -0.8122 -0.5705
 5404SOL     OW27673   1.139   4.536   9.465  0.1994 -0.3064  0.4319
 5404SOL    HW127674   1.048   4.517   9.489  0.3068 -0.1889  0.9360
 5404SOL    HW227675   1.158   4.589   9.542 -0.0643 -1.6971  1.4529
 5405SOL     OW27676   3.722   0.134   0.738 -0.6036 -0.0704 -0.4116
 5405SOL    HW127677   3.731   0.205   0.801  1.3601 -1.3713  0.7951
 5405SOL    HW227678   3.628   0.117   0.726 -1.1622  2.6071  0.3225
 5406SOL     OW27679   2.121   2.912  14.690 -0.2673  0.0260 -0.3079
 5406SOL    HW127680   2.087   2.842  14.634 -1.4244  1.5029 -1.4458
 5406SOL    HW227681   2.086   2.991  14.647  1.5364  1.1522  0.2736
 5407SOL     OW27682   2.033   2.553   6.020  0.1002  0.6428 -0.3080
 5407SOL    HW127683   2.012   2.590   5.934 -2.8947 -0.5537 -0.0975
 5407SOL    HW227684   2.011   2.624   6.081 -0.0588  0.4895 -0.1849
 5408SOL     OW27685   2.253   1.618   8.952  0.3494  0.2753 -0.2836
 5408SOL    HW127686   2.257   1.713   8.965  1.0363  0.2265 -0.1732
 5408SOL    HW227687   2.255   1.583   9.041  0.2068 -0.8529 -0.7155
 5409SOL     OW27688   2.073   0.537   7.161  0.3416 -0.2362 -0.5041
 5409SOL    HW127689   2.025   0.569   7.237 -0.9883  0.0172 -1.4583
 5409SOL    HW227690   2.064   0.443   7.171 -0.3129 -0.2422 -1.1845
 5410SOL     OW27691   2.744   1.564  11.278  0.1570 -0.1452  0.2919
 5410SOL    HW127692   2.788   1.520  11.351 -1.4891 -0.5217  1.0584
 5410SOL    HW227693   2.654   1.541  11.301  0.3504 -0.7057  0.4726
 5411SOL     OW27694   3.810   2.941   4.406  0.2018 -0.1828  0.0742
 5411SOL    HW127695   3.759   2.862   4.424  0.5056  0.1500  2.3221
 5411SOL    HW227696   3.892   2.903   4.374 -0.0783  1.0992 -2.1837
 5412SOL     OW27697   0.510   3.721   7.882 -0.0692  0.3377  0.0821
 5412SOL    HW127698   0.430   3.669   7.870  1.6946 -2.4964  0.6862
 5412SOL    HW227699   0.484   3.812   7.864 -0.5709  0.2934  0.5689
 5413SOL     OW27700   3.375   4.230   3.219 -0.3346 -0.0996  0.4131
 5413SOL    HW127701   3.361   4.157   3.279  2.2489 -0.0628  1.0789
 5413SOL    HW227702   3.442   4.279   3.267 -0.7727  0.9474 -0.0569
 5414SOL     OW27703   1.041   3.801   1.941 -0.2650 -0.2385  0.5930
 5414SOL    HW127704   1.069   3.881   1.896 -1.6207 -0.3045 -0.3940
 5414SOL    HW227705   0.955   3.833   1.966 -0.9714 -1.8943  0.2816
 5415SOL     OW27706   4.119   4.367   1.526  0.5865 -0.3717 -0.2370
 5415SOL    HW127707   4.157   4.299   1.581 -0.4673 -0.0050  0.9455
 5415SOL    HW227708   4.169   4.365   1.444  0.4642  0.0835 -0.3268
 5416SOL     OW27709   4.591   3.150   4.197 -0.4673 -0.2027 -0.4593
 5416SOL    HW127710   4.642   3.231   4.203  0.4752 -0.8437  0.2050
 5416SOL    HW227711   4.553   3.148   4.109 -0.7686  2.1085 -0.3766
 5417SOL     OW27712   1.361   3.562   4.403 -0.2032  0.4639 -0.3388
 5417SOL    HW127713   1.445   3.607   4.400 -1.2963  2.6123  1.1330
 5417SOL    HW227714   1.350   3.533   4.313 -0.8091 -0.3282 -0.0120
 5418SOL     OW27715   0.542   0.744   4.629  0.3745  0.4296 -0.2937
 5418SOL    HW127716   0.631   0.742   4.665  0.4130  0.7649 -0.3668
 5418SOL    HW227717   0.512   0.659   4.661  0.4563  0.3709 -0.3714
 5419SOL     OW27718   0.111   4.271   6.840  0.5886  0.5022 -0.8926
 5419SOL    HW127719   0.168   4.314   6.776  0.8461 -0.9634 -1.6382
 5419SOL    HW227720   0.061   4.207   6.790  0.7319 -2.0675  2.2391
 5420SOL     OW27721   3.911   1.934  10.688  0.0771  0.0737 -0.1975
 5420SOL    HW127722   3.960   1.944  10.606  1.5321  0.4223  0.7088
 5420SOL    HW227723   3.936   2.015  10.733  2.3801 -0.5022 -0.4158
 5421SOL     OW27724   0.541   0.938   4.053 -0.3557 -0.7739 -0.2254
 5421SOL    HW127725   0.526   0.862   3.997 -1.4586 -0.6095 -0.1404
 5421SOL    HW227726   0.630   0.923   4.085 -0.5023 -1.1373  0.0050
 5422SOL     OW27727   2.983   3.765  11.729 -0.1171 -0.0356 -0.0426
 5422SOL    HW127728   2.971   3.772  11.634  0.1403  0.5435 -0.0291
 5422SOL    HW227729   3.062   3.819  11.722 -0.6734  1.0903  2.6849
 5423SOL     OW27730   4.501   1.111   5.160  0.0574 -0.2052 -0.4244
 5423SOL    HW127731   4.432   1.074   5.105  0.4836 -1.4200 -0.1566
 5423SOL    HW227732   4.520   1.184   5.101 -2.5920  1.6080  0.9514
 5424SOL     OW27733   1.496   3.929   9.001 -0.1527 -0.0936  0.2866
 5424SOL    HW127734   1.567   3.898   8.945 -0.9268 -2.2632  0.4682
 5424SOL    HW227735   1.482   4.018   8.970 -0.2295  0.0621  0.7601
 5425SOL     OW27736   0.204   4.536  14.887 -0.0149 -0.0360 -0.4835
 5425SOL    HW127737   0.142   4.571  14.950 -1.2093  0.8138 -2.1317
 5425SOL    HW227738   0.195   4.603  14.820 -1.3813  0.2923  0.0439
 5426SOL     OW27739   2.629   3.132   4.719 -0.3416 -0.1057  0.0191
 5426SOL    HW127740   2.597   3.206   4.771 -0.6399  0.6545 -1.2572
 5426SOL    HW227741   2.571   3.149   4.645  0.8985  1.7192 -0.5320
 5427SOL     OW27742   4.665   3.613   8.364  0.4624  0.2306  0.4195
 5427SOL    HW127743   0.021   3.658   8.389  0.1823  1.5066 -0.9449
 5427SOL    HW227744   4.601   3.681   8.385  0.0756  0.2684 -0.8418
 5428SOL     OW27745   1.257   3.744  13.629 -0.4943 -0.3918 -0.2948
 5428SOL    HW127746   1.226   3.827  13.666 -0.1280 -1.5174  2.5629
 5428SOL    HW227747   1.288   3.769  13.542 -1.4233 -2.6383 -1.2741
 5429SOL     OW27748   3.120   1.597  13.253 -0.5342 -0.1016  0.2764
 5429SOL    HW127749   3.137   1.509  13.220 -1.0960 -0.4354  0.8688
 5429SOL    HW227750   3.057   1.635  13.192 -1.0573 -0.2627  0.7081
 5430SOL     OW27751   3.243   0.252   1.505  0.1806 -0.2496 -0.3653
 5430SOL    HW127752   3.301   0.326   1.522 -3.9730  2.9575 -0.2124
 5430SOL    HW227753   3.177   0.258   1.575  0.7295 -0.7220  0.1920
 5431SOL     OW27754   2.390   2.560   5.588  0.8321  0.2828 -0.3630
 5431SOL    HW127755   2.348   2.640   5.619  1.7510  0.5487  0.2040
 5431SOL    HW227756   2.388   2.570   5.493  1.5906 -0.9217 -0.5099
 5432SOL     OW27757   4.664   4.316  16.351 -0.3856  0.0101  0.0966
 5432SOL    HW127758   4.653   4.268  16.269 -0.0673 -0.6307  0.4265
 5432SOL    HW227759   4.572   4.315  16.375  0.1972 -0.9760  2.3177
 5433SOL     OW27760   2.334   1.775   7.904  0.5477 -0.4278 -0.0796
 5433SOL    HW127761   2.335   1.752   7.997 -1.4973  1.6275  0.4459
 5433SOL    HW227762   2.419   1.746   7.871  0.8209  1.0302 -0.6664
 5434SOL     OW27763   2.013   4.199   1.813 -0.1213  0.1472  0.8466
 5434SOL    HW127764   1.972   4.286   1.817  0.5103  0.4146  1.3609
 5434SOL    HW227765   2.079   4.213   1.881 -0.6046  1.4079  1.0697
 5435SOL     OW27766   2.993   1.086  14.630  0.2570 -0.3069 -0.1460
 5435SOL    HW127767   3.004   1.120  14.542  1.8415 -3.8658 -1.3300
 5435SOL    HW227768   2.936   1.011  14.611  1.2203 -0.8150 -0.9993
 5436SOL     OW27769   3.807   4.282   9.804  0.4523  0.0279  0.0981
 5436SOL    HW127770   3.750   4.290   9.727 -1.6219 -2.3275  1.3677
 5436SOL    HW227771   3.877   4.225   9.774 -1.0318 -1.7326 -0.0557
 5437SOL     OW27772   3.091   2.222  15.140 -0.1521 -0.7296  0.0069
 5437SOL    HW127773   3.102   2.317  15.128  2.4643 -0.7795  2.2300
 5437SOL    HW227774   3.139   2.194  15.063  3.6343  3.2464  0.9406
 5438SOL     OW27775   1.573   3.820  10.553  0.2400 -0.2742 -0.3971
 5438SOL    HW127776   1.551   3.763  10.627 -1.8974  3.6424  2.0022
 5438SOL    HW227777   1.487   3.859  10.537 -0.3671 -1.2863  0.4755
 5439SOL     OW27778   4.527   0.219  15.974  0.5280 -0.0305 -0.3879
 5439SOL    HW127779   4.443   0.213  16.019  0.1775  0.8016 -0.9318
 5439SOL    HW227780   4.580   0.247  16.049  0.3421 -1.4658  0.2866
 5440SOL     OW27781   3.889   1.569   5.844 -0.3607 -0.0047 -0.3886
 5440SOL    HW127782   3.865   1.614   5.926  1.0567  0.1378 -0.0569
 5440SOL    HW227783   3.929   1.487   5.872 -0.9807 -0.0746  0.3219
 5441SOL     OW27784   1.144   0.763   4.242  0.2038  0.1336 -0.2430
 5441SOL    HW127785   1.065   0.782   4.292 -0.2305  0.5337 -1.0775
 5441SOL    HW227786   1.188   0.721   4.316 -0.7996 -1.4976 -0.5635
 5442SOL     OW27787   0.558   3.249  14.924  0.1929 -0.2616  0.3600
 5442SOL    HW127788   0.496   3.198  14.976 -2.1563  2.6004  0.4020
 5442SOL    HW227789   0.636   3.268  14.977  0.6502  2.5592 -1.3286
 5443SOL     OW27790   1.738   3.122  13.651 -0.1083 -0.3494 -0.3652
 5443SOL    HW127791   1.655   3.165  13.628 -0.0402  0.3022  0.6039
 5443SOL    HW227792   1.792   3.174  13.591 -1.5190  1.9812  0.3770
 5444SOL     OW27793   1.105   0.255   2.489  0.1695 -0.4804 -0.0799
 5444SOL    HW127794   1.117   0.179   2.433  1.6174 -1.6107  1.7802
 5444SOL    HW227795   1.016   0.242   2.520 -0.4345  0.8644 -1.2592
 5445SOL     OW27796   0.481   3.631   4.892  0.0243  0.0333  0.4960
 5445SOL    HW127797   0.574   3.641   4.911  0.2132  0.7587 -0.7909
 5445SOL    HW227798   0.473   3.687   4.815  1.0524  1.4933  1.4591
 5446SOL     OW27799   1.935   4.561   7.774 -0.0716  0.0220  0.2214
 5446SOL    HW127800   1.930   4.654   7.751 -2.3562 -0.0392  0.4915
 5446SOL    HW227801   1.845   4.540   7.749 -0.5496  3.0249 -0.4682
 5447SOL     OW27802   2.671   1.950   8.357 -0.0051 -0.4104 -0.6112
 5447SOL    HW127803   2.650   1.871   8.409  1.5840  0.1749  0.9063
 5447SOL    HW227804   2.766   1.958   8.358  0.1060 -1.8618  0.9434
 5448SOL     OW27805   0.248   3.240   4.261 -0.1832  0.3332 -0.2652
 5448SOL    HW127806   0.262   3.246   4.356  0.2491 -0.6758 -0.2653
 5448SOL    HW227807   0.260   3.145   4.255 -1.9915  0.2026 -1.7803
 5449SOL     OW27808   3.228   4.124   3.906 -1.0016  0.0238 -0.4608
 5449SOL    HW127809   3.287   4.177   3.960 -2.7419  0.8699  0.5870
 5449SOL    HW227810   3.179   4.191   3.859 -0.3012  0.3111 -0.7879
 5450SOL     OW27811   2.608   0.556  13.911 -0.2506  0.5535 -0.1405
 5450SOL    HW127812   2.672   0.612  13.954  0.9385 -1.0153  0.1476
 5450SOL    HW227813   2.608   0.470  13.953  1.6530  0.1356 -1.0301
 5451SOL     OW27814   0.275   3.469   6.947 -0.1637 -0.3560 -0.4567
 5451SOL    HW127815   0.363   3.506   6.951 -0.1689 -0.3858 -0.0092
 5451SOL    HW227816   0.299   3.400   7.009 -2.3706 -1.1853 -0.5547
 5452SOL     OW27817   4.406   2.862   9.887 -0.1211  0.1956  0.2017
 5452SOL    HW127818   4.356   2.797   9.838  0.9481  0.2010 -0.9142
 5452SOL    HW227819   4.370   2.829   9.970 -2.1861  2.0470  0.0233
 5453SOL     OW27820   4.336   4.075   7.270  0.2200  0.1702 -0.5401
 5453SOL    HW127821   4.389   4.079   7.350 -0.5127 -1.1001  0.0226
 5453SOL    HW227822   4.405   4.074   7.204  1.2323 -0.2381  0.5273
 5454SOL     OW27823   3.724   4.289   8.271  0.3005  0.7839 -0.2330
 5454SOL    HW127824   3.813   4.256   8.283  0.4801  0.9545 -1.0551
 5454SOL    HW227825   3.725   4.375   8.314 -4.2256  0.1264  1.1926
 5455SOL     OW27826   1.351   2.698   4.783  0.1581 -0.1768  0.0341
 5455SOL    HW127827   1.269   2.693   4.832  1.4658  0.2553  2.2410
 5455SOL    HW227828   1.309   2.681   4.698 -1.2552  1.3330  0.4313
 5456SOL     OW27829   4.075   3.021   8.508 -0.1868 -0.3775 -0.1327
 5456SOL    HW127830   4.093   2.998   8.599  0.4901  0.5922 -0.0312
 5456SOL    HW227831   4.164   3.042   8.482 -0.3217 -1.5605 -1.5999
 5457SOL     OW27832   1.421   3.275  15.977 -0.3623  0.1462 -0.0838
 5457SOL    HW127833   1.457   3.364  15.977 -2.1784  0.8720  2.1683
 5457SOL    HW227834   1.457   3.245  16.060 -1.3178  1.2849  0.7317
 5458SOL     OW27835   2.607   2.502   2.008  0.5751  0.3168 -0.0813
 5458SOL    HW127836   2.556   2.435   2.053  1.1294 -2.5743 -3.6878
 5458SOL    HW227837   2.570   2.474   1.924  0.9305  1.0074 -0.4640
 5459SOL     OW27838   2.737   2.717   7.629  0.3340 -0.5248  0.2285
 5459SOL    HW127839   2.700   2.630   7.623  2.0230 -1.2956  0.9076
 5459SOL    HW227840   2.820   2.700   7.584 -0.4181 -0.4012 -1.1994
 5460SOL     OW27841   1.028   2.590  12.428 -0.5323 -0.6243  0.3072
 5460SOL    HW127842   1.047   2.505  12.465 -1.4317  0.2933  2.8297
 5460SOL    HW227843   0.953   2.568  12.372 -0.3181  0.0090 -0.2401
 5461SOL     OW27844   4.195   0.913   6.567 -0.1874  0.1409 -0.0072
 5461SOL    HW127845   4.270   0.902   6.626  0.4595  1.1306 -0.6360
 5461SOL    HW227846   4.204   1.006   6.543  0.6620  0.6109  2.1484
 5462SOL     OW27847   1.565   3.635   6.417  0.3721 -0.5862  0.0349
 5462SOL    HW127848   1.574   3.723   6.454  1.5731 -0.1960 -1.1891
 5462SOL    HW227849   1.654   3.612   6.388 -0.2350  0.5301 -2.6938
 5463SOL     OW27850   0.316   3.893  13.092 -0.3260  0.5990  0.0198
 5463SOL    HW127851   0.221   3.897  13.093 -0.3088  0.2946  1.9364
 5463SOL    HW227852   0.330   3.896  12.997  0.4991  0.1722  0.1285
 5464SOL     OW27853   1.419   0.027   7.727  0.2024 -0.3641  0.0715
 5464SOL    HW127854   1.397   0.113   7.690 -1.0866 -1.6913 -2.2024
 5464SOL    HW227855   1.330   4.724   7.748 -0.6314  1.7679 -0.6627
 5465SOL     OW27856   1.317   4.182   3.919  0.2055  0.0245 -0.3377
 5465SOL    HW127857   1.303   4.165   3.826 -0.0616 -4.9130  0.5805
 5465SOL    HW227858   1.336   4.275   3.916 -2.1521  0.4809 -0.8748
 5466SOL     OW27859   2.783   4.438   0.312 -0.2492  0.3379  0.0620
 5466SOL    HW127860   2.760   4.364   0.368 -0.7408  0.1090 -0.4448
 5466SOL    HW227861   2.777   4.511   0.373  0.5340 -1.3002  2.1009
 5467SOL     OW27862   2.643   4.469   3.496 -0.6305 -0.5017 -0.6407
 5467SOL    HW127863   2.629   4.484   3.403 -0.6080  0.0628 -0.5527
 5467SOL    HW227864   2.734   4.498   3.504 -1.0588  0.2356  1.6824
 5468SOL     OW27865   2.538   3.377   3.260  0.5247 -0.4425 -0.6264
 5468SOL    HW127866   2.481   3.332   3.322 -0.0913  0.2237 -0.7146
 5468SOL    HW227867   2.505   3.351   3.174 -0.0459  0.5852 -0.7160
 5469SOL     OW27868   4.006   3.683   1.305  0.0509  0.5680 -0.0184
 5469SOL    HW127869   4.077   3.654   1.248 -0.7523  0.2285 -0.8433
 5469SOL    HW227870   4.041   3.668   1.393 -0.2921  1.5428  0.2832
 5470SOL     OW27871   4.225   2.227   5.382 -0.7710  0.5701  0.5733
 5470SOL    HW127872   4.213   2.132   5.385 -0.7176  0.6592  3.8955
 5470SOL    HW227873   4.315   2.241   5.412 -0.2497  0.2710 -0.8399
 5471SOL     OW27874   1.772   0.839   2.312 -0.4909 -0.6151  0.0498
 5471SOL    HW127875   1.792   0.933   2.317  0.2515 -0.8647  2.0494
 5471SOL    HW227876   1.858   0.808   2.285 -0.6951 -0.5473 -0.6784
 5472SOL     OW27877   0.601   3.642  15.496  0.3616  0.0193 -0.7278
 5472SOL    HW127878   0.671   3.590  15.457  0.6170 -0.2232  0.0499
 5472SOL    HW227879   0.596   3.708  15.427  0.5145  0.9666  0.1656
 5473SOL     OW27880   3.218   3.076   5.679 -0.2034  0.1955 -0.1212
 5473SOL    HW127881   3.211   3.162   5.721  0.2612  0.5685 -0.8222
 5473SOL    HW227882   3.308   3.089   5.649 -0.2877  0.5913 -0.2018
 5474SOL     OW27883   1.842   3.478   4.970  0.0697 -0.2527 -0.2945
 5474SOL    HW127884   1.855   3.486   5.064  0.4163  0.1963 -0.3793
 5474SOL    HW227885   1.779   3.406   4.969  0.2281 -0.4136  1.1830
 5475SOL     OW27886   4.103   3.311   7.737  0.2853  0.3509 -0.1709
 5475SOL    HW127887   4.093   3.261   7.818 -2.8901 -0.4972 -1.0559
 5475SOL    HW227888   4.068   3.245   7.676  0.4177  0.6030 -0.5200
 5476SOL     OW27889   1.306   3.927   7.561 -0.7021  0.3353 -0.0851
 5476SOL    HW127890   1.324   3.908   7.653 -1.0388 -1.1214 -0.3128
 5476SOL    HW227891   1.226   3.877   7.543 -1.2456  1.0098  0.4731
 5477SOL     OW27892   0.713   4.572   6.203 -0.2358  0.5070 -0.2384
 5477SOL    HW127893   0.684   4.660   6.180  3.5049  2.2094  1.5266
 5477SOL    HW227894   0.738   4.598   6.292 -3.2156 -0.4612  0.8720
 5478SOL     OW27895   1.795   1.547   2.468  0.2866  0.0613 -0.1383
 5478SOL    HW127896   1.710   1.502   2.468  1.0232 -1.3376  1.7774
 5478SOL    HW227897   1.782   1.590   2.384  0.8969 -1.1999 -0.8714
 5479SOL     OW27898   3.545   1.867   6.157  0.4090  0.2112  0.6352
 5479SOL    HW127899   3.559   1.901   6.246 -1.6540  1.4550  0.4923
 5479SOL    HW227900   3.545   1.772   6.173  0.8166  0.4264  1.9954
 5480SOL     OW27901   1.639   4.005   2.897  0.3298  0.0396 -0.3621
 5480SOL    HW127902   1.655   4.060   2.820 -0.9623 -0.6795 -1.1468
 5480SOL    HW227903   1.544   4.007   2.885  0.4712 -0.3755 -1.5225
 5481SOL     OW27904   0.176   3.644   8.509 -0.0957  0.0453 -0.3962
 5481SOL    HW127905   0.231   3.568   8.489 -1.9037 -1.1184 -0.9210
 5481SOL    HW227906   0.148   3.632   8.600 -0.3183  1.5970 -0.2678
 5482SOL     OW27907   2.182   3.200   3.696 -0.1743 -0.1526 -0.1631
 5482SOL    HW127908   2.099   3.242   3.720  0.0249 -0.2227  0.6483
 5482SOL    HW227909   2.191   3.128   3.759  1.6739 -0.8046 -1.1695
 5483SOL     OW27910   0.394   4.430  11.164  0.0833  0.3442  0.0584
 5483SOL    HW127911   0.343   4.460  11.089 -0.8048  0.4888  0.7191
 5483SOL    HW227912   0.470   4.487  11.174  0.1467  0.6602 -2.2011
 5484SOL     OW27913   1.812   1.200   6.027 -0.5348  0.3109  0.7890
 5484SOL    HW127914   1.896   1.154   6.024 -0.8807 -0.2539 -0.3187
 5484SOL    HW227915   1.747   1.137   6.059  1.1806 -1.8464  0.0084
 5485SOL     OW27916   1.760   2.608   3.507 -0.3897  0.0932  0.5064
 5485SOL    HW127917   1.788   2.621   3.416  3.3684  1.0031  1.8009
 5485SOL    HW227918   1.674   2.569   3.494  0.9183 -2.7695  0.4175
 5486SOL     OW27919   1.585   0.010  16.369  0.2322  0.5947  0.8437
 5486SOL    HW127920   1.648   0.042  16.434  0.5049 -0.4660  1.1154
 5486SOL    HW227921   1.516   0.075  16.359 -0.1369 -0.1056 -0.9823
 5487SOL     OW27922   1.408   4.330   0.510  0.3921  0.3596 -0.0630
 5487SOL    HW127923   1.361   4.296   0.586  1.4669  1.1296  0.9359
 5487SOL    HW227924   1.464   4.258   0.479 -2.1128 -1.0797 -1.2090
 5488SOL     OW27925   3.904   1.130   0.023  0.4654  0.1704  0.1105
 5488SOL    HW127926   3.935   1.167  17.638  0.2929  0.8763  0.3557
 5488SOL    HW227927   3.936   1.040   0.023 -1.0722 -0.3799  0.4301
 5489SOL     OW27928   1.257   4.016   8.776  0.1850  0.2974  0.3660
 5489SOL    HW127929   1.194   4.085   8.792 -0.8868 -0.5062 -0.3844
 5489SOL    HW227930   1.340   4.055   8.803  0.1551  0.8372 -0.3240
 5490SOL     OW27931   2.928   3.724   5.720  0.1287 -0.4925  0.3638
 5490SOL    HW127932   3.024   3.727   5.711  0.3225 -0.8311  2.3396
 5490SOL    HW227933   2.912   3.708   5.813 -1.0147  0.4702  0.3215
 5491SOL     OW27934   2.518   1.228   7.564 -0.0626  0.5704  0.0156
 5491SOL    HW127935   2.478   1.261   7.645  0.2582  0.8672  0.0556
 5491SOL    HW227936   2.450   1.175   7.523  0.7376 -0.8790  0.5678
 5492SOL     OW27937   2.680   1.248   2.347  0.4285  0.1748  0.1891
 5492SOL    HW127938   2.699   1.341   2.362 -0.1420  0.3287 -0.0345
 5492SOL    HW227939   2.758   1.215   2.303 -0.6353 -1.5517 -0.4111
 5493SOL     OW27940   0.614   1.767   5.042  0.3399  0.2981 -0.6035
 5493SOL    HW127941   0.525   1.793   5.066  0.7194  1.2775 -0.2864
 5493SOL    HW227942   0.637   1.834   4.978  1.3308  0.1364 -0.4198
 5494SOL     OW27943   0.053   2.911  13.448  0.2705  0.4385 -0.5671
 5494SOL    HW127944   0.130   2.924  13.394 -0.0432 -0.1867 -1.1702
 5494SOL    HW227945   4.717   2.977  13.413 -1.6464  0.0167  1.9179
 5495SOL     OW27946   3.413   2.704   1.313 -0.0498 -0.3299 -0.0554
 5495SOL    HW127947   3.356   2.645   1.362  0.7898 -0.8132  0.3267
 5495SOL    HW227948   3.492   2.657   1.287 -2.4031 -3.9161 -0.7608
 5496SOL     OW27949   0.089   3.856   3.417  0.1733 -0.2844  0.1676
 5496SOL    HW127950   0.024   3.799   3.375 -0.9995  1.0150  0.2486
 5496SOL    HW227951   0.030   3.916   3.462  0.3791 -0.6058  0.8669
 5497SOL     OW27952   2.117   3.485   4.132  0.4105 -0.3145 -0.0750
 5497SOL    HW127953   2.189   3.532   4.173 -1.3695  2.5858 -0.2298
 5497SOL    HW227954   2.159   3.454   4.052 -3.0812 -0.2728 -1.9394
 5498SOL     OW27955   0.727   0.223   7.397 -0.1675 -0.0554  0.7893
 5498SOL    HW127956   0.695   0.179   7.476 -1.0896  2.2692  1.6914
 5498SOL    HW227957   0.655   0.212   7.335  0.1829  1.6846  0.0821
 5499SOL     OW27958   4.211   0.985   7.746  0.2111  0.1137 -0.2044
 5499SOL    HW127959   4.256   1.045   7.685  1.7747 -0.3418  0.4936
 5499SOL    HW227960   4.268   0.908   7.743 -0.5304 -0.4841  1.2058
 5500SOL     OW27961   2.464   2.540   2.795  0.0086 -0.0972 -0.5649
 5500SOL    HW127962   2.544   2.580   2.828 -0.6641 -1.0134  2.1073
 5500SOL    HW227963   2.498   2.461   2.753  2.0199  0.4005  0.1496
 5501SOL     OW27964   3.460   3.413   9.155 -0.0554 -0.4660 -0.4153
 5501SOL    HW127965   3.486   3.436   9.244  1.0778 -0.8158 -0.6553
 5501SOL    HW227966   3.375   3.374   9.175  0.5762 -1.3613  0.4550
 5502SOL     OW27967   0.837   3.217   3.367  0.5015 -0.2886  0.2738
 5502SOL    HW127968   0.896   3.144   3.350 -2.7108 -2.6447 -0.8204
 5502SOL    HW227969   0.819   3.242   3.276 -1.8149 -1.0310  0.5183
 5503SOL     OW27970   1.454   2.609   2.712  0.2586 -0.6784  0.3764
 5503SOL    HW127971   1.394   2.649   2.649 -1.5636 -0.0099  2.5343
 5503SOL    HW227972   1.524   2.585   2.651  0.5930  0.3311  0.3740
 5504SOL     OW27973   2.254   1.757   7.088  0.4898  0.0234 -0.5748
 5504SOL    HW127974   2.160   1.754   7.101  0.6722  0.8405  0.9260
 5504SOL    HW227975   2.276   1.681   7.034  1.5404 -0.7981  1.0126
 5505SOL     OW27976   3.143   4.231   3.658 -0.4594 -0.2811 -0.2352
 5505SOL    HW127977   3.187   4.197   3.580  0.6794 -0.3875  0.4647
 5505SOL    HW227978   3.083   4.289   3.609 -0.8374  0.3167  0.9384
 5506SOL     OW27979   1.024   3.522   7.088  0.9906 -0.1141  0.2869
 5506SOL    HW127980   0.977   3.442   7.113  0.6760 -0.0821 -0.2180
 5506SOL    HW227981   1.099   3.478   7.049  0.9321  0.6423 -0.6650
 5507SOL     OW27982   3.787   2.466   9.000  0.1776 -0.3458  0.1460
 5507SOL    HW127983   3.766   2.447   9.092 -1.1007 -0.5446 -0.1861
 5507SOL    HW227984   3.863   2.524   9.003  1.9351 -2.7484  1.9028
 5508SOL     OW27985   1.165   4.639   7.694 -0.1229  0.2006 -0.0017
 5508SOL    HW127986   1.094   4.598   7.742  0.7571 -0.8786  0.3725
 5508SOL    HW227987   1.200   4.566   7.644  1.3786  0.3217  0.8517
 5509SOL     OW27988   1.506   2.733   6.695 -0.2491 -0.2178  0.6588
 5509SOL    HW127989   1.435   2.669   6.689 -1.0206  0.9450 -2.6250
 5509SOL    HW227990   1.500   2.760   6.787 -1.8186 -2.4758  1.2073
 5510SOL     OW27991   1.618   4.247  10.950 -0.3147  0.6690 -0.4878
 5510SOL    HW127992   1.675   4.245  11.027 -1.9956  0.8621  0.7442
 5510SOL    HW227993   1.678   4.260  10.876 -0.2049  0.2723 -0.4740
 5511SOL     OW27994   1.404   2.222   3.788  0.2571 -0.0645  0.1991
 5511SOL    HW127995   1.474   2.158   3.781  1.0506  0.8019  0.2510
 5511SOL    HW227996   1.346   2.153   3.822 -0.7508  0.7347  0.0942
 5512SOL     OW27997   0.087   0.749  10.928 -0.0987  0.3443 -0.0808
 5512SOL    HW127998   0.073   0.792  11.012  0.5994  0.1320  0.1398
 5512SOL    HW227999   0.118   0.823  10.876  1.3835  0.0436  0.3795
 5513SOL     OW28000   1.751   1.857   5.603 -0.5898  0.4103 -0.2206
 5513SOL    HW128001   1.713   1.776   5.638 -1.5633  1.0762  0.2503
 5513SOL    HW228002   1.711   1.918   5.665  3.2952  1.3451  1.4017
 5514SOL     OW28003   4.512   2.354   8.404 -0.8465  0.3441 -0.6897
 5514SOL    HW128004   4.489   2.326   8.316 -0.8016  1.4848 -1.0553
 5514SOL    HW228005   4.472   2.441   8.403  1.6933  1.5227  1.1374
 5515SOL     OW28006   0.559   0.497   6.655 -0.6178  0.5964  0.2397
 5515SOL    HW128007   0.500   0.434   6.698 -1.3622  1.3270  0.2899
 5515SOL    HW228008   0.555   0.573   6.714 -0.0586  0.5243  0.3688
 5516SOL     OW28009   3.624   2.639   2.743  0.7509  0.4813 -0.1941
 5516SOL    HW128010   3.566   2.609   2.812 -0.4647  2.2001 -0.4883
 5516SOL    HW228011   3.698   2.585   2.771 -0.0742 -0.3880  0.3003
 5517SOL     OW28012   3.353   1.708   5.606  0.9160 -0.2983 -0.5893
 5517SOL    HW128013   3.357   1.628   5.554 -3.3345 -2.0901  1.7815
 5517SOL    HW228014   3.293   1.760   5.553  0.7257  1.1235  1.0061
 5518SOL     OW28015   2.235   4.101   8.693  0.2376  0.1836  0.2040
 5518SOL    HW128016   2.161   4.134   8.744 -0.3235 -1.6491  0.5664
 5518SOL    HW228017   2.198   4.101   8.605 -0.1731 -0.6684  0.3759
 5519SOL     OW28018   3.419   3.466  11.107 -0.0813  0.1886 -0.5348
 5519SOL    HW128019   3.355   3.399  11.083 -1.0736  2.0506 -3.1266
 5519SOL    HW228020   3.452   3.420  11.184  0.9698  1.5997 -0.1455
 5520SOL     OW28021   0.399   2.039   0.357  0.2728 -0.6238  0.3011
 5520SOL    HW128022   0.487   2.003   0.350  0.2164 -0.3968 -1.5705
 5520SOL    HW228023   0.363   1.997   0.435 -0.8285 -0.8790 -0.3377
 5521SOL     OW28024   1.642   0.732   6.622 -0.3863  0.4180 -0.5287
 5521SOL    HW128025   1.665   0.763   6.710 -1.0379 -0.2877 -0.1130
 5521SOL    HW228026   1.614   0.816   6.588 -1.1851  1.2201  2.1020
 5522SOL     OW28027   0.278   3.755   5.991 -0.1574  0.7079  0.2565
 5522SOL    HW128028   0.293   3.729   5.900 -0.5755  2.3415 -0.2676
 5522SOL    HW228029   0.329   3.835   6.004 -0.5798  1.0440 -0.2012
 5523SOL     OW28030   2.505   2.846  15.427 -0.0286  0.0610 -0.2606
 5523SOL    HW128031   2.583   2.805  15.465 -0.0381 -0.0915 -0.4058
 5523SOL    HW228032   2.548   2.878  15.348  2.0723  1.0181  1.2399
 5524SOL     OW28033   3.357   2.959   4.588 -0.5372 -0.2383 -0.1667
 5524SOL    HW128034   3.436   2.904   4.589  1.1093  2.1477  0.1987
 5524SOL    HW228035   3.297   2.901   4.635 -0.4678 -0.3145 -0.1717
 5525SOL     OW28036   1.117   0.844   0.885  0.2831 -0.6748 -0.2287
 5525SOL    HW128037   1.086   0.914   0.943  0.0020 -1.3234  0.4055
 5525SOL    HW228038   1.212   0.853   0.884  0.2420 -0.2694 -0.9892
 5526SOL     OW28039   4.151   4.569  13.831  0.3754  0.4455  0.2377
 5526SOL    HW128040   4.063   4.541  13.855 -0.7420  3.8546  0.0050
 5526SOL    HW228041   4.147   4.660  13.860  0.2021  0.1612  1.1206
 5527SOL     OW28042   1.731   4.488   1.163  0.3900 -0.0958 -0.0671
 5527SOL    HW128043   1.781   4.494   1.244  2.1728  0.3716 -1.2047
 5527SOL    HW228044   1.789   4.436   1.107 -0.5897 -1.2205 -0.0453
 5528SOL     OW28045   2.207   3.834   6.842 -0.6004 -0.4813 -0.4646
 5528SOL    HW128046   2.293   3.794   6.831 -1.2731 -1.5754 -1.7006
 5528SOL    HW228047   2.215   3.847   6.937  0.9816  0.4761 -0.7321
 5529SOL     OW28048   0.482   2.762   2.742  0.0283 -0.0756  0.3414
 5529SOL    HW128049   0.514   2.709   2.815 -0.6719  0.6770  1.2026
 5529SOL    HW228050   0.562   2.787   2.696 -0.5045 -0.4824 -0.8075
 5530SOL     OW28051   1.352   3.434  10.603 -0.2234 -0.5431 -0.4925
 5530SOL    HW128052   1.404   3.390  10.670  0.3777  1.5218  0.4078
 5530SOL    HW228053   1.394   3.393  10.527 -1.9014 -3.5814  0.2315
 5531SOL     OW28054   0.741   0.365  12.581  0.2937 -0.7717 -0.5429
 5531SOL    HW128055   0.772   0.446  12.621 -2.4707  1.2467 -2.5378
 5531SOL    HW228056   0.819   0.335  12.533 -0.3168 -1.6580 -0.9884
 5532SOL     OW28057   3.449   3.807   6.880 -0.3521  0.4784  0.7218
 5532SOL    HW128058   3.362   3.780   6.849 -0.0067 -0.1914  0.3447
 5532SOL    HW228059   3.412   3.846   6.959 -2.0728 -1.2355  0.7725
 5533SOL     OW28060   3.644   1.006  16.047  0.1004 -0.0678  0.1640
 5533SOL    HW128061   3.554   0.993  16.078  0.0552  1.0831  0.4929
 5533SOL    HW228062   3.643   1.101  16.035  0.8052 -0.2169 -1.0928
 5534SOL     OW28063   2.329   3.536  16.665 -0.2654 -0.4109  0.0488
 5534SOL    HW128064   2.333   3.630  16.645  1.3330 -0.3263  0.7211
 5534SOL    HW228065   2.242   3.522  16.702 -0.2209 -3.0456 -0.8374
 5535SOL     OW28066   1.652   2.399   6.244 -0.0247 -0.7689 -0.2783
 5535SOL    HW128067   1.744   2.379   6.225 -0.1107 -0.9218 -0.5234
 5535SOL    HW228068   1.663   2.414   6.338 -0.0082 -0.8196 -0.2722
 5536SOL     OW28069   1.046   0.860   8.396  0.6428  0.1824 -0.1683
 5536SOL    HW128070   1.001   0.797   8.340 -1.6632  0.0960  1.8054
 5536SOL    HW228071   0.997   0.836   8.474 -0.4487  1.9363 -0.3219
 5537SOL     OW28072   3.617   1.812   5.597 -0.1968 -0.4340  0.0206
 5537SOL    HW128073   3.526   1.786   5.612 -0.5451  1.3796  1.0766
 5537SOL    HW228074   3.636   1.813   5.503 -0.8253  0.0795 -0.1030
 5538SOL     OW28075   2.517   1.276   5.557  0.5865 -0.2274 -0.6554
 5538SOL    HW128076   2.476   1.354   5.519  0.4564 -0.6202 -1.3308
 5538SOL    HW228077   2.576   1.318   5.620  0.6799  0.6640 -1.3455
 5539SOL     OW28078   1.466   3.635  11.160  0.5333 -0.6273 -0.3057
 5539SOL    HW128079   1.495   3.601  11.075  0.7251 -0.2954 -0.3763
 5539SOL    HW228080   1.373   3.642  11.139  0.1323 -2.8355  0.7781
 5540SOL     OW28081   1.306   0.971   6.065  0.2773 -0.5737 -0.6669
 5540SOL    HW128082   1.340   1.036   6.126 -1.7551 -0.5480  0.4528
 5540SOL    HW228083   1.225   0.940   6.107  0.2135 -0.0090 -0.3810
 5541SOL     OW28084   4.310   0.104   4.547 -0.1170  0.5400 -0.0925
 5541SOL    HW128085   4.258   0.035   4.588 -0.7069  0.9924 -0.0884
 5541SOL    HW228086   4.239   0.166   4.533  0.3281  0.9886 -0.3508
 5542SOL     OW28087   4.618   0.746  17.334  0.6603  0.0980  0.5549
 5542SOL    HW128088   4.568   0.667  17.353 -0.1348  1.4383  3.9500
 5542SOL    HW228089   4.701   0.704  17.310 -0.7620 -2.8544  0.7718
 5543SOL     OW28090   3.970   3.961   4.654  0.0211  0.2167 -0.3043
 5543SOL    HW128091   3.902   3.989   4.715  1.1080  0.5272  0.7657
 5543SOL    HW228092   4.046   4.014   4.680 -0.0125  1.1866 -2.1595
 5544SOL     OW28093   0.940   1.618   4.919  0.2331  0.0022 -0.0825
 5544SOL    HW128094   0.864   1.573   4.956  0.0168 -0.5755 -1.2165
 5544SOL    HW228095   1.006   1.601   4.986 -1.1372 -0.0573  1.2567
 5545SOL     OW28096   4.343   2.075   7.837 -0.0611 -0.3019  0.1901
 5545SOL    HW128097   4.346   2.145   7.902  1.6327  2.2681 -2.6853
 5545SOL    HW228098   4.281   2.100   7.768  1.3109 -1.1570 -1.3647
 5546SOL     OW28099   3.770   4.515   0.194  0.4649  0.0446 -0.0047
 5546SOL    HW128100   3.764   4.601   0.236  0.2217  0.3650 -0.6950
 5546SOL    HW228101   3.680   4.487   0.183 -0.0620  0.7222  2.6288
 5547SOL     OW28102   0.979   0.165  13.525 -0.0643  0.1351  0.0673
 5547SOL    HW128103   0.910   0.142  13.462 -0.0430 -2.0979  0.8496
 5547SOL    HW228104   0.947   0.249  13.558  1.6487  0.9944 -0.4603
 5548SOL     OW28105   1.791   0.541   4.911 -0.1649 -0.3158  0.2960
 5548SOL    HW128106   1.742   0.495   4.843  0.5923 -3.2594  1.7293
 5548SOL    HW228107   1.785   0.630   4.877  1.9410 -0.7944 -1.3768
 5549SOL     OW28108   2.790   2.715   7.981  0.3986 -0.6258 -0.0642
 5549SOL    HW128109   2.801   2.627   7.946  1.3729  0.3901 -2.3073
 5549SOL    HW228110   2.780   2.691   8.073 -1.4095  1.3737  0.2700
 5550SOL     OW28111   0.578   3.100   3.437 -0.0521  0.4211  0.1311
 5550SOL    HW128112   0.581   3.174   3.376  0.6028 -1.1450 -1.6990
 5550SOL    HW228113   0.672   3.101   3.458 -0.5017  1.8278  2.1027
 5551SOL     OW28114   0.996   3.602   7.877  0.1013 -0.2335 -0.3892
 5551SOL    HW128115   0.989   3.631   7.967 -1.7002 -2.2239  0.1063
 5551SOL    HW228116   0.916   3.643   7.845  1.1986  3.2031  1.3335
 5552SOL     OW28117   1.364   3.453   8.238 -0.3604  0.0453 -0.1535
 5552SOL    HW128118   1.441   3.405   8.270 -1.4980 -1.3090  0.5069
 5552SOL    HW228119   1.364   3.523   8.302  1.8591  0.2133 -0.3172
 5553SOL     OW28120   2.775   3.956  13.719  0.1613  0.1983  0.1642
 5553SOL    HW128121   2.687   3.974  13.752 -0.2908  0.0747 -0.9689
 5553SOL    HW228122   2.798   3.885  13.778  3.2392  2.6390  1.8670
 5554SOL     OW28123   4.033   4.114   2.247  0.0274 -0.3237 -0.1632
 5554SOL    HW128124   3.974   4.066   2.306  0.0269 -1.4826 -1.1105
 5554SOL    HW228125   3.995   4.117   2.160  0.6275 -0.3167 -0.4283
 5555SOL     OW28126   4.436   0.866   9.559  0.1852  0.3353 -0.3650
 5555SOL    HW128127   4.506   0.844   9.620 -1.1172 -1.7825  0.3671
 5555SOL    HW228128   4.486   0.899   9.485 -0.7313  0.9325 -0.7239
 5556SOL     OW28129   1.965   0.773  12.713 -0.0019  0.1984  0.2655
 5556SOL    HW128130   1.934   0.685  12.733 -1.1486  0.3206 -0.9928
 5556SOL    HW228131   2.059   0.754  12.704 -0.0093  0.2700  0.0323
 5557SOL     OW28132   0.840   2.997   7.132 -0.0691 -0.0362 -0.1275
 5557SOL    HW128133   0.812   2.974   7.220 -4.1728 -1.1628 -1.7259
 5557SOL    HW228134   0.767   2.957   7.085  1.9205 -1.9640 -1.5637
 5558SOL     OW28135   4.671   2.566   4.012 -0.2279  0.0064 -0.2034
 5558SOL    HW128136   4.589   2.577   3.964 -0.6630  0.7699  0.7113
 5558SOL    HW228137   4.667   2.647   4.064  0.9928 -0.2058  0.2094
 5559SOL     OW28138   1.379   0.309   3.792 -0.4080 -0.0025  0.3234
 5559SOL    HW128139   1.335   0.368   3.731  0.2102  0.8853  0.7425
 5559SOL    HW228140   1.310   0.250   3.822 -1.7763  0.5466 -1.7331
 5560SOL     OW28141   4.620   3.340   8.686 -0.2261 -0.5159  0.0183
 5560SOL    HW128142   4.700   3.304   8.648 -0.4544  0.6667 -1.5639
 5560SOL    HW228143   4.648   3.371   8.773  2.8390 -0.1340 -1.1094
 5561SOL     OW28144   3.385   0.235   6.452  0.3072  0.0690  0.0681
 5561SOL    HW128145   3.414   0.306   6.395 -2.5917 -1.1866 -2.9665
 5561SOL    HW228146   3.469   0.200   6.484  1.3521 -0.4330 -3.1874
 5562SOL     OW28147   0.097   1.648   4.305 -0.1180 -0.0709  0.7108
 5562SOL    HW128148   0.113   1.739   4.330 -0.5366  0.7595 -2.1297
 5562SOL    HW228149   0.094   1.596   4.385 -0.4156 -1.4058 -0.1707
 5563SOL     OW28150   3.223   4.511  16.734 -0.1468  0.0899  0.6066
 5563SOL    HW128151   3.216   4.438  16.673 -1.5106 -0.5160  1.4980
 5563SOL    HW228152   3.206   4.584  16.674 -1.1343 -0.3842  0.3104
 5564SOL     OW28153   1.473   0.658   4.292  0.1928 -0.3630  0.7418
 5564SOL    HW128154   1.428   0.577   4.317 -1.9955  0.0723 -1.7975
 5564SOL    HW228155   1.417   0.720   4.340  0.4911 -0.7760  1.6276
 5565SOL     OW28156   3.755   2.454  12.425 -0.0877 -0.0654 -0.0437
 5565SOL    HW128157   3.703   2.511  12.368 -2.1767 -0.5004  1.4398
 5565SOL    HW228158   3.696   2.387  12.458 -0.2832  0.3292  0.4003
 5566SOL     OW28159   2.670   3.321   9.090 -0.1872 -0.0383  0.1165
 5566SOL    HW128160   2.688   3.258   9.020  2.2824  0.5384  0.2348
 5566SOL    HW228161   2.622   3.258   9.144 -1.6410  0.6263 -0.4063
 5567SOL     OW28162   1.329   1.690   5.375 -0.2732 -0.3622  0.2314
 5567SOL    HW128163   1.419   1.721   5.362 -0.1789 -2.0295 -3.2166
 5567SOL    HW228164   1.289   1.772   5.405 -0.8076 -0.8382  0.8007
 5568SOL     OW28165   3.486   2.978   1.698  0.7091 -0.2316 -0.3028
 5568SOL    HW128166   3.540   3.052   1.726 -0.3057  0.3723  0.0565
 5568SOL    HW228167   3.537   2.925   1.638  1.0150 -0.7543  0.4154
 5569SOL     OW28168   1.114   2.377  17.017 -0.1629  0.0919  0.0185
 5569SOL    HW128169   1.181   2.339  16.960 -2.5320  0.3753 -2.9145
 5569SOL    HW228170   1.060   2.421  16.951 -0.6165 -0.2740  0.1535
 5570SOL     OW28171   2.669   4.656  13.854 -0.0881 -0.0487 -0.7975
 5570SOL    HW128172   2.575   4.673  13.854  0.3097  2.1750  0.4582
 5570SOL    HW228173   2.684   4.610  13.772 -0.3364 -3.4369  1.0761
 5571SOL     OW28174   3.756   4.226   5.301 -0.0562 -0.0198  0.0485
 5571SOL    HW128175   3.749   4.320   5.287  0.6819  0.1995  1.2415
 5571SOL    HW228176   3.824   4.219   5.367 -1.0845  1.0555  1.2233
 5572SOL     OW28177   1.535   2.064   5.326  0.6965  0.0937 -0.1418
 5572SOL    HW128178   1.474   2.074   5.253  0.6945 -0.1593 -0.1739
 5572SOL    HW228179   1.485   2.060   5.407 -0.9727  0.9824 -1.1406
 5573SOL     OW28180   3.703   2.627   5.502  0.0009 -0.0129  0.1458
 5573SOL    HW128181   3.756   2.595   5.428  0.0658  0.8062 -0.1584
 5573SOL    HW228182   3.641   2.688   5.462 -1.3594 -1.4278  0.0950
 5574SOL     OW28183   1.046   1.902  13.127  0.0179 -0.0792  0.0728
 5574SOL    HW128184   1.002   1.817  13.133 -1.5029  0.5863 -1.4756
 5574SOL    HW228185   1.090   1.899  13.212  0.8005  3.6742 -0.2103
 5575SOL     OW28186   4.510   2.163   7.012 -0.1162  0.0131 -0.4756
 5575SOL    HW128187   4.454   2.235   6.985  0.6063  0.7375 -0.0212
 5575SOL    HW228188   4.444   2.093   7.005  0.3912 -0.7828  2.3751
 5576SOL     OW28189   1.505   4.038   4.087  0.0248 -0.2058  0.1682
 5576SOL    HW128190   1.444   4.068   4.020 -0.7642 -2.4753 -0.1378
 5576SOL    HW228191   1.497   3.945   4.067  0.9607 -0.9453  3.1671
 5577SOL     OW28192   3.912   2.778   2.738  0.1604  0.7575  0.4340
 5577SOL    HW128193   3.998   2.813   2.764  1.4019 -2.4181  0.5938
 5577SOL    HW228194   3.916   2.686   2.763 -0.8909  0.4521 -0.5632
 5578SOL     OW28195   4.292   1.405   6.988  0.7800 -0.3765 -0.1033
 5578SOL    HW128196   4.217   1.451   6.951  0.6187 -0.5626 -0.0073
 5578SOL    HW228197   4.274   1.316   6.958  1.3553  0.4885 -3.0014
 5579SOL     OW28198   0.655   0.479  16.816 -0.0531  0.0080  0.1641
 5579SOL    HW128199   0.639   0.385  16.818 -0.4273  0.0121 -1.6473
 5579SOL    HW228200   0.671   0.499  16.908  0.9675  0.6321 -0.1596
 5580SOL     OW28201   3.085   0.368   2.566  0.5434 -0.3890  0.0173
 5580SOL    HW128202   3.141   0.427   2.616  0.1086  0.5941 -0.6563
 5580SOL    HW228203   2.997   0.396   2.589  1.2195  0.8752  1.0279
 5581SOL     OW28204   4.668   0.561   7.943 -0.0420  0.6986 -0.9052
 5581SOL    HW128205   0.004   0.496   7.979  0.7135  1.9281  0.0851
 5581SOL    HW228206   4.660   0.519   7.857  2.2637  1.3702 -1.4419
 5582SOL     OW28207   3.956   1.475   6.519 -0.2408 -0.2224  0.2235
 5582SOL    HW128208   3.927   1.405   6.578  0.9248 -1.9049 -1.1941
 5582SOL    HW228209   4.042   1.445   6.491 -1.7598 -3.0387 -1.4997
 5583SOL     OW28210   1.697   4.554   8.760 -0.5154  0.4429  0.8757
 5583SOL    HW128211   1.714   4.628   8.701  0.6667 -1.0313 -0.6463
 5583SOL    HW228212   1.631   4.588   8.820 -0.1310  2.4841  0.1292
 5584SOL     OW28213   4.380   3.504  11.397 -0.1974  0.1325  0.2423
 5584SOL    HW128214   4.364   3.582  11.451 -3.6173 -0.8105  0.6006
 5584SOL    HW228215   4.363   3.439  11.466 -1.7581  0.8302  0.5315
 5585SOL     OW28216   4.219   4.602   8.484  0.1783  0.0101  0.9254
 5585SOL    HW128217   4.216   4.698   8.492 -1.4560 -0.1638  2.2319
 5585SOL    HW228218   4.209   4.579   8.576  2.4334 -0.5739  1.0315
 5586SOL     OW28219   0.771   2.149   5.817 -0.0029 -0.3828 -0.7028
 5586SOL    HW128220   0.859   2.173   5.846  0.9515 -1.9034 -2.2774
 5586SOL    HW228221   0.766   2.071   5.874 -0.8376 -0.4366 -0.8493
 5587SOL     OW28222   3.004   3.202   4.884 -0.2108 -0.1942  0.1324
 5587SOL    HW128223   2.949   3.268   4.842 -0.6114 -0.4900  0.1955
 5587SOL    HW228224   3.039   3.252   4.958  0.8708 -2.2596  0.9935
 5588SOL     OW28225   0.431   1.989   8.511 -0.2825 -0.6759 -0.4125
 5588SOL    HW128226   0.439   1.910   8.564  2.4267  0.3289  0.6689
 5588SOL    HW228227   0.478   2.053   8.565  1.2843 -0.1039 -2.4788
 5589SOL     OW28228   2.770   1.489   6.353 -0.0039  0.2543 -0.3771
 5589SOL    HW128229   2.809   1.456   6.272  2.9324 -1.8343  1.8871
 5589SOL    HW228230   2.784   1.415   6.413  0.4187 -0.2795 -1.1490
 5590SOL     OW28231   2.804   2.355   6.632  0.3372  0.2812 -0.6996
 5590SOL    HW128232   2.856   2.435   6.639  2.0890 -0.8219 -1.1075
 5590SOL    HW228233   2.720   2.379   6.672  0.6743  1.9594 -1.0084
 5591SOL     OW28234   4.367   0.241   4.179 -0.2322 -0.0512 -0.2862
 5591SOL    HW128235   4.406   0.255   4.092 -3.3482 -2.9804 -2.1069
 5591SOL    HW228236   4.304   0.172   4.160 -0.0688 -0.0530 -0.8299
 5592SOL     OW28237   1.893   2.679   2.512 -0.1544  0.3842 -0.1706
 5592SOL    HW128238   1.853   2.619   2.574 -1.9573  0.3786 -1.3257
 5592SOL    HW228239   1.966   2.699   2.570 -0.5101 -1.8537  1.0383
 5593SOL     OW28240   3.782   4.588   5.758 -0.4998 -0.0489 -0.3120
 5593SOL    HW128241   3.768   4.676   5.724  1.0585 -0.8441 -3.0066
 5593SOL    HW228242   3.717   4.586   5.828  0.4083  2.0212  0.5965
 5594SOL     OW28243   0.189   3.610   5.757 -0.0283 -0.2604 -0.7456
 5594SOL    HW128244   0.188   3.536   5.819  0.3669  0.7163  0.4311
 5594SOL    HW228245   0.258   3.583   5.696  1.6103 -0.0716  1.0180
 5595SOL     OW28246   2.004   1.808   8.878 -0.4358  0.7804  0.4033
 5595SOL    HW128247   2.082   1.859   8.900  1.0094 -1.8294  1.3172
 5595SOL    HW228248   2.020   1.769   8.792 -0.1056  0.4606  0.6086
 5596SOL     OW28249   3.348   4.451   6.525  0.2459  0.2373 -0.0305
 5596SOL    HW128250   3.407   4.481   6.595  1.8513  2.2578 -2.2294
 5596SOL    HW228251   3.400   4.378   6.490  0.2157 -0.4874  1.4190
 5597SOL     OW28252   0.731   4.242   4.678  0.6356 -0.3270 -0.5406
 5597SOL    HW128253   0.768   4.312   4.732  1.3630  0.4658 -2.0622
 5597SOL    HW228254   0.779   4.172   4.722 -1.5743 -1.0995  0.6040
 5598SOL     OW28255   3.164   4.016   4.648  0.0373  0.0591 -0.9052
 5598SOL    HW128256   3.091   4.065   4.684 -0.1553 -0.2199 -0.9124
 5598SOL    HW228257   3.227   4.030   4.718  0.3657 -1.6994 -0.8341
 5599SOL     OW28258   3.658   4.103   5.037  0.9301  0.1790 -0.3618
 5599SOL    HW128259   3.687   4.126   5.125  1.2756 -0.4413 -0.3102
 5599SOL    HW228260   3.567   4.078   5.053  1.0270 -0.3526 -0.6279
 5600SOL     OW28261   2.690   2.649   7.268  0.4834  0.8214 -0.0808
 5600SOL    HW128262   2.697   2.726   7.212  1.7694  0.6851 -0.0993
 5600SOL    HW228263   2.597   2.633   7.253  0.6501 -0.7404  0.5736
 5601SOL     OW28264   1.865   0.116  17.659  0.3321 -0.4011  0.2399
 5601SOL    HW128265   1.816   0.182  17.611  1.9863 -1.0187 -2.2630
 5601SOL    HW228266   1.908   0.081  17.581 -0.3154  0.7108 -0.6085
 5602SOL     OW28267   0.765   2.247   8.379  0.3126 -0.0887 -0.0660
 5602SOL    HW128268   0.856   2.278   8.373 -0.1995  1.8425  2.1744
 5602SOL    HW228269   0.771   2.195   8.299  1.3178 -1.2968  0.7966
 5603SOL     OW28270   1.921   3.438   9.014  0.0038 -0.3416  0.3323
 5603SOL    HW128271   1.982   3.380   8.968  2.4402  1.1768  1.6040
 5603SOL    HW228272   1.873   3.483   8.945  3.3674 -1.3966 -2.7124
 5604SOL     OW28273   3.063   1.378   3.707 -0.1131  0.1290 -0.2776
 5604SOL    HW128274   3.104   1.314   3.648  0.3839  1.1642 -1.0475
 5604SOL    HW228275   3.000   1.317   3.746  2.3237 -1.6594  0.9153
 5605SOL     OW28276   0.817   0.676   3.975  0.1686  0.2910 -0.4685
 5605SOL    HW128277   0.835   0.583   3.989  0.7811  0.4707 -0.0458
 5605SOL    HW228278   0.785   0.681   3.885 -0.0095 -0.0697 -0.4224
 5606SOL     OW28279   3.044   1.863   8.960 -0.1778 -0.1450 -0.0032
 5606SOL    HW128280   3.016   1.901   9.043 -1.5955  1.1529 -1.0637
 5606SOL    HW228281   3.108   1.798   8.989  1.5006  1.2406 -0.6455
 5607SOL     OW28282   2.739   2.456   5.549 -0.3665  0.0271  0.1662
 5607SOL    HW128283   2.794   2.380   5.566  0.7258  0.7724 -0.0333
 5607SOL    HW228284   2.693   2.467   5.632  1.7178 -1.4557  1.4875
 5608SOL     OW28285   3.949   2.063   4.026  0.1186  0.5291 -0.0559
 5608SOL    HW128286   3.921   2.150   4.052 -1.3027  0.8210 -2.5225
 5608SOL    HW228287   4.032   2.062   4.072 -0.4727 -1.6667  0.9661
 5609SOL     OW28288   4.308   2.582   5.960 -0.6471  0.1584 -0.4576
 5609SOL    HW128289   4.248   2.550   5.893 -0.0254 -2.0742  0.0383
 5609SOL    HW228290   4.309   2.520   6.034 -0.9716  1.0802  0.3195
 5610SOL     OW28291   4.525   0.404   4.906  0.1228 -0.0290 -0.2953
 5610SOL    HW128292   4.537   0.493   4.939  1.3336 -0.4004  0.2516
 5610SOL    HW228293   4.431   0.403   4.884  0.6255  0.5526 -2.4266
 5611SOL     OW28294   2.130   2.426   2.054  0.3362 -0.4578  0.7837
 5611SOL    HW128295   2.204   2.467   2.100  0.3185  0.4389  0.0055
 5611SOL    HW228296   2.181   2.364   2.002  0.4508  0.4748 -0.2164
 5612SOL     OW28297   3.013   1.623   6.843  0.4799  0.4513 -0.6094
 5612SOL    HW128298   3.062   1.599   6.921 -0.0965 -1.6898 -0.9231
 5612SOL    HW228299   2.982   1.542   6.803 -0.9270  0.7832 -0.2062
 5613SOL     OW28300   3.693   4.632   3.268 -0.2897  0.1605 -0.0574
 5613SOL    HW128301   3.777   4.665   3.235 -0.7890  1.0027 -0.4858
 5613SOL    HW228302   3.652   4.595   3.190 -1.0014  0.0711  0.3620
 5614SOL     OW28303   3.725   1.166   0.600  0.1475 -0.3126  0.1555
 5614SOL    HW128304   3.654   1.225   0.624  0.9553  1.2967 -1.4237
 5614SOL    HW228305   3.696   1.122   0.521 -0.0730 -1.4529  0.8718
 5615SOL     OW28306   2.066   4.093   1.560  0.6181 -0.1244 -0.1303
 5615SOL    HW128307   2.086   4.006   1.594  2.1929  0.9490  1.6923
 5615SOL    HW228308   2.047   4.137   1.643  1.5043  0.0318 -0.0117
 5616SOL     OW28309   3.314   4.521  13.040  0.4389 -0.3554 -0.3194
 5616SOL    HW128310   3.263   4.598  13.015 -2.5030 -0.3892  5.5976
 5616SOL    HW228311   3.281   4.498  13.127 -1.2969 -2.4757 -1.5398
 5617SOL     OW28312   2.769   4.148   5.389  0.0913  0.1324 -1.0901
 5617SOL    HW128313   2.784   4.186   5.476  2.5048  2.4143 -2.4861
 5617SOL    HW228314   2.798   4.059   5.404 -3.0802 -0.5221  1.0960
 5618SOL     OW28315   1.901   2.293   2.522  0.3775  0.1460 -0.0748
 5618SOL    HW128316   1.858   2.212   2.550  2.9300 -0.6865  1.3822
 5618SOL    HW228317   1.910   2.265   2.431  0.3699  0.3165 -0.1270
 5619SOL     OW28318   1.668   0.076   2.994 -0.6399 -0.2837 -0.4142
 5619SOL    HW128319   1.734   0.068   2.925 -3.2511 -2.9925 -2.5796
 5619SOL    HW228320   1.593   0.113   2.947  0.4342 -0.3007 -2.1159
 5620SOL     OW28321   3.214   2.221   7.177 -0.4358  0.5885 -0.0808
 5620SOL    HW128322   3.242   2.310   7.156  0.5999  0.3689  0.3966
 5620SOL    HW228323   3.145   2.209   7.112 -0.0673 -1.0241 -0.1843
 5621SOL     OW28324   2.683   2.459  16.681 -0.0674  0.6295 -0.5390
 5621SOL    HW128325   2.755   2.448  16.619  0.5092 -0.8706  0.3941
 5621SOL    HW228326   2.693   2.554  16.691 -2.0223  0.6536  1.2655
 5622SOL     OW28327   3.016   2.690   0.760 -0.3049  1.1498  0.8759
 5622SOL    HW128328   2.947   2.627   0.781 -0.2194  0.0341 -2.2387
 5622SOL    HW228329   3.070   2.675   0.837 -1.2226  0.2921  1.3489
 5623SOL     OW28330   0.180   3.935  12.605 -0.8477 -0.0326 -0.2860
 5623SOL    HW128331   0.157   3.953  12.696 -1.5747  1.0139 -0.6793
 5623SOL    HW228332   0.250   3.872  12.621  0.2952  2.1858  3.5002
 5624SOL     OW28333   3.608   1.489   0.818  0.1805  0.3385 -0.8786
 5624SOL    HW128334   3.619   1.562   0.879 -1.9540  0.1578 -0.2780
 5624SOL    HW228335   3.590   1.415   0.876 -1.2893  2.1741  1.0224
 5625SOL     OW28336   0.001   3.326   7.208  0.1689  0.7987  0.0568
 5625SOL    HW128337   4.649   3.364   7.251  0.3113 -0.6692  1.6002
 5625SOL    HW228338   0.066   3.348   7.274  0.2660 -0.5553  0.4115
 5626SOL     OW28339   4.616   4.148  11.285 -0.5302 -0.5425  0.0167
 5626SOL    HW128340   4.574   4.231  11.263  0.0053 -0.3599 -0.3115
 5626SOL    HW228341   4.575   4.129  11.370 -1.2016  1.4100  0.1254
 5627SOL     OW28342   0.753   0.877  12.701 -0.2395  0.1423  0.1294
 5627SOL    HW128343   0.687   0.904  12.638 -0.2939  0.6498  0.4083
 5627SOL    HW228344   0.711   0.902  12.783 -1.8119  2.5114 -1.4028
 5628SOL     OW28345   3.912   3.799   7.737 -0.2128  0.1428 -0.3133
 5628SOL    HW128346   3.934   3.874   7.793 -0.5355  0.1698 -0.2216
 5628SOL    HW228347   3.930   3.836   7.651  4.3388 -0.0269  0.5585
 5629SOL     OW28348   0.582   4.095   5.925 -0.0349  0.3767  0.1146
 5629SOL    HW128349   0.602   4.017   5.875 -2.3955 -0.2204  0.1265
 5629SOL    HW228350   0.503   4.071   5.973  1.0721  0.4507  1.9778
 5630SOL     OW28351   2.432   0.967   7.413 -0.5088 -0.1140  0.1667
 5630SOL    HW128352   2.431   0.896   7.477  3.0900 -0.3450 -0.0191
 5630SOL    HW228353   2.426   0.908   7.338 -0.4027  1.5424 -1.1479
 5631SOL     OW28354   1.134   3.183  15.499  0.2496 -0.1514  0.1209
 5631SOL    HW128355   1.229   3.177  15.487  0.0915 -0.1081 -1.1551
 5631SOL    HW228356   1.139   3.204  15.592  1.1550 -1.8322  0.4508
 5632SOL     OW28357   3.307   0.556  14.476 -0.2997  0.1631 -0.1180
 5632SOL    HW128358   3.248   0.577  14.403 -0.6469 -0.7172 -0.1010
 5632SOL    HW228359   3.248   0.498  14.525  0.1270 -1.2526 -1.2620
 5633SOL     OW28360   0.006   0.700   0.392  0.5008  0.0509  0.4267
 5633SOL    HW128361   4.702   0.611   0.412 -0.4947  0.0763 -0.8518
 5633SOL    HW228362   0.094   0.699   0.430  0.3541 -1.7779  0.6990
 5634SOL     OW28363   0.526   2.474   7.748  0.4206 -0.2151 -0.2089
 5634SOL    HW128364   0.465   2.547   7.744  0.1664 -0.2844  2.6121
 5634SOL    HW228365   0.514   2.425   7.667  0.9897  2.5670 -1.9866
 5635SOL     OW28366   4.112   1.560   2.698 -1.1273  0.0292 -0.1446
 5635SOL    HW128367   4.065   1.592   2.621 -1.2528  2.7747  1.0951
 5635SOL    HW228368   4.052   1.586   2.767 -0.1006 -0.4999  0.9428
 5636SOL     OW28369   2.550   1.903  14.063 -0.8808 -0.0591  0.4248
 5636SOL    HW128370   2.610   1.970  14.028 -1.2875  0.1921  0.2134
 5636SOL    HW228371   2.615   1.832  14.063  0.4526  1.1756  1.3251
 5637SOL     OW28372   1.243   3.034   6.119  0.1551  0.7648  0.4874
 5637SOL    HW128373   1.323   3.013   6.071  1.2303  3.2400  1.2229
 5637SOL    HW228374   1.260   3.111   6.173  1.9231  0.0529  0.9565
 5638SOL     OW28375   3.088   1.817   3.302 -0.3617 -0.1356  0.2115
 5638SOL    HW128376   3.120   1.743   3.353  0.0445  0.7674  1.2741
 5638SOL    HW228377   2.994   1.819   3.317 -0.8610  1.1685 -3.0082
 5639SOL     OW28378   0.081   1.268  15.301 -0.0501  0.2721 -0.3438
 5639SOL    HW128379   0.153   1.229  15.251 -0.4765 -3.2086  1.7342
 5639SOL    HW228380   0.073   1.217  15.382 -0.4769  2.1633  0.8197
 5640SOL     OW28381   3.718   2.427   7.088  0.4156  0.2621  0.5856
 5640SOL    HW128382   3.684   2.338   7.097  2.5294 -0.4924  1.1359
 5640SOL    HW228383   3.778   2.420   7.162 -0.2928 -2.3155  0.9042
 5641SOL     OW28384   2.194   4.380  16.921  0.6182  0.1632 -0.2546
 5641SOL    HW128385   2.236   4.319  16.982 -0.7063 -0.2521  0.2228
 5641SOL    HW228386   2.121   4.329  16.886 -1.1388  3.1421 -0.8481
 5642SOL     OW28387   2.766   3.396   7.148 -0.0519  0.3188  0.1343
 5642SOL    HW128388   2.692   3.336   7.140 -0.2832  0.4449  1.4287
 5642SOL    HW228389   2.837   3.347   7.106 -1.5927  0.4069 -2.6168
 5643SOL     OW28390   0.311   2.295  10.637  0.6609 -0.3304  0.1928
 5643SOL    HW128391   0.254   2.321  10.565  0.3897  0.5629  0.7255
 5643SOL    HW228392   0.251   2.302  10.711  0.4417  1.1064 -0.1244
 5644SOL     OW28393   3.540   0.291   6.820  0.1589 -0.1795  0.3897
 5644SOL    HW128394   3.524   0.357   6.752 -1.1104  0.1978  1.0596
 5644SOL    HW228395   3.561   0.218   6.761  2.1366  0.1332  0.7037
 5645SOL     OW28396   2.659   0.166   2.785 -0.4965  0.2441 -0.2769
 5645SOL    HW128397   2.676   0.206   2.700 -2.7000 -0.2055 -0.9197
 5645SOL    HW228398   2.632   0.080   2.755 -2.3579  0.5234  0.5701
 5646SOL     OW28399   0.338   1.333   5.479  0.5738  0.5378  0.4136
 5646SOL    HW128400   0.261   1.280   5.499 -0.1006  1.9017  1.3953
 5646SOL    HW228401   0.408   1.271   5.457 -0.0938  0.5570 -1.7384
 5647SOL     OW28402   1.844   0.237   7.105  0.8013 -0.4651  0.4589
 5647SOL    HW128403   1.864   0.224   7.197  1.9509 -1.1052  0.1189
 5647SOL    HW228404   1.804   0.150   7.094  0.6231 -0.2008 -0.9937
 5648SOL     OW28405   2.009   4.389   4.805  0.1196  0.3144  0.6743
 5648SOL    HW128406   2.031   4.388   4.712  1.5227  0.7621  0.9907
 5648SOL    HW228407   2.007   4.483   4.821 -0.3844  1.0398 -3.7715
 5649SOL     OW28408   3.340   1.374   3.306 -0.5201 -0.4203  0.4677
 5649SOL    HW128409   3.302   1.302   3.255 -0.7305  0.6793 -0.9114
 5649SOL    HW228410   3.424   1.388   3.262 -0.3642  2.0447  1.5970
 5650SOL     OW28411   2.933   4.529   3.520 -0.1671  0.0958  0.3450
 5650SOL    HW128412   2.906   4.485   3.601 -1.7062 -2.1576 -1.3888
 5650SOL    HW228413   2.947   4.612   3.566 -1.3237  1.4489 -1.7852
 5651SOL     OW28414   3.641   2.315   9.455  0.6616 -0.2891  0.5077
 5651SOL    HW128415   3.653   2.223   9.481  0.0159 -0.7105 -0.6964
 5651SOL    HW228416   3.639   2.361   9.539 -0.2183 -0.3729  0.5299
 5652SOL     OW28417   2.184   3.743   5.720 -0.2743 -0.4030  0.7580
 5652SOL    HW128418   2.179   3.832   5.687 -0.9421 -0.7932 -0.1704
 5652SOL    HW228419   2.264   3.753   5.772 -1.5588  2.8994  2.0903
 5653SOL     OW28420   2.826   3.631   8.498  0.0757 -0.1456  0.3635
 5653SOL    HW128421   2.731   3.616   8.501 -0.2900  2.2042  0.2584
 5653SOL    HW228422   2.838   3.648   8.592  0.3780 -0.1002  0.3160
 5654SOL     OW28423   0.799   1.753   1.285  0.1243  0.1715 -0.4103
 5654SOL    HW128424   0.755   1.697   1.349  0.7575 -0.4941 -0.5543
 5654SOL    HW228425   0.845   1.817   1.339  1.7725 -0.9963 -0.4204
 5655SOL     OW28426   2.591   0.679   8.684 -0.5503  0.0720 -0.1548
 5655SOL    HW128427   2.555   0.763   8.712  2.3703  1.1275  0.4725
 5655SOL    HW228428   2.662   0.701   8.624 -0.2631 -3.9820 -1.3056
 5656SOL     OW28429   3.939   1.237   7.318 -0.0064  0.2553  0.0652
 5656SOL    HW128430   3.959   1.153   7.277  2.2830 -0.8190  3.3211
 5656SOL    HW228431   3.851   1.256   7.285 -0.4782  0.7330  1.5838
 5657SOL     OW28432   2.066   3.664   2.306 -0.4295 -0.3087  0.3254
 5657SOL    HW128433   2.039   3.652   2.397 -2.1367  2.3453  0.1599
 5657SOL    HW228434   1.995   3.614   2.265  1.3014 -2.8272  0.3641
 5658SOL     OW28435   4.099   3.457   2.693  0.2480  0.0065  0.1207
 5658SOL    HW128436   4.023   3.451   2.635  0.9118  0.8388 -0.8298
 5658SOL    HW228437   4.049   3.458   2.774 -0.7247  0.9061 -0.4920
 5659SOL     OW28438   0.188   2.764  10.272  0.2685 -0.1209  0.2214
 5659SOL    HW128439   0.271   2.804  10.247  0.4459  0.2968  1.4999
 5659SOL    HW228440   0.224   2.684  10.311  1.9679  0.7305  0.3855
 5660SOL     OW28441   4.657   0.718   4.533 -0.8620  0.3994  0.0698
 5660SOL    HW128442   0.000   0.785   4.519 -0.8882  0.5191  0.4947
 5660SOL    HW228443   4.712   0.653   4.576 -0.9199 -0.7154 -1.5718
 5661SOL     OW28444   0.777   2.520  15.627 -0.0445  0.4041  0.0465
 5661SOL    HW128445   0.784   2.611  15.597 -2.9911  0.8868  0.7404
 5661SOL    HW228446   0.849   2.488  15.574  0.5609 -2.8146  2.8104
 5662SOL     OW28447   4.447   3.984  11.120  0.3798  0.6841  0.3915
 5662SOL    HW128448   4.491   3.971  11.036  0.6241 -0.0420  0.6382
 5662SOL    HW228449   4.520   4.011  11.176  0.9527  0.6510 -0.3421
 5663SOL     OW28450   1.777   1.598  12.692  0.0723  0.3210 -0.0055
 5663SOL    HW128451   1.777   1.502  12.688  0.5554  0.5163 -4.3938
 5663SOL    HW228452   1.800   1.624  12.603 -0.9664  1.7148  0.1334
 5664SOL     OW28453   4.017   2.446  10.823  0.6434 -0.2213  0.2782
 5664SOL    HW128454   4.015   2.517  10.886  0.3931  0.5436 -0.5888
 5664SOL    HW228455   4.111   2.433  10.811  0.8852  0.4183  1.5140
 5665SOL     OW28456   3.543   4.162   3.566  0.5578 -0.3698 -0.2226
 5665SOL    HW128457   3.530   4.075   3.528  2.4445  0.3848 -2.6056
 5665SOL    HW228458   3.635   4.153   3.593  1.1669  1.6274 -1.6295
 5666SOL     OW28459   1.493   1.597   3.884  0.0746 -0.7310  0.2469
 5666SOL    HW128460   1.491   1.652   3.806 -0.0335 -1.6017 -0.3506
 5666SOL    HW228461   1.560   1.531   3.869 -0.0859 -0.4515 -1.6152
 5667SOL     OW28462   2.353   1.050  16.410  0.8817  0.3048  0.1669
 5667SOL    HW128463   2.290   1.103  16.458  0.9594  1.4072 -0.9650
 5667SOL    HW228464   2.347   0.971  16.464  2.1241  0.3770  0.4126
 5668SOL     OW28465   0.403   3.401   6.381 -0.0249 -0.0098 -0.4862
 5668SOL    HW128466   0.384   3.307   6.381 -0.3613  0.0541  0.2884
 5668SOL    HW228467   0.313   3.432   6.370 -0.4752 -1.5782 -1.1599
 5669SOL     OW28468   4.470   0.342  10.675  0.1046 -0.2396 -0.0358
 5669SOL    HW128469   4.404   0.395  10.628 -2.0142 -1.3114  1.7211
 5669SOL    HW228470   4.554   0.372  10.640 -0.1980  0.3817 -0.2381
 5670SOL     OW28471   4.595   1.835   2.436  0.0654 -0.0867 -0.2356
 5670SOL    HW128472   4.502   1.814   2.444  0.3951 -1.5244 -0.0929
 5670SOL    HW228473   4.635   1.757   2.475 -0.7746 -0.5196 -0.2426
 5671SOL     OW28474   3.552   1.055  12.113 -0.2389  0.6567 -0.0556
 5671SOL    HW128475   3.647   1.061  12.122 -0.3229 -1.1035  2.2870
 5671SOL    HW228476   3.522   1.136  12.073  0.7359 -0.8316 -3.7441
 5672SOL     OW28477   2.743   2.143   3.552 -0.0873 -0.4654  0.3018
 5672SOL    HW128478   2.755   2.156   3.646  0.3764  1.6304 -0.0540
 5672SOL    HW228479   2.735   2.048   3.554  0.9525 -0.5007  1.9147
 5673SOL     OW28480   4.016   4.030   7.848 -0.2798  0.1104 -0.5497
 5673SOL    HW128481   4.038   4.111   7.894  0.0827  0.3698 -1.1738
 5673SOL    HW228482   4.030   4.063   7.759 -0.3063  0.8230 -0.2892
 5674SOL     OW28483   4.160   4.385   2.860 -0.2334  0.2503 -0.3719
 5674SOL    HW128484   4.166   4.321   2.932 -0.6576  0.8378  0.1841
 5674SOL    HW228485   4.151   4.324   2.787 -0.1898  1.4208 -1.3491
 5675SOL     OW28486   1.468   2.071   8.117  0.0283  0.4716 -0.3401
 5675SOL    HW128487   1.426   2.142   8.164 -0.2261  0.4390 -0.5184
 5675SOL    HW228488   1.454   2.088   8.024 -0.3524  0.4973 -0.2797
 5676SOL     OW28489   3.296   1.358   0.879  0.6813  0.8109 -0.7984
 5676SOL    HW128490   3.276   1.317   0.795 -1.2810  2.4165 -1.1248
 5676SOL    HW228491   3.390   1.343   0.871  0.4680 -0.3449 -1.2191
 5677SOL     OW28492   3.793   1.388   2.759  0.6318 -0.1892  0.4229
 5677SOL    HW128493   3.783   1.426   2.672  0.4302  1.9987  1.4179
 5677SOL    HW228494   3.869   1.439   2.787  0.2497  0.3000  0.5662
 5678SOL     OW28495   0.824   0.130   0.527  0.3277 -0.2001 -0.0819
 5678SOL    HW128496   0.743   0.082   0.544  0.9827 -0.2297  2.9308
 5678SOL    HW228497   0.821   0.116   0.433 -3.4574 -3.1045  0.4920
 5679SOL     OW28498   4.176   4.028  12.988 -0.4505  0.2953  0.6971
 5679SOL    HW128499   4.155   4.082  13.064  2.4209  2.0512  0.2548
 5679SOL    HW228500   4.177   3.938  13.020 -1.9148 -0.1284 -0.4169
 5680SOL     OW28501   0.928   1.057   2.706  0.0773  0.4222 -0.6612
 5680SOL    HW128502   0.964   0.970   2.690  2.7167  1.0897  1.5898
 5680SOL    HW228503   1.008   1.107   2.690 -0.8568  1.1490 -3.1068
 5681SOL     OW28504   2.211   3.409   6.924 -0.1768  0.0659  0.0305
 5681SOL    HW128505   2.154   3.469   6.973  0.7584 -0.3763  1.6341
 5681SOL    HW228506   2.244   3.354   6.995 -1.3800 -1.2011 -0.3934
 5682SOL     OW28507   4.187   1.169   7.955 -0.1113  0.0842 -0.0711
 5682SOL    HW128508   4.213   1.101   7.893 -1.0572 -1.1136  0.8354
 5682SOL    HW228509   4.185   1.134   8.044  0.7181  1.8701  0.6536
 5683SOL     OW28510   1.080   1.510   7.093 -0.2199 -0.2212 -0.0440
 5683SOL    HW128511   1.044   1.501   7.004 -1.2660  0.5123  0.3137
 5683SOL    HW228512   1.116   1.422   7.102  2.4424  1.0323  1.4344
 5684SOL     OW28513   4.231   1.961   5.426  0.2277  0.2025 -0.3484
 5684SOL    HW128514   4.300   1.896   5.434  1.8981  1.7196 -2.5242
 5684SOL    HW228515   4.166   1.893   5.407  0.7789 -0.2465 -0.6362
 5685SOL     OW28516   1.641   0.933   3.164 -0.5059 -0.1951 -0.0175
 5685SOL    HW128517   1.627   0.846   3.200  0.4623 -0.3323  0.0155
 5685SOL    HW228518   1.591   0.936   3.082 -0.1368  2.7202 -0.1547
 5686SOL     OW28519   3.651   4.235   8.895  0.4904  0.2422  0.4185
 5686SOL    HW128520   3.589   4.279   8.953 -0.1638  1.4309 -1.1787
 5686SOL    HW228521   3.614   4.148   8.883  1.8197 -0.1701 -0.6150
 5687SOL     OW28522   1.994   0.678   2.234 -0.5707  0.0273  0.2910
 5687SOL    HW128523   2.003   0.604   2.174 -0.6662  1.1772 -1.1675
 5687SOL    HW228524   2.084   0.703   2.251 -0.6308  1.7609 -1.7971
 5688SOL     OW28525   3.750   0.403   0.909  0.2209  0.0746  0.1725
 5688SOL    HW128526   3.754   0.462   0.984  0.2376  0.8423 -0.4299
 5688SOL    HW228527   3.835   0.359   0.911  0.4507  0.4223 -1.4031
 5689SOL     OW28528   1.279   1.142   4.456 -0.3031 -0.1981 -0.6676
 5689SOL    HW128529   1.191   1.172   4.435  0.4528  2.4229 -0.0459
 5689SOL    HW228530   1.310   1.117   4.369  1.4182  0.6352 -0.3022
 5690SOL     OW28531   4.138   1.341  11.861  0.2232 -0.1613 -0.0875
 5690SOL    HW128532   4.215   1.397  11.855 -0.5569  1.1532  2.1095
 5690SOL    HW228533   4.066   1.403  11.851  0.7074  0.4974  0.4762
 5691SOL     OW28534   4.723   3.351   8.949 -0.6125 -0.5434  0.6461
 5691SOL    HW128535   0.067   3.402   8.994 -1.1415 -1.3068  2.3095
 5691SOL    HW228536   0.032   3.266   8.978  0.1764  0.0208  1.4258
 5692SOL     OW28537   1.684   1.645   5.758  0.1217 -0.5979  0.2983
 5692SOL    HW128538   1.718   1.576   5.814  1.2547  0.2674  0.6857
 5692SOL    HW228539   1.589   1.636   5.765 -0.0148 -0.4991 -1.2785
 5693SOL     OW28540   1.795   1.511   2.167 -0.1826 -0.8324 -0.3171
 5693SOL    HW128541   1.700   1.515   2.176 -0.3781 -0.2500 -2.5201
 5693SOL    HW228542   1.814   1.417   2.175  0.0796 -0.5947  1.8254
 5694SOL     OW28543   2.364   3.134   8.029 -0.1221  0.5374 -0.0343
 5694SOL    HW128544   2.442   3.085   8.005 -1.1225 -1.0953  0.0366
 5694SOL    HW228545   2.299   3.064   8.028 -1.0144  1.3508  1.3517
 5695SOL     OW28546   1.599   0.282  11.573  0.6346  0.0470  0.1747
 5695SOL    HW128547   1.579   0.302  11.481 -0.5848 -1.1488  0.1773
 5695SOL    HW228548   1.665   0.213  11.572 -1.2617 -1.7821  2.2003
 5696SOL     OW28549   3.450   0.436   6.283  0.2324 -0.1982  0.2458
 5696SOL    HW128550   3.434   0.443   6.189  0.3082 -0.3061  0.2245
 5696SOL    HW228551   3.535   0.481   6.291  0.2573 -0.7957  3.4033
 5697SOL     OW28552   3.451   0.364  12.805  0.2929  0.2598 -0.0498
 5697SOL    HW128553   3.421   0.273  12.800  0.5472  0.2405 -1.2409
 5697SOL    HW228554   3.490   0.350  12.719  0.9926 -1.6054  0.5506
 5698SOL     OW28555   3.149   2.409   6.236  0.0134 -0.1475  0.1948
 5698SOL    HW128556   3.062   2.371   6.246  0.2760 -0.7355  0.2327
 5698SOL    HW228557   3.166   2.398   6.142 -0.3039  1.8070 -0.0993
 5699SOL     OW28558   0.449   2.128   3.443  0.1059  0.0663  0.0458
 5699SOL    HW128559   0.431   2.204   3.389  0.3717  0.1917  0.1352
 5699SOL    HW228560   0.531   2.093   3.408 -0.4682  2.3361 -3.5147
 5700SOL     OW28561   0.470   2.874   8.213  0.0469 -0.2878  0.6722
 5700SOL    HW128562   0.518   2.893   8.293  1.8462  0.7440 -0.6416
 5700SOL    HW228563   0.459   2.779   8.209  0.3183 -0.3295  0.9543
 5701SOL     OW28564   0.478   3.345   5.840 -0.6850 -0.4483 -0.6273
 5701SOL    HW128565   0.540   3.272   5.831  0.5619  0.7644 -1.7627
 5701SOL    HW228566   0.529   3.426   5.832 -2.0731  0.5885  0.9868
 5702SOL     OW28567   3.660   4.329   5.878 -0.2493  0.0390 -0.4354
 5702SOL    HW128568   3.579   4.288   5.910  0.2320 -1.4133 -1.0513
 5702SOL    HW228569   3.617   4.405   5.841 -0.3140 -0.2506 -0.9553
 5703SOL     OW28570   3.251   3.721   8.536  0.8458 -0.4768  0.4320
 5703SOL    HW128571   3.178   3.727   8.598  0.0288 -1.2498 -0.4561
 5703SOL    HW228572   3.239   3.801   8.485  0.9366 -0.1543  0.9165
 5704SOL     OW28573   3.373   2.700   8.968  0.1830  0.8502 -0.1398
 5704SOL    HW128574   3.370   2.781   8.917  0.2455 -0.0530 -1.5839
 5704SOL    HW228575   3.406   2.729   9.053  0.0737  0.8818 -0.1087
 5705SOL     OW28576   0.481   0.405  12.460 -0.2926 -0.2096 -0.0314
 5705SOL    HW128577   0.569   0.382  12.489 -1.3238  1.4837  4.3332
 5705SOL    HW228578   0.508   0.494  12.436  1.7108 -0.7678  0.1563
 5706SOL     OW28579   3.226   3.326  17.160 -0.5315  0.1214  0.1197
 5706SOL    HW128580   3.178   3.346  17.080  1.0856  0.1698 -0.8390
 5706SOL    HW228581   3.226   3.411  17.204  0.1594  0.7183 -1.0316
 5707SOL     OW28582   0.881   3.258   2.135  0.6996 -0.1069 -0.4054
 5707SOL    HW128583   0.864   3.324   2.067 -1.5073 -0.7090 -0.4509
 5707SOL    HW228584   0.975   3.254   2.152  0.4430  0.1411  1.0026
 5708SOL     OW28585   3.484   3.793   5.998 -0.2521 -0.0979 -0.4168
 5708SOL    HW128586   3.468   3.700   5.982 -0.0055 -0.3687  0.9175
 5708SOL    HW228587   3.395   3.827   6.009  0.2343  1.1349 -0.3448
 5709SOL     OW28588   2.542   3.087   9.190  0.2077 -0.0197 -0.1577
 5709SOL    HW128589   2.549   3.047   9.277 -1.6945 -0.1931 -0.0962
 5709SOL    HW228590   2.490   3.024   9.140  1.1925  0.7100 -2.1031
 5710SOL     OW28591   2.320   3.389   7.925  0.6304  0.0965  0.4647
 5710SOL    HW128592   2.399   3.432   7.892 -0.5983  0.4163 -2.1199
 5710SOL    HW228593   2.342   3.297   7.937 -1.4211 -0.3095  1.1998
 5711SOL     OW28594   4.372   3.428   7.722 -0.7996 -0.4384  0.2299
 5711SOL    HW128595   4.381   3.472   7.638  0.7474 -2.1436 -0.4819
 5711SOL    HW228596   4.278   3.425   7.741 -1.2285  1.0568 -1.6352
 5712SOL     OW28597   2.533   3.888   1.715  0.2000 -0.7645  0.1398
 5712SOL    HW128598   2.485   3.938   1.781  1.7653  0.1058  0.6192
 5712SOL    HW228599   2.547   3.958   1.651  2.0798 -0.0811  1.2847
 5713SOL     OW28600   0.255   3.704   7.722  0.7869  0.2704 -0.4915
 5713SOL    HW128601   0.255   3.799   7.705  1.5149  0.5065  0.8271
 5713SOL    HW228602   0.340   3.671   7.693  0.5046  0.2162 -1.2663
 5714SOL     OW28603   4.415   0.945   6.752 -0.3363 -0.1609 -0.4296
 5714SOL    HW128604   4.485   0.998   6.714  0.6959  0.6013  2.5106
 5714SOL    HW228605   4.443   0.859   6.719 -2.0330 -0.6189 -0.6394
 5715SOL     OW28606   2.439   0.265   6.610 -0.0978  0.0461 -0.4030
 5715SOL    HW128607   2.451   0.350   6.569  1.2557  0.0775  0.0516
 5715SOL    HW228608   2.365   0.226   6.563 -1.4391 -1.1225  2.6657
 5716SOL     OW28609   3.581   3.130  16.287 -0.4225 -1.0713  0.4338
 5716SOL    HW128610   3.562   3.169  16.202 -1.7105 -2.5218  0.0564
 5716SOL    HW228611   3.495   3.118  16.328 -0.1825  2.0753  1.8490
 5717SOL     OW28612   3.459   1.293   0.513  0.0007  0.1075  0.5372
 5717SOL    HW128613   3.439   1.220   0.454 -0.4676  2.4268 -2.1271
 5717SOL    HW228614   3.392   1.285   0.581 -1.3651 -1.0380 -0.9510
 5718SOL     OW28615   1.009   0.608   0.277  0.0519  0.0079 -0.1574
 5718SOL    HW128616   1.036   0.694   0.308  3.2077 -1.1380  0.3000
 5718SOL    HW228617   1.046   0.540   0.333 -0.9864  0.7718  1.4541
 5719SOL     OW28618   2.257   2.320   4.720 -0.1466 -0.5540  0.3484
 5719SOL    HW128619   2.340   2.360   4.744 -0.0489 -0.0159 -0.8773
 5719SOL    HW228620   2.237   2.269   4.798  0.5924  0.3971  1.1598
 5720SOL     OW28621   0.897   0.392   7.243 -0.4487 -0.0059 -0.0630
 5720SOL    HW128622   0.834   0.427   7.180 -0.9748  0.4022  0.6918
 5720SOL    HW228623   0.840   0.326   7.283 -0.1010  0.1216  0.6472
 5721SOL     OW28624   2.266   1.350  11.239 -0.1798 -0.3410  0.2011
 5721SOL    HW128625   2.336   1.416  11.240  0.3142 -0.8812  0.5729
 5721SOL    HW228626   2.214   1.390  11.169 -0.9310  3.2593  2.7978
 5722SOL     OW28627   1.573   1.259   2.442  0.5099  0.3676 -0.4709
 5722SOL    HW128628   1.624   1.235   2.519  0.9311  0.2831 -0.7773
 5722SOL    HW228629   1.525   1.332   2.481 -0.4244  0.9289 -2.6904
 5723SOL     OW28630   1.251   3.433  17.198  0.0896 -0.3981  0.2442
 5723SOL    HW128631   1.226   3.341  17.190 -1.1037 -0.0810  0.3859
 5723SOL    HW228632   1.218   3.468  17.115 -1.1501  2.5045  1.9627
 5724SOL     OW28633   0.879   0.412  13.588 -0.4882 -0.0792 -0.0452
 5724SOL    HW128634   0.897   0.506  13.594 -0.2329 -0.1061 -0.3648
 5724SOL    HW228635   0.789   0.410  13.619 -0.1090  0.1842  1.0548
 5725SOL     OW28636   2.670   3.103   5.817  0.5475 -0.0889 -0.7255
 5725SOL    HW128637   2.681   3.147   5.733  2.0302  1.0020  0.0250
 5725SOL    HW228638   2.630   3.022   5.787 -1.6376  0.6528  0.1959
 5726SOL     OW28639   3.254   0.335  15.846  0.0207 -0.1782 -0.3284
 5726SOL    HW128640   3.208   0.304  15.768 -1.1156  0.7991 -0.0519
 5726SOL    HW228641   3.217   0.421  15.865  0.1215  0.1732 -1.6958
 5727SOL     OW28642   3.095   3.963   1.833  0.2720 -0.3136  0.3455
 5727SOL    HW128643   3.164   3.971   1.899 -1.2577 -2.2514  2.1302
 5727SOL    HW228644   3.017   3.961   1.887 -1.9303  0.9679 -2.7645
 5728SOL     OW28645   1.498   3.670   3.780  0.3470 -0.2138 -0.0816
 5728SOL    HW128646   1.504   3.576   3.800 -0.5865 -0.5501 -1.3733
 5728SOL    HW228647   1.550   3.705   3.852  1.3696 -0.3668 -0.7587
 5729SOL     OW28648   3.442   1.589   7.497  0.6113  0.8241 -0.1978
 5729SOL    HW128649   3.458   1.580   7.404 -1.0478 -0.5405 -0.3496
 5729SOL    HW228650   3.347   1.578   7.490  0.5674  1.4744 -0.6968
 5730SOL     OW28651   2.232   4.222   4.840  0.3327  0.3783  0.0724
 5730SOL    HW128652   2.255   4.255   4.927 -1.6747 -0.4834  0.9191
 5730SOL    HW228653   2.147   4.265   4.831 -0.0722 -0.3228  0.5136
 5731SOL     OW28654   4.284   2.645  15.876  0.6386  0.0531  0.3157
 5731SOL    HW128655   4.377   2.657  15.856  0.6274 -1.4971 -0.7348
 5731SOL    HW228656   4.235   2.718  15.839 -1.7944 -1.4022  0.6334
 5732SOL     OW28657   4.117   0.856   5.299 -0.3018 -0.5489  0.4771
 5732SOL    HW128658   4.202   0.830   5.264 -0.7285  0.9872 -1.7368
 5732SOL    HW228659   4.073   0.909   5.231  2.9859 -0.7796 -1.8236
 5733SOL     OW28660   0.384   0.965  17.380 -0.3624  0.7081  0.5126
 5733SOL    HW128661   0.452   0.918  17.428 -2.5369 -1.6620  1.2537
 5733SOL    HW228662   0.307   0.930  17.424 -0.8248 -1.6845 -2.2320
 5734SOL     OW28663   3.345   4.379   1.178  0.4624 -1.1479  0.3011
 5734SOL    HW128664   3.383   4.402   1.263  0.5466 -1.0480  0.2363
 5734SOL    HW228665   3.373   4.290   1.159 -0.4949 -1.6134  1.0776
 5735SOL     OW28666   0.051   0.291   9.441  0.3106 -0.4188 -0.6226
 5735SOL    HW128667   4.696   0.238   9.434  2.3719 -3.3515 -1.6026
 5735SOL    HW228668   0.096   0.256   9.364 -0.2628 -0.4056 -0.9617
 5736SOL     OW28669   3.228   3.095   3.282  0.4492 -0.2028  0.2616
 5736SOL    HW128670   3.224   3.190   3.273  0.4905 -0.2615 -0.3532
 5736SOL    HW228671   3.150   3.075   3.334  0.4695 -1.9012 -0.3842
 5737SOL     OW28672   3.888   2.593   7.865  0.0840  0.8082  0.4358
 5737SOL    HW128673   3.974   2.634   7.867  1.0277 -1.1313 -0.3435
 5737SOL    HW228674   3.866   2.593   7.958  0.2120 -1.0372  0.4670
 5738SOL     OW28675   2.015   0.526   3.601  0.0642  0.5589  0.3694
 5738SOL    HW128676   2.073   0.483   3.538 -0.3281  0.2830  0.1948
 5738SOL    HW228677   2.006   0.615   3.568  0.4086 -0.2898 -2.0270
 5739SOL     OW28678   4.535   0.123   7.518 -0.3807  0.3543 -0.1296
 5739SOL    HW128679   4.545   0.159   7.606 -0.0338  1.3967 -0.5991
 5739SOL    HW228680   4.602   0.055   7.515 -0.2108  0.4648  0.9708
 5740SOL     OW28681   1.599   2.980   1.747  0.2695 -0.5455  0.1784
 5740SOL    HW128682   1.553   2.896   1.739 -1.5720  0.5086 -0.3453
 5740SOL    HW228683   1.689   2.950   1.754  0.6315  0.3936 -0.4419
 5741SOL     OW28684   2.835   3.796   3.083  0.4281  0.2289  0.1473
 5741SOL    HW128685   2.849   3.844   3.164  0.1636 -0.6266  0.6994
 5741SOL    HW228686   2.758   3.845   3.053 -0.6592  0.3330  3.0610
 5742SOL     OW28687   0.057   3.935   6.517  0.0686 -0.1025 -0.1882
 5742SOL    HW128688   0.106   3.853   6.508  1.8642  0.7278  2.0632
 5742SOL    HW228689   0.102   3.991   6.453  0.9555 -0.2140  0.3463
 5743SOL     OW28690   2.048   1.885   0.113  0.4167 -0.0189  0.4061
 5743SOL    HW128691   2.003   1.967   0.136  1.4315  1.1437 -1.7433
 5743SOL    HW228692   2.110   1.885   0.185 -1.6679  1.0915  2.2009
 5744SOL     OW28693   0.036   2.573   6.380  0.0714  0.0068  0.3866
 5744SOL    HW128694   0.036   2.669   6.378  0.6534 -0.0918 -3.0890
 5744SOL    HW228695   4.704   2.562   6.303 -0.2921  0.9892  0.5047
 5745SOL     OW28696   4.476   0.488   1.929  0.2269 -0.1515 -0.7144
 5745SOL    HW128697   4.391   0.448   1.914 -0.2479  1.2191 -1.6627
 5745SOL    HW228698   4.523   0.465   1.849  0.3576 -1.9360 -0.1394
 5746SOL     OW28699   1.158   3.590   3.866 -0.8427 -0.6497  0.0322
 5746SOL    HW128700   1.214   3.534   3.812  1.7501  2.0276 -0.0879
 5746SOL    HW228701   1.073   3.589   3.822 -1.0465  1.5466  0.3443
 5747SOL     OW28702   3.813   1.187  12.121 -0.0534  0.3034  0.0658
 5747SOL    HW128703   3.829   1.259  12.183 -4.1547  1.7760 -0.5538
 5747SOL    HW228704   3.904   1.178  12.092 -1.0043 -3.8871 -1.5872
 5748SOL     OW28705   0.736   2.024   6.784  0.0585  0.5418  0.1661
 5748SOL    HW128706   0.655   1.973   6.777  1.6099 -1.6497 -1.6768
 5748SOL    HW228707   0.715   2.044   6.875  0.0520 -1.2535  0.5539
 5749SOL     OW28708   4.313   2.737  10.125  0.5174 -1.4589 -0.1766
 5749SOL    HW128709   4.301   2.825  10.159 -2.4008 -1.5479 -1.0307
 5749SOL    HW228710   4.371   2.698  10.191  0.1762 -1.5932  0.0453
 5750SOL     OW28711   3.998   1.947   8.349 -0.3372 -0.0493  0.1391
 5750SOL    HW128712   4.029   2.036   8.367 -2.2130  0.8981 -1.2524
 5750SOL    HW228713   3.944   1.959   8.270 -0.5642  0.7742  0.4136
 5751SOL     OW28714   3.484   3.126  10.200 -0.0574 -0.1422 -0.4668
 5751SOL    HW128715   3.572   3.092  10.220 -0.2787 -0.3524  0.1354
 5751SOL    HW228716   3.503   3.219  10.214 -0.5150  0.0331 -0.9808
 5752SOL     OW28717   3.059   0.867   2.827  0.6263  0.0013  0.2515
 5752SOL    HW128718   3.071   0.773   2.813 -0.7041 -0.2168  0.5615
 5752SOL    HW228719   3.005   0.897   2.754 -1.1735  0.9663  1.9821
 5753SOL     OW28720   1.196   0.563   1.753 -0.9338 -0.2638  0.4554
 5753SOL    HW128721   1.104   0.584   1.735 -1.0101 -1.1986 -0.2231
 5753SOL    HW228722   1.230   0.584   1.666  2.3567 -0.0724  1.7943
 5754SOL     OW28723   4.443   0.913   8.700 -0.0484 -0.2906 -0.3979
 5754SOL    HW128724   4.469   0.826   8.731 -2.6846 -0.6484  0.7445
 5754SOL    HW228725   4.348   0.914   8.698 -0.0247 -0.1342 -1.4304
 5755SOL     OW28726   1.733   0.591  15.964  0.1851  0.1695  0.4212
 5755SOL    HW128727   1.744   0.678  15.926  1.0423  0.5410  1.5358
 5755SOL    HW228728   1.776   0.543  15.893 -1.0166 -1.7536  0.9876
 5756SOL     OW28729   1.736   4.067   4.273  0.4639 -0.2128 -0.4489
 5756SOL    HW128730   1.648   4.077   4.238  0.7730 -1.1969 -1.5162
 5756SOL    HW228731   1.797   4.039   4.204 -0.1812  0.3017 -1.2244
 5757SOL     OW28732   2.876   3.871  17.524  0.3928  0.3110 -0.1071
 5757SOL    HW128733   2.883   3.822  17.606 -1.6626 -0.7690 -0.5855
 5757SOL    HW228734   2.827   3.950  17.547  0.4120 -0.3893  2.3924
 5758SOL     OW28735   3.344   1.265   9.174 -0.3877 -0.2567 -0.2762
 5758SOL    HW128736   3.318   1.353   9.146  0.2661 -0.1708 -0.6203
 5758SOL    HW228737   3.395   1.284   9.252 -3.3876 -0.8848  1.8484
 5759SOL     OW28738   1.978   0.283   4.307  0.3701  0.1026 -0.3385
 5759SOL    HW128739   1.941   0.315   4.388 -2.9886  1.7506 -2.5304
 5759SOL    HW228740   2.044   0.350   4.290  1.4668 -1.1360 -1.0286
 5760SOL     OW28741   3.285   3.599   3.290 -0.6346  0.9086  0.5099
 5760SOL    HW128742   3.246   3.631   3.371 -0.7153 -1.3283  1.3427
 5760SOL    HW228743   3.274   3.674   3.232 -3.0884 -0.9413 -1.3831
 5761SOL     OW28744   2.905   1.036   4.245  0.0151 -0.1369 -0.5890
 5761SOL    HW128745   2.966   0.980   4.195  0.9499  0.1473  0.2495
 5761SOL    HW228746   2.965   1.096   4.289  3.0345 -3.0931 -0.6319
 5762SOL     OW28747   3.645   2.933   8.344 -0.2372 -0.1799 -0.1280
 5762SOL    HW128748   3.739   2.938   8.362 -0.3265  3.6396 -0.7617
 5762SOL    HW228749   3.636   2.842   8.316 -4.0169  0.0726  0.2026
 5763SOL     OW28750   4.138   2.362  11.462 -0.4205  0.1182 -0.3204
 5763SOL    HW128751   4.079   2.435  11.482  0.0789  0.3033  0.4509
 5763SOL    HW228752   4.072   2.296  11.440 -2.9012  1.9447  1.5972
 5764SOL     OW28753   1.753   2.446  13.226  0.0446 -0.0953  0.1145
 5764SOL    HW128754   1.804   2.489  13.157 -0.0139 -1.8247 -0.9846
 5764SOL    HW228755   1.730   2.523  13.278 -1.1310 -0.1148 -0.3788
 5765SOL     OW28756   3.203   1.404   1.125 -0.7350 -0.1158  0.3019
 5765SOL    HW128757   3.233   1.392   1.035  0.9172  2.4421  0.5316
 5765SOL    HW228758   3.122   1.356   1.106 -0.7049 -0.1338  0.2178
 5766SOL     OW28759   1.678   3.470   4.679 -0.0203  0.7711 -0.1948
 5766SOL    HW128760   1.628   3.406   4.629 -0.2545  1.3319 -0.6778
 5766SOL    HW228761   1.693   3.413   4.754  0.1083  0.8582 -0.1542
 5767SOL     OW28762   0.780   2.057  15.204  0.2445  0.8303  0.1510
 5767SOL    HW128763   0.853   2.003  15.173 -0.4252 -0.0577  0.1168
 5767SOL    HW228764   0.792   2.136  15.151  1.5864 -0.7378 -1.9095
 5768SOL     OW28765   3.187   0.065   3.439  0.3713 -0.3676  0.3131
 5768SOL    HW128766   3.114   0.085   3.380 -0.2357 -1.0878  0.8160
 5768SOL    HW228767   3.194   0.144   3.491  1.0283 -0.5548  0.5005
 5769SOL     OW28768   1.091   2.667   4.874  0.0308 -0.3126 -0.4009
 5769SOL    HW128769   1.032   2.733   4.837 -1.3077 -0.0360  2.2479
 5769SOL    HW228770   1.085   2.695   4.965  0.5143  3.5913 -1.5511
 5770SOL     OW28771   0.436   0.953  16.584 -0.1570  0.3086 -0.1181
 5770SOL    HW128772   0.433   0.913  16.671  1.5984  2.3398  0.8725
 5770SOL    HW228773   0.341   0.952  16.568 -0.3876 -0.0776  1.3248
 5771SOL     OW28774   2.646   3.703   3.814 -0.3195 -0.0362 -0.2101
 5771SOL    HW128775   2.608   3.746   3.737  0.3167 -0.3737 -0.7163
 5771SOL    HW228776   2.730   3.749   3.810  0.5742 -1.4894  1.3193
 5772SOL     OW28777   4.633   2.748   7.926 -0.5952  0.1342 -0.3052
 5772SOL    HW128778   4.709   2.795   7.892 -0.1972 -0.8120 -0.7271
 5772SOL    HW228779   4.577   2.750   7.849  1.2988  0.3843 -1.6867
 5773SOL     OW28780   3.373   2.215   8.328 -0.4880  0.1512  0.1835
 5773SOL    HW128781   3.297   2.273   8.332  0.0967  1.0682 -2.1127
 5773SOL    HW228782   3.390   2.189   8.418 -0.7744 -1.2992 -0.1845
 5774SOL     OW28783   3.563   3.409   8.026  0.5435 -0.0518  0.2423
 5774SOL    HW128784   3.610   3.399   8.108 -0.0046 -3.0466  0.2002
 5774SOL    HW228785   3.622   3.383   7.955  0.8225  2.0199 -0.2893
 5775SOL     OW28786   4.718   2.076   5.097 -0.0705 -0.2371 -0.1443
 5775SOL    HW128787   0.065   2.020   5.067  1.1524  1.8542 -1.1872
 5775SOL    HW228788   0.055   2.132   5.146 -2.1890 -0.4491  2.7503
 5776SOL     OW28789   0.765   0.303  10.866  0.6997 -0.6820  0.0681
 5776SOL    HW128790   0.685   0.355  10.859  0.7648 -0.8411 -1.7596
 5776SOL    HW228791   0.737   0.224  10.912 -1.7515  0.8723  1.2649
 5777SOL     OW28792   4.162   4.432  11.694 -0.0562 -0.0140 -0.0028
 5777SOL    HW128793   4.135   4.368  11.628  0.7031  0.7159 -1.0085
 5777SOL    HW228794   4.117   4.407  11.775  0.8625  0.6613  0.7025
 5778SOL     OW28795   2.036   4.097   2.287 -0.6433  0.6375  0.6714
 5778SOL    HW128796   2.107   4.108   2.350 -0.0736  0.7064  0.0230
 5778SOL    HW228797   2.019   4.191   2.275  0.6389  0.5163 -2.1894
 5779SOL     OW28798   1.682   3.194   4.006  0.2468 -0.2168 -0.0695
 5779SOL    HW128799   1.654   3.107   4.035 -2.4238  1.5016  2.5799
 5779SOL    HW228800   1.641   3.246   4.076 -0.3745 -0.7417 -0.0364
 5780SOL     OW28801   3.256   4.355   6.944 -0.7249  0.1692 -0.1352
 5780SOL    HW128802   3.284   4.266   6.920  0.8330  0.2300  1.4068
 5780SOL    HW228803   3.171   4.352   6.899 -1.8694 -1.1956  2.0978
 5781SOL     OW28804   1.731   4.425   6.091 -0.2975  0.5592  0.6672
 5781SOL    HW128805   1.675   4.452   6.164 -2.2550 -1.0924 -0.2163
 5781SOL    HW228806   1.661   4.401   6.031  0.4084 -0.8781  0.4146
 5782SOL     OW28807   2.110   0.727  16.531 -0.5448 -0.5443 -0.2611
 5782SOL    HW128808   2.025   0.682  16.528 -0.6458 -0.3328 -0.6527
 5782SOL    HW228809   2.087   0.819  16.523  3.2494  0.2903 -1.1399
 5783SOL     OW28810   1.221   0.436  15.518 -0.1473 -0.5217  0.0866
 5783SOL    HW128811   1.194   0.360  15.569 -1.8790 -1.2672 -1.9310
 5783SOL    HW228812   1.295   0.461  15.573  0.4348 -1.9626 -0.0592
 5784SOL     OW28813   2.685   4.671   4.553 -0.2967  0.2407 -0.3398
 5784SOL    HW128814   2.689   4.634   4.465 -2.0033 -1.2459  0.2162
 5784SOL    HW228815   2.590   4.677   4.559 -0.3063 -0.4833  0.2600
 5785SOL     OW28816   3.131   2.829   1.460 -0.1408  0.3479 -0.4042
 5785SOL    HW128817   3.046   2.861   1.428 -0.1687  1.6957  1.0129
 5785SOL    HW228818   3.140   2.749   1.408  1.6478  0.6027 -0.4643
 5786SOL     OW28819   3.579   2.789   4.409  0.2481 -0.3037  0.4486
 5786SOL    HW128820   3.527   2.710   4.395  0.5813  0.3269 -4.4869
 5786SOL    HW228821   3.621   2.770   4.492 -0.6308  1.4553  1.3173
 5787SOL     OW28822   4.716   1.240   6.480  0.0654  0.2351  0.0084
 5787SOL    HW128823   0.005   1.254   6.574 -0.1453 -1.5019  0.3011
 5787SOL    HW228824   4.621   1.247   6.477  0.3145  3.2494 -0.8080
 5788SOL     OW28825   4.207   0.999  11.757  0.0619 -0.1123 -0.0998
 5788SOL    HW128826   4.287   1.043  11.784 -0.3764  0.3217  0.4849
 5788SOL    HW228827   4.234   0.940  11.686 -0.4580 -1.6982  1.0012
 5789SOL     OW28828   2.705   0.411   2.293  0.3644  0.8609 -0.1368
 5789SOL    HW128829   2.664   0.484   2.246 -0.2093 -0.5235 -1.7509
 5789SOL    HW228830   2.665   0.336   2.250 -0.1901  1.6117 -0.9230
 5790SOL     OW28831   3.966   2.369   2.559 -0.3418 -0.5150  0.1909
 5790SOL    HW128832   4.016   2.435   2.510 -0.7321 -0.0552  0.4136
 5790SOL    HW228833   3.911   2.424   2.615 -0.6172 -0.4263 -0.1663
 5791SOL     OW28834   0.111   0.263   6.762  0.4816 -0.4378 -0.3974
 5791SOL    HW128835   0.035   0.232   6.714 -0.4020 -0.5337  1.0628
 5791SOL    HW228836   0.096   0.225   6.849  1.6927  1.2129  0.5306
 5792SOL     OW28837   2.103   2.408   9.090 -0.0845 -0.2512 -0.5728
 5792SOL    HW128838   2.157   2.347   9.141  1.2065 -1.0199 -2.8611
 5792SOL    HW228839   2.118   2.490   9.137  0.5831 -0.4259 -0.4770
 5793SOL     OW28840   2.060   1.384   8.930 -0.2326  0.0177  0.6581
 5793SOL    HW128841   2.073   1.360   9.022 -0.8232  0.4461  0.8508
 5793SOL    HW228842   2.114   1.463   8.921 -0.3288 -0.3919 -3.2718
 5794SOL     OW28843   0.262   1.263   7.922  0.1858 -0.2235 -0.2565
 5794SOL    HW128844   0.275   1.176   7.958  1.9805 -0.4654 -1.5046
 5794SOL    HW228845   0.333   1.311   7.964  0.1062 -0.1026 -0.2582
 5795SOL     OW28846   2.885   0.785   5.110 -0.1713 -0.0257 -0.3734
 5795SOL    HW128847   2.855   0.696   5.093 -1.0302 -0.0657  1.2671
 5795SOL    HW228848   2.867   0.825   5.025 -0.6381  1.6542  0.5197
 5796SOL     OW28849   0.960   1.815   5.576  0.3862  0.1801  0.4320
 5796SOL    HW128850   0.996   1.904   5.583 -1.1348  0.9195 -1.3297
 5796SOL    HW228851   0.934   1.811   5.484  2.2151 -0.6692 -0.0522
 5797SOL     OW28852   0.990   2.326   5.815  0.1593  0.0242  0.3113
 5797SOL    HW128853   1.084   2.308   5.821 -0.1201 -1.7223 -0.5847
 5797SOL    HW228854   0.986   2.392   5.884 -0.5689 -0.8444  1.0894
 5798SOL     OW28855   3.541   3.187   3.320 -0.3651  0.4014 -0.3553
 5798SOL    HW128856   3.624   3.156   3.356  1.2117  1.2174 -3.3068
 5798SOL    HW228857   3.491   3.105   3.314  0.1300 -0.0572  1.8035
 5799SOL     OW28858   0.196   0.368   5.804  0.0331 -0.6710  1.1174
 5799SOL    HW128859   0.164   0.395   5.890 -2.0498  0.6956 -0.0795
 5799SOL    HW228860   0.161   0.279   5.805 -2.0559  0.1541  0.6838
 5800SOL     OW28861   4.462   1.794   7.612 -0.7905  0.2629 -0.3007
 5800SOL    HW128862   4.477   1.822   7.522  1.9189  1.6963  0.5726
 5800SOL    HW228863   4.529   1.726   7.620  0.3920  1.6825  1.7961
 5801SOL     OW28864   2.431   1.903  10.698 -0.0445  0.2155 -0.1753
 5801SOL    HW128865   2.353   1.933  10.653 -1.2626  1.3896  2.6970
 5801SOL    HW228866   2.476   1.988  10.691 -0.7290  0.5762 -0.1968
 5802SOL     OW28867   3.494   1.048   3.681 -0.3178  0.1552  0.5301
 5802SOL    HW128868   3.554   1.105   3.632  1.0560 -2.3078 -0.6384
 5802SOL    HW228869   3.561   1.000   3.730  1.9141  3.1010  0.4416
 5803SOL     OW28870   2.265   3.320   8.579  0.3260  0.0406 -0.0387
 5803SOL    HW128871   2.291   3.403   8.619 -0.1418  0.6248 -0.9595
 5803SOL    HW228872   2.318   3.262   8.634 -1.2975 -0.6930  0.7628
 5804SOL     OW28873   3.984   3.040   3.885  0.1402  0.4747 -0.0496
 5804SOL    HW128874   4.060   2.999   3.844 -0.7805 -2.6868  1.4269
 5804SOL    HW228875   3.922   3.069   3.818 -0.1619 -0.2991 -0.0937
 5805SOL     OW28876   2.682   3.657   7.365 -0.4440  0.2665 -0.2363
 5805SOL    HW128877   2.653   3.732   7.416 -2.4799 -0.3278 -0.5328
 5805SOL    HW228878   2.774   3.647   7.389 -0.7179  0.2376  0.7678
 5806SOL     OW28879   0.249   0.825   5.309  0.7092  0.3662  0.8070
 5806SOL    HW128880   0.253   0.867   5.223  1.3612 -1.0557  0.1225
 5806SOL    HW228881   0.296   0.742   5.300 -0.2485 -0.0278 -0.6562
 5807SOL     OW28882   4.307   1.396   5.366  0.2264  0.2369  0.2819
 5807SOL    HW128883   4.253   1.404   5.287  1.1485 -1.0142 -0.4707
 5807SOL    HW228884   4.241   1.363   5.428  0.1723 -1.4195 -0.6503
 5808SOL     OW28885   4.636   1.297   2.934 -0.1497  0.7717  0.3723
 5808SOL    HW128886   4.556   1.347   2.914  1.5836  3.4691  0.1991
 5808SOL    HW228887   4.707   1.345   2.893  0.2345  0.2219  0.3938
 5809SOL     OW28888   1.501   1.742   4.935  0.1550  0.1196 -0.0624
 5809SOL    HW128889   1.446   1.667   4.916  0.6396  0.0226 -1.1160
 5809SOL    HW228890   1.430   1.807   4.929  0.0253  0.1290  1.6071
 5810SOL     OW28891   0.571   0.086   0.437 -0.1726  0.0815 -0.0857
 5810SOL    HW128892   0.582   0.116   0.347 -2.2952  2.4368  0.4365
 5810SOL    HW228893   0.499   0.143   0.466 -1.2617  0.3157 -3.3126
 5811SOL     OW28894   2.031   3.858   9.998  0.5460  0.6051 -0.0219
 5811SOL    HW128895   1.981   3.778   9.982  0.6963  0.6996 -0.9968
 5811SOL    HW228896   2.119   3.821   9.991  0.6977  0.9785 -0.1042
 5812SOL     OW28897   2.305   3.120   1.856 -0.8894 -0.2927 -0.1988
 5812SOL    HW128898   2.324   3.140   1.947 -0.9678 -0.2547 -0.1907
 5812SOL    HW228899   2.302   3.025   1.869  1.9659 -0.7515 -3.0450
 5813SOL     OW28900   0.464   1.466   8.059  0.4316  0.0853  0.6521
 5813SOL    HW128901   0.441   1.525   7.987  2.6275 -1.8708 -1.6167
 5813SOL    HW228902   0.559   1.471   8.057  0.5558 -1.2011  2.7714
 5814SOL     OW28903   3.345   2.993   4.001 -0.3371 -0.6863 -0.4082
 5814SOL    HW128904   3.310   3.082   4.012  2.1388  0.1889  0.3192
 5814SOL    HW228905   3.418   3.011   3.942 -0.8838 -3.2972 -1.8928
 5815SOL     OW28906   1.155   3.243   4.011  0.4468  0.0604 -0.2800
 5815SOL    HW128907   1.154   3.147   4.019  0.2341 -0.0535 -1.6707
 5815SOL    HW228908   1.190   3.260   3.924  1.8881  4.2361  1.1697
 5816SOL     OW28909   1.104   3.738   5.735  0.4594 -0.0346  0.2317
 5816SOL    HW128910   1.056   3.774   5.661 -0.3127  1.3149  1.3963
 5816SOL    HW228911   1.133   3.821   5.773 -2.2619  0.6274  0.7980
 5817SOL     OW28912   3.976   3.062   2.910  0.0095  0.2663  0.0011
 5817SOL    HW128913   3.921   3.130   2.949 -0.5931  0.8707 -1.9193
 5817SOL    HW228914   3.952   2.982   2.956  0.4687  0.8770  1.2912
 5818SOL     OW28915   1.501   1.109  15.786 -0.0793 -0.2988 -0.2417
 5818SOL    HW128916   1.585   1.147  15.763  0.6251 -1.7285 -0.0392
 5818SOL    HW228917   1.478   1.063  15.705 -2.2378  1.9306 -0.9001
 5819SOL     OW28918   3.816   2.031   4.738 -0.0185  0.0410  0.1574
 5819SOL    HW128919   3.780   1.962   4.793 -1.0809  2.5454  2.6293
 5819SOL    HW228920   3.763   2.103   4.773 -1.7600 -0.0581 -2.2475
 5820SOL     OW28921   0.813   2.535   9.273  0.5140  0.1932 -0.0083
 5820SOL    HW128922   0.877   2.537   9.344  0.0061  1.4873  0.4132
 5820SOL    HW228923   0.797   2.630   9.273  1.6503  0.3828  1.2749
 5821SOL     OW28924   2.408   0.646   3.056  0.1919  0.7595 -0.2312
 5821SOL    HW128925   2.488   0.621   3.010  0.5290  1.2940  0.0662
 5821SOL    HW228926   2.449   0.696   3.127 -0.8010  0.6103  0.4484
 5822SOL     OW28927   0.162   3.652  12.463  0.6291  0.7299 -0.3612
 5822SOL    HW128928   0.194   3.580  12.408  0.8376  0.9432 -0.5199
 5822SOL    HW228929   0.118   3.598  12.529  1.9976  1.1841  0.9354
 5823SOL     OW28930   1.173   4.561   2.407 -0.9478  0.1065  0.4785
 5823SOL    HW128931   1.187   4.477   2.363  0.8305  0.8412 -0.3561
 5823SOL    HW228932   1.198   4.623   2.339  2.8292  0.5818  2.3034
 5824SOL     OW28933   0.071   1.145  15.536  0.4595  0.3057 -0.4483
 5824SOL    HW128934   0.018   1.157  15.614  1.2744 -2.8561  0.5672
 5824SOL    HW228935   0.132   1.073  15.554  0.9775  0.6666 -0.7609
 5825SOL     OW28936   4.673   0.159   4.551 -0.9183 -0.3289 -0.3387
 5825SOL    HW128937   4.603   0.120   4.500 -0.5329 -1.0535 -0.3051
 5825SOL    HW228938   4.680   0.239   4.499 -0.2289  0.0062  0.2699
 5826SOL     OW28939   4.657   1.364   8.058 -0.5497 -0.0196  0.4420
 5826SOL    HW128940   4.683   1.273   8.074 -0.0773 -0.1326 -0.9249
 5826SOL    HW228941   4.592   1.357   7.988  2.3167  1.1090 -2.3090
 5827SOL     OW28942   0.131   3.434   6.475 -0.3697 -0.3040  0.7892
 5827SOL    HW128943   0.110   3.416   6.567  0.2063  0.2948  1.0343
 5827SOL    HW228944   0.061   3.396   6.422 -0.3453  1.4225 -0.4560
 5828SOL     OW28945   4.468   2.730   6.635  0.4510 -0.5960  0.3493
 5828SOL    HW128946   4.463   2.789   6.559 -0.7343 -0.0387  0.8542
 5828SOL    HW228947   4.494   2.794   6.701 -1.5527 -0.5465  1.0961
 5829SOL     OW28948   3.580   2.289   2.350 -0.5131  0.2762  0.0304
 5829SOL    HW128949   3.635   2.367   2.356 -1.8029  1.1032  1.0745
 5829SOL    HW228950   3.570   2.271   2.256  1.0400  1.3837 -0.3404
 5830SOL     OW28951   3.657   2.910  11.528 -0.2762  0.1067 -0.5105
 5830SOL    HW128952   3.596   2.839  11.506 -1.3083  0.5559  0.9008
 5830SOL    HW228953   3.630   2.978  11.467  0.1626 -0.3933 -1.2570
 5831SOL     OW28954   3.630   2.642  15.704  0.3058 -0.2849 -0.5142
 5831SOL    HW128955   3.618   2.660  15.611 -1.7941 -5.1741 -1.1462
 5831SOL    HW228956   3.587   2.725  15.726 -2.3105 -0.6451 -4.2290
 5832SOL     OW28957   4.515   3.027   3.304 -0.3832  0.6547 -0.4072
 5832SOL    HW128958   4.559   2.964   3.248 -0.7795 -2.1503  2.4447
 5832SOL    HW228959   4.583   3.051   3.367  0.6154 -0.2714 -1.1552
 5833SOL     OW28960   3.412   2.003   4.259 -0.1124  0.1060 -0.2651
 5833SOL    HW128961   3.497   1.965   4.277 -0.4399 -0.9099 -0.8602
 5833SOL    HW228962   3.419   2.041   4.171 -1.8343 -2.4266 -1.4932
 5834SOL     OW28963   0.988   1.979   7.325  0.1985 -0.1172  0.1045
 5834SOL    HW128964   1.061   2.040   7.319 -0.4140  0.5490 -0.5409
 5834SOL    HW228965   1.032   1.906   7.281  0.8657  1.2518 -1.5176
 5835SOL     OW28966   4.432   2.571   2.257  0.2322  0.6088 -0.3645
 5835SOL    HW128967   4.494   2.592   2.187 -0.0329 -2.2441 -1.4453
 5835SOL    HW228968   4.479   2.525   2.326 -0.5939  2.2712  1.3245
 5836SOL     OW28969   4.059   1.274  17.502  0.1295  0.3852 -0.1418
 5836SOL    HW128970   4.029   1.231  17.422  0.1036  2.1484 -1.0817
 5836SOL    HW228971   4.048   1.368  17.485 -0.2129  0.5877  1.1881
 5837SOL     OW28972   1.160   0.286   3.054  0.3968 -0.2743 -0.4919
 5837SOL    HW128973   1.118   0.219   3.109  1.0352 -0.9279 -0.7940
 5837SOL    HW228974   1.085   0.339   3.028  0.2047 -0.8750 -1.1805
 5838SOL     OW28975   0.421   2.544   6.890  0.0823  0.5835  0.2270
 5838SOL    HW128976   0.377   2.462   6.911  0.3769 -0.0137 -1.5084
 5838SOL    HW228977   0.393   2.584   6.972  1.7942 -0.8228  1.4894
 5839SOL     OW28978   0.760   2.661   5.553 -0.5004  0.1393  0.1755
 5839SOL    HW128979   0.764   2.755   5.571  1.9619  0.8263 -3.8778
 5839SOL    HW228980   0.711   2.621   5.625 -1.2566  2.5296  0.9895
 5840SOL     OW28981   4.441   1.437   3.676  0.2522 -0.3062 -0.6647
 5840SOL    HW128982   4.368   1.458   3.735 -0.4647  0.6840 -1.9148
 5840SOL    HW228983   4.471   1.527   3.661 -0.8545  0.2612  0.4708
 5841SOL     OW28984   3.097   1.805  10.989 -0.3870 -0.1616  0.0171
 5841SOL    HW128985   3.040   1.823  11.063  1.0330 -2.0261  1.5414
 5841SOL    HW228986   3.046   1.748  10.931 -0.9445 -0.5526  0.9036
 5842SOL     OW28987   2.794   0.551   3.175  0.0938  0.3489  0.1195
 5842SOL    HW128988   2.859   0.615   3.202  1.4426 -0.6307 -0.7890
 5842SOL    HW228989   2.779   0.502   3.255  0.1385 -0.2521 -0.2409
 5843SOL     OW28990   2.360   4.463   4.679  0.2441  0.2584  0.2137
 5843SOL    HW128991   2.376   4.550   4.715 -3.0666  0.9754 -0.0087
 5843SOL    HW228992   2.329   4.413   4.755  0.8463  1.0152  0.9424
 5844SOL     OW28993   4.365   2.600   5.245  0.2250  0.0940  0.1501
 5844SOL    HW128994   4.366   2.598   5.149 -0.0445  0.6317  0.1382
 5844SOL    HW228995   4.451   2.561   5.263  0.9872  1.4069 -0.5763
 5845SOL     OW28996   0.841   1.594   5.266 -0.1856 -0.6848 -0.1132
 5845SOL    HW128997   0.777   1.637   5.322 -0.6899 -0.0337 -1.1919
 5845SOL    HW228998   0.853   1.664   5.202  2.0085 -1.4555 -0.5787
 5846SOL     OW28999   3.754   2.265   5.363  0.3148  0.5788  0.2415
 5846SOL    HW129000   3.784   2.188   5.314 -1.8318 -0.4805  0.6005
 5846SOL    HW229001   3.826   2.278   5.425  0.7787 -0.1746 -0.1291
 5847SOL     OW29002   3.074   0.344   5.922 -0.3964  0.1589  0.3665
 5847SOL    HW129003   3.135   0.336   5.995 -0.9934  0.9544  0.9573
 5847SOL    HW229004   3.135   0.387   5.862 -2.5014  0.2244 -1.7369
 5848SOL     OW29005   0.018   3.766  12.797 -0.8010  0.3880 -0.3281
 5848SOL    HW129006   4.712   3.731  12.713 -0.2201  3.2593 -1.7269
 5848SOL    HW229007   0.108   3.735  12.784 -1.2285  0.2863 -3.0465
 5849SOL     OW29008   1.666   1.851   6.728  0.4498  0.0841 -0.3907
 5849SOL    HW129009   1.574   1.872   6.740  0.2057  0.1096 -2.2634
 5849SOL    HW229010   1.671   1.762   6.763  0.4598  0.4700  0.5743
 5850SOL     OW29011   3.424   3.743   5.010 -0.3837  0.2200 -0.4208
 5850SOL    HW129012   3.452   3.689   4.937 -0.8178  1.5963 -1.6166
 5850SOL    HW229013   3.369   3.810   4.969 -3.2573 -1.7978  0.1677
 5851SOL     OW29014   4.483   4.665  12.493  0.4374 -0.1800  0.7356
 5851SOL    HW129015   4.452   4.631  12.409  1.2418 -4.7514  2.3438
 5851SOL    HW229016   4.557   4.716  12.460 -0.1060  0.4894  0.5305
 5852SOL     OW29017   0.446   0.005   6.012 -0.3872 -0.2460  0.7277
 5852SOL    HW129018   0.516   0.062   5.981 -0.5269  1.1528  2.9612
 5852SOL    HW229019   0.402   0.066   6.071 -0.0976 -0.9104  1.6280
 5853SOL     OW29020   1.011   0.504   4.274  0.6362 -0.0487  0.1782
 5853SOL    HW129021   0.934   0.505   4.217  0.0204 -0.2041  1.0074
 5853SOL    HW229022   1.073   0.465   4.212  1.1935 -0.4547  1.0093
 5854SOL     OW29023   1.559   0.081   5.346  0.7705  0.5578  0.3394
 5854SOL    HW129024   1.480   0.121   5.383 -0.5233 -0.2551 -1.5659
 5854SOL    HW229025   1.578   0.026   5.423  1.4669 -0.1419 -0.3362
 5855SOL     OW29026   4.469   2.809   1.486 -1.0615 -0.3384 -0.5081
 5855SOL    HW129027   4.461   2.850   1.399 -0.9425 -1.2280 -0.9383
 5855SOL    HW229028   4.405   2.868   1.526 -0.6564 -0.1155 -0.1868
 5856SOL     OW29029   1.963   1.966  15.391  0.4771 -0.6181  0.0344
 5856SOL    HW129030   1.891   2.028  15.386  0.0078 -1.0455  1.5263
 5856SOL    HW229031   1.945   1.918  15.472 -1.9663  0.5353  0.1462
 5857SOL     OW29032   4.534   4.101   7.023 -0.0626  0.3342 -0.2107
 5857SOL    HW129033   4.620   4.101   7.065  0.0695  0.7934 -0.4746
 5857SOL    HW229034   4.549   4.018   6.978  3.0971  0.5149  0.5191
 5858SOL     OW29035   2.240   0.880   8.772 -0.5556  0.2101 -0.7507
 5858SOL    HW129036   2.336   0.880   8.774 -0.5752  1.2376  1.1966
 5858SOL    HW229037   2.223   0.964   8.815 -0.3604 -0.2219  0.1821
 5859SOL     OW29038   3.179   0.255   1.959  0.3960  0.1180 -0.5146
 5859SOL    HW129039   3.098   0.302   1.980 -0.5769 -1.2747 -1.1317
 5859SOL    HW229040   3.157   0.163   1.973  0.6210 -0.1748 -2.0723
 5860SOL     OW29041   1.237   2.083  17.156 -0.5633  0.3141  0.4272
 5860SOL    HW129042   1.252   2.046  17.243  2.8974 -0.5752 -0.5731
 5860SOL    HW229043   1.198   2.167  17.182 -1.4151  0.6235 -1.9023
 5861SOL     OW29044   1.531   1.527   2.175 -0.4027 -0.0911 -0.0504
 5861SOL    HW129045   1.488   1.523   2.261 -1.1238  1.4405 -0.3338
 5861SOL    HW229046   1.471   1.466   2.131  1.7269  0.9022 -4.2845
 5862SOL     OW29047   3.377   1.238   9.634  0.2496  0.1715 -0.4030
 5862SOL    HW129048   3.376   1.330   9.659 -1.1979  0.9307 -3.2040
 5862SOL    HW229049   3.320   1.200   9.701  0.0065 -1.1591 -1.3494
 5863SOL     OW29050   3.552   1.172   5.426  0.3648 -0.3139  0.2713
 5863SOL    HW129051   3.531   1.225   5.504 -0.0502 -0.8362  0.5098
 5863SOL    HW229052   3.509   1.088   5.440 -0.6845  0.2668  0.5930
 5864SOL     OW29053   2.990   1.017   6.911 -0.6375  0.1022  0.2933
 5864SOL    HW129054   3.079   1.030   6.877 -0.3674 -2.0099  0.2240
 5864SOL    HW229055   2.972   1.108   6.935  0.0110 -0.5564  3.3273
 5865SOL     OW29056   2.148   3.250   9.059 -0.0467  0.8633  0.4204
 5865SOL    HW129057   2.096   3.263   9.139 -0.5547 -0.5589  0.3236
 5865SOL    HW229058   2.235   3.279   9.087  1.4821 -0.9083 -2.4937
 5866SOL     OW29059   2.931   0.798   8.140 -0.4876  0.6299 -0.2198
 5866SOL    HW129060   2.922   0.857   8.065 -1.4132  0.2997 -0.3807
 5866SOL    HW229061   2.875   0.833   8.209 -0.0203  0.0080  0.4692
 5867SOL     OW29062   2.222   1.951  12.066  0.5405 -0.6480  0.2761
 5867SOL    HW129063   2.192   2.020  12.125 -2.3505 -1.5168 -0.2178
 5867SOL    HW229064   2.151   1.889  12.080  0.9457 -1.2411 -0.2685
 5868SOL     OW29065   0.305   1.483  14.606 -0.3199 -0.0802  0.0248
 5868SOL    HW129066   0.375   1.509  14.665  0.9684 -0.1982 -1.4449
 5868SOL    HW229067   0.243   1.557  14.598  0.2665  0.1456 -2.2769
 5869SOL     OW29068   2.669   1.449   8.562  0.2961 -0.1464 -0.4183
 5869SOL    HW129069   2.639   1.359   8.549  1.7189 -0.5655 -0.7383
 5869SOL    HW229070   2.719   1.431   8.641 -0.0804 -1.5632 -0.5131
 5870SOL     OW29071   3.483   0.512   6.652  0.2719 -0.2592 -0.1950
 5870SOL    HW129072   3.466   0.595   6.697  0.2711 -0.1051 -0.4859
 5870SOL    HW229073   3.540   0.540   6.581 -0.5214  0.3556 -0.5891
 5871SOL     OW29074   0.593   1.003   1.080 -0.2858 -0.4702  0.3353
 5871SOL    HW129075   0.631   1.050   1.154 -0.2700  0.7608 -0.4539
 5871SOL    HW229076   0.545   0.936   1.129 -0.4263 -0.3245  0.3954
 5872SOL     OW29077   1.396   2.072  11.046 -0.1730 -0.1046 -0.6634
 5872SOL    HW129078   1.335   2.054  11.117  0.6435  1.5099  0.4499
 5872SOL    HW229079   1.451   2.143  11.079  0.3361  0.4461 -2.6906
 5873SOL     OW29080   4.245   1.248   8.262  0.6998  0.2507 -0.0564
 5873SOL    HW129081   4.161   1.293   8.252 -0.8103 -2.7117 -0.5229
 5873SOL    HW229082   4.282   1.300   8.333 -0.9314 -0.7961  1.5312
 5874SOL     OW29083   1.337   1.551   7.720  0.4024 -0.1185 -0.1500
 5874SOL    HW129084   1.280   1.591   7.654  0.1643  2.3709  1.5323
 5874SOL    HW229085   1.286   1.552   7.801  0.4997 -0.7722 -0.0882
 5875SOL     OW29086   2.922   2.258  12.208 -0.3659  0.7910  0.6570
 5875SOL    HW129087   2.848   2.273  12.267 -1.5702  0.3438 -0.7500
 5875SOL    HW229088   2.880   2.264  12.122  0.8777  1.4393  0.0951
 5876SOL     OW29089   1.629   1.615  10.563  0.3474 -0.1842  0.4756
 5876SOL    HW129090   1.697   1.628  10.498  0.9309 -0.6851  0.9820
 5876SOL    HW229091   1.659   1.669  10.636  3.6379 -1.4647  0.0728
 5877SOL     OW29092   2.950   2.469   7.282 -0.0128 -0.3146  0.4222
 5877SOL    HW129093   3.040   2.498   7.271 -0.7117  2.1813  1.4596
 5877SOL    HW229094   2.959   2.398   7.345 -1.3124 -0.3615  0.5566
 5878SOL     OW29095   2.223   3.728  11.207  0.2794 -0.7871 -0.1213
 5878SOL    HW129096   2.276   3.713  11.285  2.8525  2.0653 -1.3185
 5878SOL    HW229097   2.136   3.712  11.243 -0.3224  0.2038 -1.1439
 5879SOL     OW29098   0.461   0.936   8.531 -0.4665 -0.4527  0.3182
 5879SOL    HW129099   0.493   0.847   8.516  2.8574  1.1954 -2.4789
 5879SOL    HW229100   0.367   0.924   8.547 -0.4332 -1.6050 -0.3565
 5880SOL     OW29101   2.433   2.995   4.987  0.2404  1.2096 -0.4468
 5880SOL    HW129102   2.416   3.027   4.899 -0.8178  0.5904 -0.4670
 5880SOL    HW229103   2.475   3.075   5.020  1.7761  0.0269  0.4639
 5881SOL     OW29104   2.921   0.447   9.188 -0.0867 -0.1849  0.6862
 5881SOL    HW129105   2.920   0.402   9.273 -1.1159  0.4430  1.0011
 5881SOL    HW229106   2.844   0.502   9.202 -0.4778 -0.2494 -1.2720
 5882SOL     OW29107   2.119   3.881  15.509 -0.1609  0.5367 -0.3091
 5882SOL    HW129108   2.136   3.787  15.497 -0.1004  0.3000  1.5194
 5882SOL    HW229109   2.201   3.916  15.475  0.6918 -2.2303 -1.0892
 5883SOL     OW29110   2.890   2.463   8.838  0.0656  0.3373 -0.8411
 5883SOL    HW129111   2.979   2.464   8.873 -0.1822  1.2497 -0.2517
 5883SOL    HW229112   2.892   2.442   8.745  1.2154 -0.4187 -0.6393
 5884SOL     OW29113   4.457   0.287   5.942  0.0895 -0.3231  0.0046
 5884SOL    HW129114   4.435   0.282   6.035  0.4601  1.3765  0.1799
 5884SOL    HW229115   4.457   0.382   5.935 -1.1739 -0.3975 -0.9900
 5885SOL     OW29116   3.149   0.524   3.756 -0.0887 -0.1387  0.7444
 5885SOL    HW129117   3.238   0.540   3.727  0.4405 -0.8582  1.9737
 5885SOL    HW229118   3.119   0.614   3.769 -0.8729 -0.6610  2.5568
 5886SOL     OW29119   3.461   1.619   2.263 -0.2342 -0.2852  0.4367
 5886SOL    HW129120   3.398   1.582   2.325  0.2590 -0.2195  0.9735
 5886SOL    HW229121   3.488   1.707   2.290 -1.7180 -0.1540  1.4890
 5887SOL     OW29122   3.568   3.655   4.740  0.3125  0.0045 -0.3810
 5887SOL    HW129123   3.545   3.715   4.669  1.1524 -0.6566 -1.2141
 5887SOL    HW229124   3.658   3.678   4.764 -0.0790  1.8135 -0.6337
 5888SOL     OW29125   0.338   0.812   1.826 -0.3142 -0.5674  0.5544
 5888SOL    HW129126   0.295   0.889   1.863 -2.3025 -1.5097  0.2163
 5888SOL    HW229127   0.315   0.749   1.894 -2.0792  0.0718  0.5571
 5889SOL     OW29128   3.759   0.578  12.576  0.1680  0.4590 -0.3764
 5889SOL    HW129129   3.785   0.494  12.612  0.4479  0.5807 -0.2960
 5889SOL    HW229130   3.734   0.622  12.657  2.4377  1.0682 -0.0008
 5890SOL     OW29131   2.373   0.819   1.074 -0.4926 -0.0072  0.3445
 5890SOL    HW129132   2.292   0.790   1.115 -0.0706  2.0806  2.6458
 5890SOL    HW229133   2.339   0.835   0.986  0.4274  1.0673  0.1790
 5891SOL     OW29134   2.362   2.656   2.991 -0.0840 -0.2625  0.6450
 5891SOL    HW129135   2.392   2.623   2.907 -0.9925  1.6879 -0.4279
 5891SOL    HW229136   2.327   2.571   3.020  0.9796 -1.3177 -1.1310
 5892SOL     OW29137   3.345   2.400  17.676  0.5562 -0.6411 -0.6134
 5892SOL    HW129138   3.306   2.471   0.029  0.2446 -0.1084 -1.6100
 5892SOL    HW229139   3.433   2.387   0.013  0.3727 -0.0365  0.0731
 5893SOL     OW29140   4.274   1.071  17.456 -0.2147  0.2154 -0.1951
 5893SOL    HW129141   4.207   1.137  17.476 -0.3904 -0.9288  2.9359
 5893SOL    HW229142   4.305   1.106  17.372 -2.6382 -0.4015 -1.3614
 5894SOL     OW29143   3.839   3.685   4.817 -0.3689 -0.7242 -0.0601
 5894SOL    HW129144   3.909   3.686   4.882 -1.0078  0.6115  0.5997
 5894SOL    HW229145   3.818   3.778   4.806  2.5225 -0.0267  0.2048
 5895SOL     OW29146   0.308   2.706   3.968  0.6282 -0.2882  0.2336
 5895SOL    HW129147   0.252   2.757   4.026 -1.9769 -1.2706 -1.3947
 5895SOL    HW229148   0.332   2.778   3.909 -0.5272 -1.7520 -2.0107
 5896SOL     OW29149   1.631   1.062  16.024  0.0290 -0.3263 -0.4743
 5896SOL    HW129150   1.584   1.072  15.941  1.8276  0.2026 -1.4331
 5896SOL    HW229151   1.563   1.102  16.077  1.3353  0.1958  0.8196
 5897SOL     OW29152   0.787   4.479  13.154  0.2107 -0.0295  0.4183
 5897SOL    HW129153   0.755   4.568  13.141  1.7629  0.2671 -1.2969
 5897SOL    HW229154   0.728   4.449  13.224 -2.7289  3.0554 -0.7660
 5898SOL     OW29155   4.130   2.733   7.730 -0.1014 -0.0691  0.5202
 5898SOL    HW129156   4.159   2.716   7.820 -2.8141  3.7709  2.1351
 5898SOL    HW229157   4.142   2.650   7.684 -1.8098 -0.6985  1.1932
 5899SOL     OW29158   4.595   1.245   6.083 -0.0548  0.0343 -0.9685
 5899SOL    HW129159   4.587   1.293   6.165  0.5514 -0.2242 -0.7656
 5899SOL    HW229160   4.662   1.295   6.036  0.7098 -0.3099 -0.2281
 5900SOL     OW29161   0.011   2.490   1.650 -0.3987 -0.5000  0.1988
 5900SOL    HW129162   0.104   2.508   1.635 -0.4470  0.9238  1.6031
 5900SOL    HW229163   0.013   2.396   1.635 -0.1473 -0.2942 -1.0830
 5901SOL     OW29164   1.809   1.737  11.518 -0.7192 -0.6982  0.4362
 5901SOL    HW129165   1.863   1.754  11.441 -1.8984 -1.8070 -0.6465
 5901SOL    HW229166   1.740   1.802  11.504 -0.4484 -0.8232 -1.5120
 5902SOL     OW29167   1.236   1.063   7.862  0.6451 -0.4791  0.3232
 5902SOL    HW129168   1.263   1.102   7.945  1.7326 -0.5715  0.0145
 5902SOL    HW229169   1.324   1.053   7.825  0.5053  1.2062 -0.4554
 5903SOL     OW29170   4.070   0.503   5.505  0.0119  0.0397  0.7768
 5903SOL    HW129171   4.066   0.410   5.486 -0.8366 -0.0888  1.6091
 5903SOL    HW229172   4.151   0.522   5.457  0.2383 -3.0295 -0.0648
 5904SOL     OW29173   0.892   3.472  13.207  0.2915  0.3612 -1.2380
 5904SOL    HW129174   0.901   3.499  13.115  0.0616  0.1995 -1.3088
 5904SOL    HW229175   0.823   3.407  13.192  0.2332  0.1173  0.1355
 5905SOL     OW29176   1.921   1.789   4.287  0.1414  0.1083  0.3105
 5905SOL    HW129177   1.955   1.875   4.310  0.3562  0.2566 -0.5644
 5905SOL    HW229178   1.831   1.821   4.286 -0.3030 -1.1548  0.5494
 5906SOL     OW29179   4.490   2.044   8.423 -0.1059  0.2491  0.1158
 5906SOL    HW129180   4.480   2.074   8.333 -0.9465 -0.6237 -0.0858
 5906SOL    HW229181   4.525   2.121   8.467  0.9268 -1.1643  1.7890
 5907SOL     OW29182   0.425   1.073  17.132 -0.2701 -0.2209 -0.5029
 5907SOL    HW129183   0.421   1.168  17.144  0.0757  0.1102 -3.1707
 5907SOL    HW229184   0.419   1.023  17.213 -1.3328 -0.6388 -0.8480
 5908SOL     OW29185   3.090   4.554  16.973  0.3927  0.1345  0.2778
 5908SOL    HW129186   3.002   4.518  16.974  0.6789 -0.5243  1.2295
 5908SOL    HW229187   3.119   4.535  16.884 -0.2389  0.2949  0.0383
 5909SOL     OW29188   0.371   3.372   7.372 -0.4335 -0.1716  0.0158
 5909SOL    HW129189   0.332   3.453   7.406  0.5801  0.5512 -0.5170
 5909SOL    HW229190   0.296   3.314   7.381 -0.7581  0.1769 -0.4046
 5910SOL     OW29191   1.957   1.710   3.753  0.1401  1.0710 -0.1056
 5910SOL    HW129192   1.979   1.731   3.843  2.8698 -2.3237 -0.0091
 5910SOL    HW229193   1.992   1.621   3.752  1.0451  1.4426 -2.7587
 5911SOL     OW29194   3.748   4.610  12.962  0.7704 -0.4074 -0.3109
 5911SOL    HW129195   3.655   4.593  12.947  0.8813 -1.8302  0.6309
 5911SOL    HW229196   3.778   4.598  12.872 -0.8860 -1.7176 -0.6716
 5912SOL     OW29197   0.149   4.676   5.957  0.3846 -0.1356 -0.3786
 5912SOL    HW129198   0.135   4.673   6.051  1.8650  1.6273 -0.1067
 5912SOL    HW229199   0.239   4.708   5.957  0.5599 -0.6269 -0.8551
 5913SOL     OW29200   2.083   2.498   6.701 -0.0141  0.2311 -0.7798
 5913SOL    HW129201   2.020   2.463   6.763 -1.3861  1.4302 -1.5038
 5913SOL    HW229202   2.163   2.491   6.754 -2.0426 -0.3146  2.2151
 5914SOL     OW29203   3.291   1.006   2.729 -0.0438 -0.0343  0.4828
 5914SOL    HW129204   3.213   0.969   2.771 -0.6318  0.8181  0.1435
 5914SOL    HW229205   3.249   1.049   2.654 -2.3244  0.3629  1.9860
 5915SOL     OW29206   0.696   0.888   3.554  0.0938  0.2607 -0.0473
 5915SOL    HW129207   0.601   0.882   3.549 -0.1193  0.7689  3.6289
 5915SOL    HW229208   0.708   0.973   3.510 -2.5958  0.6594 -0.0267
 5916SOL     OW29209   4.704   3.058   2.928  0.5313 -0.1592 -1.0349
 5916SOL    HW129210   4.706   3.148   2.959  1.2288 -0.4452 -0.2258
 5916SOL    HW229211   4.664   3.008   3.000  0.8832 -0.9258 -1.3779
 5917SOL     OW29212   3.808   0.697   3.605  0.4949  0.2393 -0.2673
 5917SOL    HW129213   3.894   0.731   3.627  0.3514 -0.2632  1.0412
 5917SOL    HW229214   3.812   0.602   3.616 -0.2485  0.3820  1.2578
 5918SOL     OW29215   3.789   1.342   3.333  0.1200 -0.1366 -0.8911
 5918SOL    HW129216   3.706   1.377   3.367  0.7631 -1.4486  2.0189
 5918SOL    HW229217   3.770   1.248   3.340 -1.0726  0.1946  0.3212
 5919SOL     OW29218   3.138   2.452   9.526 -0.3836  0.4918 -0.1123
 5919SOL    HW129219   3.220   2.416   9.490 -0.8589 -0.2897 -0.4029
 5919SOL    HW229220   3.176   2.536   9.553  0.0951  0.2825 -0.1347
 5920SOL     OW29221   4.162   0.075   4.120 -0.6004  0.7626 -0.5425
 5920SOL    HW129222   4.096   0.009   4.142  1.0751 -0.6308  0.2902
 5920SOL    HW229223   4.150   0.080   4.025 -2.4796 -1.5921 -0.4364
 5921SOL     OW29224   2.841   3.827   3.436 -0.1692  0.1665 -0.8575
 5921SOL    HW129225   2.842   3.757   3.501  4.3915  0.7747 -0.3018
 5921SOL    HW229226   2.757   3.866   3.460 -0.2856  0.7831 -2.2295
 5922SOL     OW29227   0.953   2.299   2.163 -0.1394  0.2035  0.5705
 5922SOL    HW129228   0.977   2.206   2.166  0.2046  0.2687 -0.2661
 5922SOL    HW229229   0.871   2.299   2.213 -0.1680 -0.6908  0.5183
 5923SOL     OW29230   0.773   4.430  10.678  0.2771 -0.4374  0.1544
 5923SOL    HW129231   0.793   4.337  10.680 -0.0167 -0.4885  0.6226
 5923SOL    HW229232   0.798   4.464  10.764 -0.5665 -1.8182  0.9509
 5924SOL     OW29233   2.415   2.370   2.160  0.1329  0.0865 -0.6825
 5924SOL    HW129234   2.378   2.414   2.237 -0.1266 -1.2456 -0.0516
 5924SOL    HW229235   2.441   2.284   2.193 -0.5124  0.5746  1.1086
 5925SOL     OW29236   1.160   1.568   2.158 -0.0001 -0.0305 -0.8566
 5925SOL    HW129237   1.142   1.615   2.077  0.3757  1.3198 -0.1570
 5925SOL    HW229238   1.230   1.512   2.125  1.8050  1.4360  0.5143
 5926SOL     OW29239   4.347   4.153   2.085  0.8896  0.0421 -0.1830
 5926SOL    HW129240   4.265   4.192   2.054  0.3680 -1.0578 -0.1803
 5926SOL    HW229241   4.329   4.065   2.117  0.4379 -0.1556 -0.9687
 5927SOL     OW29242   2.004   0.250  12.855  0.1110  0.0468  0.9573
 5927SOL    HW129243   1.931   0.277  12.911  0.3193  0.1074  1.1994
 5927SOL    HW229244   2.074   0.306  12.891  0.9994 -1.1726  1.1134
 5928SOL     OW29245   3.364   0.916   7.063 -0.1722 -0.3865 -0.4021
 5928SOL    HW129246   3.395   0.838   7.110  0.2040 -0.1568 -0.2701
 5928SOL    HW229247   3.337   0.973   7.135 -1.9162 -3.0338  1.0721
 5929SOL     OW29248   0.514   4.009   5.562 -0.3413  0.1753 -0.4307
 5929SOL    HW129249   0.580   4.078   5.552  1.5075 -1.4282  0.6044
 5929SOL    HW229250   0.543   3.961   5.640  1.4346 -1.6807 -2.2412
 5930SOL     OW29251   4.565   0.616   5.341 -0.0419  0.1736 -0.8373
 5930SOL    HW129252   4.622   0.540   5.329 -0.3249 -0.0781 -0.5588
 5930SOL    HW229253   4.619   0.677   5.392  0.3968 -1.2235  0.3445
 5931SOL     OW29254   1.388   4.461   2.058  0.3915  0.2234 -0.5803
 5931SOL    HW129255   1.453   4.501   2.000  1.2198  0.8563  0.8012
 5931SOL    HW229256   1.437   4.471   2.139  0.4468 -0.0243 -0.5829
 5932SOL     OW29257   1.767   0.321   3.507 -0.6367 -0.0115 -0.4178
 5932SOL    HW129258   1.836   0.294   3.567 -0.1354 -1.0356 -1.4711
 5932SOL    HW229259   1.739   0.400   3.554  1.1804  0.6840 -0.4948
 5933SOL     OW29260   3.190   2.146   2.728  0.2522  0.4705 -0.2490
 5933SOL    HW129261   3.195   2.177   2.818 -0.6763 -0.5510  0.1572
 5933SOL    HW229262   3.097   2.153   2.705  0.2164  0.8520  0.0111
 5934SOL     OW29263   0.323   1.940   2.709  0.6972 -0.1197 -0.0285
 5934SOL    HW129264   0.305   1.872   2.644  1.2467  0.6449 -0.9757
 5934SOL    HW229265   0.282   1.909   2.790 -2.8200  0.2436 -1.7014
 5935SOL     OW29266   3.615   3.295  14.239 -0.2344 -0.4876  0.0449
 5935SOL    HW129267   3.557   3.365  14.208  0.1424 -0.9324 -1.6751
 5935SOL    HW229268   3.593   3.228  14.175 -0.0327 -1.0909  0.6138
 5936SOL     OW29269   1.180   2.658   8.055  0.6414 -0.5866  0.3507
 5936SOL    HW129270   1.086   2.644   8.071  0.7048 -0.9862  0.3504
 5936SOL    HW229271   1.210   2.683   8.142  2.6533  0.5655 -0.6766
 5937SOL     OW29272   2.661   0.739   7.677  0.3388  0.0064  0.0632
 5937SOL    HW129273   2.704   0.655   7.658  1.4061  1.2506 -3.0113
 5937SOL    HW229274   2.592   0.748   7.612 -2.1002 -3.0622  2.2236
 5938SOL     OW29275   4.403   2.278   9.303  0.4891 -0.6229  0.1541
 5938SOL    HW129276   4.389   2.341   9.374 -0.6720  0.3815 -0.9681
 5938SOL    HW229277   4.493   2.253   9.322  0.5685 -0.2115  0.3385
 5939SOL     OW29278   0.135   3.155   8.570  0.4510  0.1188 -0.1164
 5939SOL    HW129279   0.227   3.156   8.598  0.4513 -2.9272  0.0294
 5939SOL    HW229280   0.099   3.076   8.610 -0.0912  0.9268  0.9857
 5940SOL     OW29281   0.097   2.635  12.289 -0.2032  0.9565  0.2574
 5940SOL    HW129282   0.113   2.558  12.233 -1.6314  1.0160 -0.2244
 5940SOL    HW229283   0.164   2.628  12.357  0.4841  0.7032 -0.4324
 5941SOL     OW29284   4.497   3.886  15.990  0.4124  0.0033 -0.1637
 5941SOL    HW129285   4.577   3.936  15.975 -0.6196  1.7244  0.1368
 5941SOL    HW229286   4.480   3.836  15.911  4.6342  0.9279 -1.6244
 5942SOL     OW29287   3.050   1.951   6.172 -0.2223 -0.1252  0.1599
 5942SOL    HW129288   3.075   2.029   6.123  0.6968 -0.7251 -0.3293
 5942SOL    HW229289   3.121   1.890   6.152 -0.7428 -0.7176  0.1173
 5943SOL     OW29290   3.260   1.246   4.213  0.1150  0.2693  0.3702
 5943SOL    HW129291   3.291   1.160   4.187  0.1779 -0.2411  2.0937
 5943SOL    HW229292   3.229   1.267   4.125 -1.3116 -0.9176  0.5870
 5944SOL     OW29293   1.159   1.222   7.074 -0.3049 -0.0751 -0.2125
 5944SOL    HW129294   1.091   1.191   7.013 -0.5525  2.7103 -1.3465
 5944SOL    HW229295   1.213   1.144   7.089  1.6573  1.5406  1.1072
 5945SOL     OW29296   1.660   1.583   3.222  0.0034 -0.0262 -0.6507
 5945SOL    HW129297   1.718   1.516   3.260 -2.0841  0.7120  3.8499
 5945SOL    HW229298   1.624   1.611   3.306 -1.5037 -0.1056 -1.2817
 5946SOL     OW29299   1.004   4.545  14.518 -0.7521 -0.1234  0.4757
 5946SOL    HW129300   1.074   4.582  14.463 -0.9785 -0.4733 -0.0469
 5946SOL    HW229301   0.943   4.506  14.456  0.9207 -3.1431  0.7009
 5947SOL     OW29302   3.611   4.531   9.940 -0.0933  0.1110  0.5999
 5947SOL    HW129303   3.527   4.521   9.894  0.9888 -0.4846 -1.2435
 5947SOL    HW229304   3.640   4.620   9.917 -3.2869  0.9889 -0.0707
 5948SOL     OW29305   4.580   4.256  16.629 -0.0996  0.2010  0.1316
 5948SOL    HW129306   4.557   4.172  16.590 -0.2084  0.7124 -0.8984
 5948SOL    HW229307   4.506   4.311  16.603  0.2327  0.3521 -0.5097
 5949SOL     OW29308   4.401   0.033   6.755 -0.3463  0.4698  0.6155
 5949SOL    HW129309   4.417   4.682   6.812 -3.1763 -0.8582 -0.3345
 5949SOL    HW229310   4.337   4.724   6.692 -1.0899 -0.8390  2.0819
 5950SOL     OW29311   3.970   1.873   9.015  0.0930 -0.2673  0.3187
 5950SOL    HW129312   3.877   1.859   8.996 -0.1562  1.0955  0.5788
 5950SOL    HW229313   4.000   1.789   9.049  0.2694  0.3572  1.7066
 5951SOL     OW29314   2.607   1.155   4.565 -0.3125  0.4519  0.0854
 5951SOL    HW129315   2.559   1.186   4.488  1.1175 -0.1212 -1.0360
 5951SOL    HW229316   2.638   1.069   4.537  1.2472  1.6046 -1.7567
 5952SOL     OW29317   0.939   2.176   6.707  0.0363  0.8406  0.1299
 5952SOL    HW129318   0.862   2.132   6.745  0.3401  1.5585  1.5673
 5952SOL    HW229319   1.006   2.109   6.721 -1.4512 -0.7000  0.0317
 5953SOL     OW29320   0.948   2.914   7.711 -0.2763  0.3451 -0.4909
 5953SOL    HW129321   0.907   2.986   7.759 -1.7461 -0.8177 -0.0113
 5953SOL    HW229322   1.007   2.968   7.658 -0.6984  0.3515 -0.9493
 5954SOL     OW29323   3.697   1.081   3.378 -0.2752 -0.1632 -0.0184
 5954SOL    HW129324   3.785   1.058   3.409 -1.3110 -4.3986 -0.1200
 5954SOL    HW229325   3.720   1.078   3.285 -0.7260  2.4859 -0.2118
 5955SOL     OW29326   3.505   2.415   7.656  0.2432  0.1652  0.0649
 5955SOL    HW129327   3.445   2.478   7.697 -0.7299 -0.1115 -0.9404
 5955SOL    HW229328   3.487   2.340   7.712 -0.3628  1.9080  2.2182
 5956SOL     OW29329   0.108   1.980   3.042 -0.1073  0.2260  0.1568
 5956SOL    HW129330   0.104   1.922   3.118  0.6705  0.3315  0.2787
 5956SOL    HW229331   0.074   2.058   3.085 -1.8727 -1.9084  2.6311
 5957SOL     OW29332   2.774   2.352   7.689  0.4001  0.1545  0.4488
 5957SOL    HW129333   2.749   2.386   7.603  0.2121 -0.4845  0.2490
 5957SOL    HW229334   2.869   2.345   7.675  0.1945 -2.3427  0.3334
 5958SOL     OW29335   2.338   1.049  17.204 -1.1063  0.4048  0.2421
 5958SOL    HW129336   2.249   1.083  17.198 -1.3666 -0.1909  0.7415
 5958SOL    HW229337   2.354   1.062  17.110 -1.4448  3.9419  0.6677
 5959SOL     OW29338   0.725   0.623   4.284  0.3188  0.1714  0.4548
 5959SOL    HW129339   0.757   0.607   4.196 -2.6547 -2.1124 -0.1881
 5959SOL    HW229340   0.652   0.685   4.274  1.5084  1.2341 -1.6568
 5960SOL     OW29341   3.477   2.263   2.724  0.3931  0.4768  0.0565
 5960SOL    HW129342   3.471   2.311   2.641  1.8239  1.8983  0.7803
 5960SOL    HW229343   3.385   2.238   2.735 -0.3658  2.9951 -0.4258
 5961SOL     OW29344   2.004   0.310   5.110 -0.0644  0.7293 -0.0478
 5961SOL    HW129345   2.005   0.405   5.114  1.0316  0.7638 -0.9287
 5961SOL    HW229346   1.913   0.289   5.130 -0.0968 -1.1023 -2.0440
 5962SOL     OW29347   3.269   1.745   3.845  0.0600  0.1775 -0.1155
 5962SOL    HW129348   3.252   1.712   3.933 -0.4358  0.4403 -0.1148
 5962SOL    HW229349   3.334   1.688   3.802  0.5836 -1.7978  3.3155
 5963SOL     OW29350   4.585   2.403   0.316 -0.1318 -0.6263  0.5767
 5963SOL    HW129351   4.522   2.385   0.386 -1.2008  0.3432 -0.1465
 5963SOL    HW229352   4.633   2.320   0.317  1.9217  0.6118  3.7264
 5964SOL     OW29353   2.298   3.852   8.822  0.8666 -0.5699 -0.2668
 5964SOL    HW129354   2.283   3.941   8.791 -2.4263 -1.9207 -2.5674
 5964SOL    HW229355   2.221   3.828   8.875 -1.6803  1.8217 -2.8804
 5965SOL     OW29356   2.767   2.904   6.258 -0.1037  0.4309  0.4036
 5965SOL    HW129357   2.742   2.989   6.295 -0.7144  1.3257 -2.1047
 5965SOL    HW229358   2.833   2.931   6.194 -1.1739  0.2698 -0.7471
 5966SOL     OW29359   0.947   4.001   8.968  0.2584  0.0216  0.2365
 5966SOL    HW129360   0.853   3.984   8.976  0.4927 -0.2496  2.3237
 5966SOL    HW229361   0.974   3.932   8.907  0.0005  1.4819 -1.5431
 5967SOL     OW29362   3.467   2.145   1.957 -0.3251  0.3380  0.8385
 5967SOL    HW129363   3.502   2.227   1.991 -2.4244  1.9164 -0.8846
 5967SOL    HW229364   3.376   2.159   1.983 -0.7461 -0.4028 -0.2031
 5968SOL     OW29365   4.536   3.036   5.268  0.2968  0.0220 -0.2340
 5968SOL    HW129366   4.443   3.055   5.278 -0.1692 -0.7823 -3.0384
 5968SOL    HW229367   4.563   3.123   5.298 -0.0588 -0.5412  1.7261
 5969SOL     OW29368   2.775   1.531   3.974  0.4697 -0.3448  0.7060
 5969SOL    HW129369   2.739   1.461   3.919  1.1144 -0.9265  1.0245
 5969SOL    HW229370   2.739   1.507   4.060 -1.0456 -0.5189  0.0218
 5970SOL     OW29371   3.515   2.792   5.425 -0.1987  0.4456  0.1567
 5970SOL    HW129372   3.428   2.751   5.427  0.5391 -1.1596 -0.4817
 5970SOL    HW229373   3.506   2.859   5.358 -2.0799 -0.0239 -0.0538
 5971SOL     OW29374   0.816   4.454  10.399  0.1813  0.5282  0.5527
 5971SOL    HW129375   0.820   4.467  10.494 -0.4368 -2.0349  0.9466
 5971SOL    HW229376   0.876   4.379  10.392 -0.8579 -0.1037 -1.4577
 5972SOL     OW29377   4.265   0.333   5.121 -0.5160  0.3296  0.3580
 5972SOL    HW129378   4.234   0.412   5.165  0.4214  0.8654  0.0695
 5972SOL    HW229379   4.255   0.351   5.028 -1.0817  2.0770  0.7625
 5973SOL     OW29380   0.861   0.393   9.041  0.2360 -0.0300 -0.5299
 5973SOL    HW129381   0.896   0.435   9.120  2.1600 -1.0879 -0.8370
 5973SOL    HW229382   0.779   0.351   9.069  0.3359  0.9388  1.2410
 5974SOL     OW29383   0.144   4.417  13.776 -0.5359  0.3614 -0.2909
 5974SOL    HW129384   0.109   4.432  13.863  0.9294  2.1092 -0.0080
 5974SOL    HW229385   0.233   4.391  13.800 -0.7218 -0.1186 -0.1200
 5975SOL     OW29386   3.566   0.439   2.975 -0.2992  0.4571  0.7417
 5975SOL    HW129387   3.550   0.409   3.064  0.9534  0.8876  1.1055
 5975SOL    HW229388   3.544   0.366   2.918  1.1470  0.1378  0.5991
 5976SOL     OW29389   2.441   4.185  15.654  0.5573 -0.0823 -0.3272
 5976SOL    HW129390   2.419   4.124  15.583  0.3571 -0.4829  0.0871
 5976SOL    HW229391   2.415   4.270  15.616 -1.9889 -1.0085 -0.6789
 5977SOL     OW29392   0.233   4.377   6.606  0.3150  0.3518 -0.1448
 5977SOL    HW129393   0.210   4.385   6.513  0.4074 -0.6642 -0.2479
 5977SOL    HW229394   0.314   4.328   6.600  1.2287  1.9107 -0.4952
 5978SOL     OW29395   0.592   1.780   6.795 -0.1099  0.1611  0.3608
 5978SOL    HW129396   0.578   1.728   6.715  3.3159  2.4775 -1.7592
 5978SOL    HW229397   0.524   1.752   6.856  0.1358 -1.1062  0.0573
 5979SOL     OW29398   4.240   2.254  12.416 -0.2153  0.3236  0.1464
 5979SOL    HW129399   4.193   2.179  12.379  1.2400  0.0529 -1.1285
 5979SOL    HW229400   4.195   2.323  12.366  3.8625  2.2027 -0.8947
 5980SOL     OW29401   0.004   1.152   9.176 -0.2888 -0.0362  1.2188
 5980SOL    HW129402   0.069   1.085   9.156  1.0433  1.3997  0.6900
 5980SOL    HW229403   0.056   1.231   9.160 -1.5723  0.4343 -0.6553
 5981SOL     OW29404   4.074   4.329   6.333 -0.5959 -0.4182 -0.1820
 5981SOL    HW129405   4.081   4.389   6.259 -0.6104 -0.4672 -0.2229
 5981SOL    HW229406   4.166   4.306   6.347 -0.1213  2.0090  0.6775
 5982SOL     OW29407   1.845   2.442   4.110 -0.9363 -0.1414  0.2106
 5982SOL    HW129408   1.858   2.412   4.200 -0.1506 -0.2921  0.0489
 5982SOL    HW229409   1.806   2.528   4.125 -2.1091 -0.3093 -1.8239
 5983SOL     OW29410   4.088   2.979  12.984 -0.6320 -0.2717 -0.6763
 5983SOL    HW129411   4.177   2.987  13.019 -0.5072  0.0432 -1.0615
 5983SOL    HW229412   4.072   2.885  12.973  0.3513 -0.5871  0.6308
 5984SOL     OW29413   2.092   1.399   7.035  0.5250  0.0207 -0.2347
 5984SOL    HW129414   2.069   1.306   7.043 -2.1982  0.6126 -1.2434
 5984SOL    HW229415   2.016   1.456   7.027  1.8982  1.7139 -1.1579
 5985SOL     OW29416   3.826   4.591   6.110  0.3363  0.1292 -0.1344
 5985SOL    HW129417   3.740   4.578   6.151  0.9695 -0.7724  0.9135
 5985SOL    HW229418   3.850   4.500   6.093 -0.1491 -0.1056  0.4197
 5986SOL     OW29419   4.596   0.280   2.889 -0.0366 -0.1196  0.2475
 5986SOL    HW129420   4.659   0.288   2.960 -1.9729  0.7928  1.8684
 5986SOL    HW229421   4.523   0.236   2.933 -0.3277  0.0345 -0.0754
 5987SOL     OW29422   0.834   2.868   4.372 -0.4906  0.5114 -0.1572
 5987SOL    HW129423   0.768   2.829   4.430  3.0130  0.1930  3.5854
 5987SOL    HW229424   0.796   2.956   4.364  0.1972  0.7041 -1.3852
 5988SOL     OW29425   2.883   1.411   4.481  0.6050 -0.2604 -0.3161
 5988SOL    HW129426   2.954   1.352   4.456  0.8228 -0.3590  0.5318
 5988SOL    HW229427   2.846   1.431   4.395  0.6051 -2.6393 -0.8511
 5989SOL     OW29428   0.611   3.158  10.135  0.7653 -0.1767  0.1446
 5989SOL    HW129429   0.542   3.109  10.179  1.6087 -1.7022 -0.2366
 5989SOL    HW229430   0.663   3.087  10.099 -0.7356 -1.3485  0.3228
 5990SOL     OW29431   0.265   2.230   2.694  0.7492  0.0336  0.2242
 5990SOL    HW129432   0.264   2.136   2.673  1.8230 -0.0489  0.5202
 5990SOL    HW229433   0.328   2.226   2.767 -1.0688  0.6657  1.8210
 5991SOL     OW29434   4.613   0.226  11.439  0.0177  0.0676 -0.2543
 5991SOL    HW129435   4.534   0.256  11.485  0.3513 -0.8954  0.9642
 5991SOL    HW229436   4.644   0.310  11.407 -1.2790  1.0871  1.0980
 5992SOL     OW29437   3.608   3.977   2.159  0.6430 -0.5840 -0.3005
 5992SOL    HW129438   3.566   4.048   2.208  1.7357  0.3993 -0.7709
 5992SOL    HW229439   3.541   3.912   2.139 -1.5830  2.4508 -2.6760
 5993SOL     OW29440   3.122   2.661   8.739 -0.0305 -0.4503 -0.4183
 5993SOL    HW129441   3.165   2.608   8.805 -1.8273 -1.3814  0.0125
 5993SOL    HW229442   3.172   2.742   8.732  0.6473 -0.7519  1.1136
 5994SOL     OW29443   3.334   1.011   4.067 -0.6094 -0.3249 -0.0158
 5994SOL    HW129444   3.421   1.049   4.079 -1.3009  2.0934 -2.7929
 5994SOL    HW229445   3.340   0.929   4.116 -1.5440 -0.5709 -0.3243
 5995SOL     OW29446   0.954   3.588  12.943  0.0886 -0.1501 -0.2447
 5995SOL    HW129447   0.874   3.640  12.956  0.0745 -0.1944 -0.1595
 5995SOL    HW229448   0.981   3.602  12.852 -0.9318 -2.1739 -0.8542
 5996SOL     OW29449   2.670   3.859   6.930  0.1540  0.3213 -0.6974
 5996SOL    HW129450   2.728   3.783   6.921 -1.5511 -1.3950  2.9862
 5996SOL    HW229451   2.670   3.869   7.025  0.7036  1.7702 -0.8456
 5997SOL     OW29452   1.415   1.138  12.806  0.0649  0.1169  0.5483
 5997SOL    HW129453   1.406   1.170  12.896 -0.5592 -1.1385  0.9318
 5997SOL    HW229454   1.456   1.056  12.833  1.2255  0.2370 -0.8218
 5998SOL     OW29455   2.997   0.761   1.194  0.5381 -0.1649  0.8181
 5998SOL    HW129456   2.921   0.776   1.252  0.2422  1.0666  0.1091
 5998SOL    HW229457   3.014   0.672   1.223 -0.8956 -1.0363 -0.9745
 5999SOL     OW29458   4.276   3.623   4.305 -0.1276  0.0465  0.4132
 5999SOL    HW129459   4.304   3.532   4.293  0.5997  0.3040  0.1464
 5999SOL    HW229460   4.183   3.619   4.284 -0.0673  3.1255 -0.3606
 6000SOL     OW29461   3.358   2.037   2.527  0.4142 -0.0391  0.7267
 6000SOL    HW129462   3.293   1.967   2.520  2.6775 -1.8592 -1.8377
 6000SOL    HW229463   3.299   2.091   2.581 -0.8521 -1.9030  1.1859
 6001SOL     OW29464   4.232   2.775   9.515 -0.2617 -0.3190 -0.0860
 6001SOL    HW129465   4.257   2.719   9.441 -1.0490 -0.2723 -0.3984
 6001SOL    HW229466   4.253   2.722   9.591  0.7417  0.5297  0.2261
 6002SOL     OW29467   1.804   0.412   4.505  0.1008 -0.4900 -0.1551
 6002SOL    HW129468   1.785   0.376   4.592  1.7427  1.2098  0.8999
 6002SOL    HW229469   1.788   0.503   4.529  3.2169  0.4848 -1.8218
 6003SOL     OW29470   3.483   2.938   5.870  0.0458  0.1538 -0.0682
 6003SOL    HW129471   3.433   2.859   5.888 -0.5461  0.3911 -0.6597
 6003SOL    HW229472   3.422   3.008   5.895 -0.2875  0.4601 -1.7196
 6004SOL     OW29473   4.271   2.615   9.727 -0.1067  0.6458  0.2717
 6004SOL    HW129474   4.316   2.583   9.805 -0.7283 -1.7500 -0.3539
 6004SOL    HW229475   4.270   2.545   9.662  0.1975  0.4167  0.5145
 6005SOL     OW29476   2.837   1.816   5.226 -0.1408 -0.3976 -0.0604
 6005SOL    HW129477   2.828   1.815   5.131 -0.9768 -1.9041  0.0373
 6005SOL    HW229478   2.861   1.726   5.245 -1.2053 -0.8427 -0.8935
 6006SOL     OW29479   3.355   1.366  12.512  0.5553  0.2738 -0.4271
 6006SOL    HW129480   3.406   1.429  12.564  0.4978 -0.0914  0.0774
 6006SOL    HW229481   3.265   1.393  12.528  1.0188  1.5134  0.1475
 6007SOL     OW29482   3.490   2.702  17.342  0.1651  0.0792 -0.1600
 6007SOL    HW129483   3.555   2.754  17.294 -2.6173  1.0308 -2.9236
 6007SOL    HW229484   3.488   2.622  17.290  0.3256 -1.1153  1.6847
 6008SOL     OW29485   3.393   0.664  12.390  0.1444 -0.1579  0.5104
 6008SOL    HW129486   3.379   0.578  12.351  1.8965 -0.8232  1.3269
 6008SOL    HW229487   3.480   0.684  12.354 -1.1078  0.0764 -2.3711
 6009SOL     OW29488   3.474   1.347  10.412  0.5434 -0.0605  0.1017
 6009SOL    HW129489   3.430   1.316  10.491 -2.3076  1.3517 -0.9091
 6009SOL    HW229490   3.432   1.283  10.355  0.9291  1.3395 -1.7681
 6010SOL     OW29491   3.359   4.109  16.548  0.1126 -0.3407  0.0546
 6010SOL    HW129492   3.422   4.150  16.489  1.6352 -0.5151  1.5556
 6010SOL    HW229493   3.395   4.020  16.545 -0.5342 -0.5756 -0.6826
 6011SOL     OW29494   1.271   1.610   6.256  0.0687 -0.5469  0.3231
 6011SOL    HW129495   1.200   1.658   6.300 -1.2068 -2.2964  0.1585
 6011SOL    HW229496   1.222   1.559   6.191 -2.2274  1.4333  0.4858
 6012SOL     OW29497   2.172   3.099   7.335  0.1290  0.2765 -0.0328
 6012SOL    HW129498   2.193   3.181   7.381  2.2022  0.4988 -1.3745
 6012SOL    HW229499   2.116   3.120   7.260 -1.2146  0.9594  1.1574
 6013SOL     OW29500   1.396   0.786  17.054  0.0165 -0.1330 -0.0978
 6013SOL    HW129501   1.404   0.692  17.039 -0.0066 -0.3172  1.0554
 6013SOL    HW229502   1.332   0.788  17.125 -2.4562 -0.0489 -2.3234
 6014SOL     OW29503   0.818   1.731  16.096 -0.0689 -0.5528 -0.4764
 6014SOL    HW129504   0.885   1.699  16.036  0.8384  0.7729 -0.1902
 6014SOL    HW229505   0.792   1.812  16.052  3.6492  1.2289  0.5745
 6015SOL     OW29506   0.390   3.799   4.715  0.0128 -0.3983  0.5918
 6015SOL    HW129507   0.299   3.774   4.698  0.8949 -1.5722 -2.3196
 6015SOL    HW229508   0.382   3.891   4.740 -0.4898  0.2774 -2.1315
 6016SOL     OW29509   4.094   3.604   3.815 -0.0073 -0.0699 -0.3358
 6016SOL    HW129510   4.156   3.590   3.743  2.3171 -0.5743  1.7491
 6016SOL    HW229511   4.026   3.557   3.768 -0.6705  0.4994  0.0592
 6017SOL     OW29512   0.996   3.424   8.827 -0.1200 -0.0424 -0.0588
 6017SOL    HW129513   1.045   3.503   8.849 -2.0823  1.7180 -1.9384
 6017SOL    HW229514   0.967   3.398   8.915 -0.2483 -2.5497 -0.8355
 6018SOL     OW29515   0.913   2.761   4.045  0.2532 -0.0944  0.4444
 6018SOL    HW129516   0.868   2.699   4.103 -0.6509  0.4015  0.2801
 6018SOL    HW229517   0.865   2.745   3.964  1.1027 -0.5390  0.0264
 6019SOL     OW29518   0.412   3.750  12.557  0.2861 -0.5282 -0.0579
 6019SOL    HW129519   0.343   3.714  12.502 -0.7155  0.1721  0.7480
 6019SOL    HW229520   0.490   3.750  12.501 -1.7141 -2.1918 -2.8706
 6020SOL     OW29521   1.068   2.753   3.186  0.1479 -0.3489  0.2705
 6020SOL    HW129522   1.027   2.674   3.150 -0.6082 -0.3983  1.2101
 6020SOL    HW229523   1.154   2.721   3.212  0.2806 -2.7112 -3.1564
 6021SOL     OW29524   3.514   2.134   4.481 -0.1314  0.4743 -0.5695
 6021SOL    HW129525   3.586   2.072   4.484  0.0266  0.6724 -0.2498
 6021SOL    HW229526   3.477   2.121   4.394  1.9288  2.0429 -1.6641
 6022SOL     OW29527   1.941   3.200   3.294 -0.0215 -0.2397 -0.2240
 6022SOL    HW129528   1.978   3.117   3.265 -0.1713 -0.2251 -0.4575
 6022SOL    HW229529   2.011   3.262   3.271  0.7316 -1.3311 -0.8976
 6023SOL     OW29530   3.813   0.039   8.730 -0.5440 -0.7462 -0.3874
 6023SOL    HW129531   3.904   0.051   8.759  0.3641  2.6605 -4.6053
 6023SOL    HW229532   3.768   0.038   8.815  0.8076 -0.5532  0.3366
 6024SOL     OW29533   1.093   2.357  10.026 -0.1406  0.5737  0.0389
 6024SOL    HW129534   1.102   2.437   9.974 -1.3965 -1.2588 -3.0076
 6024SOL    HW229535   1.104   2.288   9.960 -3.3292 -0.9223  1.0657
 6025SOL     OW29536   0.289   2.352   3.440  0.6190  0.9540  0.1137
 6025SOL    HW129537   0.318   2.349   3.531 -2.2569 -1.1961  0.9429
 6025SOL    HW229538   0.201   2.388   3.452 -0.8222 -2.4337 -0.2148
 6026SOL     OW29539   0.314   1.210  12.470  0.2906 -0.4326 -0.5285
 6026SOL    HW129540   0.224   1.194  12.501  0.6301  1.2936  1.3839
 6026SOL    HW229541   0.308   1.300  12.438 -2.7468 -0.3991  0.0810
 6027SOL     OW29542   4.154   0.236   5.496  0.3394  0.2791  0.1303
 6027SOL    HW129543   4.079   0.184   5.469 -0.5426 -0.0649  3.1731
 6027SOL    HW229544   4.222   0.169   5.509  0.1616 -0.2156 -1.5858
 6028SOL     OW29545   1.045   0.307  14.700  0.3390  0.3433  0.3737
 6028SOL    HW129546   1.072   0.226  14.744 -4.5042 -0.8308  1.0781
 6028SOL    HW229547   1.081   0.294  14.612  1.7170  2.3307  0.6253
 6029SOL     OW29548   3.475   4.245   7.715  0.3171  0.5042 -0.3589
 6029SOL    HW129549   3.385   4.224   7.740 -0.1717  1.3856 -1.3689
 6029SOL    HW229550   3.478   4.330   7.759 -0.3316  0.3201  0.0429
 6030SOL     OW29551   3.934   1.362   2.277 -0.0806  0.5923 -0.0777
 6030SOL    HW129552   3.847   1.383   2.243  1.3713  3.9579 -1.7158
 6030SOL    HW229553   3.932   1.419   2.354 -0.7090 -0.3123  0.5835
 6031SOL     OW29554   4.548   4.131   9.803 -0.5217  0.0060 -0.8066
 6031SOL    HW129555   4.613   4.186   9.846 -0.7545  0.2391 -0.7560
 6031SOL    HW229556   4.587   4.116   9.716  0.5822 -1.5388 -0.0509
 6032SOL     OW29557   4.512   4.599   2.881  0.4158 -0.4684 -0.2806
 6032SOL    HW129558   4.554   4.514   2.889  1.9970  0.3388  0.1296
 6032SOL    HW229559   4.583   4.648   2.923  0.2391  0.1512 -0.7019
 6033SOL     OW29560   0.467   0.083  11.648  0.3397 -0.0209 -0.3958
 6033SOL    HW129561   0.488   0.075  11.741 -3.6233 -0.3539  0.4596
 6033SOL    HW229562   0.396   0.147  11.649  0.3252  0.0153 -2.6867
 6034SOL     OW29563   3.590   1.179   0.908 -0.1011 -0.3397 -0.1534
 6034SOL    HW129564   3.623   1.116   0.972 -0.6046 -1.1441 -0.6917
 6034SOL    HW229565   3.627   1.151   0.825  0.6131 -1.7942  0.6475
 6035SOL     OW29566   3.753   3.404   2.134 -0.0198  0.3000  0.1650
 6035SOL    HW129567   3.741   3.353   2.214  1.9561 -0.5203 -0.0697
 6035SOL    HW229568   3.809   3.477   2.159  2.5765 -2.2188  1.7512
 6036SOL     OW29569   1.415   2.772  11.206  0.9131  0.0567  0.4198
 6036SOL    HW129570   1.445   2.804  11.121 -0.1952  0.2986  0.1259
 6036SOL    HW229571   1.339   2.826  11.225  0.1519 -0.3749 -1.3707
 6037SOL     OW29572   0.053   1.739  16.411  0.2659  0.0016  0.6275
 6037SOL    HW129573   0.005   1.657  16.417  0.6176 -0.2657 -0.2940
 6037SOL    HW229574   4.709   1.804  16.396 -0.1717 -0.6869 -0.3534
 6038SOL     OW29575   2.556   1.014   4.828  0.4035  0.3473 -0.8477
 6038SOL    HW129576   2.480   1.072   4.830 -1.5859 -2.1955 -1.6817
 6038SOL    HW229577   2.619   1.062   4.775 -0.8152  0.3833 -2.2644
 6039SOL     OW29578   0.525   0.821   2.457  0.0998  0.1666  0.0244
 6039SOL    HW129579   0.541   0.847   2.547  1.0782 -2.2994  0.5703
 6039SOL    HW229580   0.543   0.905   2.415  1.2804  1.0654  2.3472
 6040SOL     OW29581   1.437   3.089   6.626  0.1257  0.6627 -0.5999
 6040SOL    HW129582   1.437   3.064   6.719  0.1164 -0.7294 -0.9717
 6040SOL    HW229583   1.520   3.134   6.617  0.6525  0.1270  1.5935
 6041SOL     OW29584   2.523   4.155   8.386  0.4389  0.4573 -0.3789
 6041SOL    HW129585   2.507   4.116   8.472 -1.7168 -0.2133 -1.0917
 6041SOL    HW229586   2.516   4.248   8.408  2.0714 -0.0821  2.5207
 6042SOL     OW29587   4.634   4.506   6.748 -0.2176 -0.4616  0.3119
 6042SOL    HW129588   4.629   4.411   6.741 -0.5424 -0.3670 -0.6674
 6042SOL    HW229589   4.632   4.515   6.843 -0.9095  1.6255  0.1080
 6043SOL     OW29590   2.416   3.629   6.886 -0.4299  0.3017  0.2043
 6043SOL    HW129591   2.386   3.539   6.870 -1.7303  0.6554  0.6398
 6043SOL    HW229592   2.411   3.629   6.981  0.0563  1.4916  0.2206
 6044SOL     OW29593   2.525   0.943   4.169 -0.2437  0.2910  0.2823
 6044SOL    HW129594   2.431   0.941   4.153 -0.3261 -0.6377  0.9741
 6044SOL    HW229595   2.547   0.884   4.097 -1.3065 -0.0995  0.2732
 6045SOL     OW29596   4.410   1.869   9.270  0.1366 -0.1757 -0.3644
 6045SOL    HW129597   4.457   1.918   9.338  0.8912 -0.0654 -0.9743
 6045SOL    HW229598   4.316   1.882   9.288 -0.3101 -0.8866 -2.1884
 6046SOL     OW29599   0.262   1.439   7.170  0.1444  0.0230 -0.6428
 6046SOL    HW129600   0.272   1.472   7.081 -0.2989  0.7198 -0.4308
 6046SOL    HW229601   0.177   1.475   7.195  0.6047  0.3784  0.4200
 6047SOL     OW29602   3.776   2.993  12.794 -0.1347  0.3777 -0.0643
 6047SOL    HW129603   3.730   3.033  12.868  0.7577 -0.0929  0.7360
 6047SOL    HW229604   3.870   3.001  12.809  0.0323 -2.9745  0.7063
 6048SOL     OW29605   2.312   0.110  15.412  0.3009 -0.0995 -0.1890
 6048SOL    HW129606   2.335   0.187  15.360 -0.0132  1.0247  1.3232
 6048SOL    HW229607   2.352   0.048  15.351 -1.2639  0.1281 -1.4441
 6049SOL     OW29608   3.114   1.563   4.600 -0.1178  0.4404  0.4622
 6049SOL    HW129609   3.152   1.619   4.533  2.4453 -1.6970  0.1076
 6049SOL    HW229610   3.050   1.510   4.552  1.7596 -2.1159  0.7763
 6050SOL     OW29611   4.202   4.676   3.643  0.1950 -0.2742 -0.3544
 6050SOL    HW129612   4.248   4.704   3.722  1.1381  4.3535 -2.5664
 6050SOL    HW229613   4.256   4.710   3.572 -0.5913 -0.8059 -1.2055
 6051SOL     OW29614   2.720   3.153   5.112 -0.0548 -0.2418 -0.2055
 6051SOL    HW129615   2.714   3.058   5.122  1.3882 -0.4494 -1.3693
 6051SOL    HW229616   2.778   3.169   5.187  1.0312  2.1940 -1.5716
 6052SOL     OW29617   2.475   2.522   4.174  0.7112 -0.8255 -0.7250
 6052SOL    HW129618   2.553   2.578   4.179  0.8695 -1.1881  1.0114
 6052SOL    HW229619   2.462   2.528   4.080 -1.7166  0.2238 -0.3302
 6053SOL     OW29620   3.977   3.993   5.429  0.1821 -0.2473 -0.7439
 6053SOL    HW129621   3.994   4.084   5.406  0.3561  0.3451  1.7065
 6053SOL    HW229622   4.008   3.993   5.520  0.2630 -0.0914 -0.7716
 6054SOL     OW29623   0.588   1.756   3.499 -0.0061 -0.0315  0.5618
 6054SOL    HW129624   0.605   1.841   3.459  1.2922 -0.4542  0.2170
 6054SOL    HW229625   0.539   1.779   3.578 -0.1555  0.5901  0.2910
 6055SOL     OW29626   1.520   4.540   4.733  0.4939  0.1491 -0.0493
 6055SOL    HW129627   1.609   4.571   4.721 -0.2272  2.1908 -0.1704
 6055SOL    HW229628   1.470   4.600   4.677 -0.8803 -1.1321 -0.1883
 6056SOL     OW29629   3.131   0.285   3.630 -0.1627 -0.4570 -0.3300
 6056SOL    HW129630   3.153   0.306   3.721 -0.3347 -0.2032 -0.3449
 6056SOL    HW229631   3.112   0.372   3.594 -2.0663 -1.1231 -0.9405
 6057SOL     OW29632   4.214   3.624   1.127 -0.2461  0.0214  0.6577
 6057SOL    HW129633   4.215   3.544   1.074 -0.4098  0.3586  0.1448
 6057SOL    HW229634   4.299   3.660   1.102  0.7060 -1.0638  2.3170
 6058SOL     OW29635   2.664   0.505   2.795 -0.6385 -0.5933 -0.0379
 6058SOL    HW129636   2.655   0.590   2.750  0.5347  0.6678  2.1264
 6058SOL    HW229637   2.630   0.434   2.741 -2.3280 -0.5411  0.9531
 6059SOL     OW29638   4.033   0.601   0.375  0.0518  0.0593  0.2742
 6059SOL    HW129639   3.985   0.661   0.432  0.4697 -0.2299  0.9303
 6059SOL    HW229640   4.107   0.656   0.350 -0.8118  0.6931 -0.9053
 6060SOL     OW29641   3.464   1.385  11.323  0.0534 -0.5746 -0.0862
 6060SOL    HW129642   3.406   1.457  11.299  1.2212  0.1369 -0.8265
 6060SOL    HW229643   3.464   1.391  11.418  0.8686  0.5897 -0.1653
 6061SOL     OW29644   2.690   3.073   6.528 -0.2570  0.0254  0.2027
 6061SOL    HW129645   2.599   3.089   6.552 -0.3500 -1.6699  0.9966
 6061SOL    HW229646   2.715   3.135   6.459  0.9577 -0.0443  0.5855
 6062SOL     OW29647   2.437   1.786  10.283 -0.1642 -0.2381  0.2558
 6062SOL    HW129648   2.433   1.743  10.198  1.8029  1.2869 -0.6034
 6062SOL    HW229649   2.351   1.756  10.313 -0.5318  1.5659  0.9768
 6063SOL     OW29650   3.613   2.588  14.440 -0.1164  0.1682  0.3456
 6063SOL    HW129651   3.523   2.608  14.465 -0.6514 -1.8853  0.0183
 6063SOL    HW229652   3.636   2.658  14.377 -0.7698  0.5819  0.5649
 6064SOL     OW29653   4.663   0.806  12.074  0.3975  0.0033  0.2770
 6064SOL    HW129654   0.034   0.806  12.068  0.3840 -1.1315  0.0475
 6064SOL    HW229655   4.648   0.712  12.077 -0.6786  0.1227 -1.6300
 6065SOL     OW29656   1.782   3.485  14.921  0.1434  0.6451  0.1409
 6065SOL    HW129657   1.768   3.402  14.877 -0.3340  1.6034 -1.5291
 6065SOL    HW229658   1.707   3.542  14.900  0.6206 -0.0725 -3.4831
 6066SOL     OW29659   0.027   2.125  10.814  0.1860 -0.3817 -0.1567
 6066SOL    HW129660   4.663   2.145  10.847  0.8887  2.4812 -0.0683
 6066SOL    HW229661   0.070   2.207  10.839 -1.5575  0.0945  1.3163
 6067SOL     OW29662   2.740   0.692  14.571  0.5388 -0.1379 -0.2018
 6067SOL    HW129663   2.821   0.741  14.556  0.6900 -0.6372 -0.9796
 6067SOL    HW229664   2.724   0.650  14.487  0.6368 -1.4717  0.4444
 6068SOL     OW29665   0.988   4.445  15.453  0.4156  0.0126  0.4244
 6068SOL    HW129666   1.048   4.422  15.524  0.6787  1.2871  0.6117
 6068SOL    HW229667   0.914   4.473  15.507 -0.0392 -1.8269  0.7467
 6069SOL     OW29668   1.322   0.932   4.912  0.1070 -0.3180  1.0401
 6069SOL    HW129669   1.397   0.878   4.888  0.3064  0.4447 -0.0423
 6069SOL    HW229670   1.317   0.991   4.837 -0.8102  0.5952  1.8200
 6070SOL     OW29671   1.894   3.457   2.448  0.4703  0.4025  0.5751
 6070SOL    HW129672   1.876   3.413   2.365 -1.0830  0.8881  0.6402
 6070SOL    HW229673   1.808   3.462   2.489 -0.7335  0.8953 -1.9889
 6071SOL     OW29674   1.847   2.881   8.876  0.6182 -0.2591  0.0467
 6071SOL    HW129675   1.927   2.919   8.914  0.1456 -1.3224  2.1472
 6071SOL    HW229676   1.779   2.923   8.930 -0.9305 -0.5121 -1.7310
 6072SOL     OW29677   0.900   0.802   8.632  0.1220 -0.4099  0.4051
 6072SOL    HW129678   0.910   0.895   8.654 -2.4670  0.3005 -1.4129
 6072SOL    HW229679   0.906   0.771   8.722 -0.3083 -0.7661  0.3110
 6073SOL     OW29680   3.294   3.233   8.891  0.3113 -0.1358  0.3553
 6073SOL    HW129681   3.353   3.233   8.816 -0.6520  2.6375 -0.3925
 6073SOL    HW229682   3.231   3.297   8.857  2.1113  0.4616 -1.8697
 6074SOL     OW29683   0.629   1.691   1.519  0.1481  0.2028 -0.4590
 6074SOL    HW129684   0.569   1.678   1.445 -0.9689 -0.3782  0.5306
 6074SOL    HW229685   0.616   1.785   1.524 -2.4230 -0.1401 -0.5939
 6075SOL     OW29686   1.333   0.311   9.225 -0.2613  0.2001 -0.0370
 6075SOL    HW129687   1.387   0.332   9.148 -0.1745  0.6854  0.1603
 6075SOL    HW229688   1.242   0.335   9.207  0.4970  2.5401 -0.8333
 6076SOL     OW29689   0.218   3.299  14.829  0.6223  0.6922  0.4558
 6076SOL    HW129690   0.177   3.242  14.893 -1.5445  0.2918 -1.2565
 6076SOL    HW229691   0.162   3.377  14.829 -0.1836  0.1041  1.3991
 6077SOL     OW29692   3.222   3.298   2.692  0.0566 -0.7303 -0.3271
 6077SOL    HW129693   3.159   3.251   2.638  0.6924 -0.6701 -1.1075
 6077SOL    HW229694   3.311   3.269   2.673  1.1960  0.3421  3.3347
 6078SOL     OW29695   4.306   4.510  11.089 -0.2962  0.2727 -0.1586
 6078SOL    HW129696   4.236   4.461  11.044 -1.3161  3.4401 -2.0735
 6078SOL    HW229697   4.266   4.596  11.102 -2.4517 -0.8344  0.6351
 6079SOL     OW29698   1.712   0.444   8.794 -0.4169  0.1843 -0.4932
 6079SOL    HW129699   1.662   0.414   8.718 -2.1732  0.0370  0.7055
 6079SOL    HW229700   1.778   0.376   8.787 -2.0972 -1.1704 -3.1451
 6080SOL     OW29701   4.336   2.974  15.910  0.0433  0.3409 -0.1055
 6080SOL    HW129702   4.296   2.978  15.997  3.9407 -1.8473  1.7848
 6080SOL    HW229703   4.414   2.925  15.938  0.6914  2.0522  1.0580
 6081SOL     OW29704   4.614   0.714   2.916  0.4040 -0.6778  0.1460
 6081SOL    HW129705   4.629   0.723   3.010 -0.4257 -0.2383  0.2335
 6081SOL    HW229706   4.704   0.712   2.882  0.1966 -2.0405 -0.3121
 6082SOL     OW29707   4.538   2.512   8.091  0.2428 -0.5911 -0.5321
 6082SOL    HW129708   4.628   2.493   8.117  0.2885  1.2790  0.7026
 6082SOL    HW229709   4.546   2.591   8.038 -1.2105 -1.1790 -1.6298
 6083SOL     OW29710   2.993   2.427   2.720 -0.5713 -0.1155 -0.2612
 6083SOL    HW129711   3.051   2.405   2.647 -0.6883 -0.7765 -0.1503
 6083SOL    HW229712   2.945   2.344   2.718  1.2646 -1.1957  0.2118
 6084SOL     OW29713   1.119   3.796   9.088 -0.5795  0.5170 -0.0772
 6084SOL    HW129714   1.096   3.783   8.996  0.8973 -2.6639  0.0032
 6084SOL    HW229715   1.083   3.882   9.110 -1.3437 -0.3898  2.2515
 6085SOL     OW29716   2.301   3.947  12.219  0.2888 -0.5241  0.9366
 6085SOL    HW129717   2.390   3.979  12.237 -0.0048  3.2060 -4.0449
 6085SOL    HW229718   2.319   3.869  12.167 -2.3377  0.4057 -1.3993
 6086SOL     OW29719   2.940   2.746   2.017  0.0474  0.1229  0.0292
 6086SOL    HW129720   2.907   2.756   1.927 -1.9977 -2.9617  0.4736
 6086SOL    HW229721   2.855   2.748   2.061 -0.0915 -1.6372 -0.1892
 6087SOL     OW29722   3.833   4.420  13.147 -0.2105  0.0893 -0.5205
 6087SOL    HW129723   3.810   4.504  13.107 -0.6050 -0.3466 -1.2207
 6087SOL    HW229724   3.915   4.415  13.098  0.1080 -1.1453  0.1496
 6088SOL     OW29725   4.287   4.243   1.730  0.1102 -0.4691  0.5430
 6088SOL    HW129726   4.360   4.266   1.788  0.7807 -2.7818  0.6157
 6088SOL    HW229727   4.212   4.243   1.789 -1.6046  0.0681 -1.6349
 6089SOL     OW29728   2.131   2.515   9.780  0.1813 -0.3147 -0.6521
 6089SOL    HW129729   2.067   2.445   9.775 -0.2354 -0.0037  0.3021
 6089SOL    HW229730   2.138   2.543   9.689  0.2771  1.7636 -0.0097
 6090SOL     OW29731   0.511   3.079   8.787  0.1175 -0.8912 -0.2574
 6090SOL    HW129732   0.605   3.099   8.785 -0.0315  0.0112  1.8615
 6090SOL    HW229733   0.487   3.145   8.851 -1.3124 -0.6974 -1.0002
 6091SOL     OW29734   1.394   0.355   9.492  0.3850  0.1712  0.1657
 6091SOL    HW129735   1.370   0.358   9.399  1.9178  0.6958 -0.2091
 6091SOL    HW229736   1.345   0.279   9.525 -1.4882  1.3923  0.2019
 6092SOL     OW29737   0.527   3.655   7.606  0.4872  0.1550  0.4074
 6092SOL    HW129738   0.580   3.733   7.620 -1.3746  1.6645 -1.0451
 6092SOL    HW229739   0.596   3.601   7.646  2.0456  2.5116  0.8743
 6093SOL     OW29740   4.226   0.145   8.546  0.0607 -0.5153  0.0477
 6093SOL    HW129741   4.165   0.143   8.619  2.4176 -1.3620  2.0151
 6093SOL    HW229742   4.221   0.235   8.513 -1.2912 -0.8706 -0.6761
 6094SOL     OW29743   1.260   4.542   4.436 -0.1839 -0.2943  0.6628
 6094SOL    HW129744   1.266   4.637   4.421 -1.8605  0.1677  2.8864
 6094SOL    HW229745   1.191   4.543   4.502 -1.6407  1.4599 -0.8934
 6095SOL     OW29746   3.351   0.401   8.438  0.1754 -0.5046  0.8183
 6095SOL    HW129747   3.301   0.350   8.374 -1.7723 -0.9079  2.6689
 6095SOL    HW229748   3.292   0.474   8.452 -1.3007 -1.1802 -1.8797
 6096SOL     OW29749   0.767   3.652  12.066  0.1808  0.5499 -0.5035
 6096SOL    HW129750   0.840   3.665  12.126 -0.7150  0.0681  0.6741
 6096SOL    HW229751   0.717   3.585  12.112  0.9728 -2.7985 -4.5488
 6097SOL     OW29752   1.989   0.247   8.356 -0.3157 -0.2157 -0.3124
 6097SOL    HW129753   1.993   0.159   8.392  1.9131 -0.4673 -1.1996
 6097SOL    HW229754   1.973   0.303   8.432 -0.7244 -1.3926  0.4692
 6098SOL     OW29755   3.467   0.631   7.667 -0.3057 -0.2017  0.0529
 6098SOL    HW129756   3.544   0.593   7.626  1.1734  1.5059  1.2390
 6098SOL    HW229757   3.448   0.567   7.736 -1.9262 -0.6351 -0.7945
 6099SOL     OW29758   2.960   3.215   9.630 -0.5315 -0.1829  0.1661
 6099SOL    HW129759   3.006   3.299   9.633 -0.8287  0.0196 -0.7625
 6099SOL    HW229760   3.029   3.154   9.658  0.1740  1.4461  1.9462
 6100SOL     OW29761   0.301   4.493   2.384 -0.5588 -0.5523  0.6650
 6100SOL    HW129762   0.233   4.551   2.419 -1.7244  0.3667 -3.0753
 6100SOL    HW229763   0.268   4.480   2.294 -0.3711 -0.5154  0.5916
 6101SOL     OW29764   3.252   1.760   6.186 -0.3522 -0.8830 -0.1266
 6101SOL    HW129765   3.197   1.682   6.185  1.8146 -2.4345  0.7805
 6101SOL    HW229766   3.330   1.721   6.145  0.4734  0.0984  0.5168
 6102SOL     OW29767   0.362   3.609   5.547 -0.2510  0.3676  0.1048
 6102SOL    HW129768   0.450   3.643   5.531 -0.6761 -0.4680 -4.2280
 6102SOL    HW229769   0.307   3.676   5.505  0.1314  1.1776  0.9041
 6103SOL     OW29770   1.230   1.004   6.444  0.1881  0.2879  0.2781
 6103SOL    HW129771   1.306   1.021   6.498  0.3196  0.6166 -0.0109
 6103SOL    HW229772   1.201   1.090   6.414 -0.1555 -0.2459 -0.9400
 6104SOL     OW29773   3.114   2.319   8.405  0.1835  0.1281  0.1054
 6104SOL    HW129774   3.075   2.395   8.447 -1.2770  0.0938 -1.2071
 6104SOL    HW229775   3.117   2.259   8.480 -0.2106  0.2853  0.2450
 6105SOL     OW29776   2.524   3.075   0.717  0.4669  0.1686  0.3611
 6105SOL    HW129777   2.498   3.090   0.626  0.5754  0.6463  0.4069
 6105SOL    HW229778   2.595   3.011   0.709 -1.2450 -1.7069  0.2174
 6106SOL     OW29779   0.445   0.370   7.283 -0.6819  0.2334  0.2452
 6106SOL    HW129780   0.443   0.279   7.253  0.0181  0.3170 -0.0478
 6106SOL    HW229781   0.507   0.395   7.214  0.5029 -0.3682  1.1075
 6107SOL     OW29782   2.934   2.535   2.957  0.2971 -0.2903 -1.2578
 6107SOL    HW129783   2.977   2.531   2.871 -0.7389 -0.1749 -1.7839
 6107SOL    HW229784   3.011   2.533   3.014 -0.7816 -0.2486  0.1909
 6108SOL     OW29785   1.552   4.064   9.272 -0.0231 -0.5776  0.5272
 6108SOL    HW129786   1.514   4.038   9.188  0.6954 -0.0695  0.0503
 6108SOL    HW229787   1.482   4.042   9.334 -1.3706 -0.2436 -0.8988
 6109SOL     OW29788   0.213   2.930   4.926  0.1040 -0.0503  0.3803
 6109SOL    HW129789   0.302   2.919   4.894 -0.2104  1.6596 -1.1062
 6109SOL    HW229790   0.231   2.990   4.998 -0.3973  1.6717 -0.9278
 6110SOL     OW29791   2.280   3.369   4.798 -0.7185  0.4208 -0.0860
 6110SOL    HW129792   2.203   3.425   4.788 -1.3357 -0.1685  1.3945
 6110SOL    HW229793   2.351   3.432   4.788  1.1105 -1.4119  1.3936
 6111SOL     OW29794   2.146   2.368  11.173  0.4023 -0.2413  0.1856
 6111SOL    HW129795   2.214   2.350  11.238  0.3433  0.2380  0.3767
 6111SOL    HW229796   2.080   2.307  11.206 -1.4642  1.9273  0.4208
 6112SOL     OW29797   2.414   1.279   6.870 -0.3294  0.1102  0.1256
 6112SOL    HW129798   2.347   1.248   6.808  0.5529  1.7590 -1.6438
 6112SOL    HW229799   2.447   1.192   6.892 -2.5585 -0.1585  2.4787
 6113SOL     OW29800   1.826   2.778   7.425  0.4962 -0.2621 -0.4437
 6113SOL    HW129801   1.787   2.863   7.408 -0.8330 -0.1473  3.2892
 6113SOL    HW229802   1.919   2.798   7.432  0.2724  0.1073  1.3146
 6114SOL     OW29803   1.607   0.763   3.945 -0.5594 -0.3937  0.2506
 6114SOL    HW129804   1.544   0.796   3.881  0.3073  1.4654  0.3569
 6114SOL    HW229805   1.563   0.684   3.976 -1.4769 -1.1342 -2.8424
 6115SOL     OW29806   0.151   0.016   3.531  0.0212  0.4667  0.2204
 6115SOL    HW129807   0.150   4.704   3.620 -2.6997 -0.9542 -0.3688
 6115SOL    HW229808   0.060   4.718   3.510 -0.1667  1.5046 -0.0659
 6116SOL     OW29809   4.183   1.409   4.312 -0.1413 -0.1183  0.3736
 6116SOL    HW129810   4.203   1.489   4.360 -0.2776 -0.5854  1.1939
 6116SOL    HW229811   4.266   1.361   4.322 -1.3735 -2.1017  1.1206
 6117SOL     OW29812   1.146   3.183   5.360  0.0878  0.1561 -0.0073
 6117SOL    HW129813   1.220   3.228   5.401  1.0106 -0.7975 -0.6099
 6117SOL    HW229814   1.191   3.139   5.288  1.4660 -1.9850  2.1638
 6118SOL     OW29815   0.836   1.029  16.376 -0.1864 -0.0397 -0.3590
 6118SOL    HW129816   0.927   1.003  16.369  0.3372  1.6634  0.1685
 6118SOL    HW229817   0.836   1.125  16.372  1.6651 -0.0245  0.1476
 6119SOL     OW29818   4.274   0.690   6.108 -0.6443 -0.7841  0.3272
 6119SOL    HW129819   4.321   0.763   6.147 -0.5609 -0.3378 -0.6011
 6119SOL    HW229820   4.188   0.689   6.150 -0.8217  0.7878  0.0290
 6120SOL     OW29821   0.389   2.252  16.359  0.2348  0.5041  0.6757
 6120SOL    HW129822   0.421   2.269  16.270 -2.2057  2.7355  0.1905
 6120SOL    HW229823   0.431   2.167  16.364  1.7335  1.2474  0.8170
 6121SOL     OW29824   0.272   2.894   3.743  0.3482 -0.0031 -0.3832
 6121SOL    HW129825   0.193   2.926   3.786  0.8327 -0.1583  0.6313
 6121SOL    HW229826   0.328   2.972   3.745 -0.6706  0.6588  1.7194
 6122SOL     OW29827   1.570   2.603   2.971  0.6147 -0.6814 -0.0578
 6122SOL    HW129828   1.517   2.573   2.897  0.6912  1.1412 -0.8713
 6122SOL    HW229829   1.576   2.699   2.967 -1.9904 -0.5654 -0.6736
 6123SOL     OW29830   2.574   4.268  13.725  0.4456 -0.0677  0.0931
 6123SOL    HW129831   2.551   4.282  13.633  0.9730 -0.5479 -0.1123
 6123SOL    HW229832   2.501   4.314  13.766  1.6975  0.5259  1.6597
 6124SOL     OW29833   1.227   3.536  13.015  0.1248 -0.4017 -0.3991
 6124SOL    HW129834   1.135   3.532  12.989  0.8310  0.5449 -3.0379
 6124SOL    HW229835   1.268   3.518  12.931 -0.9301 -2.9027 -0.3779
 6125SOL     OW29836   1.297   0.881   1.246 -0.4125  0.1082 -0.3800
 6125SOL    HW129837   1.392   0.888   1.234 -0.5504  2.7803 -0.0835
 6125SOL    HW229838   1.287   0.907   1.338 -1.6181  1.2830 -0.8380
 6126SOL     OW29839   3.401   0.005   2.693  0.1554 -0.2064  0.5382
 6126SOL    HW129840   3.354   4.655   2.731  0.9013 -0.9265  0.0660
 6126SOL    HW229841   3.333   0.057   2.651  1.0626  1.6799  1.4294
 6127SOL     OW29842   0.126   1.718   6.563 -0.6181 -0.2398  0.3413
 6127SOL    HW129843   0.059   1.669   6.611  2.3731 -1.4683  3.2160
 6127SOL    HW229844   0.090   1.708   6.474  2.4816 -0.2201 -0.9061
 6128SOL     OW29845   0.427   2.558   6.100  0.2782  0.2721  0.3991
 6128SOL    HW129846   0.491   2.558   6.030  1.5309 -2.1735  1.5671
 6128SOL    HW229847   0.439   2.478   6.151  2.0762  0.4945  0.3071
 6129SOL     OW29848   4.184   2.767   8.266  0.3528 -0.1659  0.3837
 6129SOL    HW129849   4.110   2.765   8.327 -0.2686  1.0429 -0.3410
 6129SOL    HW229850   4.192   2.862   8.265 -2.0127  0.0369  0.1822
 6130SOL     OW29851   0.182   1.616  16.722  0.1254  0.1309  0.3457
 6130SOL    HW129852   0.231   1.668  16.785 -0.0723  2.0153 -1.0491
 6130SOL    HW229853   0.250   1.610  16.655 -2.2606  2.4919 -2.3185
 6131SOL     OW29854   4.346   3.421   2.845 -0.3875 -0.6412 -0.5499
 6131SOL    HW129855   4.302   3.371   2.914 -0.6927  1.5674  0.8219
 6131SOL    HW229856   4.274   3.430   2.783  1.0489  0.2576 -2.0695
 6132SOL     OW29857   3.778   0.407   9.209  0.1553 -0.2294 -0.0206
 6132SOL    HW129858   3.707   0.419   9.272  0.7308  0.4858  0.4926
 6132SOL    HW229859   3.751   0.461   9.134 -1.6527 -2.1196 -0.7168
 6133SOL     OW29860   1.348   1.351   4.147  0.1484  0.1603 -0.3239
 6133SOL    HW129861   1.382   1.304   4.071 -0.3119  0.1433 -0.5190
 6133SOL    HW229862   1.267   1.303   4.164  0.9613 -1.5101 -1.2692
 6134SOL     OW29863   4.603   4.560   2.057 -0.3751 -0.0653 -0.7642
 6134SOL    HW129864   4.570   4.484   2.105  0.6133  0.9661  1.5297
 6134SOL    HW229865   4.548   4.560   1.978 -1.9118 -1.9688  0.3173
 6135SOL     OW29866   2.587   1.114  16.844 -0.0462 -0.1119  0.5255
 6135SOL    HW129867   2.653   1.161  16.897 -1.5328  0.6407  1.7042
 6135SOL    HW229868   2.640   1.076  16.774 -0.2126  1.4717 -0.4725
 6136SOL     OW29869   3.871   0.137   9.227 -0.1881 -0.0962 -0.0060
 6136SOL    HW129870   3.877   0.121   9.321  0.6512 -0.1070 -0.0575
 6136SOL    HW229871   3.880   0.231   9.238 -0.2958  0.1768 -2.1579
 6137SOL     OW29872   4.447   0.009  17.652 -0.4983 -0.2477 -0.3039
 6137SOL    HW129873   4.391   4.657  17.666 -0.5922 -0.0612  0.3435
 6137SOL    HW229874   4.498   4.703  17.577 -0.8830 -2.0734  0.1603
 6138SOL     OW29875   2.107   4.035   6.105 -0.8361  0.0205  0.0228
 6138SOL    HW129876   2.035   4.092   6.078 -0.2155 -0.0613 -1.8462
 6138SOL    HW229877   2.114   4.047   6.199 -1.1750 -2.2364  0.3306
 6139SOL     OW29878   3.085   4.139   0.314  0.8191  0.1998  0.2367
 6139SOL    HW129879   3.080   4.234   0.317  0.6342  0.1885  0.2695
 6139SOL    HW229880   3.046   4.118   0.399 -1.2828  1.1213 -0.5120
 6140SOL     OW29881   1.540   0.879   1.732  0.0602 -0.1927  1.0024
 6140SOL    HW129882   1.619   0.827   1.716 -0.0255  0.3987 -1.4093
 6140SOL    HW229883   1.551   0.880   1.827 -0.1677 -1.4365  1.0355
 6141SOL     OW29884   2.226   4.153   5.892 -0.5949  0.1676  0.0335
 6141SOL    HW129885   2.215   4.090   5.963  0.4746  1.1770  1.0974
 6141SOL    HW229886   2.213   4.238   5.933 -0.7241  1.5029 -2.7264
 6142SOL     OW29887   0.477   0.402   7.923 -0.2640 -0.0957 -0.0846
 6142SOL    HW129888   0.444   0.423   7.836 -0.7958 -0.6601 -0.0212
 6142SOL    HW229889   0.565   0.439   7.929 -0.4318  0.3807 -0.5447
 6143SOL     OW29890   4.638   1.155  14.738  0.2224  0.6444  0.1221
 6143SOL    HW129891   4.592   1.134  14.819 -1.2264 -1.5062 -1.2656
 6143SOL    HW229892   4.663   1.069  14.706 -0.8907  0.5398 -0.4795
 6144SOL     OW29893   3.388   4.296   8.981  0.1786  0.0252  0.0511
 6144SOL    HW129894   3.375   4.351   8.904  1.1387 -0.2933 -0.3389
 6144SOL    HW229895   3.320   4.230   8.978  0.4355 -0.2125 -0.4611
 6145SOL     OW29896   3.238   0.626  17.555  0.1199  0.1696 -0.0416
 6145SOL    HW129897   3.250   0.573  17.476 -1.3873  1.7439 -1.3257
 6145SOL    HW229898   3.328   0.656  17.557  0.1469  0.0888 -0.0420
 6146SOL     OW29899   3.042   0.990   5.139  0.6899  0.0804 -0.5157
 6146SOL    HW129900   3.026   1.041   5.219  0.5445 -1.7533  0.6466
 6146SOL    HW229901   2.990   0.912   5.161  1.5463 -0.3057  0.1570
 6147SOL     OW29902   3.202   2.622  10.071 -0.3723  0.0262  0.5313
 6147SOL    HW129903   3.244   2.555  10.124  1.6964  2.2752  1.7336
 6147SOL    HW229904   3.113   2.591  10.055  0.2274 -1.0603 -0.7071
 6148SOL     OW29905   1.899   4.551  17.291 -0.5939 -0.5532  0.4371
 6148SOL    HW129906   1.958   4.620  17.322 -0.5803 -0.5334  0.3663
 6148SOL    HW229907   1.878   4.509  17.375  0.3189 -0.8689  0.5005
 6149SOL     OW29908   1.538   4.120   0.788  0.2747  0.7278  0.2334
 6149SOL    HW129909   1.583   4.158   0.712 -0.5799  0.7018 -0.2825
 6149SOL    HW229910   1.452   4.159   0.770 -0.2557 -0.6488 -0.2078
 6150SOL     OW29911   3.578   1.722   3.793  0.2627  0.4423 -0.1795
 6150SOL    HW129912   3.641   1.726   3.721  0.4769 -1.9603 -0.1372
 6150SOL    HW229913   3.535   1.806   3.776 -0.3886 -0.2513 -2.0248
 6151SOL     OW29914   2.376   1.957   6.631  0.3501  0.1388  0.3916
 6151SOL    HW129915   2.389   2.048   6.657  2.5566 -0.1947  0.4487
 6151SOL    HW229916   2.281   1.954   6.642  0.1410  1.8480 -1.1050
 6152SOL     OW29917   0.809   3.072   6.026 -0.2944 -0.1454 -1.0130
 6152SOL    HW129918   0.741   3.105   6.085 -0.1341 -1.6999  0.0246
 6152SOL    HW229919   0.813   3.149   5.970 -1.7683  1.5034  1.1138
 6153SOL     OW29920   0.737   1.391   1.283  0.0553 -0.1924  0.1861
 6153SOL    HW129921   0.705   1.396   1.373  1.5239  0.7467  0.6555
 6153SOL    HW229922   0.719   1.299   1.265  1.6268 -0.7339  1.3279
 6154SOL     OW29923   1.928   4.459   5.204  0.0784 -0.0506 -0.1873
 6154SOL    HW129924   1.969   4.543   5.187 -0.0675 -0.1118 -0.8368
 6154SOL    HW229925   1.998   4.411   5.249  0.7241  3.1353  2.1781
 6155SOL     OW29926   1.862   2.023   3.642  0.5783 -0.6930 -0.5687
 6155SOL    HW129927   1.890   2.016   3.734  0.8467  1.1132 -0.5213
 6155SOL    HW229928   1.808   2.102   3.644 -0.8960 -1.6673 -1.8962
 6156SOL     OW29929   0.800   2.170  15.695 -0.8461  0.7013  0.0008
 6156SOL    HW129930   0.768   2.088  15.658 -1.4218  0.1731  1.6245
 6156SOL    HW229931   0.825   2.222  15.619  1.4208 -0.1914  0.1360
 6157SOL     OW29932   2.985   1.535   1.452 -0.3586 -0.0811  0.3772
 6157SOL    HW129933   2.929   1.527   1.530 -1.5123 -1.1284 -0.5651
 6157SOL    HW229934   3.022   1.447   1.450 -1.1508 -0.4342  1.0768
 6158SOL     OW29935   4.535   3.784  10.587 -0.0683 -0.6791  0.0195
 6158SOL    HW129936   4.544   3.774  10.492  1.1130 -2.4408  0.3136
 6158SOL    HW229937   4.579   3.868  10.597  3.6230 -2.4081 -1.7769
 6159SOL     OW29938   4.013   3.801   3.150 -0.5904  0.5760  0.6623
 6159SOL    HW129939   3.969   3.886   3.153  0.3831  1.1079 -0.2643
 6159SOL    HW229940   4.059   3.801   3.066  1.6809 -0.4708  1.9250
 6160SOL     OW29941   2.022   0.235  15.465 -0.3487 -0.0048  0.4024
 6160SOL    HW129942   2.002   0.179  15.541  0.7892  0.0094  0.7248
 6160SOL    HW229943   2.014   0.179  15.388 -1.9494  2.6755 -1.3655
 6161SOL     OW29944   2.600   2.560   6.590 -0.6252 -0.0396 -0.3906
 6161SOL    HW129945   2.591   2.654   6.573  0.8799  0.5912  2.2635
 6161SOL    HW229946   2.647   2.567   6.673  1.5195 -2.2220 -1.4228
 6162SOL     OW29947   1.668   2.193  16.823  0.1422 -0.9015  0.1179
 6162SOL    HW129948   1.695   2.102  16.807  1.4273 -0.2692 -1.3519
 6162SOL    HW229949   1.597   2.181  16.885 -1.1157  1.9772 -0.7626
 6163SOL     OW29950   1.861   1.694   2.839  0.3808 -1.2676 -0.1849
 6163SOL    HW129951   1.875   1.600   2.844 -1.0239 -1.4609  0.0361
 6163SOL    HW229952   1.949   1.729   2.849 -1.9699  4.5803  0.4896
 6164SOL     OW29953   3.165   3.864   6.869 -0.4413  0.4140  0.7613
 6164SOL    HW129954   3.107   3.931   6.904  0.5541  1.5997  0.1782
 6164SOL    HW229955   3.107   3.818   6.808  1.6939  0.2178 -1.1543
 6165SOL     OW29956   2.923   0.114  14.761  0.0866  0.1781 -0.2025
 6165SOL    HW129957   2.981   0.131  14.687  0.5887 -1.1182 -0.1071
 6165SOL    HW229958   2.946   0.026  14.790 -2.3543  0.4031  2.4823
 6166SOL     OW29959   3.561   0.741  11.596 -0.0419  0.0771  0.3779
 6166SOL    HW129960   3.609   0.809  11.642 -1.1985  1.6915 -0.8168
 6166SOL    HW229961   3.580   0.765  11.505 -0.2938 -2.1145 -0.2502
 6167SOL     OW29962   2.052   1.059   6.724 -0.1286  0.1135 -0.7021
 6167SOL    HW129963   2.074   0.975   6.765 -0.8171  1.5022  2.5529
 6167SOL    HW229964   2.137   1.076   6.685  0.6114 -0.7421  0.5270
 6168SOL     OW29965   3.655   3.749  11.823 -0.0672  0.2027 -0.0913
 6168SOL    HW129966   3.568   3.787  11.840 -0.6104  0.1288 -2.7088
 6168SOL    HW229967   3.663   3.700  11.905 -2.3277  0.3540  0.2349
 6169SOL     OW29968   2.959   2.004   7.955 -0.2525 -0.2747 -0.2729
 6169SOL    HW129969   2.975   1.959   7.872 -1.8084 -1.5055  0.0930
 6169SOL    HW229970   3.012   1.947   8.011  0.9266 -1.9761 -3.1009
 6170SOL     OW29971   2.873   3.697  12.923  0.9012 -0.1785  0.8101
 6170SOL    HW129972   2.829   3.768  12.971 -0.2239 -1.3324  1.4725
 6170SOL    HW229973   2.954   3.685  12.973  2.7320  2.7175 -1.4362
 6171SOL     OW29974   0.628   4.178   6.316 -0.3807 -0.2707 -0.2479
 6171SOL    HW129975   0.567   4.127   6.369  1.2128 -2.7936 -0.8171
 6171SOL    HW229976   0.683   4.115   6.268  1.1812  0.5515  0.4619
 6172SOL     OW29977   2.733   2.392   1.632  0.1061  0.2501 -1.2143
 6172SOL    HW129978   2.778   2.366   1.552 -0.3592 -1.1048 -1.0332
 6172SOL    HW229979   2.765   2.324   1.691  0.9336  3.0492  1.5905
 6173SOL     OW29980   3.293   4.006   1.656  0.0476  0.1516  0.5627
 6173SOL    HW129981   3.240   3.987   1.733 -1.7485  0.8268 -0.4953
 6173SOL    HW229982   3.258   3.943   1.594  0.4621 -0.0386  0.5274
 6174SOL     OW29983   1.490   1.680   4.543 -0.2090 -0.6956 -0.2531
 6174SOL    HW129984   1.552   1.753   4.544 -0.9020 -0.0781 -1.8362
 6174SOL    HW229985   1.461   1.682   4.451 -1.2362 -1.4914  0.0522
 6175SOL     OW29986   2.685   0.940   6.088 -0.9055 -0.5602  0.0714
 6175SOL    HW129987   2.693   1.007   6.156  0.1314 -0.9244  0.3221
 6175SOL    HW229988   2.765   0.894   6.113  0.6908  1.7816 -0.7688
 6176SOL     OW29989   3.849   1.484  15.952 -0.7072  0.4505 -0.6300
 6176SOL    HW129990   3.877   1.520  16.036 -1.1293 -0.2438 -0.1870
 6176SOL    HW229991   3.901   1.529  15.886 -3.1315  1.6097 -1.7633
 6177SOL     OW29992   0.778   4.194   0.285 -0.2273  0.3939  0.0771
 6177SOL    HW129993   0.855   4.221   0.235  0.1253 -0.2266  0.2806
 6177SOL    HW229994   0.723   4.273   0.287  0.5353  0.9216  0.1268
 6178SOL     OW29995   2.438   2.105  15.170 -0.3067 -0.5818 -0.0735
 6178SOL    HW129996   2.452   2.037  15.105 -0.1255 -0.5858 -0.0294
 6178SOL    HW229997   2.359   2.080  15.218  0.2087  0.2450  1.2136
 6179SOL     OW29998   2.409   3.855   5.299 -0.2395  0.0002 -0.2423
 6179SOL    HW129999   2.416   3.949   5.316 -1.8788  0.3141 -1.2682
 6179SOL    HW230000   2.473   3.830   5.366  0.0108 -0.0091 -0.4849
 6180SOL     OW30001   4.548   0.900   6.993 -0.3207  0.1228  0.3044
 6180SOL    HW130002   4.514   0.813   7.018  1.4041 -0.0987  1.9056
 6180SOL    HW230003   4.523   0.905   6.901 -0.9522  0.1651  0.4756
 6181SOL     OW30004   2.083   1.488   8.228 -0.1174  0.0341 -0.1554
 6181SOL    HW130005   2.094   1.414   8.288  0.7921  0.1979 -0.1124
 6181SOL    HW230006   1.990   1.507   8.231 -0.6205 -2.1970 -1.8841
 6182SOL     OW30007   3.127   2.582   1.642  0.2269 -0.3380 -0.0499
 6182SOL    HW130008   3.147   2.567   1.734 -0.6183 -3.0126 -0.2728
 6182SOL    HW230009   3.130   2.677   1.644  0.4044 -0.3695  1.1301
 6183SOL     OW30010   1.287   0.533   8.299 -0.1722  0.7153  0.4545
 6183SOL    HW130011   1.317   0.545   8.389 -0.3566  1.1818  0.4528
 6183SOL    HW230012   1.204   0.492   8.320  0.2548 -0.8611 -0.8987
 6184SOL     OW30013   1.711   1.384   3.653 -0.0364  0.3855  0.0430
 6184SOL    HW130014   1.787   1.327   3.645 -0.9897 -0.5280 -2.4910
 6184SOL    HW230015   1.712   1.397   3.748  1.8848  0.9226 -0.0556
 6185SOL     OW30016   1.460   1.197  16.570  0.1680  0.3913 -0.0416
 6185SOL    HW130017   1.511   1.175  16.648 -1.2227  1.4402  1.1738
 6185SOL    HW230018   1.451   1.290  16.594  0.3803  0.4303 -0.1125
 6186SOL     OW30019   3.651   1.017   4.986 -0.2006 -0.6800  0.3248
 6186SOL    HW130020   3.659   1.094   5.043  0.3172 -0.3017 -0.2699
 6186SOL    HW230021   3.715   1.039   4.919 -1.4091 -0.6391 -0.8100
 6187SOL     OW30022   3.401   1.627  14.579  0.3972 -0.1935  0.4358
 6187SOL    HW130023   3.347   1.599  14.653  0.4118  0.6985  0.7874
 6187SOL    HW230024   3.366   1.711  14.550  0.1962 -0.8824 -1.2996
 6188SOL     OW30025   1.530   1.116  11.394 -0.8994 -0.2152  0.0348
 6188SOL    HW130026   1.536   1.140  11.487  0.2692 -2.2454  0.4722
 6188SOL    HW230027   1.434   1.117  11.392 -0.8881  3.3239  1.4224
 6189SOL     OW30028   4.564   4.013   2.493  0.6659 -0.2974 -0.2861
 6189SOL    HW130029   4.615   4.085   2.531  0.1851 -0.6627  1.0499
 6189SOL    HW230030   4.483   4.021   2.543  0.5645 -2.3524 -0.1481
 6190SOL     OW30031   1.927   0.187   9.376 -0.0972  0.0414  0.2867
 6190SOL    HW130032   2.007   0.140   9.398 -0.3219 -0.1225  0.7550
 6190SOL    HW230033   1.925   0.269   9.425 -0.4267 -0.8578  1.7828
 6191SOL     OW30034   2.599   0.318   4.674 -0.3210  0.7081  0.0458
 6191SOL    HW130035   2.531   0.314   4.606  0.7209 -1.2647 -0.9130
 6191SOL    HW230036   2.596   0.228   4.706 -0.4005  0.5375 -0.4293
 6192SOL     OW30037   2.592   1.994   5.697  0.7479  0.0633  0.1036
 6192SOL    HW130038   2.603   1.900   5.685 -2.4519 -0.1757 -1.0212
 6192SOL    HW230039   2.498   1.993   5.678  0.7819  0.7492 -0.1191
 6193SOL     OW30040   4.676   1.783  16.692  0.9242  0.6773 -0.2096
 6193SOL    HW130041   4.710   1.799  16.780 -0.1479  0.8602  0.1831
 6193SOL    HW230042   0.014   1.729  16.643  0.4780  1.7255 -1.9242
 6194SOL     OW30043   4.633   2.340   0.847 -0.0224 -0.5363 -0.4655
 6194SOL    HW130044   4.569   2.410   0.857 -1.2232 -1.5661 -0.8964
 6194SOL    HW230045   4.578   2.269   0.879 -0.0452  0.4963  1.7875
 6195SOL     OW30046   2.789   0.352   7.620  0.0108  0.8411 -0.8121
 6195SOL    HW130047   2.707   0.341   7.668 -0.4262  0.7788 -1.5734
 6195SOL    HW230048   2.815   0.439   7.652  0.0202  1.3626 -2.2251
 6196SOL     OW30049   0.383   1.328   8.604 -0.4769  0.1749  0.2883
 6196SOL    HW130050   0.424   1.279   8.675  0.1590 -0.1598 -0.3195
 6196SOL    HW230051   0.439   1.303   8.531 -1.7766 -1.0034 -0.3037
 6197SOL     OW30052   4.243   2.478   5.527 -0.1071  0.2329 -0.0586
 6197SOL    HW130053   4.258   2.401   5.472 -2.5581 -0.3278  0.0431
 6197SOL    HW230054   4.330   2.516   5.525  0.3944 -0.8272  1.7672
 6198SOL     OW30055   1.247   0.135  12.053 -0.5825  0.2876  0.2181
 6198SOL    HW130056   1.248   0.039  12.047  0.1178  0.2310  1.1271
 6198SOL    HW230057   1.158   0.156  12.081 -1.5069  0.4699 -2.9023
 6199SOL     OW30058   0.656   2.993   9.342 -0.3865 -0.2010  0.0017
 6199SOL    HW130059   0.663   3.087   9.324  2.3209 -0.2339  0.9217
 6199SOL    HW230060   0.668   2.959   9.253  2.2634  1.3101 -0.1928
 6200SOL     OW30061   2.976   3.541   0.679 -0.1481 -0.0294 -0.0625
 6200SOL    HW130062   2.881   3.547   0.676 -0.0674  0.3004 -2.0464
 6200SOL    HW230063   3.000   3.568   0.590  3.1879  0.3166  0.9469
 6201SOL     OW30064   0.412   1.813   4.666  0.6879  0.4978  0.4199
 6201SOL    HW130065   0.415   1.852   4.578 -1.2783  1.5197  0.7943
 6201SOL    HW230066   0.416   1.719   4.649 -0.0074  0.2906  1.3799
 6202SOL     OW30067   0.266   2.239   7.776  0.4679 -0.6158  0.2486
 6202SOL    HW130068   0.291   2.203   7.690 -2.5999 -1.6641 -0.2252
 6202SOL    HW230069   0.187   2.276   7.737  0.6904  0.1283  0.5142
 6203SOL     OW30070   2.045   0.064   1.813  0.0021  0.0236  0.2666
 6203SOL    HW130071   2.040   0.000   1.742 -2.0299 -1.4418  1.7122
 6203SOL    HW230072   2.118   0.116   1.781 -1.1930  2.3877  1.4392
 6204SOL     OW30073   2.436   1.762   2.763  0.0900  0.0038  0.5128
 6204SOL    HW130074   2.406   1.801   2.845 -0.0574 -0.6632  0.7732
 6204SOL    HW230075   2.484   1.682   2.784  0.1237 -0.7398 -2.4265
 6205SOL     OW30076   2.298   4.102  13.595 -0.5689 -0.5483  0.5081
 6205SOL    HW130077   2.390   4.081  13.578 -0.5086  1.3790 -1.5629
 6205SOL    HW230078   2.271   4.014  13.618 -1.8464 -0.0400  1.0037
 6206SOL     OW30079   1.934   1.818  11.218 -0.3567  0.0324 -0.0710
 6206SOL    HW130080   1.893   1.899  11.189 -0.2291 -0.3467 -1.3322
 6206SOL    HW230081   1.881   1.749  11.177 -1.4120  0.1833  1.0435
 6207SOL     OW30082   4.554   0.736   8.318  0.3042 -0.0768 -0.7983
 6207SOL    HW130083   4.466   0.735   8.356 -0.1006 -0.6683 -1.7455
 6207SOL    HW230084   4.541   0.685   8.238 -3.9414  1.2747 -0.9941
 6208SOL     OW30085   3.097   3.885  12.863  0.5761  0.3578  0.6921
 6208SOL    HW130086   3.123   3.957  12.920  0.5454  0.3557  0.7088
 6208SOL    HW230087   3.169   3.880  12.801  1.9414 -2.1579  2.4961
 6209SOL     OW30088   1.688   1.000   6.442 -0.1777  0.7632  0.7826
 6209SOL    HW130089   1.663   1.055   6.368 -0.7396  1.9314  1.8464
 6209SOL    HW230090   1.707   0.919   6.394  1.1780  2.5260 -1.6234
 6210SOL     OW30091   2.480   1.893  12.115  0.0349 -0.1507 -0.3114
 6210SOL    HW130092   2.482   1.884  12.210 -1.3122  2.7959 -0.0038
 6210SOL    HW230093   2.389   1.919  12.097  1.0248  1.5971 -2.7377
 6211SOL     OW30094   3.466   1.333   8.551 -0.2048  0.4499  0.3378
 6211SOL    HW130095   3.435   1.291   8.631 -0.4504 -1.6209 -0.8574
 6211SOL    HW230096   3.496   1.414   8.593  1.1209  0.3480 -0.4118
 6212SOL     OW30097   1.859   3.645   1.822 -0.2360  0.5773  0.6119
 6212SOL    HW130098   1.895   3.576   1.767 -1.8644  0.5087 -0.3521
 6212SOL    HW230099   1.788   3.602   1.871 -0.1240 -0.0168  0.2548
 6213SOL     OW30100   1.452   0.493   2.280 -0.7013  0.5667  0.1292
 6213SOL    HW130101   1.458   0.587   2.264  2.9284  0.0309 -1.5779
 6213SOL    HW230102   1.440   0.487   2.375  0.5457 -0.7315  0.2085
 6214SOL     OW30103   3.736   2.488  10.153  0.4787 -0.1531 -0.2449
 6214SOL    HW130104   3.785   2.569  10.139  0.1285 -0.1581 -1.4313
 6214SOL    HW230105   3.797   2.443  10.212 -2.7089 -1.4657  2.0577
 6215SOL     OW30106   0.164   2.138   6.181  0.4473 -0.0443 -0.2489
 6215SOL    HW130107   0.123   2.217   6.147  3.3245  0.2587 -2.9512
 6215SOL    HW230108   0.097   2.107   6.242  1.9701  0.2637  1.5988
 6216SOL     OW30109   3.095   3.609  15.681  0.0088 -0.1880 -0.2452
 6216SOL    HW130110   3.186   3.600  15.706 -0.4411  2.4538  2.3577
 6216SOL    HW230111   3.092   3.705  15.679 -1.1033 -0.2021  0.7000
 6217SOL     OW30112   2.737   2.099   2.844  0.2124 -0.1815 -0.0783
 6217SOL    HW130113   2.761   2.178   2.892  0.4191 -0.4006  0.1842
 6217SOL    HW230114   2.642   2.089   2.855  0.5457 -3.6633 -0.1426
 6218SOL     OW30115   0.273   3.613  13.520 -0.1001 -0.0850  0.8751
 6218SOL    HW130116   0.366   3.590  13.517 -0.4279 -0.9401 -2.5406
 6218SOL    HW230117   0.271   3.691  13.465  1.6274  1.2297  2.6732
 6219SOL     OW30118   3.578   2.060   5.979 -0.3211  0.2503 -0.3033
 6219SOL    HW130119   3.558   1.990   6.041  1.8395 -0.5220 -0.4828
 6219SOL    HW230120   3.658   2.084   6.026  0.8038  1.0294 -2.6374
 6220SOL     OW30121   0.461   0.780  11.771 -0.2802  0.3669  0.6005
 6220SOL    HW130122   0.410   0.827  11.705 -0.2857  1.4467  1.3597
 6220SOL    HW230123   0.386   0.736  11.810  1.9157 -1.7147  2.4711
 6221SOL     OW30124   1.369   0.435   4.388 -0.7048  0.3539  0.2881
 6221SOL    HW130125   1.323   0.357   4.418 -1.5756  0.2437 -1.3465
 6221SOL    HW230126   1.459   0.406   4.399 -0.7930 -0.2882 -0.6829
 6222SOL     OW30127   0.928   3.944   2.282 -0.0458  0.5619 -0.5474
 6222SOL    HW130128   0.965   4.020   2.327 -1.2924  1.4746 -1.0718
 6222SOL    HW230129   1.006   3.890   2.271 -0.2736  0.2152 -0.4442
 6223SOL     OW30130   1.462   2.695  15.181  0.3639  0.2325  0.2625
 6223SOL    HW130131   1.424   2.608  15.177 -1.0601  0.7937  1.4328
 6223SOL    HW230132   1.524   2.694  15.254 -0.3679  1.8185  0.9163
 6224SOL     OW30133   2.622   2.005  12.592  0.9034 -0.0434 -0.1813
 6224SOL    HW130134   2.557   2.064  12.631  0.8207 -0.1293 -0.1896
 6224SOL    HW230135   2.689   2.001  12.661  1.9013  3.5922 -0.9637
 6225SOL     OW30136   0.782   3.138   8.735 -0.0835 -0.1682 -0.1871
 6225SOL    HW130137   0.809   3.187   8.658  1.5693  1.1159  1.2116
 6225SOL    HW230138   0.768   3.054   8.691 -0.8100 -0.0300 -0.2318
 6226SOL     OW30139   1.037   2.617   6.557 -0.6302 -0.1431  0.3059
 6226SOL    HW130140   1.035   2.682   6.627 -0.1072  1.3781 -1.0985
 6226SOL    HW230141   0.979   2.659   6.494  0.3679 -0.4797 -0.8383
 6227SOL     OW30142   2.895   1.859   6.937 -0.3467  0.1520 -0.2067
 6227SOL    HW130143   2.865   1.919   6.869 -1.0279  1.1489  0.9867
 6227SOL    HW230144   2.913   1.779   6.887  1.9054 -0.0857  0.9398
 6228SOL     OW30145   1.811   3.553   8.795 -0.2416  0.6072 -0.3683
 6228SOL    HW130146   1.858   3.567   8.713  0.4284  0.7638  0.0377
 6228SOL    HW230147   1.721   3.577   8.771  0.2511  0.9796 -1.8009
 6229SOL     OW30148   0.321   2.837   7.995  0.7211 -0.5647 -0.4121
 6229SOL    HW130149   0.356   2.847   8.083 -1.8227  1.8362  0.3417
 6229SOL    HW230150   0.398   2.853   7.939 -1.3344 -0.6364 -3.2632
 6230SOL     OW30151   2.951   2.005   8.368  0.6045 -0.6203 -0.1582
 6230SOL    HW130152   3.018   1.940   8.390 -0.6217 -0.5841  3.6527
 6230SOL    HW230153   3.005   2.067   8.319 -0.3867  1.0553  0.8751
 6231SOL     OW30154   2.597   0.154   4.999  0.1879 -0.0919  0.3597
 6231SOL    HW130155   2.632   0.162   5.088  1.2396 -0.5938 -0.0215
 6231SOL    HW230156   2.662   0.096   4.960  1.1808  2.9773 -2.4088
 6232SOL     OW30157   0.267   1.988   7.504  0.7378  0.1227  0.0522
 6232SOL    HW130158   0.318   2.069   7.501 -0.6780  1.0711  1.5697
 6232SOL    HW230159   0.326   1.927   7.460 -0.7279 -1.7775  0.7088
 6233SOL     OW30160   2.381   1.664   0.164  0.7690 -0.2162  0.1238
 6233SOL    HW130161   2.358   1.752   0.135 -0.5437  0.1292  2.2172
 6233SOL    HW230162   2.433   1.690   0.240  1.3220 -2.0183  0.3684
 6234SOL     OW30163   3.132   0.133   7.185  0.4223 -0.4672  0.6094
 6234SOL    HW130164   3.039   0.153   7.171  0.0737 -2.5115  0.0089
 6234SOL    HW230165   3.171   0.205   7.136  0.5765 -1.0561 -0.1280
 6235SOL     OW30166   3.327   0.741   3.193 -0.7290 -0.4584 -0.3149
 6235SOL    HW130167   3.356   0.749   3.102  0.0878  1.2832  0.0864
 6235SOL    HW230168   3.374   0.818   3.227 -2.1752  0.7487 -1.0280
 6236SOL     OW30169   0.040   1.861  16.979  0.0608 -0.4445 -0.0089
 6236SOL    HW130170   0.069   1.926  16.915 -0.1974 -0.5825 -0.2655
 6236SOL    HW230171   4.675   1.895  16.980  1.3383  2.8492  0.3842
 6237SOL     OW30172   0.273   3.659   3.327  0.2205  0.3869 -0.6592
 6237SOL    HW130173   0.259   3.618   3.241  0.4234  0.7694 -0.8761
 6237SOL    HW230174   0.200   3.720   3.340 -0.6848 -1.3579  2.3982
 6238SOL     OW30175   2.932   3.326  14.941  0.0949  0.4659  0.0554
 6238SOL    HW130176   2.850   3.278  14.949  0.9591 -0.9105  0.7630
 6238SOL    HW230177   2.928   3.376  15.022 -2.8290  2.0235 -1.0803
 6239SOL     OW30178   3.033   2.272   7.680  0.0331  0.0070 -0.2450
 6239SOL    HW130179   3.101   2.249   7.743  0.9519  1.6570 -0.6232
 6239SOL    HW230180   3.088   2.278   7.601  1.6944  1.0412  0.9793
 6240SOL     OW30181   1.157   4.577   1.891  0.2310  0.0728 -0.1778
 6240SOL    HW130182   1.141   4.666   1.922  0.2644  0.5656 -1.5937
 6240SOL    HW230183   1.188   4.545   1.976 -1.1796 -1.3989 -0.1970
 6241SOL     OW30184   0.014   4.132  10.361  0.3303 -0.1375  0.1900
 6241SOL    HW130185   0.021   4.084  10.443 -0.8214  1.5145  1.2682
 6241SOL    HW230186   0.069   4.082  10.301  1.1939  0.0705  0.8018
 6242SOL     OW30187   2.365   4.037  15.430 -0.0879 -0.0194  0.2183
 6242SOL    HW130188   2.334   4.093  15.360  2.7208  0.3193 -0.7663
 6242SOL    HW230189   2.448   4.005  15.395 -0.0503 -0.2027  0.4693
 6243SOL     OW30190   3.407   0.716   5.568  0.2642 -0.4791  0.0422
 6243SOL    HW130191   3.314   0.695   5.561 -0.3541  2.2165  0.3943
 6243SOL    HW230192   3.416   0.731   5.474  1.5050  2.4968  0.6431
 6244SOL     OW30193   3.067   3.882   7.229 -0.2145  0.4425 -0.4558
 6244SOL    HW130194   2.998   3.912   7.170  1.1248  1.8289 -1.3211
 6244SOL    HW230195   3.098   3.959   7.277 -0.9757 -0.3296  1.2567
 6245SOL     OW30196   4.540   0.704   6.794  0.8003 -0.2487 -0.4316
 6245SOL    HW130197   4.617   0.687   6.848  2.1566  1.1600 -1.8943
 6245SOL    HW230198   4.475   0.640   6.822  1.0422 -0.4880 -0.4236
 6246SOL     OW30199   0.933   2.972  12.523 -0.4501 -0.1099 -0.4525
 6246SOL    HW130200   0.967   2.883  12.535  2.8458  1.3699  1.3363
 6246SOL    HW230201   0.935   3.016  12.608 -0.9297  0.3900 -0.7010
 6247SOL     OW30202   0.387   4.172   4.229 -0.2724  0.3598 -0.1577
 6247SOL    HW130203   0.391   4.182   4.324 -1.7081  2.0212 -0.2861
 6247SOL    HW230204   0.403   4.261   4.197 -0.6003  0.4051 -0.1930
 6248SOL     OW30205   2.840   2.944  10.209  0.1365 -0.5853 -0.2598
 6248SOL    HW130206   2.871   3.017  10.264 -0.6060 -1.8783  1.8863
 6248SOL    HW230207   2.802   3.001  10.143 -2.2099 -0.8588  0.8339
 6249SOL     OW30208   0.039   3.659  11.061 -0.0054  0.2399 -0.2386
 6249SOL    HW130209   4.692   3.723  11.054  1.3868  1.9117  0.9227
 6249SOL    HW230210   0.010   3.625  11.146 -1.1736  1.1893 -0.2606
 6250SOL     OW30211   3.722   1.394  17.016 -0.1559  0.0021 -0.1536
 6250SOL    HW130212   3.787   1.424  17.078  1.1282 -0.0658 -1.4628
 6250SOL    HW230213   3.743   1.449  16.940 -0.8075  1.0804  0.4439
 6251SOL     OW30214   1.257   1.149   4.731 -0.1220  0.3987  0.3534
 6251SOL    HW130215   1.177   1.099   4.714  0.2959  0.0569 -0.5888
 6251SOL    HW230216   1.289   1.155   4.641 -0.5009 -1.1357  0.1172
 6252SOL     OW30217   0.373   2.247   8.712  0.1174  0.1464  0.1608
 6252SOL    HW130218   0.371   2.173   8.773  1.7634  2.5193  3.1004
 6252SOL    HW230219   0.447   2.297   8.748  0.4371 -0.6314  0.5782
 6253SOL     OW30220   2.075   1.837   2.941  0.0321  0.1623 -0.0904
 6253SOL    HW130221   2.041   1.831   3.031 -2.3223  1.3480 -0.8981
 6253SOL    HW230222   2.073   1.930   2.918 -0.2419  0.2516  0.2908
 6254SOL     OW30223   1.960   2.093   3.914  0.0906  0.1136  0.9132
 6254SOL    HW130224   1.997   2.037   3.981  0.3937  0.5010  1.0694
 6254SOL    HW230225   2.008   2.172   3.938  0.6742  0.4087 -1.2454
 6255SOL     OW30226   2.664   2.145   9.829  0.0336  0.0967  0.7277
 6255SOL    HW130227   2.726   2.214   9.804  1.3168 -1.2593  0.2151
 6255SOL    HW230228   2.618   2.131   9.746  1.6382 -2.7752  0.3615
 6256SOL     OW30229   3.447   1.514   4.483 -0.4202  0.2828 -0.4364
 6256SOL    HW130230   3.476   1.499   4.393 -0.3687  2.3321 -0.7545
 6256SOL    HW230231   3.447   1.424   4.516  1.4022  0.2056 -0.6568
 6257SOL     OW30232   0.577   2.613  12.432  0.4382 -0.4055  1.0255
 6257SOL    HW130233   0.491   2.572  12.422  1.0645 -1.7182  1.0199
 6257SOL    HW230234   0.557   2.703  12.409  1.3662 -0.9281 -1.7754
 6258SOL     OW30235   2.078   3.566  13.556 -0.0782  0.4445  0.3926
 6258SOL    HW130236   2.028   3.515  13.620 -3.6485  1.6694 -1.4158
 6258SOL    HW230237   2.010   3.627  13.527 -0.7084 -0.3520  0.1877
 6259SOL     OW30238   0.738   3.391   6.479 -0.2039 -0.2430  0.0831
 6259SOL    HW130239   0.689   3.353   6.552 -0.9063 -2.9946 -1.8242
 6259SOL    HW230240   0.662   3.429   6.434 -0.5505  0.9108  1.6629
 6260SOL     OW30241   3.017   3.428   2.821  0.6024 -0.1157  0.1486
 6260SOL    HW130242   3.011   3.522   2.838 -2.7310 -0.2977 -0.0819
 6260SOL    HW230243   3.101   3.408   2.781  1.8776 -1.0081  3.2484
 6261SOL     OW30244   2.747   1.489  10.217  0.5141  0.0054 -0.1906
 6261SOL    HW130245   2.723   1.520  10.304 -1.5563  0.9169 -1.0903
 6261SOL    HW230246   2.721   1.571  10.177 -1.1421 -0.0667  0.7560
 6262SOL     OW30247   0.101   0.330   8.275 -0.3120  0.2069 -0.8083
 6262SOL    HW130248   0.156   0.374   8.211 -3.0056  1.6367 -2.1329
 6262SOL    HW230249   0.160   0.276   8.328 -0.5017  0.7614 -0.0343
 6263SOL     OW30250   1.641   1.434   4.625  0.4458 -0.0597  0.6323
 6263SOL    HW130251   1.577   1.505   4.619 -0.0401 -0.5187  0.4042
 6263SOL    HW230252   1.601   1.366   4.571  3.3210 -0.8494 -0.5121
 6264SOL     OW30253   1.429   3.813  13.017  0.2469 -0.0545 -0.7044
 6264SOL    HW130254   1.394   3.737  12.970 -0.3491  0.3652 -0.9386
 6264SOL    HW230255   1.373   3.806  13.094  0.8938  2.2970 -0.0439
 6265SOL     OW30256   2.982   0.425   2.050  0.2702 -0.1260 -0.5442
 6265SOL    HW130257   2.893   0.443   2.020 -0.2175 -1.8830 -0.1685
 6265SOL    HW230258   2.994   0.501   2.107  0.3753 -1.1515  0.8029
 6266SOL     OW30259   1.059   3.014   5.030  0.1719 -0.1487  0.0307
 6266SOL    HW130260   1.049   3.108   5.042  2.1745  0.0115  0.3536
 6266SOL    HW230261   1.154   3.012   5.022  0.3419  0.9608  1.7382
 6267SOL     OW30262   1.561   1.908   9.455 -0.1824  0.3421  0.3053
 6267SOL    HW130263   1.638   1.965   9.461 -1.1032  1.6784 -0.5972
 6267SOL    HW230264   1.601   1.826   9.483 -1.1300 -0.5970 -1.1369
 6268SOL     OW30265   0.619   4.674  16.845 -0.2029  0.0785  0.1802
 6268SOL    HW130266   0.655   4.592  16.878 -3.6101 -1.7375 -0.6172
 6268SOL    HW230267   0.640   4.655  16.754  0.8414  2.0622  0.0006
 6269SOL     OW30268   4.224   1.402   6.535  0.1755  0.1538  0.4756
 6269SOL    HW130269   4.272   1.453   6.470  0.0836 -0.1596  0.1595
 6269SOL    HW230270   4.203   1.472   6.596 -0.1788 -0.4630  1.0638
 6270SOL     OW30271   2.734   0.476  11.968 -0.2085 -0.0770  0.3179
 6270SOL    HW130272   2.668   0.424  12.013  0.2720 -0.1384  0.9493
 6270SOL    HW230273   2.765   0.530  12.041  0.4770 -1.9026  1.3707
 6271SOL     OW30274   1.470   2.012  11.693  0.1735 -0.5207 -0.3357
 6271SOL    HW130275   1.531   2.086  11.695 -0.5507  0.1213 -2.0685
 6271SOL    HW230276   1.494   1.961  11.615  0.9868  2.0126 -1.7474
 6272SOL     OW30277   1.840   3.709   0.729  0.4042 -0.1842 -0.5035
 6272SOL    HW130278   1.816   3.638   0.670  0.6044  0.3213 -1.1916
 6272SOL    HW230279   1.779   3.781   0.711  0.6432  0.0740 -0.2709
 6273SOL     OW30280   4.049   1.588  16.696 -0.1800 -0.0028  0.0386
 6273SOL    HW130281   4.072   1.528  16.767  0.2913 -1.5093 -1.3814
 6273SOL    HW230282   4.080   1.673  16.727  0.2352  0.4002 -1.5250
 6274SOL     OW30283   2.745   4.051   3.922 -0.6707  0.0768 -0.1874
 6274SOL    HW130284   2.800   4.028   3.996 -1.0623 -0.9401 -0.2121
 6274SOL    HW230285   2.777   3.989   3.855  0.1996  0.9581 -0.5845
 6275SOL     OW30286   2.422   2.461   8.622  0.0456  0.2846  0.2434
 6275SOL    HW130287   2.419   2.553   8.649  0.5055  0.5558 -0.6399
 6275SOL    HW230288   2.480   2.426   8.690  2.7332 -0.3631 -2.4136
 6276SOL     OW30289   0.652   1.350  10.014 -0.0317 -0.2709 -0.6200
 6276SOL    HW130290   0.644   1.414   9.944 -1.8105 -0.8967 -0.9773
 6276SOL    HW230291   0.592   1.277   9.999  0.7407 -1.6942  3.0948
 6277SOL     OW30292   4.586   1.518   6.557 -0.5408 -0.2062  0.2217
 6277SOL    HW130293   4.520   1.546   6.495  0.1372  0.3505 -0.2425
 6277SOL    HW230294   4.585   1.579   6.631 -0.7371  2.0940 -1.6992
 6278SOL     OW30295   0.697   3.432   7.662  0.3705 -0.2489 -1.0982
 6278SOL    HW130296   0.657   3.400   7.581  1.0811 -1.0824 -1.1223
 6278SOL    HW230297   0.770   3.482   7.627 -0.1902  1.3020 -0.0228
 6279SOL     OW30298   1.556   3.484  13.047 -0.0387 -0.3036  0.3320
 6279SOL    HW130299   1.476   3.446  13.084 -0.0634  1.0741  1.6899
 6279SOL    HW230300   1.527   3.519  12.963 -2.8726  1.2085  1.9419
 6280SOL     OW30301   0.686   3.346   8.219 -0.3871 -0.2620  0.3483
 6280SOL    HW130302   0.677   3.340   8.124 -0.0425  0.7852  0.2444
 6280SOL    HW230303   0.780   3.360   8.229 -0.0667 -0.6847 -2.0118
 6281SOL     OW30304   2.781   1.675   6.529 -0.0406  0.3077 -0.0173
 6281SOL    HW130305   2.790   1.626   6.447  0.5994  0.9793 -0.3537
 6281SOL    HW230306   2.848   1.742   6.516  0.3219  0.0947  0.7708
 6282SOL     OW30307   1.118   0.517   2.599  0.2442  0.2987 -0.0627
 6282SOL    HW130308   1.073   0.437   2.572  0.9658  0.5747 -2.1324
 6282SOL    HW230309   1.061   0.588   2.567  0.4549  0.7333  0.5270
 6283SOL     OW30310   0.611   3.750  15.984  0.0959  0.4015  0.3200
 6283SOL    HW130311   0.658   3.668  16.001 -2.5855 -1.3032 -0.5828
 6283SOL    HW230312   0.627   3.757  15.890  1.7205 -2.3111  0.3969
 6284SOL     OW30313   0.719   3.462   9.830  1.2045  0.1008  0.2603
 6284SOL    HW130314   0.699   3.524   9.900 -0.7652  0.9548 -1.0538
 6284SOL    HW230315   0.814   3.459   9.836  1.1070 -2.6355  0.5311
 6285SOL     OW30316   0.288   0.624  14.696  0.4104  0.0090  0.1084
 6285SOL    HW130317   0.264   0.658  14.610  0.3666 -0.6500 -0.1376
 6285SOL    HW230318   0.284   0.708  14.741 -0.7744  1.0269 -1.8763
 6286SOL     OW30319   0.507   4.335   1.877 -0.0862  0.5876 -0.2940
 6286SOL    HW130320   0.555   4.252   1.876  2.0880  1.8276  0.4650
 6286SOL    HW230321   0.490   4.351   1.784 -1.1682  1.5118  0.0551
 6287SOL     OW30322   2.363   3.726  12.044 -0.1895 -0.2408 -0.2917
 6287SOL    HW130323   2.434   3.727  11.980 -0.5054  0.5151 -0.6344
 6287SOL    HW230324   2.374   3.637  12.079  1.7704 -0.3045 -1.0594
 6288SOL     OW30325   2.436   3.330  14.814  0.2720  0.0034  0.2514
 6288SOL    HW130326   2.413   3.423  14.826 -2.3180 -0.5779 -0.2007
 6288SOL    HW230327   2.382   3.320  14.735  1.9347  4.9973 -1.5348
 6289SOL     OW30328   2.579   4.019   9.070  0.4733 -0.3139 -0.0771
 6289SOL    HW130329   2.649   3.975   9.118 -0.7483 -1.1671  0.9225
 6289SOL    HW230330   2.521   4.043   9.143  0.1577  0.3453 -0.5352
 6290SOL     OW30331   4.208   2.365   9.943 -0.2263 -0.5961  0.2606
 6290SOL    HW130332   4.182   2.429  10.009  0.4152 -3.2201  3.0583
 6290SOL    HW230333   4.298   2.393   9.926  0.5365 -2.1700  1.7021
 6291SOL     OW30334   2.012   4.652   4.798 -0.2380  0.1213 -0.4249
 6291SOL    HW130335   2.045   4.713   4.864  1.9578 -0.8612 -0.6116
 6291SOL    HW230336   2.018   4.711   4.723 -1.7092  0.4299 -0.2973
 6292SOL     OW30337   1.494   0.004   0.952  0.0961 -0.1173 -0.3357
 6292SOL    HW130338   1.456   4.647   0.917  2.2502 -2.2274  2.1611
 6292SOL    HW230339   1.513   4.705   1.043 -0.1275  1.6377  0.1531
 6293SOL     OW30340   3.899   1.557  11.578  0.0979  0.3520  0.1558
 6293SOL    HW130341   3.980   1.558  11.629  1.4218 -1.2994 -1.8980
 6293SOL    HW230342   3.854   1.635  11.610 -3.8802 -1.3979 -1.1405
 6294SOL     OW30343   3.034   1.632  11.253  0.1335  0.3013  0.0571
 6294SOL    HW130344   3.009   1.639  11.345 -1.9012 -1.2245 -0.3733
 6294SOL    HW230345   2.946   1.616  11.219 -0.0486 -0.0383  0.6867
 6295SOL     OW30346   3.119   0.989  14.104  0.0814  0.4063 -0.6701
 6295SOL    HW130347   3.202   0.997  14.150  0.9101 -0.5820 -1.9895
 6295SOL    HW230348   3.075   1.072  14.125 -0.4236  0.1463 -0.6887
 6296SOL     OW30349   4.074   0.712  15.204 -0.0109 -0.0979 -0.4449
 6296SOL    HW130350   4.169   0.696  15.202 -0.1219 -0.8463  0.2316
 6296SOL    HW230351   4.068   0.787  15.145  0.5807  1.3107  1.3118
 6297SOL     OW30352   1.404   0.908   4.622  0.5838  0.0259  0.2205
 6297SOL    HW130353   1.338   0.856   4.667 -1.3209  1.6086 -0.7827
 6297SOL    HW230354   1.372   0.912   4.532  2.8699 -0.7686 -0.6478
 6298SOL     OW30355   0.455   1.433   3.795  0.5365  0.0132  0.1939
 6298SOL    HW130356   0.360   1.426   3.800  0.5310  0.0726  0.1657
 6298SOL    HW230357   0.473   1.521   3.829  2.0556 -0.0617 -0.4045
 6299SOL     OW30358   1.592   1.934  11.446 -0.2814  0.4532 -0.1711
 6299SOL    HW130359   1.671   1.962  11.400  0.0036 -0.8046 -0.4724
 6299SOL    HW230360   1.558   1.879  11.375 -0.5391  0.1928  0.1513
 6300SOL     OW30361   0.684   3.639   4.096  0.0279  0.3232 -0.2712
 6300SOL    HW130362   0.628   3.707   4.059 -1.3466 -0.7261 -0.1256
 6300SOL    HW230363   0.771   3.672   4.076 -0.6173  0.6228 -2.4840
 6301SOL     OW30364   2.766   0.524  12.957 -0.3683  0.0811  0.2138
 6301SOL    HW130365   2.826   0.553  13.026  0.3163 -1.8943  0.4478
 6301SOL    HW230366   2.818   0.524  12.876  0.5427 -2.3774  0.8033
 6302SOL     OW30367   1.466   0.526  12.942 -0.1176 -0.3171 -0.2330
 6302SOL    HW130368   1.499   0.451  12.892 -0.4769 -0.1393 -0.7351
 6302SOL    HW230369   1.547   0.566  12.975 -2.0554  1.7757  1.9291
 6303SOL     OW30370   2.372   0.719  16.091 -0.1830  0.1887  0.4673
 6303SOL    HW130371   2.306   0.783  16.064  3.1518  3.5117  0.3193
 6303SOL    HW230372   2.346   0.710  16.182 -1.0391 -4.0260 -0.1613
 6304SOL     OW30373   3.467   1.508   3.927  0.2298  0.0467 -0.3104
 6304SOL    HW130374   3.502   1.587   3.886  1.8458 -1.7335 -2.4212
 6304SOL    HW230375   3.413   1.472   3.856 -0.2497 -0.5603  0.3664
 6305SOL     OW30376   4.280   0.715  17.665  0.3159  0.3575  0.2731
 6305SOL    HW130377   4.229   0.634  17.659 -0.7935  1.2113 -1.7528
 6305SOL    HW230378   4.243   0.777  17.602 -0.5727 -1.6776 -1.1849
 6306SOL     OW30379   4.076   2.326   6.781 -0.2751  0.6472 -0.5410
 6306SOL    HW130380   4.034   2.387   6.841 -0.7683  0.0682 -0.3093
 6306SOL    HW230381   4.011   2.256   6.781  1.0069 -0.5589 -0.5562
 6307SOL     OW30382   3.604   1.669  14.141  0.1680 -0.1569  0.4496
 6307SOL    HW130383   3.661   1.746  14.147  0.7576 -0.3828 -2.5276
 6307SOL    HW230384   3.605   1.641  14.233  0.5689  1.2157  0.8717
 6308SOL     OW30385   2.068   1.288   2.617 -0.6673  0.2180  0.6918
 6308SOL    HW130386   2.069   1.292   2.522 -0.7690  0.4638  0.7012
 6308SOL    HW230387   2.103   1.372   2.647  2.1460 -1.4021  2.0335
 6309SOL     OW30388   3.551   1.680  13.167 -0.2337 -0.4135  0.6041
 6309SOL    HW130389   3.542   1.586  13.184  0.9667 -0.6319  0.0066
 6309SOL    HW230390   3.489   1.721  13.227  0.2983  0.3570  0.6175
 6310SOL     OW30391   1.000   4.342   3.712 -0.2893 -0.1946 -0.1767
 6310SOL    HW130392   1.073   4.286   3.686  0.8841 -0.0613  2.7336
 6310SOL    HW230393   1.059   4.400   3.761 -2.4258  1.2095  0.7281
 6311SOL     OW30394   3.533   2.420  10.014  0.3041  0.0495  0.1873
 6311SOL    HW130395   3.606   2.470  10.050 -0.6077  1.0635  0.6027
 6311SOL    HW230396   3.539   2.360  10.088  1.6148  0.2238  0.2254
 6312SOL     OW30397   4.482   1.090   8.471  0.4538 -0.4190 -0.0338
 6312SOL    HW130398   4.419   1.146   8.516  1.9843  1.3481 -0.0803
 6312SOL    HW230399   4.463   1.015   8.526 -2.5129  0.1164 -0.3588
 6313SOL     OW30400   3.466   1.965   3.687  0.3453 -0.7976 -0.3603
 6313SOL    HW130401   3.379   1.944   3.654  0.3637  0.8048 -1.4381
 6313SOL    HW230402   3.456   2.058   3.710  0.0476 -1.5125  2.4759
 6314SOL     OW30403   0.900   4.509   2.441 -0.1758  0.8697 -0.0714
 6314SOL    HW130404   0.877   4.568   2.370  0.4416  0.9330 -0.2164
 6314SOL    HW230405   0.996   4.503   2.435 -0.0190  1.8276  1.4698
 6315SOL     OW30406   2.683   3.378  13.401 -0.3153 -0.0953  0.7013
 6315SOL    HW130407   2.699   3.447  13.337  2.1278  0.5031  1.9529
 6315SOL    HW230408   2.746   3.379  13.473 -0.6257 -0.1356  0.9731
 6316SOL     OW30409   4.630   2.346   9.815  0.2877 -0.2415 -0.2508
 6316SOL    HW130410   4.636   2.292   9.894  1.6246 -1.0312 -0.8877
 6316SOL    HW230411   4.677   2.291   9.752 -1.3139  0.6188 -2.2255
 6317SOL     OW30412   4.693   3.969  12.349  0.1812  0.1303  0.2718
 6317SOL    HW130413   4.646   3.946  12.270  0.7004  2.5368 -0.7415
 6317SOL    HW230414   4.681   3.884  12.391 -0.6416 -0.5352 -1.3374
 6318SOL     OW30415   3.820   1.607  16.858 -0.7381  0.2636  0.5469
 6318SOL    HW130416   3.743   1.645  16.817 -0.2807 -2.4367 -2.9304
 6318SOL    HW230417   3.880   1.620  16.784 -1.0709 -2.5598 -0.2525
 6319SOL     OW30418   4.457   1.196   6.594  0.4668  0.0915  0.1788
 6319SOL    HW130419   4.391   1.253   6.634  1.9168  0.2740  2.3527
 6319SOL    HW230420   4.409   1.161   6.519 -1.3913  1.3487  0.7942
 6320SOL     OW30421   0.066   1.855  10.713  0.4189 -0.4300 -0.1275
 6320SOL    HW130422   0.147   1.843  10.763  0.7795 -1.2985 -0.9041
 6320SOL    HW230423   0.049   1.947  10.729 -2.0676 -0.5573 -2.0402
 6321SOL     OW30424   2.911   1.394   9.387  0.1171 -0.0011  0.3324
 6321SOL    HW130425   2.982   1.332   9.408  0.3897 -0.2205 -1.2343
 6321SOL    HW230426   2.877   1.347   9.310 -1.0332  1.5766 -0.1067
 6322SOL     OW30427   0.983   0.869   1.853  0.3276 -0.3384 -0.0783
 6322SOL    HW130428   0.995   0.780   1.819  0.3972 -0.1644 -0.5164
 6322SOL    HW230429   1.017   0.926   1.783 -1.0629 -1.1158 -1.3754
 6323SOL     OW30430   3.832   3.506  11.413 -0.2840  0.4269  0.4569
 6323SOL    HW130431   3.795   3.476  11.330 -1.3439 -1.1239  1.5137
 6323SOL    HW230432   3.800   3.436  11.470 -0.2189 -0.7049 -0.8846
 6324SOL     OW30433   2.391   3.846   5.912 -0.0667  0.7889  0.0497
 6324SOL    HW130434   2.467   3.803   5.872 -0.5697 -0.1152  0.0617
 6324SOL    HW230435   2.421   3.866   6.000  0.7883 -2.5599  0.5359
 6325SOL     OW30436   2.795   3.761  16.882 -0.1090 -0.0270 -0.4825
 6325SOL    HW130437   2.729   3.826  16.860 -0.3050  0.1243  0.5616
 6325SOL    HW230438   2.746   3.689  16.922  1.0952 -0.0416  0.9427
 6326SOL     OW30439   2.850   3.895   5.520  0.0075 -0.3995 -0.3657
 6326SOL    HW130440   2.864   3.816   5.572  1.4289 -0.3238 -0.6337
 6326SOL    HW230441   2.914   3.956   5.556 -1.8074  1.4253 -0.2464
 6327SOL     OW30442   3.593   4.195  14.924  0.3095 -0.6145  0.0413
 6327SOL    HW130443   3.531   4.174  14.994 -1.4895  0.3432 -1.2513
 6327SOL    HW230444   3.523   4.216  14.862 -1.0596 -2.2572  1.0354
 6328SOL     OW30445   0.375   3.091  15.043  0.2674  0.5797  0.1747
 6328SOL    HW130446   0.306   3.075  14.979  1.4265 -0.6350 -0.7773
 6328SOL    HW230447   0.358   3.014  15.098 -0.1961  0.4991 -0.0781
 6329SOL     OW30448   0.553   2.302  15.718  0.5643 -0.8481 -0.4658
 6329SOL    HW130449   0.579   2.246  15.644  0.9423  0.7836 -1.5703
 6329SOL    HW230450   0.628   2.279  15.773  2.0129  0.9109 -1.7013
 6330SOL     OW30451   0.081   4.529   8.576  0.1750  0.0860 -0.0495
 6330SOL    HW130452   0.092   4.470   8.651 -0.7367  0.4122  0.3327
 6330SOL    HW230453   0.084   4.608   8.630  0.3833 -0.1447  0.2789
 6331SOL     OW30454   1.268   3.150   9.660 -0.0982 -0.0492 -0.0205
 6331SOL    HW130455   1.243   3.159   9.752  1.1957 -0.4996  0.3782
 6331SOL    HW230456   1.281   3.240   9.633  1.2474 -0.0143  0.7542
 6332SOL     OW30457   2.751   3.512  17.025  0.2797  0.5523 -0.2136
 6332SOL    HW130458   2.690   3.505  16.952 -2.3930  3.0418  1.7544
 6332SOL    HW230459   2.694   3.508  17.102 -0.2301 -2.2279 -0.7466
 6333SOL     OW30460   2.716   1.181  12.577 -0.2016  0.5014  0.7016
 6333SOL    HW130461   2.723   1.209  12.669 -0.1150 -0.0875  0.8786
 6333SOL    HW230462   2.807   1.158  12.555  0.3339  1.7351  1.6048
 6334SOL     OW30463   1.709   1.663   7.383  0.3847  0.2973 -0.2377
 6334SOL    HW130464   1.614   1.672   7.383  0.2677 -0.9746  1.4986
 6334SOL    HW230465   1.714   1.568   7.380  1.1449  0.3484 -0.6547
 6335SOL     OW30466   4.413   0.311   1.431  0.4250 -0.1956  0.3580
 6335SOL    HW130467   4.368   0.353   1.358 -4.5105 -0.5160  3.1680
 6335SOL    HW230468   4.405   0.386   1.490  0.8868 -0.1817  0.4047
 6336SOL     OW30469   0.881   0.432   4.855  0.0029 -0.2570 -0.7826
 6336SOL    HW130470   0.849   0.351   4.817  1.9021 -1.8807  1.1276
 6336SOL    HW230471   0.974   0.445   4.836  1.0508  0.4145  4.8751
 6337SOL     OW30472   1.794   4.001   8.324  0.1375  0.1772 -0.3516
 6337SOL    HW130473   1.754   4.079   8.285  0.8677  2.0068  2.6065
 6337SOL    HW230474   1.795   3.949   8.244 -0.4112 -0.5875  0.1399
 6338SOL     OW30475   1.985   3.857   8.420  0.1604 -0.0368  0.6247
 6338SOL    HW130476   1.918   3.913   8.380 -0.5663 -1.3902 -0.0557
 6338SOL    HW230477   2.050   3.925   8.438 -0.1262 -0.0568  1.7022
 6339SOL     OW30478   2.307   0.887  14.079 -0.1153  0.2730 -0.8402
 6339SOL    HW130479   2.234   0.932  14.037 -1.6840 -2.0561 -0.6591
 6339SOL    HW230480   2.384   0.913  14.028  0.7462 -0.9139 -0.1363
 6340SOL     OW30481   3.563   2.882   9.164  0.0143 -0.3708 -0.5474
 6340SOL    HW130482   3.481   2.927   9.147  0.5189  0.3224 -1.1681
 6340SOL    HW230483   3.621   2.958   9.166 -1.4427  0.7279 -0.6645
 6341SOL     OW30484   0.483   3.304   3.274 -0.1182  0.4787 -0.9222
 6341SOL    HW130485   0.499   3.379   3.331  2.2338 -0.8771  0.1747
 6341SOL    HW230486   0.403   3.331   3.228 -0.9136 -1.3788 -0.6137
 6342SOL     OW30487   3.911   0.945  15.287  0.2092 -0.0445 -0.3203
 6342SOL    HW130488   3.913   1.040  15.292  1.9703 -0.1637  1.0084
 6342SOL    HW230489   3.852   0.923  15.214  1.5202 -1.5043 -0.9444
 6343SOL     OW30490   0.203   0.103   7.947  0.0915  0.4917 -0.0574
 6343SOL    HW130491   0.159   0.184   7.919  0.0729  0.4029 -0.2807
 6343SOL    HW230492   0.186   0.045   7.873 -2.2187  0.9139  0.1351
 6344SOL     OW30493   2.230   4.135   2.102 -0.2035 -0.2548 -0.0157
 6344SOL    HW130494   2.234   4.056   2.156  1.3727 -1.5784 -2.1114
 6344SOL    HW230495   2.172   4.181   2.163  2.0485 -0.7210  2.5102
 6345SOL     OW30496   4.451   0.783  10.370 -0.8030 -0.2914  0.1405
 6345SOL    HW130497   4.483   0.873  10.380  1.6760 -1.2041  0.3822
 6345SOL    HW230498   4.492   0.746  10.448 -0.8497  0.7125  0.6425
 6346SOL     OW30499   2.631   1.745   5.620  0.8629  0.5876 -0.4077
 6346SOL    HW130500   2.616   1.716   5.530 -0.7026  0.5121 -0.1181
 6346SOL    HW230501   2.639   1.656   5.654  2.9138  1.4542  1.4116
 6347SOL     OW30502   1.313   1.919   8.465  0.0277  0.3514 -0.2150
 6347SOL    HW130503   1.359   1.952   8.542 -2.8271 -0.3878  1.7669
 6347SOL    HW230504   1.223   1.913   8.497 -0.0245  0.2708 -0.3724
 6348SOL     OW30505   0.940   3.499  15.451  0.2922  0.4550  0.1541
 6348SOL    HW130506   0.902   3.558  15.385 -1.7317 -0.9636  0.0264
 6348SOL    HW230507   1.028   3.532  15.467  0.8786 -0.9667 -0.1046
 6349SOL     OW30508   0.260   3.107  10.134  0.1658  0.0551  0.1368
 6349SOL    HW130509   0.169   3.078  10.142 -0.1052  1.2825  1.7341
 6349SOL    HW230510   0.313   3.028  10.145  0.3899  0.2478  0.4400
 6350SOL     OW30511   1.228   3.351  11.776  0.0429  0.2738 -0.0203
 6350SOL    HW130512   1.272   3.370  11.860 -0.2858  0.4680  0.1072
 6350SOL    HW230513   1.289   3.386  11.712 -0.8221  0.1572 -0.9006
 6351SOL     OW30514   3.899   4.018   6.537 -0.2702  0.5979  0.4686
 6351SOL    HW130515   3.813   4.004   6.577  0.7359 -0.2394  2.3081
 6351SOL    HW230516   3.879   4.008   6.444  1.9806 -1.6734  0.2495
 6352SOL     OW30517   1.563   0.875   2.005  0.2364  0.5006  0.6867
 6352SOL    HW130518   1.583   0.840   2.092  0.9141  1.9239  1.0987
 6352SOL    HW230519   1.472   0.847   2.013  0.4382  0.2971  2.4049
 6353SOL     OW30520   0.680   1.428   7.240 -0.8458  0.6810  0.4348
 6353SOL    HW130521   0.754   1.456   7.295  1.2058  0.3719 -2.1677
 6353SOL    HW230522   0.661   1.344   7.280  2.2998 -0.4768 -0.4998
 6354SOL     OW30523   3.870   1.588   2.522 -0.4954 -0.2356  0.6345
 6354SOL    HW130524   3.859   1.668   2.574 -1.7835  0.5725 -0.9003
 6354SOL    HW230525   3.794   1.602   2.466 -0.3012 -0.9731  0.1868
 6355SOL     OW30526   3.972   3.416   0.888  0.3438 -0.7504  0.7194
 6355SOL    HW130527   4.064   3.420   0.916  0.7049 -0.0451 -0.5971
 6355SOL    HW230528   3.982   3.383   0.799  2.6384 -0.8572  1.0027
 6356SOL     OW30529   0.957   2.492  16.826  0.0327 -0.1562 -0.7015
 6356SOL    HW130530   0.875   2.443  16.820 -1.0530  1.3746  1.7256
 6356SOL    HW230531   1.003   2.454  16.752  0.7731  0.3313 -0.4923
 6357SOL     OW30532   1.578   4.527   2.850  0.2723  0.0631  0.3471
 6357SOL    HW130533   1.627   4.602   2.817 -1.7218  1.1460 -0.2014
 6357SOL    HW230534   1.637   4.473   2.901 -2.3517 -2.6053  0.5896
 6358SOL     OW30535   2.376   1.726   7.502 -0.0140  0.5140  0.2722
 6358SOL    HW130536   2.431   1.780   7.558 -1.8975  1.1151  1.5305
 6358SOL    HW230537   2.351   1.655   7.561  0.1065  0.9122  0.7955
 6359SOL     OW30538   2.623   4.064   5.005 -0.4664  0.0212  0.2611
 6359SOL    HW130539   2.591   4.112   5.081 -0.5399  3.2543 -1.8140
 6359SOL    HW230540   2.550   4.013   4.971 -0.1599 -0.6271  0.5790
 6360SOL     OW30541   3.012   2.961   9.033  0.7365 -0.0462  0.4179
 6360SOL    HW130542   2.929   2.919   9.010  0.9099 -1.1433  1.7637
 6360SOL    HW230543   3.001   2.964   9.128 -3.6916  1.6302 -0.1586
 6361SOL     OW30544   2.766   4.224  11.212 -0.5774  0.1531 -0.4816
 6361SOL    HW130545   2.678   4.260  11.224 -1.5993 -2.0560 -1.2537
 6361SOL    HW230546   2.752   4.131  11.229  1.2128  0.3744  2.2362
 6362SOL     OW30547   3.004   0.065  13.117 -0.1364  0.6331  0.1948
 6362SOL    HW130548   2.918   0.106  13.109 -0.6875 -0.7654 -1.0640
 6362SOL    HW230549   3.022   0.072  13.211 -1.3185 -0.9797  0.5274
 6363SOL     OW30550   3.384   4.433  13.696 -0.2144 -0.0622  0.0296
 6363SOL    HW130551   3.349   4.418  13.608  0.2532  1.6508 -0.4399
 6363SOL    HW230552   3.321   4.379  13.744 -0.2559 -0.8855 -0.9391
 6364SOL     OW30553   1.955   0.053  15.635  0.3631 -0.1052  0.5763
 6364SOL    HW130554   1.970   4.683  15.647  0.8771 -0.4416 -2.8097
 6364SOL    HW230555   2.000   0.089  15.712  0.1392 -1.4821  1.3481
 6365SOL     OW30556   1.057   3.071  15.861  0.0040  0.0567  0.1000
 6365SOL    HW130557   1.058   3.037  15.950 -1.7394 -0.1261  0.0369
 6365SOL    HW230558   1.079   2.990  15.815  0.1327  1.2351 -1.9038
 6366SOL     OW30559   4.150   4.097  10.533 -0.5978  0.6870  0.0226
 6366SOL    HW130560   4.223   4.104  10.595 -0.9319  0.6952  0.4109
 6366SOL    HW230561   4.197   4.068  10.454 -1.6999 -0.8647 -0.0581
 6367SOL     OW30562   4.140   3.141  16.954 -0.3445 -0.7417  0.3660
 6367SOL    HW130563   4.150   3.218  16.898 -0.8937  1.2540  2.9748
 6367SOL    HW230564   4.219   3.087  16.955  1.1623  1.4500  3.1176
 6368SOL     OW30565   1.657   3.078   5.619 -0.3266 -0.5087  0.0639
 6368SOL    HW130566   1.678   3.013   5.551  2.4356  1.9993 -1.4476
 6368SOL    HW230567   1.721   3.149   5.613 -0.1859 -0.5989  0.5391
 6369SOL     OW30568   1.053   4.381   4.839  0.2722 -0.3135 -0.6625
 6369SOL    HW130569   1.069   4.401   4.931 -1.7009 -3.0974  0.2925
 6369SOL    HW230570   1.143   4.362   4.813  0.6694 -0.4944  0.8296
 6370SOL     OW30571   2.581   4.473   5.443  0.1862  0.0877 -0.6055
 6370SOL    HW130572   2.504   4.462   5.499 -0.3321 -1.9514 -1.7252
 6370SOL    HW230573   2.540   4.510   5.364  0.7075 -0.0942 -0.9567
 6371SOL     OW30574   1.421   1.617   8.069  0.2502 -0.0615 -0.3330
 6371SOL    HW130575   1.387   1.680   8.133  3.8268  1.9445 -0.4541
 6371SOL    HW230576   1.347   1.556   8.071 -1.0410  1.4722 -0.9185
 6372SOL     OW30577   3.467   2.132   0.787  0.3617 -0.4838  0.5004
 6372SOL    HW130578   3.446   2.046   0.751 -1.6113 -0.2658  1.0945
 6372SOL    HW230579   3.455   2.109   0.879 -1.5114 -1.3124  0.0562
 6373SOL     OW30580   4.087   2.066   8.644  0.0873 -1.0317 -0.1107
 6373SOL    HW130581   4.151   2.000   8.670  1.0821 -0.8437 -2.0388
 6373SOL    HW230582   4.114   2.070   8.552  2.1865 -0.8557  0.5035
 6374SOL     OW30583   3.711   0.799   8.761  0.1972 -0.1911 -0.0413
 6374SOL    HW130584   3.743   0.710   8.774  1.0036 -0.1470 -1.7248
 6374SOL    HW230585   3.721   0.843   8.846  1.6913 -1.3724  0.3951
 6375SOL     OW30586   1.860   1.345  14.798 -0.2007  0.3146 -0.5202
 6375SOL    HW130587   1.914   1.420  14.825  0.3310 -0.2466 -0.0200
 6375SOL    HW230588   1.828   1.372  14.712 -1.8081 -1.2608 -0.4037
 6376SOL     OW30589   4.395   0.803  11.964 -0.0249 -0.7563 -0.0630
 6376SOL    HW130590   4.393   0.816  11.869  2.2698  0.7265  0.0921
 6376SOL    HW230591   4.485   0.774  11.978 -1.4594 -4.5121  1.2221
 6377SOL     OW30592   0.032   2.952  13.110 -0.9305 -0.3377  0.0820
 6377SOL    HW130593   4.708   2.931  13.029 -0.0154 -0.0801 -0.5217
 6377SOL    HW230594   0.014   3.040  13.143  0.9026  0.4455 -0.9806
 6378SOL     OW30595   0.007   1.969   2.257  0.2081  0.4524 -0.2427
 6378SOL    HW130596   4.674   2.045   2.241  2.1598  1.8752 -0.5251
 6378SOL    HW230597   4.689   1.918   2.325  1.4896 -1.4554 -0.8955
 6379SOL     OW30598   3.488   0.409   8.951  0.9882 -0.8244  0.4631
 6379SOL    HW130599   3.406   0.435   8.993  0.1323 -2.3308 -0.3009
 6379SOL    HW230600   3.455   0.388   8.864 -0.0968 -0.7047  0.8464
 6380SOL     OW30601   2.278   1.919   8.879 -0.3419 -0.4122  0.7463
 6380SOL    HW130602   2.355   1.915   8.823 -0.6488  1.5541  0.1871
 6380SOL    HW230603   2.263   2.013   8.878 -1.4296 -0.5952 -0.0847
 6381SOL     OW30604   0.009   1.318   0.052  1.2479  0.5375 -0.0173
 6381SOL    HW130605   4.695   1.316   0.140 -0.9783 -1.0828 -1.0049
 6381SOL    HW230606   0.065   1.394   0.065 -0.0857  1.4236  0.6616
 6382SOL     OW30607   4.133   2.734   5.308  0.5295  0.0763  0.2334
 6382SOL    HW130608   4.207   2.677   5.290  0.0706 -0.2654 -0.5638
 6382SOL    HW230609   4.150   2.747   5.402  1.8645 -3.1513  0.4123
 6383SOL     OW30610   1.764   4.268   5.789 -0.0351  0.9058 -0.7455
 6383SOL    HW130611   1.758   4.267   5.694  0.2627 -0.0771 -0.7550
 6383SOL    HW230612   1.705   4.194   5.805  0.6607  0.3125 -0.9718
 6384SOL     OW30613   3.055   2.424   3.508 -0.1958  0.2290 -0.7842
 6384SOL    HW130614   3.068   2.331   3.528  0.9412  0.6446  0.4243
 6384SOL    HW230615   2.992   2.445   3.578 -0.3804 -0.2478 -0.8069
 6385SOL     OW30616   1.232   3.146  17.143 -0.1680  0.0260 -0.5468
 6385SOL    HW130617   1.191   3.099  17.071 -1.7634  0.4100  0.1062
 6385SOL    HW230618   1.321   3.113  17.132  1.1921  2.6548  2.5692
 6386SOL     OW30619   2.242   1.117   4.632 -0.9157 -0.2419 -0.7902
 6386SOL    HW130620   2.293   1.079   4.561 -1.4526 -0.2686 -1.1522
 6386SOL    HW230621   2.230   1.046   4.695 -1.3736  0.0116 -0.5934
 6387SOL     OW30622   3.574   0.102   7.786  0.0247  0.1059  0.2116
 6387SOL    HW130623   3.480   0.091   7.773  0.6514 -2.9877 -1.6257
 6387SOL    HW230624   3.581   0.173   7.850  1.8856  1.6707 -1.7440
 6388SOL     OW30625   3.886   2.924  11.298  0.0451  0.5057 -0.3394
 6388SOL    HW130626   3.845   2.928  11.384 -2.2323  1.7384 -1.4819
 6388SOL    HW230627   3.817   2.890  11.240  0.3754 -0.2530 -0.2814
 6389SOL     OW30628   1.600   1.823   8.805 -0.2127 -0.0709 -0.1134
 6389SOL    HW130629   1.532   1.834   8.871  1.9930  1.2510  1.8897
 6389SOL    HW230630   1.540   1.849   8.735 -0.7240  1.6759  0.9866
 6390SOL     OW30631   2.010   3.038  10.198  0.1813 -0.2164  0.0002
 6390SOL    HW130632   2.095   3.039  10.155  0.3018  0.0246  0.2451
 6390SOL    HW230633   2.008   2.954  10.244 -1.6436 -0.0784  0.1761
 6391SOL     OW30634   3.811   1.580  14.637 -0.4068  0.0871 -0.7396
 6391SOL    HW130635   3.815   1.485  14.627 -2.2844  0.3691 -4.0734
 6391SOL    HW230636   3.798   1.596  14.730 -0.0677  0.1633 -0.7049
 6392SOL     OW30637   1.746   3.352  13.158 -0.1184 -0.0076  0.4461
 6392SOL    HW130638   1.783   3.430  13.201 -1.5800 -0.3388  2.3047
 6392SOL    HW230639   1.666   3.390  13.122 -0.5245 -0.8636  0.4544
 6393SOL     OW30640   2.161   1.585  16.247 -0.6154 -0.2598 -1.0282
 6393SOL    HW130641   2.115   1.665  16.222 -1.4342  0.3582  2.5302
 6393SOL    HW230642   2.249   1.600  16.212 -0.6294 -0.0130 -0.9557
 6394SOL     OW30643   0.361   2.879   8.921 -1.0175  0.3293  0.9841
 6394SOL    HW130644   0.409   2.952   8.883 -3.2401  0.0560 -2.3735
 6394SOL    HW230645   0.377   2.806   8.862 -1.9123 -0.2630  1.4744
 6395SOL     OW30646   2.242   0.481   6.655  0.5919 -0.3073  0.5008
 6395SOL    HW130647   2.200   0.408   6.609  0.4207 -0.5937  1.1147
 6395SOL    HW230648   2.251   0.554   6.594 -2.6342  0.0363  0.4306
 6396SOL     OW30649   3.408   0.356  13.157 -0.1116  0.0064 -0.8246
 6396SOL    HW130650   3.470   0.289  13.132  1.2735  0.5705  1.0555
 6396SOL    HW230651   3.402   0.404  13.074  1.7919 -1.9413 -2.0666
 6397SOL     OW30652   4.308   2.341   1.518  0.1653  0.7618  0.3319
 6397SOL    HW130653   4.241   2.361   1.583  2.1432 -0.3615  2.7273
 6397SOL    HW230654   4.342   2.429   1.503  2.0511 -0.1017 -0.4154
 6398SOL     OW30655   3.957   2.477  15.696  0.3118 -0.5023 -0.0930
 6398SOL    HW130656   3.925   2.544  15.635 -0.1839 -2.6961 -2.2383
 6398SOL    HW230657   3.886   2.412  15.694 -0.4913  0.5159 -4.3352
 6399SOL     OW30658   2.776   0.681  16.475 -0.3269  0.5362  0.5363
 6399SOL    HW130659   2.776   0.636  16.391  0.4937  0.2086  0.7152
 6399SOL    HW230660   2.689   0.719  16.467  0.7255  2.3602 -2.3519
 6400SOL     OW30661   3.099   0.023   6.676  0.0374  0.0785  0.3829
 6400SOL    HW130662   3.117   0.003   6.768  1.6842  0.0672  0.0658
 6400SOL    HW230663   3.053   0.106   6.684 -0.6931 -0.2260 -0.6836
 6401SOL     OW30664   4.431   0.520   2.795 -0.7116 -0.2593  0.0486
 6401SOL    HW130665   4.458   0.585   2.860  1.0078  0.6666 -1.6012
 6401SOL    HW230666   4.498   0.454   2.816 -0.5699 -0.1307  0.0027
 6402SOL     OW30667   1.993   1.013   8.594  0.1512  0.1360 -0.2056
 6402SOL    HW130668   1.938   0.971   8.660 -1.7082  0.3120 -1.6533
 6402SOL    HW230669   2.007   1.100   8.631 -1.2370  0.0213  0.5880
 6403SOL     OW30670   2.238   2.482   4.371  0.5735 -0.6346 -0.2024
 6403SOL    HW130671   2.280   2.469   4.456 -0.2388  2.1611  0.6222
 6403SOL    HW230672   2.307   2.492   4.305 -1.3466 -2.8984 -2.6110
 6404SOL     OW30673   4.386   1.101   0.043  0.4559 -0.3356 -0.3652
 6404SOL    HW130674   4.344   1.092  17.655 -1.1744  3.1851  0.0860
 6404SOL    HW230675   4.367   1.187   0.079  0.9060  0.9762 -3.2743
 6405SOL     OW30676   3.129   3.062  15.503 -0.1077 -1.0146 -0.2436
 6405SOL    HW130677   3.081   3.089  15.581  0.2036  3.1177 -1.4831
 6405SOL    HW230678   3.154   3.149  15.472  1.7098 -1.9768 -1.5343
 6406SOL     OW30679   3.579   4.098   2.507 -0.4554 -0.2670  0.1400
 6406SOL    HW130680   3.520   4.143   2.569  2.5667  0.5602  2.4054
 6406SOL    HW230681   3.540   4.123   2.423 -3.0141 -1.8061  0.8769
 6407SOL     OW30682   1.898   0.312   2.576  0.1876 -0.3326 -0.5380
 6407SOL    HW130683   1.956   0.306   2.500  2.4223  0.2871  1.1263
 6407SOL    HW230684   1.832   0.373   2.543  1.8270  0.1900 -2.9134
 6408SOL     OW30685   3.414   1.929  16.811  0.4920 -0.1480 -0.5507
 6408SOL    HW130686   3.432   2.022  16.822  0.9446 -0.3366  0.2715
 6408SOL    HW230687   3.337   1.932  16.754 -2.8109 -1.8114  3.8200
 6409SOL     OW30688   4.447   2.071   6.107  0.3641 -0.5100 -0.3368
 6409SOL    HW130689   4.492   2.090   6.025  0.9916 -2.3382 -0.4226
 6409SOL    HW230690   4.357   2.056   6.080  1.1048 -0.0805 -3.0388
 6410SOL     OW30691   0.705   2.235   7.576 -0.2261 -0.3993 -0.3593
 6410SOL    HW130692   0.747   2.307   7.530 -2.2376  0.2214 -1.2266
 6410SOL    HW230693   0.778   2.222   7.636 -1.7391 -0.4426  1.4909
 6411SOL     OW30694   3.745   0.029   2.885  0.1669 -0.4296  0.5038
 6411SOL    HW130695   3.797   0.109   2.873 -0.0485 -0.1291  1.6178
 6411SOL    HW230696   3.815   4.689   2.893 -0.9063 -1.7971 -0.9454
 6412SOL     OW30697   3.212   3.773   5.706 -0.3364 -0.4010  0.0462
 6412SOL    HW130698   3.218   3.792   5.612 -0.2369 -0.7719 -0.0239
 6412SOL    HW230699   3.286   3.712   5.703  1.2777  1.5422  0.2173
 6413SOL     OW30700   1.602   4.140   6.066 -0.4882 -0.1479  0.8918
 6413SOL    HW130701   1.609   4.084   5.988  2.2488  1.6718 -0.1702
 6413SOL    HW230702   1.510   4.143   6.092 -0.3209 -0.4911  1.5041
 6414SOL     OW30703   3.849   3.969  13.160  0.3466  0.3386  0.7388
 6414SOL    HW130704   3.915   4.038  13.152 -0.3224  0.3238 -4.4180
 6414SOL    HW230705   3.847   3.924  13.076  0.2774  1.7093 -0.0060
 6415SOL     OW30706   0.858   2.073   5.087 -0.4039 -0.2110 -0.1390
 6415SOL    HW130707   0.888   2.161   5.064  2.3402 -1.0861  0.0898
 6415SOL    HW230708   0.766   2.095   5.101  0.0747  0.8642  1.2990
 6416SOL     OW30709   4.279   2.158  16.473  0.1568  0.4677 -0.7503
 6416SOL    HW130710   4.189   2.169  16.442  0.4434  1.9862 -1.0475
 6416SOL    HW230711   4.325   2.218  16.414  0.7071  0.9036  0.1109
 6417SOL     OW30712   0.311   0.582  10.169 -0.5128 -0.6296  0.5560
 6417SOL    HW130713   0.324   0.599  10.262  1.6153 -0.4656  0.2107
 6417SOL    HW230714   0.318   0.486  10.162 -1.8836 -0.7699  0.9570
 6418SOL     OW30715   1.098   2.072  11.478 -0.1261 -0.5344  0.4058
 6418SOL    HW130716   1.094   2.154  11.528  2.0758 -2.1359  3.2069
 6418SOL    HW230717   1.010   2.060  11.444 -0.5440 -0.6372  1.5361
 6419SOL     OW30718   4.385   3.288   6.934 -0.0440 -0.2549  0.1503
 6419SOL    HW130719   4.306   3.241   6.962 -0.5557  1.7609  2.0494
 6419SOL    HW230720   4.363   3.372   6.974 -0.1388 -0.4997  0.6202
 6420SOL     OW30721   3.897   0.617   5.291  0.0235 -0.1111  0.3374
 6420SOL    HW130722   3.841   0.597   5.366 -1.4691 -0.8349 -0.9985
 6420SOL    HW230723   3.832   0.601   5.224  1.0366 -1.4305 -0.3375
 6421SOL     OW30724   3.511   3.317  14.776  0.2695 -0.3553 -0.3404
 6421SOL    HW130725   3.560   3.282  14.703 -0.1108 -1.8888  0.1437
 6421SOL    HW230726   3.442   3.251  14.783  0.3079 -0.4011 -0.4002
 6422SOL     OW30727   0.333   1.047   7.691 -0.4831  0.1032 -0.1055
 6422SOL    HW130728   0.273   1.082   7.626 -2.9998 -1.6230  1.2959
 6422SOL    HW230729   0.266   1.002   7.743  0.8972 -1.4742  0.3238
 6423SOL     OW30730   4.604   2.868   5.498 -0.0852 -1.0003  0.4956
 6423SOL    HW130731   4.662   2.820   5.439  0.3553 -0.3599  0.3968
 6423SOL    HW230732   4.566   2.920   5.427 -2.2366 -0.0791  2.3230
 6424SOL     OW30733   2.413   0.241   3.469 -0.6712 -0.4662 -0.1938
 6424SOL    HW130734   2.450   0.310   3.413 -1.6968 -0.3511 -0.7337
 6424SOL    HW230735   2.440   0.168   3.413  1.4338  0.4366 -0.3528
 6425SOL     OW30736   1.128   0.626   6.692  0.4326  0.4122  0.3089
 6425SOL    HW130737   1.077   0.579   6.626 -0.3628 -2.5613  3.0278
 6425SOL    HW230738   1.067   0.699   6.703  0.2449  0.6823 -2.5341
 6426SOL     OW30739   1.371   2.034   7.673 -0.4831 -0.0298 -0.0995
 6426SOL    HW130740   1.430   1.979   7.725  0.4336  0.2089 -0.8838
 6426SOL    HW230741   1.340   2.086   7.747 -3.1672  0.3032 -1.4410
 6427SOL     OW30742   1.077   2.157   6.090 -0.6234 -0.5272 -0.1501
 6427SOL    HW130743   1.159   2.107   6.098 -0.5451 -0.2721  0.5944
 6427SOL    HW230744   1.120   2.236   6.058 -0.1277 -1.3572 -1.5421
 6428SOL     OW30745   1.251   3.499  14.181  0.0000  0.5435  0.4056
 6428SOL    HW130746   1.263   3.541  14.266 -0.6498  2.6800 -0.5538
 6428SOL    HW230747   1.310   3.552  14.127 -1.1397 -1.4979 -2.8114
 6429SOL     OW30748   1.777   1.400   1.140 -0.3060 -0.1237 -0.0923
 6429SOL    HW130749   1.806   1.320   1.096  1.4597  0.6551 -0.3422
 6429SOL    HW230750   1.701   1.367   1.187 -0.3299 -0.2222 -0.2003
 6430SOL     OW30751   3.211   1.721  15.531 -0.1173  0.3234  0.4375
 6430SOL    HW130752   3.283   1.760  15.580  0.6184 -1.0984  0.5106
 6430SOL    HW230753   3.182   1.664  15.603 -0.8161  1.0129  0.7017
 6431SOL     OW30754   4.712   1.340   8.722  0.6695  0.6963 -0.4896
 6431SOL    HW130755   4.687   1.309   8.635  0.0991  0.4822 -0.2464
 6431SOL    HW230756   4.636   1.322   8.777 -0.0795  1.3572 -1.3127
 6432SOL     OW30757   3.133   3.038  10.198  0.3954 -0.2781  0.4328
 6432SOL    HW130758   3.125   2.952  10.239  0.5343 -1.6416 -2.3948
 6432SOL    HW230759   3.053   3.087  10.215  0.7433  0.2735  0.4954
 6433SOL     OW30760   0.412   0.579   3.602  1.1408  0.0231  0.0414
 6433SOL    HW130761   0.497   0.539   3.618  1.1993  0.0207 -0.2840
 6433SOL    HW230762   0.359   0.512   3.646  1.2946  0.7180  1.2754
 6434SOL     OW30763   0.177   0.866  17.569  0.1244  0.0179  0.1647
 6434SOL    HW130764   0.208   0.859  17.660 -0.3767  0.0350  0.3373
 6434SOL    HW230765   0.117   0.940  17.581  0.2012  0.1102 -0.0188
 6435SOL     OW30766   1.261   1.752  13.692 -0.2853 -0.1031  1.0064
 6435SOL    HW130767   1.346   1.767  13.651 -1.7040  2.0230 -1.1524
 6435SOL    HW230768   1.286   1.676  13.745 -0.8647 -2.0467 -1.5080
 6436SOL     OW30769   1.513   3.921   7.075  0.3786  0.3408  0.0607
 6436SOL    HW130770   1.495   3.987   7.008  1.6283  0.9386  0.3047
 6436SOL    HW230771   1.608   3.921   7.090  0.2115 -0.4881  1.1006
 6437SOL     OW30772   2.568   2.087   7.305 -0.2031 -0.3650 -0.1345
 6437SOL    HW130773   2.525   2.006   7.275  0.3215 -0.9366  0.6554
 6437SOL    HW230774   2.534   2.101   7.394 -0.4158 -0.9606 -0.1207
 6438SOL     OW30775   2.792   0.570   7.990  0.5087 -0.0364 -0.0181
 6438SOL    HW130776   2.839   0.572   8.073  1.9914 -1.1445 -0.8361
 6438SOL    HW230777   2.820   0.660   7.975 -0.8185  0.5388  0.9485
 6439SOL     OW30778   0.993   4.437   6.507 -0.1467 -0.7723 -0.0774
 6439SOL    HW130779   0.914   4.489   6.523  1.7403  1.6419  1.5090
 6439SOL    HW230780   0.988   4.436   6.412 -0.5862 -0.7460 -0.0530
 6440SOL     OW30781   3.134   0.075   8.487  0.3722 -0.4230  0.3966
 6440SOL    HW130782   3.073   0.006   8.513 -1.9020  0.8315 -1.5520
 6440SOL    HW230783   3.067   0.139   8.464 -1.4985 -2.3507  0.4206
 6441SOL     OW30784   1.218   1.053   8.220 -0.3917 -0.0830 -0.8454
 6441SOL    HW130785   1.205   1.087   8.309 -0.4762 -0.2586 -0.7881
 6441SOL    HW230786   1.184   0.964   8.232  1.1040 -0.4146  0.9448
 6442SOL     OW30787   0.984   2.252   0.657 -0.4096  0.3579  0.0736
 6442SOL    HW130788   1.011   2.316   0.723  0.0115 -1.0336  1.2524
 6442SOL    HW230789   1.068   2.250   0.611 -0.3273 -0.0084  0.2407
 6443SOL     OW30790   3.377   1.057   4.925  0.4505 -1.0285  0.3194
 6443SOL    HW130791   3.394   1.150   4.942 -0.1332 -1.0541  1.0676
 6443SOL    HW230792   3.465   1.021   4.936 -0.0451 -1.9466  1.2657
 6444SOL     OW30793   2.311   1.693   3.490  0.0409 -0.1824 -0.3382
 6444SOL    HW130794   2.317   1.700   3.586  1.9567  0.3211 -0.4907
 6444SOL    HW230795   2.229   1.644   3.480 -1.8332  2.6336  1.2884
 6445SOL     OW30796   0.530   2.421  11.771  0.2184 -0.6109  0.8810
 6445SOL    HW130797   0.507   2.514  11.774 -0.4917 -0.6912 -1.3355
 6445SOL    HW230798   0.452   2.393  11.723 -0.2374  0.9474  0.7050
 6446SOL     OW30799   3.467   4.634  16.097  0.2793 -0.1807  0.3802
 6446SOL    HW130800   3.467   0.003  16.072 -1.2373  0.1873  1.7113
 6446SOL    HW230801   3.379   4.622  16.135  0.2829  0.0812  0.4755
 6447SOL     OW30802   3.115   0.016  14.579  0.2805 -0.1469  0.3124
 6447SOL    HW130803   3.202   4.713  14.608  0.3862 -1.3309 -1.0899
 6447SOL    HW230804   3.140   0.087  14.519  0.2476  1.2184  1.9140
 6448SOL     OW30805   4.499   2.454   7.720 -0.5806 -0.1663  0.3452
 6448SOL    HW130806   4.472   2.442   7.629  2.2469 -1.7011 -0.2983
 6448SOL    HW230807   4.478   2.547   7.727  0.7281  0.3209 -2.3501
 6449SOL     OW30808   1.320   3.710   9.458  0.5240 -0.4764 -0.7518
 6449SOL    HW130809   1.400   3.657   9.462  0.0461 -1.4484 -3.9764
 6449SOL    HW230810   1.359   3.780   9.405 -0.1716 -0.5646 -1.3718
 6450SOL     OW30811   3.217   3.285  11.079  0.1356  0.1047 -0.4589
 6450SOL    HW130812   3.193   3.296  11.172  0.6193  0.9954 -0.4309
 6450SOL    HW230813   3.136   3.265  11.033  0.1776  0.8385 -0.8594
 6451SOL     OW30814   2.723   2.813   3.406  0.5656 -0.1813  0.1025
 6451SOL    HW130815   2.671   2.786   3.330 -0.1459 -0.2381  0.6157
 6451SOL    HW230816   2.799   2.755   3.394 -0.3672 -1.3645 -0.1129
 6452SOL     OW30817   1.768   1.125   9.042 -0.8105 -0.2902 -0.4446
 6452SOL    HW130818   1.745   1.145   8.951  1.1694  1.3959 -0.5824
 6452SOL    HW230819   1.688   1.077   9.062 -0.7846 -0.3094 -0.3865
 6453SOL     OW30820   1.399   0.338   6.449  0.0899  0.0607 -0.2685
 6453SOL    HW130821   1.381   0.425   6.484 -0.5356  0.7303 -2.2764
 6453SOL    HW230822   1.316   0.296   6.471 -0.8622  1.1619 -1.7963
 6454SOL     OW30823   1.492   0.109  11.118  0.0090 -0.0148 -0.5843
 6454SOL    HW130824   1.569   0.164  11.102 -1.2380  2.3432  1.6090
 6454SOL    HW230825   1.539   0.030  11.145 -0.7822 -0.6032 -0.9342
 6455SOL     OW30826   1.314   3.292   0.614  0.6853  0.1350 -0.1313
 6455SOL    HW130827   1.296   3.245   0.532 -1.4795 -2.2676  1.7084
 6455SOL    HW230828   1.241   3.262   0.668  2.6322 -0.9356  1.9190
 6456SOL     OW30829   1.323   2.189   5.542 -0.0439 -0.1069  0.2242
 6456SOL    HW130830   1.323   2.285   5.537 -0.5331  0.0049  2.2722
 6456SOL    HW230831   1.357   2.179   5.631 -0.9791  1.3229  0.7472
 6457SOL     OW30832   0.695   3.375   7.007 -0.1773 -0.1633 -0.0085
 6457SOL    HW130833   0.692   3.446   7.071 -0.6760 -0.0020 -0.2087
 6457SOL    HW230834   0.745   3.309   7.055  0.7218  1.3094  1.0818
 6458SOL     OW30835   3.516   2.000  11.090  0.0757 -0.2790 -0.0668
 6458SOL    HW130836   3.470   1.931  11.042  0.3627 -1.7178  1.6889
 6458SOL    HW230837   3.602   1.962  11.111  0.5243  0.5142 -0.4672
 6459SOL     OW30838   0.094   3.470   3.939 -0.8008  0.2783  0.0623
 6459SOL    HW130839   0.162   3.414   3.903 -0.9298  0.4498 -0.4540
 6459SOL    HW230840   0.123   3.561   3.926 -1.8480  0.4839 -0.8851
 6460SOL     OW30841   1.942   1.560  14.653  0.2966  0.1961 -0.0262
 6460SOL    HW130842   1.887   1.620  14.603 -0.4050  1.2649  2.0475
 6460SOL    HW230843   2.006   1.535  14.586 -1.9854 -0.3866 -2.0003
 6461SOL     OW30844   0.729   2.449   2.545  0.4257 -0.3101 -0.2068
 6461SOL    HW130845   0.728   2.399   2.463 -1.2784 -1.7206  0.6862
 6461SOL    HW230846   0.635   2.437   2.556  0.2604 -0.2976 -1.6136
 6462SOL     OW30847   0.695   1.909   9.301  0.3515 -0.1413  0.1381
 6462SOL    HW130848   0.767   1.862   9.344 -0.1030  0.8368  1.9751
 6462SOL    HW230849   0.730   1.997   9.318 -1.0520  0.3763  0.3014
 6463SOL     OW30850   0.112   3.522   3.541  0.7075 -0.0596  0.2799
 6463SOL    HW130851   0.162   3.556   3.467  0.4027  1.4250  0.7436
 6463SOL    HW230852   0.135   3.431   3.525  0.2516  0.1464 -1.4559
 6464SOL     OW30853   0.822   4.423  12.333 -0.2841 -0.3145 -0.0765
 6464SOL    HW130854   0.838   4.474  12.253  0.8933  0.7400  0.8327
 6464SOL    HW230855   0.768   4.481  12.387  0.9000 -0.2579  1.0421
 6465SOL     OW30856   4.691   3.523  14.225  0.0570 -0.4101 -0.0092
 6465SOL    HW130857   0.028   3.448  14.222  0.6566  0.0281  1.3278
 6465SOL    HW230858   0.020   3.592  14.186 -0.1695 -0.9068 -1.2061
 6466SOL     OW30859   4.170   2.011   4.788 -0.1170 -0.2282  0.3178
 6466SOL    HW130860   4.155   2.016   4.883 -0.3649 -1.7522  0.3632
 6466SOL    HW230861   4.174   1.916   4.782  1.2470 -0.1817  0.5787
 6467SOL     OW30862   2.732   0.865   5.814 -0.0311  0.5765  0.2132
 6467SOL    HW130863   2.769   0.949   5.788 -1.5101  0.5561 -1.9907
 6467SOL    HW230864   2.693   0.898   5.895  0.0427 -0.3888  0.6373
 6468SOL     OW30865   3.556   2.664   6.053 -0.0979 -0.7797  0.4605
 6468SOL    HW130866   3.573   2.572   6.032  0.3688 -0.3363 -1.0299
 6468SOL    HW230867   3.474   2.668   6.004  0.2624  2.7555  0.1642
 6469SOL     OW30868   0.789   4.662   6.431  0.2812  0.0435  0.2332
 6469SOL    HW130869   0.841   0.018   6.436 -0.5348  0.8019 -3.3080
 6469SOL    HW230870   0.725   4.687   6.498  0.4954 -0.1314  0.5028
 6470SOL     OW30871   3.760   2.334   4.179 -0.6793  0.1164 -0.2927
 6470SOL    HW130872   3.755   2.350   4.273 -0.5529 -0.9207 -0.1053
 6470SOL    HW230873   3.804   2.414   4.150 -1.5429  0.9699  0.7891
 6471SOL     OW30874   4.533   1.336   8.971  0.1630 -0.0527  0.2077
 6471SOL    HW130875   4.615   1.384   8.977 -0.0965  0.3201  0.8614
 6471SOL    HW230876   4.499   1.336   9.061  0.2815  1.9642  0.2633
 6472SOL     OW30877   0.818   2.699   3.792  0.3674 -0.6651 -0.0346
 6472SOL    HW130878   0.723   2.690   3.805  0.3447  0.4150  0.4813
 6472SOL    HW230879   0.811   2.779   3.740  0.1394  0.2997  1.4799
 6473SOL     OW30880   3.910   3.381   2.892  0.1168  0.1049 -0.0550
 6473SOL    HW130881   3.881   3.322   2.961 -0.5644 -0.4427 -0.8223
 6473SOL    HW230882   3.831   3.433   2.880 -1.4270 -2.5514 -1.2301
 6474SOL     OW30883   4.070   0.117   1.749  0.3526  0.3959  0.3756
 6474SOL    HW130884   4.065   0.021   1.746  1.8343  0.2916  1.1959
 6474SOL    HW230885   4.054   0.151   1.661 -0.3219 -0.1764  0.2787
 6475SOL     OW30886   4.324   3.962   8.055 -0.3567 -0.1664 -0.0419
 6475SOL    HW130887   4.400   3.915   8.087 -1.3113 -1.6651  0.0163
 6475SOL    HW230888   4.253   3.907   8.089  0.3957 -0.3827  1.1662
 6476SOL     OW30889   0.765   1.300   4.486  0.4641 -0.5295 -0.5677
 6476SOL    HW130890   0.766   1.325   4.579  0.3844 -2.0438 -0.1592
 6476SOL    HW230891   0.714   1.371   4.448  0.6969 -0.3061 -0.4596
 6477SOL     OW30892   1.886   0.654   9.249  0.1022 -0.3887  0.4597
 6477SOL    HW130893   1.929   0.726   9.294  2.5570 -1.2504 -0.5030
 6477SOL    HW230894   1.964   0.612   9.212 -0.6686  0.2490 -1.8761
 6478SOL     OW30895   4.268   0.621   7.318 -0.4439 -0.5172 -0.2473
 6478SOL    HW130896   4.177   0.594   7.312 -0.8719  0.9376 -0.1881
 6478SOL    HW230897   4.295   0.596   7.407  1.2983  0.1528 -0.5935
 6479SOL     OW30898   1.942   3.686   5.827  0.1888  0.5987  0.1292
 6479SOL    HW130899   2.018   3.694   5.770 -0.5301  0.6868 -0.8119
 6479SOL    HW230900   1.989   3.707   5.908  0.2493 -0.7210  0.4344
 6480SOL     OW30901   4.594   3.261   6.536  0.3755  0.4403 -0.4306
 6480SOL    HW130902   4.613   3.243   6.444 -1.6520  0.7030 -0.9044
 6480SOL    HW230903   4.585   3.356   6.533 -0.2013  0.3343 -2.1857
 6481SOL     OW30904   2.851   3.575  11.163 -0.3510  0.4836  0.3374
 6481SOL    HW130905   2.935   3.554  11.204  0.1309 -0.6576 -1.2411
 6481SOL    HW230906   2.860   3.551  11.070 -1.2876  0.1543  0.3384
 6482SOL     OW30907   1.774   2.897   6.837  0.1308 -0.0902 -0.4581
 6482SOL    HW130908   1.805   2.842   6.909  0.5056 -2.7323 -2.6712
 6482SOL    HW230909   1.792   2.839   6.763  1.4374  0.1152 -0.3025
 6483SOL     OW30910   2.004   1.524   9.477 -0.4838  0.1858  0.6604
 6483SOL    HW130911   1.915   1.507   9.509 -1.3736  0.5540 -1.6155
 6483SOL    HW230912   1.989   1.564   9.392 -2.7177 -3.7794 -0.8249
 6484SOL     OW30913   0.901   4.008   4.342  0.4726  0.4003 -0.6630
 6484SOL    HW130914   0.847   4.085   4.359 -0.5426 -0.9419  2.1909
 6484SOL    HW230915   0.989   4.044   4.339 -0.4437  2.6287 -0.6733
 6485SOL     OW30916   0.764   0.107  15.284  0.0049 -0.1615  0.6385
 6485SOL    HW130917   0.856   0.085  15.295  0.1893  0.8236  1.0150
 6485SOL    HW230918   0.746   0.167  15.356 -0.1152  1.4310 -0.7147
 6486SOL     OW30919   3.314   4.565   4.225 -0.3906 -0.3413  0.0099
 6486SOL    HW130920   3.319   4.647   4.275  2.0733  0.2292 -1.1782
 6486SOL    HW230921   3.229   4.574   4.181 -1.0444 -1.9816  0.9187
 6487SOL     OW30922   3.321   0.031   3.878  0.5894  0.3714 -0.2517
 6487SOL    HW130923   3.294   0.000   3.791 -2.3073 -1.1734  1.2004
 6487SOL    HW230924   3.410   4.721   3.871  1.7728  2.9759  2.4002
 6488SOL     OW30925   3.250   2.310   5.008 -0.1884  0.0290 -0.1199
 6488SOL    HW130926   3.176   2.301   4.948 -0.3160 -1.6119  0.3071
 6488SOL    HW230927   3.294   2.226   4.996 -2.7910 -1.5036  1.1463
 6489SOL     OW30928   0.126   4.067  11.531 -0.0647  0.2150 -0.3050
 6489SOL    HW130929   0.032   4.051  11.531  0.1336 -0.9517  0.2555
 6489SOL    HW230930   0.157   3.985  11.570  0.6338  0.0512 -1.2138
 6490SOL     OW30931   3.348   0.557   2.816 -0.5083 -0.1908  0.4582
 6490SOL    HW130932   3.381   0.631   2.765 -0.1579 -1.5883 -1.3378
 6490SOL    HW230933   3.420   0.510   2.858  0.0840 -0.9536 -1.3825
 6491SOL     OW30934   1.047   1.889   8.127  0.4294 -0.3563  0.3417
 6491SOL    HW130935   1.134   1.858   8.152  1.4039  2.3746  0.3922
 6491SOL    HW230936   1.014   1.927   8.208 -0.8913 -0.5228 -0.1202
 6492SOL     OW30937   4.463   1.759   7.276 -0.4346  0.3582  0.2001
 6492SOL    HW130938   4.436   1.776   7.186  0.0021 -1.5003 -0.2918
 6492SOL    HW230939   4.383   1.716   7.309 -0.7490 -0.5932 -1.7524
 6493SOL     OW30940   1.834   3.343   8.451  0.7749  0.1076 -0.6898
 6493SOL    HW130941   1.847   3.250   8.470 -1.2182  0.2889  1.4310
 6493SOL    HW230942   1.927   3.366   8.443  1.6079 -2.5589  1.2843
 6494SOL     OW30943   2.184   1.674  10.277  0.2657  0.2134 -0.5655
 6494SOL    HW130944   2.111   1.700  10.221  0.5877 -0.5745 -1.3593
 6494SOL    HW230945   2.198   1.585  10.244  1.5893 -0.3691  1.5663
 6495SOL     OW30946   1.439   2.129   5.774 -0.0888  0.3155 -0.0079
 6495SOL    HW130947   1.407   2.042   5.798 -0.0416  0.4889  0.6777
 6495SOL    HW230948   1.531   2.121   5.797 -0.4339 -1.7882  0.7079
 6496SOL     OW30949   0.997   0.985   4.670  0.3822 -0.1907  0.1713
 6496SOL    HW130950   0.918   1.000   4.619  0.6688 -0.6980 -0.4184
 6496SOL    HW230951   0.966   0.983   4.761  2.2605  0.4878  0.8241
 6497SOL     OW30952   3.648   1.370   2.484 -0.3695  0.1730  0.5593
 6497SOL    HW130953   3.632   1.277   2.468  0.8400  0.2118 -0.8209
 6497SOL    HW230954   3.594   1.382   2.562 -1.6415 -0.2038 -0.2798
 6498SOL     OW30955   3.264   1.175   3.152  0.3671 -0.3460 -0.4905
 6498SOL    HW130956   3.323   1.182   3.078  0.7382 -1.2236 -0.2855
 6498SOL    HW230957   3.297   1.092   3.187  0.7159  0.9326  2.2101
 6499SOL     OW30958   2.811   0.484   6.526 -0.2804 -0.1433  0.1582
 6499SOL    HW130959   2.868   0.552   6.490  0.4290 -0.3045  0.9999
 6499SOL    HW230960   2.725   0.505   6.489 -0.6595 -1.1852  0.4417
 6500SOL     OW30961   2.084   4.613   0.485 -0.2590  0.1104  0.1760
 6500SOL    HW130962   2.041   4.560   0.418  0.8481 -1.5269  0.7441
 6500SOL    HW230963   2.003   4.654   0.515 -0.3245  0.6398 -0.7447
 6501SOL     OW30964   0.701   2.343   2.296  0.2495  0.0935  0.3822
 6501SOL    HW130965   0.631   2.281   2.315 -0.5013  1.1892  1.1970
 6501SOL    HW230966   0.663   2.386   2.219  1.5866  1.1601  0.3198
 6502SOL     OW30967   2.188   1.079  11.700 -0.4482 -0.1432 -0.2511
 6502SOL    HW130968   2.226   1.123  11.624 -1.2142  0.5013 -0.2642
 6502SOL    HW230969   2.182   0.989  11.670  1.0358  0.2926 -1.8919
 6503SOL     OW30970   3.745   1.379  17.666 -0.1165 -0.5201 -0.0998
 6503SOL    HW130971   3.754   1.372  17.571 -2.2308 -1.7644 -0.2199
 6503SOL    HW230972   3.811   1.314  17.692  1.0123  1.6836  2.4940
 6504SOL     OW30973   2.069   1.243   9.409  0.2149 -0.3789 -0.6319
 6504SOL    HW130974   2.043   1.333   9.427  0.2594 -0.2239 -1.3735
 6504SOL    HW230975   2.067   1.209   9.499  1.1703 -0.7002 -0.7342
 6505SOL     OW30976   2.204   1.308   2.103  0.3874 -0.0218 -0.1386
 6505SOL    HW130977   2.126   1.364   2.100  0.3797  0.0391  1.3266
 6505SOL    HW230978   2.177   1.263   2.023  1.8465 -2.5441  0.8218
 6506SOL     OW30979   0.251   3.204   6.591 -0.1859  0.0693  0.1677
 6506SOL    HW130980   0.230   3.296   6.576 -0.2391 -0.1675 -1.2545
 6506SOL    HW230981   0.305   3.221   6.667  1.3324 -0.5578 -0.7656
 6507SOL     OW30982   2.030   2.655   2.262 -0.1970 -0.1013  0.0270
 6507SOL    HW130983   1.981   2.606   2.195  0.6382  0.8509 -1.2786
 6507SOL    HW230984   1.972   2.654   2.338 -0.5024 -2.9858 -0.2388
 6508SOL     OW30985   2.603   0.614  15.995 -0.2812  0.1074  0.5967
 6508SOL    HW130986   2.519   0.657  16.015  0.2916  1.0311  1.0090
 6508SOL    HW230987   2.570   0.527  15.973  0.5210  0.2334 -1.1013
 6509SOL     OW30988   1.701   3.722   3.977 -0.3249  0.6555 -0.3463
 6509SOL    HW130989   1.766   3.747   3.912 -0.1235 -2.0046 -1.1789
 6509SOL    HW230990   1.759   3.691   4.047  1.1451  0.9408 -1.4603
 6510SOL     OW30991   4.652   1.642   5.695  0.2219  0.1069 -0.2420
 6510SOL    HW130992   0.012   1.670   5.731 -0.4508  1.2214  0.4405
 6510SOL    HW230993   4.682   1.628   5.605  0.7359 -0.3374 -0.0004
 6511SOL     OW30994   2.383   4.652  13.380 -0.1424  0.0727 -0.2321
 6511SOL    HW130995   2.470   4.623  13.352  0.7610  2.2435  0.3454
 6511SOL    HW230996   2.353   4.710  13.310 -0.3282  0.3557  0.0812
 6512SOL     OW30997   0.018   1.532  12.398 -0.6345 -0.4389  0.1461
 6512SOL    HW130998   4.717   1.608  12.345  0.5699  0.1071  0.3705
 6512SOL    HW230999   4.658   1.522  12.443  0.2477  0.8887  2.0773
 6513SOL     OW31000   2.871   0.505  14.123  0.5260  0.6941 -0.3181
 6513SOL    HW131001   2.786   0.462  14.114 -0.2828  1.1262  5.1145
 6513SOL    HW231002   2.852   0.599  14.123  2.3492  1.0648 -0.3868
 6514SOL     OW31003   0.419   0.807   7.946  0.3152 -0.0629 -0.3335
 6514SOL    HW131004   0.515   0.812   7.945  0.4098 -1.5460  0.7702
 6514SOL    HW231005   0.397   0.786   7.855  0.7186  1.0518 -0.6845
 6515SOL     OW31006   2.136   3.677   6.298 -0.0519  0.3365  0.1342
 6515SOL    HW131007   2.106   3.705   6.212 -0.9981 -0.7813  0.0991
 6515SOL    HW231008   2.212   3.628   6.267  0.0423 -0.0020  0.8958
 6516SOL     OW31009   3.496   1.907  10.431 -0.0789  0.7511  0.7516
 6516SOL    HW131010   3.587   1.906  10.459  0.3118 -0.7702 -0.5006
 6516SOL    HW231011   3.450   1.876  10.509 -0.0529  1.5683  1.0849
 6517SOL     OW31012   3.513   0.683  14.598 -0.3471 -0.4826  0.0444
 6517SOL    HW131013   3.445   0.635  14.551 -0.1565  0.7925 -1.5430
 6517SOL    HW231014   3.461   0.712  14.673 -1.4760 -0.5203 -0.7129
 6518SOL     OW31015   2.065   2.580   7.557  0.3440  0.4055 -0.1090
 6518SOL    HW131016   2.067   2.614   7.646  3.5806  0.7761 -0.3191
 6518SOL    HW231017   1.984   2.530   7.552  1.3486 -1.2063  0.0409
 6519SOL     OW31018   2.159   3.965  16.741  0.3189 -0.5670  0.5920
 6519SOL    HW131019   2.086   4.003  16.790  1.6287 -0.0612  2.1304
 6519SOL    HW231020   2.121   3.881  16.715 -0.5258  0.2553 -0.8405
 6520SOL     OW31021   4.156   2.755  12.714 -0.0884  0.1271 -0.5059
 6520SOL    HW131022   4.074   2.726  12.753  0.3800 -1.0489 -0.4118
 6520SOL    HW231023   4.210   2.685  12.751  1.3539  2.8189  2.5011
 6521SOL     OW31024   0.650   1.956   0.318 -0.6507  0.0120 -0.3351
 6521SOL    HW131025   0.709   1.982   0.247 -0.5868 -3.9433 -1.7666
 6521SOL    HW231026   0.686   2.002   0.393  1.7277 -1.5747 -0.4791
 6522SOL     OW31027   3.859   2.652   5.036 -0.0504  0.5036  0.0741
 6522SOL    HW131028   3.771   2.630   5.005  0.4534  0.9869 -1.6976
 6522SOL    HW231029   3.876   2.737   4.995  0.5108 -0.7573 -2.3166
 6523SOL     OW31030   1.985   0.605   3.127  0.0287 -0.4813  0.6364
 6523SOL    HW131031   2.022   0.541   3.189 -0.1595 -0.9604  0.2567
 6523SOL    HW231032   2.001   0.692   3.164 -0.4458 -1.3891  2.9625
 6524SOL     OW31033   4.131   2.146   2.820  0.4779  0.3732  0.0489
 6524SOL    HW131034   4.162   2.236   2.807  0.4599  0.0306 -2.4408
 6524SOL    HW231035   4.037   2.161   2.823  0.8436  1.9788  3.5318
 6525SOL     OW31036   4.661   4.477  14.392  0.2828 -0.2565  0.4384
 6525SOL    HW131037   4.616   4.393  14.380 -0.9285  0.6468 -1.2778
 6525SOL    HW231038   4.588   4.538  14.386  0.8933  0.3826 -0.4925
 6526SOL     OW31039   0.273   3.067   7.519 -0.5677 -0.7217 -0.1345
 6526SOL    HW131040   0.219   3.094   7.594 -1.1377  1.7967 -1.4345
 6526SOL    HW231041   0.205   3.077   7.452  1.0974  1.4657 -1.5044
 6527SOL     OW31042   1.340   4.545   1.684  0.0874 -0.6421 -0.0350
 6527SOL    HW131043   1.269   4.568   1.743  0.1231  1.0786 -0.6481
 6527SOL    HW231044   1.420   4.578   1.724 -0.5387 -0.3725  0.9888
 6528SOL     OW31045   4.006   0.359  14.070  0.4271 -0.5410 -0.3210
 6528SOL    HW131046   4.079   0.380  14.128 -1.2210  1.6689  0.9501
 6528SOL    HW231047   4.008   0.426  14.002  2.7222  0.1855  0.4673
 6529SOL     OW31048   3.637   0.373  17.688  0.6692  0.2947 -0.3033
 6529SOL    HW131049   3.712   0.325  17.654  0.1896 -0.0673 -0.8431
 6529SOL    HW231050   3.606   0.305   0.050  0.8300 -0.4499 -1.0824
 6530SOL     OW31051   3.781   2.322   7.550 -0.6559 -0.5737  0.0161
 6530SOL    HW131052   3.767   2.353   7.639 -0.6636 -1.8124  0.4576
 6530SOL    HW231053   3.745   2.233   7.561 -1.0201 -0.0802  2.7000
 6531SOL     OW31054   2.941   0.553   1.517 -0.6560  0.5497 -0.2273
 6531SOL    HW131055   2.969   0.522   1.431  0.1570  0.8366 -0.0664
 6531SOL    HW231056   3.020   0.583   1.562  0.4189 -0.1612 -1.6513
 6532SOL     OW31057   3.956   1.516   4.749 -0.1542 -0.0861 -0.2544
 6532SOL    HW131058   4.043   1.477   4.759  0.0267  0.8650  1.8430
 6532SOL    HW231059   3.953   1.550   4.659  2.8917  2.4525  0.6062
 6533SOL     OW31060   2.047   1.564   2.045 -0.1323 -0.2354  0.5743
 6533SOL    HW131061   2.012   1.637   2.095 -0.9112  0.5485 -1.1315
 6533SOL    HW231062   1.971   1.531   1.998 -0.6200 -1.0751  1.9385
 6534SOL     OW31063   4.540   2.967   6.747  0.2355  0.1058  0.2932
 6534SOL    HW131064   4.608   3.000   6.688 -0.5333  0.8903 -0.1403
 6534SOL    HW231065   4.465   3.024   6.732 -1.3018 -1.6467  1.2647
 6535SOL     OW31066   1.833   3.960  10.516  0.4262 -0.0067 -0.6895
 6535SOL    HW131067   1.764   3.909  10.559 -0.3760  3.3986  2.0672
 6535SOL    HW231068   1.795   4.048  10.508 -2.2106 -1.1357 -0.6919
 6536SOL     OW31069   2.515   4.098   2.618  0.1018  0.0621 -0.4224
 6536SOL    HW131070   2.597   4.141   2.642 -0.0759  0.9456 -1.3918
 6536SOL    HW231071   2.449   4.133   2.677 -1.6489  0.7544 -2.8036
 6537SOL     OW31072   1.819   1.592  13.556 -0.3489 -0.3923  0.0912
 6537SOL    HW131073   1.842   1.540  13.633  1.5578  0.4714  0.1105
 6537SOL    HW231074   1.821   1.681  13.590  1.0092 -0.7433  0.9442
 6538SOL     OW31075   0.531   2.608   3.246 -0.7152  0.6382 -0.2016
 6538SOL    HW131076   0.478   2.540   3.205  0.0312  1.0472 -1.8320
 6538SOL    HW231077   0.486   2.684   3.209 -0.4679  0.4120 -0.9460
 6539SOL     OW31078   3.781   3.541   7.710  0.0328 -0.1682  0.1894
 6539SOL    HW131079   3.783   3.633   7.739  1.5792 -0.4176  0.8427
 6539SOL    HW231080   3.692   3.542   7.673 -0.0711 -0.3714  0.4379
 6540SOL     OW31081   2.951   3.950   6.213 -0.0542  0.3961  0.0594
 6540SOL    HW131082   2.878   3.982   6.160 -1.0896 -1.2503  0.4990
 6540SOL    HW231083   3.021   3.949   6.148 -0.1790  0.3193 -0.0758
 6541SOL     OW31084   2.485   2.342   4.519 -0.2193 -0.2709  0.1206
 6541SOL    HW131085   2.532   2.338   4.436  0.8270 -2.4504  0.8280
 6541SOL    HW231086   2.470   2.437   4.528  0.6022 -0.0362 -0.9483
 6542SOL     OW31087   2.486   4.054   7.000 -0.0574 -0.1417 -0.5297
 6542SOL    HW131088   2.525   3.979   6.956  4.1296  0.7177  1.6840
 6542SOL    HW231089   2.544   4.055   7.076  2.6682 -1.5098 -2.5788
 6543SOL     OW31090   2.658   4.026  12.992  0.1269 -0.0146  0.3974
 6543SOL    HW131091   2.694   3.971  13.061  1.4127 -0.1526 -0.3783
 6543SOL    HW231092   2.588   3.979  12.947 -0.3885  1.2401 -0.1272
 6544SOL     OW31093   3.977   4.423   8.641  0.0085 -0.0102  0.2184
 6544SOL    HW131094   3.968   4.346   8.697  2.6366 -0.2455  0.3269
 6544SOL    HW231095   4.053   4.463   8.685 -0.2793  0.0852  0.6276
 6545SOL     OW31096   1.429   1.527   6.699  0.0823 -0.1475 -0.0534
 6545SOL    HW131097   1.392   1.594   6.756  0.0758  0.8313 -1.1979
 6545SOL    HW231098   1.517   1.565   6.692  0.1928 -0.2772  0.5922
 6546SOL     OW31099   3.173   0.521   1.709 -0.0395  0.0261 -0.1799
 6546SOL    HW131100   3.119   0.482   1.778 -0.6319  0.4954 -0.3833
 6546SOL    HW231101   3.261   0.501   1.743  0.0370 -1.6761 -1.4188
 6547SOL     OW31102   2.549   2.267   1.857  0.3425 -0.1980  0.0145
 6547SOL    HW131103   2.520   2.181   1.886 -0.8858  0.2756  0.2015
 6547SOL    HW231104   2.642   2.246   1.847  0.2011 -0.5536 -0.5476
 6548SOL     OW31105   2.094   4.171  13.448  0.0518  0.3159  0.2133
 6548SOL    HW131106   2.156   4.128  13.507  1.7811  1.2911 -0.8856
 6548SOL    HW231107   2.040   4.213  13.515 -0.3106  0.4189 -0.1428
 6549SOL     OW31108   0.701   1.568  11.006 -0.2713 -0.0683 -0.2574
 6549SOL    HW131109   0.728   1.652  11.041 -0.6755 -0.5881  1.2945
 6549SOL    HW231110   0.704   1.577  10.910  1.3850  0.5999 -0.1430
 6550SOL     OW31111   0.194   1.173   3.118  0.1535  0.0708 -0.2191
 6550SOL    HW131112   0.273   1.220   3.145 -0.4008  0.4961  0.6471
 6550SOL    HW231113   0.124   1.201   3.177 -0.1858 -2.4327  0.5594
 6551SOL     OW31114   3.645   3.671   6.558 -0.1792  0.2967  0.0298
 6551SOL    HW131115   3.664   3.741   6.621 -2.3700 -0.3235  1.3752
 6551SOL    HW231116   3.585   3.616   6.609  2.6019 -1.5266  1.3183
 6552SOL     OW31117   2.384   0.867   2.486  0.0849 -0.5690  0.5186
 6552SOL    HW131118   2.392   0.891   2.578 -0.7821 -1.4867  0.8364
 6552SOL    HW231119   2.302   0.913   2.468  0.6787  0.5056  0.5809
 6553SOL     OW31120   2.335   1.006   4.407  0.2230  0.0624 -0.5584
 6553SOL    HW131121   2.277   0.992   4.333 -0.8565  2.5948 -0.1662
 6553SOL    HW231122   2.419   1.020   4.362 -0.1724 -1.5078 -1.7829
 6554SOL     OW31123   3.681   2.280   7.891  0.0752 -0.0358  0.2178
 6554SOL    HW131124   3.644   2.328   7.965 -2.2380 -0.3274 -0.7659
 6554SOL    HW231125   3.624   2.203   7.890 -0.2797  0.2058  1.4714
 6555SOL     OW31126   0.317   4.408   8.012 -0.5595  0.2755 -0.2456
 6555SOL    HW131127   0.341   4.496   7.985  2.3579 -0.2547  0.5723
 6555SOL    HW231128   0.248   4.426   8.075 -0.4625  2.3323 -0.7577
 6556SOL     OW31129   2.174   4.560   3.923  0.2826  0.3484  0.2985
 6556SOL    HW131130   2.173   4.538   4.016 -0.5906  0.6677  0.3681
 6556SOL    HW231131   2.257   4.607   3.931  0.2394  0.3493  0.7137
 6557SOL     OW31132   1.082   1.921   4.981  0.7055 -0.2033  0.5079
 6557SOL    HW131133   1.081   1.839   5.030 -2.6041 -0.5472 -0.1560
 6557SOL    HW231134   0.997   1.960   5.001  0.6086  0.5251 -1.3103
 6558SOL     OW31135   3.586   1.113  11.315  0.1804 -0.0386  0.0279
 6558SOL    HW131136   3.578   1.208  11.311  2.2048  0.0614 -1.9793
 6558SOL    HW231137   3.494   1.088  11.322 -0.1943  0.8078 -1.8657
 6559SOL     OW31138   1.041   0.840   6.909 -0.0329 -0.0917 -0.1595
 6559SOL    HW131139   0.970   0.905   6.919 -0.0518 -0.5944  3.0721
 6559SOL    HW231140   1.095   0.882   6.842  0.7964  0.0306  0.5850
 6560SOL     OW31141   1.522   1.265   2.767  0.1662 -0.2928 -1.0173
 6560SOL    HW131142   1.612   1.245   2.742  0.5400  0.2448 -0.1259
 6560SOL    HW231143   1.548   1.299   2.852 -0.2897 -0.8360 -0.6555
 6561SOL     OW31144   0.370   4.671   2.993 -0.0405 -0.5468 -0.0458
 6561SOL    HW131145   0.459   4.701   3.011  0.1506 -1.1084 -0.0459
 6561SOL    HW231146   0.349   4.713   2.909 -1.3702  0.5590  0.8297
 6562SOL     OW31147   1.183   0.741   9.349  0.1360 -0.1801  0.0996
 6562SOL    HW131148   1.251   0.680   9.378  0.1975 -0.7736 -1.3263
 6562SOL    HW231149   1.170   0.788   9.431 -0.5916  1.8585 -1.1940
 6563SOL     OW31150   4.449   0.876   2.752 -0.7044  0.1563 -0.4123
 6563SOL    HW131151   4.391   0.921   2.814 -0.7791 -1.7028  0.8822
 6563SOL    HW231152   4.488   0.814   2.814 -2.7841 -0.0038  0.7532
 6564SOL     OW31153   3.696   1.352   5.982  0.3178 -0.4072 -0.3666
 6564SOL    HW131154   3.781   1.386   6.008  0.5202  0.1871 -1.8447
 6564SOL    HW231155   3.715   1.322   5.894  0.9179 -2.2272  0.3818
 6565SOL     OW31156   4.666   1.071   8.853  0.4228  0.4313 -0.1834
 6565SOL    HW131157   4.608   0.999   8.826 -0.0926  0.9594 -0.4766
 6565SOL    HW231158   4.606   1.117   8.911  1.6537  1.3182  0.3853
 6566SOL     OW31159   0.665   1.388   1.540  0.1760  0.2002  0.1502
 6566SOL    HW131160   0.663   1.334   1.619  2.3072 -0.5910 -0.3374
 6566SOL    HW231161   0.606   1.461   1.559 -0.2789 -0.0939 -0.1313
 6567SOL     OW31162   4.083   0.272  13.494 -0.2739  0.6729  0.3969
 6567SOL    HW131163   4.134   0.340  13.539 -0.6806  1.1510  0.1462
 6567SOL    HW231164   4.015   0.251  13.559  1.2595 -0.5962  1.5729
 6568SOL     OW31165   4.267   0.014   2.279 -0.1219 -0.6980 -0.2482
 6568SOL    HW131166   4.307   0.060   2.205 -0.4769 -0.5189 -0.3330
 6568SOL    HW231167   4.270   4.648   2.246 -0.0470 -0.3350 -1.2203
 6569SOL     OW31168   1.778   4.630   3.955 -0.0732 -0.1694 -0.0486
 6569SOL    HW131169   1.774   4.593   3.867  2.6283  1.1380 -0.7236
 6569SOL    HW231170   1.849   4.578   3.994  1.1372 -0.7308 -2.9767
 6570SOL     OW31171   4.172   2.369   3.757  0.8201 -0.0936 -0.3839
 6570SOL    HW131172   4.090   2.352   3.709  0.6646  0.7993 -0.4420
 6570SOL    HW231173   4.130   2.399   3.838  1.1683 -0.0104 -0.2359
 6571SOL     OW31174   4.369   2.055   3.468  0.2890 -0.1419  0.0827
 6571SOL    HW131175   4.316   1.982   3.500 -0.7503  1.0328  1.0385
 6571SOL    HW231176   4.444   2.006   3.434  1.1736  0.9281  0.4684
 6572SOL     OW31177   0.871   2.449   7.918 -0.0770 -0.5438 -0.4161
 6572SOL    HW131178   0.824   2.530   7.939  1.5667  0.2937  0.0563
 6572SOL    HW231179   0.915   2.483   7.840  2.1466 -0.8799  0.6925
 6573SOL     OW31180   3.874   4.186  11.869  0.3288 -0.5309 -0.5231
 6573SOL    HW131181   3.817   4.192  11.793 -0.2718 -0.1669 -0.0435
 6573SOL    HW231182   3.832   4.253  11.923  0.1363 -0.3169 -0.9420
 6574SOL     OW31183   2.257   0.357   4.781  0.2540  0.5097  0.4575
 6574SOL    HW131184   2.181   0.415   4.780  1.3927  2.0104 -0.3304
 6574SOL    HW231185   2.319   0.379   4.850 -1.3209  1.3421  1.6047
 6575SOL     OW31186   3.601   4.424   2.227 -0.8350 -0.4559 -0.0699
 6575SOL    HW131187   3.668   4.482   2.263  0.0002 -0.5426 -1.4830
 6575SOL    HW231188   3.620   4.413   2.134  1.9958 -1.4602  0.6394
 6576SOL     OW31189   3.949   3.584   8.278 -0.5409  0.2138  0.0159
 6576SOL    HW131190   3.921   3.651   8.340  1.0524 -1.4292  2.4978
 6576SOL    HW231191   4.010   3.537   8.335 -2.3706 -1.7698  0.3506
 6577SOL     OW31192   3.469   4.180   2.291 -0.2946  0.0713  0.2006
 6577SOL    HW131193   3.377   4.192   2.267  0.2778 -0.2187 -2.1390
 6577SOL    HW231194   3.494   4.262   2.247 -0.3969  0.3026  0.5737
 6578SOL     OW31195   3.022   2.008   3.083  0.4614 -0.1581 -0.3268
 6578SOL    HW131196   2.971   2.073   3.132  1.3484 -0.5551  1.1189
 6578SOL    HW231197   3.057   1.964   3.160 -2.7969  0.6633  1.6453
 6579SOL     OW31198   2.431   0.535   7.129 -0.4850 -0.0240  0.4306
 6579SOL    HW131199   2.493   0.540   7.056 -1.2535 -2.8835 -0.3939
 6579SOL    HW231200   2.354   0.491   7.093 -1.6055  0.7814  1.8329
 6580SOL     OW31201   1.387   2.981   8.193 -0.0835 -0.3911 -0.0739
 6580SOL    HW131202   1.469   2.932   8.185 -1.0138 -2.2816  1.9359
 6580SOL    HW231203   1.383   3.021   8.106  2.1559 -1.0873 -0.5072
 6581SOL     OW31204   2.728   0.022  10.792  0.2308 -0.9653 -0.1780
 6581SOL    HW131205   2.679   0.103  10.805  2.4602  0.5369 -1.2000
 6581SOL    HW231206   2.803   0.046  10.737  1.0678 -1.1823  0.8702
 6582SOL     OW31207   4.435   3.749   6.026 -0.2956  0.4184 -0.6795
 6582SOL    HW131208   4.530   3.744   6.017 -0.4377  1.6727 -2.7823
 6582SOL    HW231209   4.428   3.654   6.014 -2.4834  0.4522  0.3528
 6583SOL     OW31210   0.293   4.369   4.692  0.5224 -0.0623  0.1825
 6583SOL    HW131211   0.199   4.386   4.688  0.2139 -1.9902 -1.1735
 6583SOL    HW231212   0.329   4.453   4.719  0.4829 -0.6768  2.1628
 6584SOL     OW31213   3.091   2.929   3.856 -0.2785 -0.0888  0.0718
 6584SOL    HW131214   3.182   2.925   3.884 -0.1326 -2.7417 -0.8629
 6584SOL    HW231215   3.087   3.014   3.811 -0.6405 -0.1330  0.0159
 6585SOL     OW31216   4.210   0.650  12.327 -0.6775 -0.5565  0.2921
 6585SOL    HW131217   4.265   0.589  12.277 -2.4268 -0.6105 -1.5473
 6585SOL    HW231218   4.159   0.683  12.253 -1.3062 -1.7529  0.1918
 6586SOL     OW31219   0.398   3.154   4.960 -0.0421 -0.6344 -0.2762
 6586SOL    HW131220   0.446   3.232   4.929  0.4802  0.4531  3.3537
 6586SOL    HW231221   0.309   3.186   4.948  0.7630  1.4389 -0.7993
 6587SOL     OW31222   1.467   2.983  17.134  0.2386  0.5048 -0.4044
 6587SOL    HW131223   1.426   2.953  17.215  1.7334 -1.4682 -0.3830
 6587SOL    HW231224   1.561   2.990  17.150  0.0729  0.7965  0.4519
 6588SOL     OW31225   1.362   2.957   5.633  0.0420  0.0968  0.7521
 6588SOL    HW131226   1.339   2.867   5.654  0.5933 -0.4684 -1.0983
 6588SOL    HW231227   1.366   2.952   5.538  1.5674 -0.6236  0.8530
 6589SOL     OW31228   4.079   4.421   4.931 -0.1083 -0.2337 -0.3479
 6589SOL    HW131229   4.046   4.388   5.014  0.0980  0.4410  0.0037
 6589SOL    HW231230   4.009   4.482   4.908  0.3556  0.3102 -0.3087
 6590SOL     OW31231   2.318   3.196   6.327 -0.5128  0.3986 -0.3637
 6590SOL    HW131232   2.370   3.240   6.395 -0.3211  0.9615 -0.8692
 6590SOL    HW231233   2.263   3.129   6.368 -0.7605  1.4265  1.0153
 6591SOL     OW31234   3.404   0.421   7.250 -0.3616  0.6813  0.0639
 6591SOL    HW131235   3.346   0.418   7.325  1.6522  1.1336  1.6503
 6591SOL    HW231236   3.340   0.419   7.179 -0.0694  0.8509 -0.2093
 6592SOL     OW31237   1.342   3.465   5.043  0.2989 -0.3231 -0.1265
 6592SOL    HW131238   1.357   3.431   5.131 -0.2437 -0.0328  0.0757
 6592SOL    HW231239   1.362   3.382   4.999 -1.4176 -0.1784 -1.1782
 6593SOL     OW31240   1.274   0.528  13.948 -0.0109 -0.4370 -0.2879
 6593SOL    HW131241   1.248   0.620  13.950 -1.6107 -0.9524  2.8066
 6593SOL    HW231242   1.228   0.507  13.867 -0.2761  1.2824 -0.5797
 6594SOL     OW31243   0.961   4.010   4.027 -0.0931  0.1782  0.3914
 6594SOL    HW131244   1.034   3.948   4.017 -0.0494  0.3150 -0.1313
 6594SOL    HW231245   0.900   3.961   4.082  0.0104  0.3286  0.6411
 6595SOL     OW31246   1.641   0.805   0.054 -0.5172  0.5632 -0.5187
 6595SOL    HW131247   1.660   0.711   0.051  0.9655  0.7688  2.3439
 6595SOL    HW231248   1.733   0.830   0.044  0.9509 -3.0380  4.0095
 6596SOL     OW31249   1.122   2.795  16.973  0.2466  0.3712 -0.1474
 6596SOL    HW131250   1.200   2.842  16.941 -0.4734  2.6838  1.5253
 6596SOL    HW231251   1.049   2.857  16.971 -0.1038 -0.0014  1.4483
 6597SOL     OW31252   2.827   0.869   2.209  0.1366 -0.1758  0.3560
 6597SOL    HW131253   2.732   0.875   2.225  0.4058 -1.8332  2.4594
 6597SOL    HW231254   2.851   0.785   2.247  0.6487  0.4615  1.4340
 6598SOL     OW31255   3.427   1.670   6.518 -0.4908  0.1213 -0.1249
 6598SOL    HW131256   3.430   1.587   6.470 -3.8373  0.7595 -1.4196
 6598SOL    HW231257   3.332   1.666   6.522 -0.3404 -2.2705  1.3747
 6599SOL     OW31258   0.838   2.748   2.261  0.1678  0.2148 -0.0058
 6599SOL    HW131259   0.875   2.688   2.196  0.0138  0.1377 -0.0215
 6599SOL    HW231260   0.901   2.817   2.240 -1.3366  0.7586 -2.6396
 6600SOL     OW31261   2.295   3.319   4.343 -0.0257  0.4499  0.0053
 6600SOL    HW131262   2.317   3.404   4.305  0.2890  1.1801  1.8041
 6600SOL    HW231263   2.207   3.344   4.372 -0.3492 -0.0606 -0.5556
 6601SOL     OW31264   4.362   3.929   2.665 -0.3857 -0.0239 -0.1597
 6601SOL    HW131265   4.421   3.863   2.701 -1.7603 -1.0426  0.2123
 6601SOL    HW231266   4.306   3.868   2.617 -0.7225 -0.6622  1.0605
 6602SOL     OW31267   1.657   0.546   3.661 -0.2047  0.4469  0.0739
 6602SOL    HW131268   1.715   0.584   3.727  1.7244  0.9228 -1.9008
 6602SOL    HW231269   1.594   0.617   3.656 -0.6578 -0.1304 -2.2966
 6603SOL     OW31270   2.697   3.442   3.476 -0.0836  0.6236  0.5231
 6603SOL    HW131271   2.645   3.461   3.399 -0.9271  0.7561  1.1278
 6603SOL    HW231272   2.757   3.379   3.436  0.2976 -0.6407  3.0048
 6604SOL     OW31273   3.258   1.889   4.640 -0.2413 -0.9018 -0.1595
 6604SOL    HW131274   3.321   1.848   4.581 -0.4577 -0.1917 -0.8804
 6604SOL    HW231275   3.177   1.851   4.606  0.7120 -1.4493 -1.7632
 6605SOL     OW31276   3.045   1.327   5.148 -0.7733 -0.0833 -0.4011
 6605SOL    HW131277   3.045   1.371   5.063  1.4821  2.6120  0.9965
 6605SOL    HW231278   2.954   1.329   5.180 -0.4900  2.9404  0.2678
 6606SOL     OW31279   1.310   0.253   7.610 -0.8127  0.0716  0.4271
 6606SOL    HW131280   1.311   0.332   7.663 -1.1072 -0.1404  0.7435
 6606SOL    HW231281   1.254   0.280   7.537 -1.5353 -1.9956  0.2219
 6607SOL     OW31282   2.223   2.029  15.335 -0.3189  0.3790 -0.1215
 6607SOL    HW131283   2.261   2.014  15.421  0.3967  0.3125 -0.4396
 6607SOL    HW231284   2.131   2.014  15.352  0.2506 -1.2947  1.4029
 6608SOL     OW31285   2.119   1.125  12.558  0.0535  0.2206 -0.2551
 6608SOL    HW131286   2.127   1.188  12.487 -1.0886 -1.2685 -1.7054
 6608SOL    HW231287   2.210   1.121  12.587 -0.3682 -1.5912  0.8426
 6609SOL     OW31288   1.384   1.387   1.775  0.2186  0.3609  0.5009
 6609SOL    HW131289   1.449   1.449   1.743  1.4942 -0.7986  0.8841
 6609SOL    HW231290   1.383   1.312   1.715 -0.0121  1.1017 -0.4269
 6610SOL     OW31291   2.060   0.779   7.640  0.1147 -0.0409  0.4842
 6610SOL    HW131292   2.027   0.800   7.727 -0.6057  2.5965 -0.4421
 6610SOL    HW231293   2.083   0.867   7.610  0.7449 -0.0458  0.9645
 6611SOL     OW31294   3.056   1.284   7.277  0.3983  0.0395 -0.0521
 6611SOL    HW131295   3.034   1.364   7.326  0.9002 -1.7300  3.0502
 6611SOL    HW231296   2.980   1.232   7.302 -0.2847  1.5261  1.0107
 6612SOL     OW31297   0.807   1.547   2.137 -0.1416  0.1716  0.2097
 6612SOL    HW131298   0.796   1.626   2.083  1.2910  0.1722 -0.0630
 6612SOL    HW231299   0.772   1.575   2.221  2.5591  0.9105  1.0745
 6613SOL     OW31300   3.780   2.387   4.454  0.3265  0.2516 -0.1495
 6613SOL    HW131301   3.718   2.350   4.517 -0.2295 -0.5128 -1.1320
 6613SOL    HW231302   3.821   2.440   4.522 -0.6782 -0.7008  1.1921
 6614SOL     OW31303   0.483   4.349   5.881  0.1451  0.5091  0.2814
 6614SOL    HW131304   0.481   4.384   5.970 -0.1366 -0.4766  0.6646
 6614SOL    HW231305   0.544   4.275   5.885 -0.2131  0.2806  1.6650
 6615SOL     OW31306   0.772   0.852   5.363 -0.4585  0.3282 -0.2527
 6615SOL    HW131307   0.858   0.875   5.327  0.5123 -1.0075  1.1881
 6615SOL    HW231308   0.726   0.859   5.279  1.4326  0.6006 -1.2748
 6616SOL     OW31309   1.105   1.160   5.171  0.0178 -0.4815  0.7588
 6616SOL    HW131310   1.128   1.203   5.088  0.4087  0.0618  1.1515
 6616SOL    HW231311   1.052   1.225   5.218 -0.6027  0.8485 -1.7706
 6617SOL     OW31312   4.367   4.185   2.786  0.0628  0.1791  0.6132
 6617SOL    HW131313   4.374   4.096   2.752 -0.6355  0.0403  0.8372
 6617SOL    HW231314   4.312   4.171   2.863  1.1809 -0.0759  1.3843
 6618SOL     OW31315   4.488   0.029  16.909  0.1737 -0.9203 -0.1108
 6618SOL    HW131316   4.415   0.090  16.898  1.0829  0.2063  0.1606
 6618SOL    HW231317   4.491   0.025  17.004  0.1083  2.1182  0.0229
 6619SOL     OW31318   0.621   3.132  14.147 -0.4802 -0.1560  0.2687
 6619SOL    HW131319   0.639   3.208  14.203 -3.4282  0.7926 -0.0450
 6619SOL    HW231320   0.647   3.174  14.065 -0.9311 -3.3853 -1.5025
 6620SOL     OW31321   3.165   3.411   5.531  0.2991  0.4619 -0.0786
 6620SOL    HW131322   3.129   3.486   5.483  2.3205  1.5090  0.0386
 6620SOL    HW231323   3.239   3.377   5.481  0.3275 -1.4134  1.2341
 6621SOL     OW31324   3.379   1.934   1.595 -0.3600  0.6129  0.5377
 6621SOL    HW131325   3.359   1.862   1.535 -0.2013  1.5945 -0.6917
 6621SOL    HW231326   3.303   1.919   1.651 -1.0206 -0.8583 -0.7535
 6622SOL     OW31327   3.232   3.342   8.392  0.2111 -0.1679  0.4325
 6622SOL    HW131328   3.241   3.425   8.344  2.1982  0.3791  1.7574
 6622SOL    HW231329   3.324   3.317   8.395  0.9067  2.4514  1.1022
 6623SOL     OW31330   2.359   0.060   7.863  0.4169  0.1267  0.1037
 6623SOL    HW131331   2.318   0.070   7.948 -0.2708  0.4567 -0.2678
 6623SOL    HW231332   2.448   0.089   7.884  1.4355 -1.1268 -2.4357
 6624SOL     OW31333   0.761   0.957   3.042 -0.5733 -0.4941 -0.3006
 6624SOL    HW131334   0.791   0.882   2.990 -0.9686 -0.6850 -0.2470
 6624SOL    HW231335   0.667   0.956   3.028 -0.4897  2.2102 -0.9857
 6625SOL     OW31336   2.496   1.087   3.788 -0.2954 -0.6470  0.1725
 6625SOL    HW131337   2.413   1.038   3.789 -1.0289  0.6157  0.9419
 6625SOL    HW231338   2.522   1.071   3.697 -0.8789  1.9056 -0.4370
 6626SOL     OW31339   3.390   2.747   3.106 -0.0165  0.0327 -0.2146
 6626SOL    HW131340   3.432   2.820   3.060  1.8012 -0.8325  0.0707
 6626SOL    HW231341   3.462   2.684   3.117  0.9799  1.2230  0.1978
 6627SOL     OW31342   1.174   0.425  15.084  0.4914  0.1493  1.0226
 6627SOL    HW131343   1.141   0.477  15.012  2.1939 -1.0653 -0.6256
 6627SOL    HW231344   1.195   0.337  15.053  1.5344  0.4600  0.8377
 6628SOL     OW31345   4.072   3.410   8.459 -0.0186 -0.0239  0.4684
 6628SOL    HW131346   3.988   3.373   8.486  0.8719  0.1051  3.4041
 6628SOL    HW231347   4.113   3.409   8.546  2.1947 -1.2494 -0.5951
 6629SOL     OW31348   4.282   1.570   7.355  0.1818  0.5347 -0.2295
 6629SOL    HW131349   4.248   1.490   7.315  1.6112 -1.1659  1.9710
 6629SOL    HW231350   4.297   1.541   7.445  0.6508 -0.7619 -0.7283
 6630SOL     OW31351   2.271   3.675   3.252 -0.4111  0.1730  0.5180
 6630SOL    HW131352   2.281   3.714   3.165  2.4407  0.7412  1.1089
 6630SOL    HW231353   2.233   3.590   3.231 -1.0992  0.6052 -0.0009
 6631SOL     OW31354   3.893   2.098   3.430 -0.0030  0.2606 -0.1721
 6631SOL    HW131355   3.805   2.060   3.435  0.0091  0.4458  1.2578
 6631SOL    HW231356   3.948   2.024   3.456 -0.0591  0.3304  0.1417
 6632SOL     OW31357   1.615   2.889   2.890 -0.0966  0.1704  0.2926
 6632SOL    HW131358   1.583   2.898   2.801 -1.0118 -1.5025  0.4508
 6632SOL    HW231359   1.617   2.978   2.926  1.1088  1.2205 -2.4151
 6633SOL     OW31360   0.516   4.591   5.754  0.3762  0.0822  0.5388
 6633SOL    HW131361   0.512   4.499   5.780  0.0367  0.2782  1.1825
 6633SOL    HW231362   0.509   4.635   5.838 -0.9063  0.3077  0.3201
 6634SOL     OW31363   4.707   1.105   8.073  0.4118 -0.2768  0.5432
 6634SOL    HW131364   4.641   1.081   8.008 -1.1761  4.0012  0.5476
 6634SOL    HW231365   4.663   1.067   8.149  0.7812  0.1080  0.9541
 6635SOL     OW31366   2.944   3.686   7.390 -0.1406  0.3674 -0.1399
 6635SOL    HW131367   2.991   3.762   7.356 -0.3405 -0.1455 -1.5338
 6635SOL    HW231368   3.010   3.638   7.440  0.1637 -0.8907 -1.7924
 6636SOL     OW31369   1.015   4.401  17.489  0.3954 -0.4731  0.2249
 6636SOL    HW131370   0.995   4.493  17.471 -0.9750 -0.8216 -0.0379
 6636SOL    HW231371   1.104   4.408  17.455 -0.0125 -0.1757 -0.7717
 6637SOL     OW31372   0.415   0.359  13.131  0.1224  0.2416  0.4959
 6637SOL    HW131373   0.449   0.380  13.044  0.8165 -0.3636  0.6208
 6637SOL    HW231374   0.386   0.269  13.119  0.5372  0.2248 -0.4260
 6638SOL     OW31375   3.882   2.353  16.461  0.1012 -1.0551 -0.1440
 6638SOL    HW131376   3.834   2.293  16.405 -1.1866  1.2924 -1.5513
 6638SOL    HW231377   3.953   2.380  16.403 -0.2413  1.1968  0.4919
 6639SOL     OW31378   4.295   3.371   3.485 -0.4381 -0.7020  0.0805
 6639SOL    HW131379   4.315   3.430   3.412  0.0682 -0.0936  0.7146
 6639SOL    HW231380   4.218   3.417   3.516 -0.1153 -0.7202  0.9213
 6640SOL     OW31381   4.493   2.942   7.020  0.0197 -0.7189  0.1200
 6640SOL    HW131382   4.460   2.853   7.020 -0.1484 -0.6590  1.1313
 6640SOL    HW231383   4.531   2.951   6.932 -0.5258  0.9025  0.0525
 6641SOL     OW31384   3.383   1.455   5.480  0.5452 -0.4441 -0.1097
 6641SOL    HW131385   3.341   1.398   5.416  0.5258 -0.2043 -0.3110
 6641SOL    HW231386   3.456   1.492   5.430  1.0783  0.6200  1.4389
 6642SOL     OW31387   2.253   1.367   4.375 -0.3054 -0.1562 -0.1749
 6642SOL    HW131388   2.185   1.432   4.354 -0.3023 -0.2094 -0.3444
 6642SOL    HW231389   2.230   1.351   4.467 -0.8014  0.4267 -0.1920
 6643SOL     OW31390   1.498   0.374   0.667  0.0785  0.0383 -0.5147
 6643SOL    HW131391   1.589   0.368   0.638  0.3171 -1.9756  0.6894
 6643SOL    HW231392   1.501   0.308   0.736 -2.6815  0.4128 -0.0431
 6644SOL     OW31393   0.271   2.377   4.502 -0.0460  0.8555 -0.2415
 6644SOL    HW131394   0.250   2.313   4.570  1.7078  3.4825  2.7693
 6644SOL    HW231395   0.195   2.435   4.511 -0.1156  0.7764 -0.3166
 6645SOL     OW31396   0.798   3.083  16.122 -0.0775  0.4518  0.1430
 6645SOL    HW131397   0.847   3.161  16.097  1.1357  0.0925  1.4269
 6645SOL    HW231398   0.876   3.029  16.131  0.1921  1.0456  1.3525
 6646SOL     OW31399   3.323   0.677   3.904 -0.2992 -0.1219 -0.1834
 6646SOL    HW131400   3.418   0.679   3.897 -0.3697  1.5189 -0.8685
 6646SOL    HW231401   3.309   0.624   3.983  1.0591  0.6612  0.5942
 6647SOL     OW31402   4.443   4.296   4.675 -0.3247  0.2689 -0.6561
 6647SOL    HW131403   4.389   4.268   4.749  0.2963 -0.2244 -0.3890
 6647SOL    HW231404   4.400   4.262   4.597 -0.3503  0.5494 -0.7623
 6648SOL     OW31405   1.377   2.112   9.454  0.9833 -0.4242  0.8378
 6648SOL    HW131406   1.419   2.027   9.442 -1.6404 -1.6688  0.4486
 6648SOL    HW231407   1.445   2.162   9.498  3.3699 -2.0182 -1.0767
 6649SOL     OW31408   2.453   3.272   4.575 -0.4834 -0.2142  0.3156
 6649SOL    HW131409   2.393   3.302   4.507 -0.7412  1.6417  1.3311
 6649SOL    HW231410   2.392   3.232   4.637 -0.6200  0.6578  0.7552
 6650SOL     OW31411   2.401   4.421   7.163 -0.4280  0.2789  0.4375
 6650SOL    HW131412   2.386   4.485   7.233  0.3650  1.4242 -0.4331
 6650SOL    HW231413   2.440   4.470   7.090 -3.4525  0.6695 -0.9680
 6651SOL     OW31414   0.051   4.609   2.484 -0.1326  0.5173  0.2357
 6651SOL    HW131415   0.034   4.664   2.408 -0.1885 -0.4232 -0.4290
 6651SOL    HW231416   4.688   4.607   2.522 -0.8292  0.7192 -1.3472
 6652SOL     OW31417   4.667   0.901   0.206 -0.0150  0.8960 -0.2002
 6652SOL    HW131418   4.618   0.863   0.133  0.7840  2.4120 -1.5160
 6652SOL    HW231419   4.693   0.823   0.254 -1.7365 -0.3335 -1.2598
 6653SOL     OW31420   1.929   3.268   3.827 -0.0985 -0.3679 -0.1546
 6653SOL    HW131421   1.865   3.208   3.866 -0.6128  1.7272  2.2152
 6653SOL    HW231422   1.933   3.338   3.892  0.8995  1.4806 -2.1850
 6654SOL     OW31423   2.099   3.448   4.511  0.4413  0.5721  0.0751
 6654SOL    HW131424   2.076   3.417   4.598 -1.5911 -0.4559 -0.8235
 6654SOL    HW231425   2.014   3.474   4.475  0.4087 -0.5590 -0.6733
 6655SOL     OW31426   1.940   2.927   5.109  0.7987  0.3961 -0.9126
 6655SOL    HW131427   1.992   2.882   5.042  1.1798  0.4146 -0.6252
 6655SOL    HW231428   1.856   2.892   5.079  0.9321  1.7526 -2.9300
 6656SOL     OW31429   2.719   1.157   6.230  0.2736  0.1401 -0.2444
 6656SOL    HW131430   2.815   1.154   6.237  0.2191 -4.5418 -1.8682
 6656SOL    HW231431   2.696   1.188   6.317  0.4230 -1.6354  0.4171
 6657SOL     OW31432   0.345   4.643   4.408 -0.1213 -0.6294 -0.1672
 6657SOL    HW131433   0.411   4.581   4.439 -0.0972 -1.1541 -1.2491
 6657SOL    HW231434   0.273   4.581   4.417 -1.0891  0.5463  0.1869
 6658SOL     OW31435   3.035   4.681   2.700  0.1205 -0.3576  0.0181
 6658SOL    HW131436   3.093   4.636   2.761  0.4103  1.5324  1.1573
 6658SOL    HW231437   3.087   0.008   2.638  0.1155  0.1122  0.3994
 6659SOL     OW31438   0.991   1.670   7.288 -0.1962  0.0428  0.3952
 6659SOL    HW131439   1.034   1.619   7.219 -0.3479  1.2996 -0.6374
 6659SOL    HW231440   0.941   1.599   7.330  0.4507 -0.6825 -0.0600
 6660SOL     OW31441   4.533   4.711  17.175  0.4833 -0.0033 -0.3371
 6660SOL    HW131442   4.586   0.044  17.231  0.7285  1.4663 -2.0548
 6660SOL    HW231443   4.484   4.656  17.236  0.7431  1.5515  1.2896
 6661SOL     OW31444   1.937   1.411   2.861  0.0426  0.0099 -0.0121
 6661SOL    HW131445   1.886   1.376   2.788 -2.3392  0.2068  1.5635
 6661SOL    HW231446   1.925   1.344   2.928 -0.8502  0.3771  0.1930
 6662SOL     OW31447   3.677   1.306  14.368 -0.2998  0.1348  0.0043
 6662SOL    HW131448   3.656   1.397  14.348  1.2163  0.6996  0.9542
 6662SOL    HW231449   3.723   1.327  14.450  3.9766  0.5255 -2.5091
 6663SOL     OW31450   2.692   0.291   6.780  0.2472  0.4627 -0.2745
 6663SOL    HW131451   2.779   0.314   6.812 -0.3468  2.4560 -0.0965
 6663SOL    HW231452   2.677   0.362   6.718  0.0059  0.7909  0.1595
 6664SOL     OW31453   1.334   1.269  12.566 -0.0659  0.0473  0.0346
 6664SOL    HW131454   1.376   1.243  12.648 -0.3691 -0.8886 -0.1154
 6664SOL    HW231455   1.360   1.362  12.561 -0.9603  0.2654 -0.3952
 6665SOL     OW31456   1.227   3.428   3.558 -0.0464  0.3794 -0.3690
 6665SOL    HW131457   1.222   3.380   3.476 -0.7846  1.0577 -0.7241
 6665SOL    HW231458   1.203   3.517   3.532 -2.0507 -0.9382 -2.9923
 6666SOL     OW31459   1.847   1.724   1.026 -0.2219 -0.2314  0.5193
 6666SOL    HW131460   1.752   1.733   1.020  0.0616  1.5589 -1.0734
 6666SOL    HW231461   1.870   1.792   0.964  1.8231 -0.4679  1.0191
 6667SOL     OW31462   1.205   0.760  12.256 -0.4199 -0.1848  0.1753
 6667SOL    HW131463   1.170   0.756  12.168 -1.8061 -0.0379  0.7274
 6667SOL    HW231464   1.253   0.843  12.254 -2.2865  0.8515 -1.2689
 6668SOL     OW31465   2.949   0.926  14.297  0.5761 -0.2107 -0.0747
 6668SOL    HW131466   3.003   0.911  14.219  0.3638 -0.9543 -0.0714
 6668SOL    HW231467   2.942   1.020  14.316 -1.7988 -0.3938 -0.0898
 6669SOL     OW31468   3.215   3.360   3.170  0.5448  0.2748 -0.2904
 6669SOL    HW131469   3.125   3.388   3.157 -0.0210 -1.6728 -0.5719
 6669SOL    HW231470   3.241   3.432   3.228 -0.5572  1.2632 -1.0351
 6670SOL     OW31471   4.268   2.635  13.579 -0.3640 -0.0104 -0.2965
 6670SOL    HW131472   4.272   2.547  13.615 -0.6344 -0.8187 -2.2117
 6670SOL    HW231473   4.358   2.650  13.549 -0.6167  1.9075 -0.1339
 6671SOL     OW31474   2.746   3.561   1.479  0.5609 -0.5102  0.0786
 6671SOL    HW131475   2.748   3.620   1.555 -1.7711 -1.0555  0.5687
 6671SOL    HW231476   2.777   3.619   1.410  2.6446 -0.9930  0.6137
 6672SOL     OW31477   4.691   4.277   9.977  0.8959  0.7999 -0.0063
 6672SOL    HW131478   0.001   4.364   9.998  0.4842  1.1478 -0.7561
 6672SOL    HW231479   0.048   4.227   9.975 -0.0100 -0.6852  0.2096
 6673SOL     OW31480   4.594   0.042   6.291  0.1344  0.4912  0.6177
 6673SOL    HW131481   4.603   4.713   6.212 -1.3514  1.7742 -0.4322
 6673SOL    HW231482   4.544   4.701   6.340 -0.3491 -0.8928 -1.6959
 6674SOL     OW31483   2.182   2.333   8.609  1.2150 -0.1348 -0.3478
 6674SOL    HW131484   2.266   2.377   8.625  0.1439  1.4923  0.8746
 6674SOL    HW231485   2.121   2.405   8.591 -2.6313 -3.5712 -0.8464
 6675SOL     OW31486   3.760   4.038  12.321 -0.0408  0.0048 -0.1613
 6675SOL    HW131487   3.837   4.083  12.355 -0.0074 -1.2136  1.3657
 6675SOL    HW231488   3.797   4.009  12.238  1.1071 -1.2288  0.7853
 6676SOL     OW31489   3.535   2.240   1.689 -0.2740  0.5402  0.5794
 6676SOL    HW131490   3.518   2.177   1.759 -2.8075 -1.2285 -1.6151
 6676SOL    HW231491   3.622   2.207   1.667 -0.7034 -0.1283 -0.0996
 6677SOL     OW31492   1.058   1.280  11.317 -0.6940 -0.6728  0.2689
 6677SOL    HW131493   1.047   1.365  11.274  1.3645 -0.3845  0.3188
 6677SOL    HW231494   1.025   1.293  11.406  1.6762  0.4773  0.9996
 6678SOL     OW31495   1.081   0.330   9.255  0.2205 -0.2381  0.7002
 6678SOL    HW131496   1.078   0.283   9.338 -2.0672 -1.4581 -0.0762
 6678SOL    HW231497   1.019   0.402   9.268 -0.5103 -1.0543  1.7839
 6679SOL     OW31498   2.612   4.384   6.296 -0.7512 -0.0613 -0.0435
 6679SOL    HW131499   2.673   4.409   6.365 -0.6929 -0.5759  0.0861
 6679SOL    HW231500   2.531   4.364   6.343 -1.6417 -0.7566 -1.8767
 6680SOL     OW31501   2.901   2.019   4.359 -0.7813  0.1972  0.1225
 6680SOL    HW131502   2.984   1.978   4.384 -1.0747 -0.8545 -0.6365
 6680SOL    HW231503   2.891   1.983   4.270 -0.4223  0.6356 -0.0933
 6681SOL     OW31504   4.596   2.114  13.847  0.4195  0.8541 -1.0781
 6681SOL    HW131505   4.507   2.149  13.841 -0.6997 -1.7400  0.5145
 6681SOL    HW231506   4.619   2.132  13.938  0.4469 -1.9415 -0.5373
 6682SOL     OW31507   1.131   0.219   5.624 -0.4892 -1.0231  0.1574
 6682SOL    HW131508   1.215   0.263   5.629 -0.4461 -0.8995 -1.7107
 6682SOL    HW231509   1.101   0.265   5.546  0.8641 -0.0819  0.2047
 6683SOL     OW31510   1.689   3.791   5.716 -0.1147 -0.4232  0.4800
 6683SOL    HW131511   1.776   3.756   5.737 -0.2820  0.3689  2.4777
 6683SOL    HW231512   1.631   3.715   5.715 -1.2692  0.4804 -1.2414
 6684SOL     OW31513   3.727   0.402   9.509 -0.4868 -0.2332 -0.0993
 6684SOL    HW131514   3.646   0.356   9.488 -1.3754  0.0021  2.7323
 6684SOL    HW231515   3.756   0.354   9.586 -1.1332  0.7417  0.7575
 6685SOL     OW31516   1.664   2.262  15.595  0.4946  0.2860  0.5518
 6685SOL    HW131517   1.628   2.333  15.648 -2.6055  0.0770 -1.3228
 6685SOL    HW231518   1.604   2.190  15.614  0.6335 -0.4412 -1.7582
 6686SOL     OW31519   2.378   1.045   5.608 -0.0558 -0.1601  0.4089
 6686SOL    HW131520   2.397   1.138   5.596  0.4348 -0.5282 -1.5813
 6686SOL    HW231521   2.317   1.036   5.534  0.2287 -0.3397  0.1992
 6687SOL     OW31522   2.407   3.484   5.288  0.2307  0.0354  0.2966
 6687SOL    HW131523   2.360   3.421   5.234 -1.8587  1.0813  0.9149
 6687SOL    HW231524   2.436   3.557   5.233 -0.8729  0.8237  0.7723
 6688SOL     OW31525   3.537   0.311   3.467 -0.0616  0.0501 -0.3657
 6688SOL    HW131526   3.518   0.221   3.441 -1.3298  0.5755 -1.3117
 6688SOL    HW231527   3.630   0.316   3.447 -0.2282  1.7165 -0.7340
 6689SOL     OW31528   4.380   0.902   3.503 -0.0817 -0.1876  0.1216
 6689SOL    HW131529   4.423   0.977   3.545 -0.4182 -0.4587  0.9507
 6689SOL    HW231530   4.364   0.850   3.582 -0.3232  2.1616  1.6371
 6690SOL     OW31531   3.915   2.282  15.995 -0.4914  0.1951 -0.3593
 6690SOL    HW131532   3.995   2.311  15.952 -0.3719 -1.7638 -1.4964
 6690SOL    HW231533   3.857   2.286  15.919 -1.4098 -1.8240  0.2377
 6691SOL     OW31534   2.339   4.563  13.907 -0.6630  0.2419 -0.1408
 6691SOL    HW131535   2.345   4.591  13.815  2.8304  0.4073  0.1404
 6691SOL    HW231536   2.295   4.478  13.904 -0.2424  0.1093 -2.6685
 6692SOL     OW31537   3.967   4.217   2.654  0.9265  0.2228 -0.3754
 6692SOL    HW131538   3.929   4.141   2.697 -0.0966  0.4527 -0.8704
 6692SOL    HW231539   3.892   4.264   2.617 -0.4249 -1.0769  0.7314
 6693SOL     OW31540   3.753   3.094   6.789  0.0739 -0.4827 -0.2536
 6693SOL    HW131541   3.695   3.120   6.860  0.5852 -0.4758  0.1646
 6693SOL    HW231542   3.831   3.147   6.806 -0.7764  1.2917 -1.8539
 6694SOL     OW31543   0.225   3.750   0.173  0.0395 -0.3168 -0.0196
 6694SOL    HW131544   0.162   3.805   0.126  1.5511  0.0559 -1.6074
 6694SOL    HW231545   0.173   3.684   0.219 -1.6090 -0.8079 -2.6013
 6695SOL     OW31546   3.838   1.100   7.639 -0.2223 -0.7700  0.3693
 6695SOL    HW131547   3.875   1.030   7.585 -1.0577 -2.5078  2.0667
 6695SOL    HW231548   3.808   1.059   7.720  2.0361 -0.2431  1.4859
 6696SOL     OW31549   1.026   2.605   5.601 -0.1664  0.2743 -0.7316
 6696SOL    HW131550   0.951   2.633   5.547 -2.4420  0.7480  2.6871
 6696SOL    HW231551   0.979   2.570   5.676  0.4766 -0.2311 -0.5651
 6697SOL     OW31552   0.735   1.501   9.806  0.5847  0.3516  0.3594
 6697SOL    HW131553   0.787   1.522   9.728 -0.0750 -0.8598 -0.4048
 6697SOL    HW231554   0.675   1.573   9.787  0.9470  1.4354  3.3726
 6698SOL     OW31555   0.873   1.748  17.679  0.0308 -0.2733 -0.3912
 6698SOL    HW131556   0.841   1.677   0.037  0.0014 -0.5539 -0.7600
 6698SOL    HW231557   0.942   1.699  17.635  0.7530  0.2320  0.1824
 6699SOL     OW31558   4.510   0.847   0.950 -0.5841  0.4669 -0.4370
 6699SOL    HW131559   4.455   0.810   0.881 -0.7714 -3.3068  1.7061
 6699SOL    HW231560   4.596   0.854   0.910 -0.3186 -0.4065 -0.0055
 6700SOL     OW31561   3.809   4.520  11.753 -0.1359 -0.0370 -0.3341
 6700SOL    HW131562   3.896   4.522  11.792 -1.6898 -1.7473  3.1494
 6700SOL    HW231563   3.753   4.511  11.829  0.3764  0.1432  0.0625
 6701SOL     OW31564   2.120   0.812   0.528 -0.5055  0.4968  0.0541
 6701SOL    HW131565   2.170   0.800   0.447 -1.7175 -0.5262 -0.5480
 6701SOL    HW231566   2.130   0.907   0.534 -0.8449  0.4708  0.9788
 6702SOL     OW31567   2.614   1.717  17.142  0.1434 -0.3413 -0.2441
 6702SOL    HW131568   2.630   1.643  17.201 -2.1442  0.6786  1.6580
 6702SOL    HW231569   2.635   1.784  17.207  0.1391 -2.6268  2.1217
 6703SOL     OW31570   4.046   3.840   2.395 -0.0961 -0.2883  0.0550
 6703SOL    HW131571   3.958   3.876   2.382  0.8118  1.8761 -0.0496
 6703SOL    HW231572   4.090   3.909   2.445  1.7958 -0.8887 -0.7818
 6704SOL     OW31573   2.976   2.753  11.697 -0.1552 -0.6646 -0.1538
 6704SOL    HW131574   3.057   2.760  11.749 -1.8048  1.7783  2.0915
 6704SOL    HW231575   2.917   2.802  11.754 -0.9116  0.9751 -2.3239
 6705SOL     OW31576   3.237   2.484   1.421  0.0657  0.0680  0.3316
 6705SOL    HW131577   3.245   2.392   1.443 -0.7639  0.6274  3.0296
 6705SOL    HW231578   3.201   2.513   1.505  1.0272  2.1256  0.0308
 6706SOL     OW31579   1.481   3.391  16.490 -0.0361  0.0830 -0.2083
 6706SOL    HW131580   1.502   3.479  16.520  2.3979 -0.7574  0.5561
 6706SOL    HW231581   1.460   3.341  16.568 -0.9065  1.3608  0.3655
 6707SOL     OW31582   1.873   3.635   4.174  0.0113  0.0937 -0.2559
 6707SOL    HW131583   1.961   3.600   4.156  1.0682  2.3653  0.4579
 6707SOL    HW231584   1.858   3.594   4.259  0.6458  2.4478  0.9932
 6708SOL     OW31585   1.887   2.947   3.971  0.0195 -0.0972 -0.5489
 6708SOL    HW131586   1.951   2.891   3.928 -0.3242 -0.8861 -0.0424
 6708SOL    HW231587   1.852   2.975   3.887  0.8439  0.4223 -0.7210
 6709SOL     OW31588   4.682   0.834  17.046  0.2056  0.5002  0.3078
 6709SOL    HW131589   4.694   0.863  17.137 -2.3014  0.4980  0.6433
 6709SOL    HW231590   4.660   0.741  17.050  0.3219  0.4462 -0.2843
 6710SOL     OW31591   0.660   1.524   8.438  0.2311 -1.0044 -0.1926
 6710SOL    HW131592   0.629   1.447   8.391 -3.6082  0.8125 -0.6331
 6710SOL    HW231593   0.574   1.564   8.450  1.3917  1.1135  1.0797
 6711SOL     OW31594   4.354   1.481   8.818 -0.3029  0.1293 -0.4782
 6711SOL    HW131595   4.264   1.457   8.841 -0.6624 -0.4382 -2.5009
 6711SOL    HW231596   4.404   1.434   8.886 -0.6246 -0.1181 -0.4125
 6712SOL     OW31597   3.097   1.455  11.983 -0.3289  0.1947 -0.0925
 6712SOL    HW131598   3.055   1.415  11.907 -0.2890 -2.0899  1.0783
 6712SOL    HW231599   3.187   1.455  11.951  0.3015 -1.5827  1.6394
 6713SOL     OW31600   2.908   2.706   6.405  0.3969 -0.4361 -0.2676
 6713SOL    HW131601   2.841   2.652   6.362 -1.1141  0.8688  0.4685
 6713SOL    HW231602   2.871   2.791   6.385 -2.5443 -1.9016 -1.0922
 6714SOL     OW31603   3.323   0.959   0.731 -0.2074  0.2723 -0.6111
 6714SOL    HW131604   3.278   0.880   0.762 -1.1774  0.3220 -1.8814
 6714SOL    HW231605   3.403   0.928   0.688  0.3223 -1.6181  1.7381
 6715SOL     OW31606   0.906   2.655   8.677 -0.2286  0.3602  0.1171
 6715SOL    HW131607   0.948   2.727   8.631  0.0848  0.4305  0.5201
 6715SOL    HW231608   0.977   2.596   8.702 -2.0696 -0.9952  2.2743
 6716SOL     OW31609   2.703   3.531   3.111  0.3002 -0.3253 -0.3471
 6716SOL    HW131610   2.652   3.474   3.168 -0.1830  2.1718  1.7065
 6716SOL    HW231611   2.668   3.619   3.127  0.8607 -0.1192 -0.2413
 6717SOL     OW31612   1.403   2.485   1.867  0.6399 -0.2658  0.3917
 6717SOL    HW131613   1.434   2.401   1.902 -0.9320 -2.6287 -4.0185
 6717SOL    HW231614   1.483   2.538   1.854 -0.0557  0.4077 -1.1247
 6718SOL     OW31615   3.616   0.227  13.035  0.0732 -0.2286 -0.0065
 6718SOL    HW131616   3.704   0.194  13.016  0.2884 -1.0963  2.5068
 6718SOL    HW231617   3.567   0.240  12.954 -0.8211 -0.9209  0.4156
 6719SOL     OW31618   3.229   2.885   1.718 -0.0587  0.1096  0.1470
 6719SOL    HW131619   3.324   2.877   1.704 -0.4667 -0.5702 -2.2482
 6719SOL    HW231620   3.201   2.892   1.627 -0.2829  0.4393  0.2418
 6720SOL     OW31621   0.860   3.465  13.727  0.0285  0.1579  0.1585
 6720SOL    HW131622   0.858   3.537  13.790  0.2060 -0.9711  1.4375
 6720SOL    HW231623   0.926   3.499  13.666  0.3276  0.8941  0.8888
 6721SOL     OW31624   3.361   1.792  11.031  0.2474 -0.2895 -0.5865
 6721SOL    HW131625   3.269   1.800  11.006 -0.1289  0.5100  1.0876
 6721SOL    HW231626   3.355   1.729  11.103  1.0668  0.8933  0.5118
 6722SOL     OW31627   4.486   3.681  14.355 -0.0426  0.0641  0.4345
 6722SOL    HW131628   4.417   3.646  14.299  0.9613  1.2781 -1.5530
 6722SOL    HW231629   4.565   3.633  14.329 -1.1766 -0.5228 -1.8656
 6723SOL     OW31630   3.047   0.732   4.737  0.4592  0.5639 -0.2792
 6723SOL    HW131631   3.070   0.824   4.753 -1.5287  0.8865  0.7498
 6723SOL    HW231632   2.993   0.741   4.659 -0.0675 -2.9972 -0.3202
 6724SOL     OW31633   3.961   3.912   8.628  0.3476 -0.1011  0.5471
 6724SOL    HW131634   4.045   3.945   8.596  0.3221 -0.3165  0.2503
 6724SOL    HW231635   3.980   3.868   8.711 -3.1797 -1.5792  0.5618
 6725SOL     OW31636   1.421   2.231  15.427 -0.1354  0.4286  0.4474
 6725SOL    HW131637   1.381   2.318  15.436 -1.2451 -0.2618  2.3349
 6725SOL    HW231638   1.391   2.220  15.337  4.1089 -0.1961 -0.8713
 6726SOL     OW31639   0.146   3.356   3.212 -0.5993  0.1841 -0.0584
 6726SOL    HW131640   0.166   3.410   3.135  0.0250 -2.3184 -1.6196
 6726SOL    HW231641   0.065   3.314   3.183 -1.2401  1.8985 -0.7873
 6727SOL     OW31642   0.829   0.740   2.900  0.2686 -0.2568 -0.3614
 6727SOL    HW131643   0.780   0.668   2.939 -1.6744  0.8521 -0.7377
 6727SOL    HW231644   0.923   0.722   2.903  0.6263  2.0901  4.1101
 6728SOL     OW31645   1.821   0.189   7.965  0.4546 -0.5967 -0.5054
 6728SOL    HW131646   1.832   0.156   7.876 -0.2611 -0.3592 -0.6822
 6728SOL    HW231647   1.729   0.165   7.972 -0.1367  2.1733  0.7808
 6729SOL     OW31648   3.303   3.107   2.340 -0.3079 -0.7128  0.2712
 6729SOL    HW131649   3.319   3.037   2.276 -2.2046  0.3969 -1.4202
 6729SOL    HW231650   3.259   3.054   2.406  1.8543 -0.9045  1.5397
 6730SOL     OW31651   3.106   2.671   0.999 -0.7539  0.0725 -0.3803
 6730SOL    HW131652   3.124   2.577   1.000 -0.7271  0.0467 -3.2619
 6730SOL    HW231653   3.192   2.712   1.013  0.4873 -2.8260  0.6449
 6731SOL     OW31654   2.714   0.731  11.597 -0.5388  0.1011 -0.0759
 6731SOL    HW131655   2.671   0.651  11.626 -1.5945 -0.2334 -2.6097
 6731SOL    HW231656   2.801   0.716  11.633 -1.0494  0.1674  1.1960
 6732SOL     OW31657   4.131   0.588   5.153  0.3047  0.2036  0.3709
 6732SOL    HW131658   4.052   0.635   5.180  0.2968  0.2711  0.2245
 6732SOL    HW231659   4.094   0.542   5.078 -0.1605  1.1802  0.0119
 6733SOL     OW31660   3.878   4.660  16.527 -0.2247 -0.1244  0.2966
 6733SOL    HW131661   3.789   4.627  16.513  0.2434 -1.5048  0.6317
 6733SOL    HW231662   3.927   4.580  16.545 -0.0071  0.0372  0.4062
 6734SOL     OW31663   0.161   3.904   7.300  0.0699 -0.2554  0.5936
 6734SOL    HW131664   0.242   3.887   7.349  0.7425 -1.0252 -0.7836
 6734SOL    HW231665   0.154   3.828   7.242 -1.3946 -2.2356  3.3582
 6735SOL     OW31666   2.197   0.419  12.914 -0.0300  0.1679  0.3260
 6735SOL    HW131667   2.291   0.430  12.926 -0.0931  2.2964 -0.9465
 6735SOL    HW231668   2.198   0.493  12.853 -2.4451  0.9260  1.1891
 6736SOL     OW31669   2.058   0.505  16.125  0.2280  0.0705 -0.0732
 6736SOL    HW131670   2.079   0.567  16.055  1.3516 -1.4924 -1.1235
 6736SOL    HW231671   2.026   0.564  16.193  1.2554  0.3683  0.1511
 6737SOL     OW31672   3.248   2.053   8.881  0.1681  0.1472  0.6703
 6737SOL    HW131673   3.208   2.099   8.954 -2.0547 -0.4140 -0.1925
 6737SOL    HW231674   3.216   1.963   8.880  0.6718 -0.0366  1.2354
 6738SOL     OW31675   3.560   0.832  11.349 -0.1105  0.6664  0.1302
 6738SOL    HW131676   3.527   0.793  11.268  0.4858 -0.6470  0.5281
 6738SOL    HW231677   3.603   0.908  11.309 -1.8192  2.1139  1.0333
 6739SOL     OW31678   1.892   3.221   8.820  0.4115 -0.0106  0.5276
 6739SOL    HW131679   1.885   3.277   8.742 -0.3440 -0.5725  0.1973
 6739SOL    HW231680   1.817   3.245   8.874 -0.2115  1.2058 -0.8763
 6740SOL     OW31681   3.410   3.053   1.125 -0.0091  0.3715  0.4274
 6740SOL    HW131682   3.380   3.049   1.216  1.8184  0.2692  1.0145
 6740SOL    HW231683   3.333   3.098   1.090 -0.7801 -0.9800  0.3891
 6741SOL     OW31684   3.202   2.289  12.090 -0.1612 -0.1372  0.4345
 6741SOL    HW131685   3.264   2.348  12.132 -0.7964  1.8909 -1.4323
 6741SOL    HW231686   3.117   2.313  12.125  0.0504  0.9448  0.2185
 6742SOL     OW31687   0.148   2.044   9.813 -0.3192  0.0372 -0.8276
 6742SOL    HW131688   0.065   2.039   9.859  0.9912 -3.4955  1.1640
 6742SOL    HW231689   0.116   2.026   9.724  4.1363  2.9515 -3.0248
 6743SOL     OW31690   1.001   1.957   9.190  0.5211 -0.0385  0.0470
 6743SOL    HW131691   0.959   1.918   9.113  0.8516 -0.9861  0.3416
 6743SOL    HW231692   1.091   1.926   9.174  1.2590  1.7365  0.7317
 6744SOL     OW31693   2.416   2.160  12.693  0.3237 -0.4354 -0.0597
 6744SOL    HW131694   2.400   2.242  12.646  1.8553 -0.2458 -0.2616
 6744SOL    HW231695   2.377   2.179  12.779  2.3377  4.2959 -0.1859
 6745SOL     OW31696   3.306   3.232   9.932  1.1366  0.6166 -0.3576
 6745SOL    HW131697   3.338   3.276   9.853  0.1194  0.4842 -0.8500
 6745SOL    HW231698   3.273   3.314   9.969 -1.1392 -1.0566  1.3500
 6746SOL     OW31699   3.295   2.676   9.518 -0.1702 -0.4477 -0.5002
 6746SOL    HW131700   3.374   2.718   9.554  0.0487  0.6871 -2.2685
 6746SOL    HW231701   3.304   2.722   9.434 -0.7387 -0.4253 -0.5465
 6747SOL     OW31702   3.942   4.397  13.914 -0.5487 -0.2798  0.3460
 6747SOL    HW131703   3.853   4.363  13.911 -0.6634  0.0349  0.1704
 6747SOL    HW231704   3.943   4.421  14.006  1.2376 -1.5464  0.6680
 6748SOL     OW31705   0.141   1.311  12.164 -0.2653 -0.4988 -0.1041
 6748SOL    HW131706   0.160   1.218  12.152 -1.8760 -0.9902  0.9649
 6748SOL    HW231707   0.170   1.345  12.080 -1.4938  0.7093 -0.0334
 6749SOL     OW31708   3.438   4.396   5.216 -0.2549  0.0705  0.4245
 6749SOL    HW131709   3.490   4.385   5.136 -0.4992 -0.8988  0.3890
 6749SOL    HW231710   3.472   4.480   5.246 -1.5784 -0.2510  2.7834
 6750SOL     OW31711   3.347   1.759  10.134  0.2453  0.3586  0.0208
 6750SOL    HW131712   3.267   1.748  10.187  0.3772  2.0308  0.5483
 6750SOL    HW231713   3.313   1.738  10.047  2.2528 -2.2780 -0.1260
 6751SOL     OW31714   3.325   3.256   4.139  0.1167 -0.0646  0.0776
 6751SOL    HW131715   3.351   3.227   4.226 -1.6287 -0.6300  0.4113
 6751SOL    HW231716   3.383   3.328   4.114 -0.6055 -0.3112 -2.2712
 6752SOL     OW31717   1.114   4.102   2.418 -0.0566 -0.3702 -0.0343
 6752SOL    HW131718   1.153   4.179   2.376  0.6695 -1.2065 -0.8997
 6752SOL    HW231719   1.187   4.041   2.429 -1.3444 -1.5199  2.0906
 6753SOL     OW31720   1.347   2.261  11.436 -0.0979 -0.0428 -0.0438
 6753SOL    HW131721   1.305   2.237  11.519  3.1499  2.3648  2.2968
 6753SOL    HW231722   1.336   2.356  11.432 -2.5962 -0.3744 -0.7208
 6754SOL     OW31723   2.208   4.584   6.275  0.6526  0.1566  0.0084
 6754SOL    HW131724   2.142   4.588   6.206  0.8571  0.1726 -0.1870
 6754SOL    HW231725   2.158   4.559   6.352  0.1325  0.6585 -0.1648
 6755SOL     OW31726   1.478   1.447   5.850 -0.4437  0.2078  0.0209
 6755SOL    HW131727   1.397   1.468   5.804  0.1399  1.2085 -0.5481
 6755SOL    HW231728   1.501   1.358   5.824  2.8361  0.9700  0.3431
 6756SOL     OW31729   2.957   1.439   0.076 -0.3714 -0.5472 -0.0661
 6756SOL    HW131730   2.866   1.431   0.048 -0.9452 -2.4974  2.3810
 6756SOL    HW231731   2.968   1.350   0.109 -1.6472 -0.8514 -0.4575
 6757SOL     OW31732   2.022   1.548   7.757 -0.1154 -0.8928  0.0949
 6757SOL    HW131733   1.955   1.615   7.740  1.0092  0.4850  1.0671
 6757SOL    HW231734   2.003   1.538   7.851  0.1966  2.1096  0.4859
 6758SOL     OW31735   1.359   2.443   6.426 -0.2330 -0.3804 -0.7630
 6758SOL    HW131736   1.368   2.499   6.349 -0.3195  0.6929  0.0206
 6758SOL    HW231737   1.374   2.356   6.388 -1.8416 -0.6146 -0.8567
 6759SOL     OW31738   0.043   2.356   6.048 -0.4679  0.1491  0.0802
 6759SOL    HW131739   0.019   2.341   5.956  0.0558  1.6970 -0.3223
 6759SOL    HW231740   0.010   2.444   6.067 -0.9725 -0.2992  1.2761
 6760SOL     OW31741   2.246   3.793  13.629 -0.2016  0.1560  0.4343
 6760SOL    HW131742   2.313   3.782  13.562 -0.8228  1.6652 -0.4510
 6760SOL    HW231743   2.214   3.703  13.623  0.2667  0.0791 -1.0146
 6761SOL     OW31744   0.768   2.659   4.771 -0.3611  0.4100 -0.0230
 6761SOL    HW131745   0.765   2.725   4.840  0.1664 -1.7816  2.0966
 6761SOL    HW231746   0.716   2.591   4.814  3.4537 -2.2592  0.3557
 6762SOL     OW31747   1.578   2.825   4.616 -0.2161  0.5469  0.3550
 6762SOL    HW131748   1.491   2.799   4.584  0.7063 -0.3220 -1.4180
 6762SOL    HW231749   1.636   2.752   4.594  0.5136  1.4125 -0.5591
 6763SOL     OW31750   0.529   1.111   4.717  0.0231 -0.3437 -0.2293
 6763SOL    HW131751   0.510   1.200   4.745 -0.2651  0.1639 -1.9972
 6763SOL    HW231752   0.558   1.087   4.805  0.6535 -0.3072 -0.4312
 6764SOL     OW31753   3.332   3.582  13.724 -0.1297 -0.4960 -0.1860
 6764SOL    HW131754   3.254   3.639  13.725  0.1557 -0.1093 -0.1816
 6764SOL    HW231755   3.391   3.620  13.660  2.7798 -1.0486  2.1976
 6765SOL     OW31756   0.263   3.161  12.573  0.6729  0.2596  0.0309
 6765SOL    HW131757   0.301   3.128  12.654 -0.2947  1.7865  1.1000
 6765SOL    HW231758   0.228   3.078  12.542  2.1852 -0.6033  0.6200
 6766SOL     OW31759   3.304   2.626   3.597  0.0354 -0.1186 -0.3653
 6766SOL    HW131760   3.236   2.567   3.564 -0.0315 -1.3393  2.0157
 6766SOL    HW231761   3.259   2.663   3.673 -0.4739 -1.6353  0.0564
 6767SOL     OW31762   4.094   1.220   4.954 -0.3848 -0.2722 -0.2462
 6767SOL    HW131763   4.156   1.161   4.911  1.0426  1.4057 -0.4917
 6767SOL    HW231764   4.042   1.242   4.878  0.8097 -1.9597 -1.5597
 6768SOL     OW31765   1.086   0.312   2.005 -0.3671 -1.0989 -0.1373
 6768SOL    HW131766   1.107   0.351   2.090  2.6602  1.9305 -2.2945
 6768SOL    HW231767   1.164   0.260   1.982  0.4344 -0.4696  1.1827
 6769SOL     OW31768   0.642   4.274  10.184 -0.3710  0.4056  0.1277
 6769SOL    HW131769   0.717   4.218  10.201  0.4245  1.5772  0.4400
 6769SOL    HW231770   0.661   4.353  10.235 -1.5552  1.2168 -0.6770
 6770SOL     OW31771   2.045   0.909   7.379 -0.5055 -0.4846  0.0619
 6770SOL    HW131772   2.012   0.944   7.462 -0.8198 -0.5330 -0.0425
 6770SOL    HW231773   2.131   0.951   7.384 -0.3939 -0.5667 -1.1800
 6771SOL     OW31774   3.113   0.868   6.602  0.0023  0.2845 -0.3159
 6771SOL    HW131775   3.133   0.923   6.527 -0.0452  1.0477  0.2345
 6771SOL    HW231776   3.141   0.925   6.673  2.5929 -0.0347 -1.0793
 6772SOL     OW31777   2.365   2.514   6.944 -0.4182 -0.6545 -0.7669
 6772SOL    HW131778   2.453   2.492   6.914  0.5835  0.7587  1.1032
 6772SOL    HW231779   2.322   2.429   6.950  0.6807 -1.1303  0.3084
 6773SOL     OW31780   3.027   1.959   7.684 -0.6770  1.0471  0.2887
 6773SOL    HW131781   2.998   2.038   7.638  0.8434  3.0696  2.8344
 6773SOL    HW231782   2.984   1.891   7.632 -0.8254  0.0328  1.7458
 6774SOL     OW31783   0.661   3.402   7.925  0.4290 -0.3874  0.0439
 6774SOL    HW131784   0.722   3.406   7.851 -0.3846 -0.1576 -0.6149
 6774SOL    HW231785   0.589   3.457   7.894 -0.8301 -2.0245  0.0740
 6775SOL     OW31786   2.835   1.399  11.468  0.2692  0.4334 -0.1141
 6775SOL    HW131787   2.851   1.379  11.560 -0.6579  2.4695  0.4959
 6775SOL    HW231788   2.768   1.334  11.448 -0.4215  1.3708 -0.8429
 6776SOL     OW31789   1.351   3.476   0.972 -0.4610 -0.3511  0.4312
 6776SOL    HW131790   1.362   3.541   0.903  0.7733 -2.0017 -0.9149
 6776SOL    HW231791   1.358   3.523   1.055 -2.2223 -0.8701  0.8707
 6777SOL     OW31792   0.737   0.111   2.709 -0.0066  0.2347 -0.5273
 6777SOL    HW131793   0.806   0.177   2.701 -0.6667  1.0683  0.6278
 6777SOL    HW231794   0.740   0.082   2.618  3.0656 -1.9302  0.2630
 6778SOL     OW31795   1.357   1.775   9.379  0.5447 -0.1055  0.0034
 6778SOL    HW131796   1.405   1.699   9.346 -0.6194 -0.9819  0.2722
 6778SOL    HW231797   1.430   1.834   9.395 -0.3789  0.8902  0.6229
 6779SOL     OW31798   0.597   1.714   0.382 -0.1695  0.4087  0.2378
 6779SOL    HW131799   0.681   1.669   0.377 -0.2812 -0.0184  2.2904
 6779SOL    HW231800   0.610   1.801   0.344 -0.6253 -0.5564 -2.1278
 6780SOL     OW31801   1.452   2.551  13.373  0.3023 -0.7725 -0.0503
 6780SOL    HW131802   1.525   2.610  13.355 -0.4915  0.0532 -0.5672
 6780SOL    HW231803   1.401   2.592  13.443  1.6721 -1.5802  1.4325
 6781SOL     OW31804   0.454   4.171   6.604 -0.4914  0.5350  0.0915
 6781SOL    HW131805   0.440   4.121   6.684 -1.7675  1.2888  0.3512
 6781SOL    HW231806   0.541   4.205   6.622  0.7789 -1.8707 -1.4632
 6782SOL     OW31807   4.696   0.710   5.106 -0.5311  0.0257  0.0553
 6782SOL    HW131808   0.060   0.676   5.122 -0.1534  0.0931 -1.8626
 6782SOL    HW231809   4.643   0.672   5.175  0.5851 -0.5923  0.5743
 6783SOL     OW31810   1.372   0.114   4.301 -0.1349 -0.2658 -0.3280
 6783SOL    HW131811   1.351   0.146   4.214  0.5832  1.4068  0.1223
 6783SOL    HW231812   1.451   0.160   4.328  0.2373 -1.2138  0.1775
 6784SOL     OW31813   3.798   2.025   8.684  0.3001 -0.3792  0.7611
 6784SOL    HW131814   3.761   2.078   8.755 -1.5467  0.6791 -0.9788
 6784SOL    HW231815   3.891   2.043   8.693  0.3171  0.0588 -0.3105
 6785SOL     OW31816   2.047   0.487   2.077 -0.1465 -0.8177 -0.3056
 6785SOL    HW131817   2.106   0.503   2.003 -2.5302 -0.1567 -2.0946
 6785SOL    HW231818   2.036   0.392   2.080  1.2584 -0.9148  1.2709
 6786SOL     OW31819   1.134   4.520   2.747 -0.1574  0.3090 -0.1984
 6786SOL    HW131820   1.188   4.537   2.824  1.7355  0.8708 -1.6572
 6786SOL    HW231821   1.192   4.456   2.706 -0.9667 -0.0301 -0.8331
 6787SOL     OW31822   4.201   0.721   9.642  0.5574  0.3960  0.1479
 6787SOL    HW131823   4.270   0.772   9.598  1.0350  0.1859  0.6589
 6787SOL    HW231824   4.168   0.782   9.708  2.1056  0.3763  0.9398
 6788SOL     OW31825   3.898   1.874   2.826  0.5041  0.1448 -0.2574
 6788SOL    HW131826   3.821   1.848   2.775 -1.3510  0.5806  2.3552
 6788SOL    HW231827   3.935   1.927   2.755 -1.0546  0.0349 -1.1499
 6789SOL     OW31828   0.662   2.229   6.579  0.6107 -0.0412 -0.6135
 6789SOL    HW131829   0.566   2.228   6.585  0.6047 -1.6099 -0.9803
 6789SOL    HW231830   0.690   2.137   6.588  1.9729  0.7589  3.2443
 6790SOL     OW31831   2.321   2.072   9.483 -0.2254  0.6837 -0.2775
 6790SOL    HW131832   2.328   2.167   9.495 -1.5642  0.8399 -0.8092
 6790SOL    HW231833   2.353   2.043   9.569 -2.6308  0.2431  0.4583
 6791SOL     OW31834   1.547   2.293   2.193 -0.3848 -0.3074 -0.0881
 6791SOL    HW131835   1.525   2.244   2.114 -1.9548  2.1382 -1.1688
 6791SOL    HW231836   1.584   2.220   2.242  1.3850  1.2288  0.8585
 6792SOL     OW31837   1.861   2.914   6.429  0.5570  0.1338 -0.0451
 6792SOL    HW131838   1.899   2.858   6.496 -0.9475  0.0228  0.7251
 6792SOL    HW231839   1.772   2.879   6.421  0.2671  1.3550 -2.3718
 6793SOL     OW31840   1.499   1.557   4.155  0.0059 -0.3512 -0.5237
 6793SOL    HW131841   1.478   1.568   4.062  0.9862 -3.7042 -1.1571
 6793SOL    HW231842   1.432   1.493   4.181 -1.3229  2.4658  3.0307
 6794SOL     OW31843   0.764   1.423   3.135 -0.8195 -0.3606 -0.3279
 6794SOL    HW131844   0.744   1.363   3.206  0.0758  3.0967  2.8190
 6794SOL    HW231845   0.741   1.507   3.175 -0.2479  0.8620 -2.5782
 6795SOL     OW31846   3.592   2.053   1.485 -0.2757  0.1517 -0.6977
 6795SOL    HW131847   3.621   1.971   1.447 -2.0196 -0.5259 -0.5639
 6795SOL    HW231848   3.517   2.023   1.537  0.4275  0.2590  0.3762
 6796SOL     OW31849   2.214   2.873   1.139  0.0006 -0.4515 -0.2677
 6796SOL    HW131850   2.286   2.912   1.188  0.2960  0.9074 -1.7817
 6796SOL    HW231851   2.260   2.849   1.059  0.9285 -0.6365  0.3292
 6797SOL     OW31852   1.056   1.486   2.777  0.4507 -0.1516  0.0288
 6797SOL    HW131853   1.088   1.558   2.722  2.3612  0.0086  1.3478
 6797SOL    HW231854   0.967   1.484   2.742  0.7249  2.5150 -0.8642
 6798SOL     OW31855   0.076   1.619  10.468 -0.2444  0.2299 -0.2772
 6798SOL    HW131856   0.049   1.530  10.490  1.1120 -0.2665 -0.6111
 6798SOL    HW231857   4.719   1.671  10.473  0.0378  0.7443 -1.0902
 6799SOL     OW31858   3.453   0.613  11.807 -0.0602  0.0509  0.0331
 6799SOL    HW131859   3.473   0.677  11.875  1.3749  0.3178 -0.6423
 6799SOL    HW231860   3.496   0.654  11.732 -0.8331  2.7111  1.0628
 6800SOL     OW31861   0.498   1.072  14.828  0.6478 -0.2861 -0.2200
 6800SOL    HW131862   0.586   1.053  14.862 -0.0858  0.3414  2.0612
 6800SOL    HW231863   0.523   1.102  14.741 -0.8325 -0.5011 -0.7153
 6801SOL     OW31864   1.936   0.363  10.952 -0.0267 -0.0555 -0.1619
 6801SOL    HW131865   1.851   0.361  10.995  0.0869  1.0842  0.1020
 6801SOL    HW231866   1.929   0.304  10.877 -0.8503 -0.7101  0.4290
 6802SOL     OW31867   0.247   3.885   6.910  0.6957  0.0986 -0.3850
 6802SOL    HW131868   0.194   3.833   6.850 -1.0907  2.6626 -1.0456
 6802SOL    HW231869   0.253   3.824   6.983  3.0063 -0.5426 -1.0976
 6803SOL     OW31870   1.948   0.089   7.681  0.2755  0.3482  0.0963
 6803SOL    HW131871   1.882   0.154   7.656 -0.0051 -0.2313 -0.6726
 6803SOL    HW231872   2.027   0.143   7.678  0.0049  0.8677  1.9607
 6804SOL     OW31873   3.105   3.051  14.741 -0.1363  0.7344  0.6695
 6804SOL    HW131874   3.092   3.120  14.807 -0.4971 -0.2167  1.5886
 6804SOL    HW231875   3.196   3.025  14.752 -0.3189 -0.1897 -0.0452
 6805SOL     OW31876   1.507   4.432   5.884 -0.4825 -1.0541 -0.6696
 6805SOL    HW131877   1.463   4.433   5.970  0.3539 -0.4367 -0.2489
 6805SOL    HW231878   1.434   4.392   5.836 -0.2949  0.8722 -2.5857
 6806SOL     OW31879   2.432   4.686  13.646  0.2333 -0.9136 -0.0621
 6806SOL    HW131880   2.516   4.719  13.614  0.6286 -1.4396  0.4497
 6806SOL    HW231881   2.383   4.699  13.565  0.4956 -0.6430 -0.1752
 6807SOL     OW31882   0.265   0.757   7.203  0.2266 -0.1066  0.1497
 6807SOL    HW131883   0.172   0.736   7.212  0.4866 -0.0120  2.8926
 6807SOL    HW231884   0.288   0.772   7.294  1.3753 -1.1682  0.0322
 6808SOL     OW31885   3.251   1.939   5.124 -0.0587 -0.1392  0.8249
 6808SOL    HW131886   3.229   2.015   5.178 -0.6030 -0.4265  1.0075
 6808SOL    HW231887   3.342   1.965   5.110 -0.4343  0.8437  0.2215
 6809SOL     OW31888   3.287   3.468   1.615  0.0019 -0.0036 -0.1966
 6809SOL    HW131889   3.291   3.373   1.603  1.7366  0.1132 -0.6208
 6809SOL    HW231890   3.221   3.487   1.548  2.3763  0.7953 -2.3561
 6810SOL     OW31891   3.459   3.441  13.154  0.0522 -0.2547  0.0748
 6810SOL    HW131892   3.434   3.368  13.096 -1.1114  0.1861  0.0265
 6810SOL    HW231893   3.525   3.478  13.095 -1.0548 -1.3088 -1.8298
 6811SOL     OW31894   1.742   2.233   5.399 -0.2766 -0.7392 -0.1182
 6811SOL    HW131895   1.686   2.278   5.462  1.1524 -0.2868  0.8081
 6811SOL    HW231896   1.681   2.163   5.377  0.8638 -1.6301 -0.4113
 6812SOL     OW31897   2.444   1.647  10.696 -0.6331 -0.0193  0.0327
 6812SOL    HW131898   2.423   1.734  10.728 -2.5427 -0.8338  1.0166
 6812SOL    HW231899   2.363   1.614  10.657  0.9807 -2.2013 -1.4596
 6813SOL     OW31900   3.701   1.736   0.414 -0.0710 -0.3171 -0.4263
 6813SOL    HW131901   3.717   1.805   0.478 -3.6384 -0.6676  0.8254
 6813SOL    HW231902   3.741   1.657   0.449  1.5234  0.6044 -0.1881
 6814SOL     OW31903   2.874   0.160   5.955 -0.1715 -0.9428 -0.0388
 6814SOL    HW131904   2.945   0.223   5.938  1.5626 -3.3105 -1.6837
 6814SOL    HW231905   2.804   0.220   5.928 -0.2311  0.3295  2.9568
 6815SOL     OW31906   4.171   0.404  11.584 -0.1266 -0.1662 -0.4758
 6815SOL    HW131907   4.104   0.355  11.631  0.7260 -2.1669 -1.3412
 6815SOL    HW231908   4.124   0.486  11.571 -1.7329 -1.3621 -2.1731
 6816SOL     OW31909   0.687   3.423   8.775  0.0959 -0.0022  0.6091
 6816SOL    HW131910   0.750   3.382   8.715 -0.8056 -1.7377  0.8463
 6816SOL    HW231911   0.717   3.401   8.863  0.1866  2.4838  1.1996
 6817SOL     OW31912   4.564   0.734   1.727  0.4545  0.4098 -0.1203
 6817SOL    HW131913   4.617   0.783   1.789  0.7986  0.4734 -0.4607
 6817SOL    HW231914   4.642   0.691   1.692  0.6940  1.5796 -1.0172
 6818SOL     OW31915   4.692   0.916  16.764  0.0765 -0.5122  0.2985
 6818SOL    HW131916   4.692   0.909  16.860 -0.9207 -2.9193  0.1210
 6818SOL    HW231917   4.606   0.876  16.750  0.0946 -0.2333 -0.5847
 6819SOL     OW31918   3.675   2.558  15.191  0.0927 -0.5612  0.0547
 6819SOL    HW131919   3.652   2.553  15.284 -2.3068  0.5620 -0.4673
 6819SOL    HW231920   3.750   2.498  15.186  1.1065  0.8076 -1.2135
 6820SOL     OW31921   1.567   0.082   0.436  0.1358  0.1505  0.1380
 6820SOL    HW131922   1.659   0.062   0.419  0.3229 -0.6864  2.1091
 6820SOL    HW231923   1.541   4.722   0.475 -1.4315 -0.0011 -1.2120
 6821SOL     OW31924   0.268   1.025   8.042 -0.3807 -0.0043  0.3901
 6821SOL    HW131925   0.193   0.991   7.994 -0.3831  1.0394 -0.3695
 6821SOL    HW231926   0.339   0.975   8.001  1.0162  3.4062 -1.4490
 6822SOL     OW31927   1.818   1.146   6.627  0.5631 -0.3130  0.7554
 6822SOL    HW131928   1.778   1.085   6.564 -0.0218 -0.0221  0.8476
 6822SOL    HW231929   1.893   1.101   6.665  0.8483 -1.4695 -1.1440
 6823SOL     OW31930   1.797   2.193  15.383  0.1908 -0.7882 -0.1309
 6823SOL    HW131931   1.739   2.249  15.434  2.5289  1.6365 -0.1756
 6823SOL    HW231932   1.744   2.182  15.304 -0.7957  0.1741  0.3939
 6824SOL     OW31933   1.377   4.206   6.418  0.1206  0.1743  0.6736
 6824SOL    HW131934   1.322   4.148   6.365 -0.0463  0.7506  0.2182
 6824SOL    HW231935   1.453   4.147   6.416 -1.7829 -2.2910  1.5943
 6825SOL     OW31936   2.229   4.359   2.664 -0.1652  0.2282  0.1672
 6825SOL    HW131937   2.258   4.346   2.573  2.4061 -1.0573  1.1674
 6825SOL    HW231938   2.175   4.436   2.649  0.0717  0.5481  0.9715
 6826SOL     OW31939   2.243   4.293  13.811  0.3431  0.0011 -0.0474
 6826SOL    HW131940   2.154   4.262  13.795 -0.2760  0.6702  2.1752
 6826SOL    HW231941   2.289   4.249  13.740  0.2059  0.7869 -0.6291
 6827SOL     OW31942   1.426   1.844  17.538  0.3716  0.5757 -0.2996
 6827SOL    HW131943   1.521   1.848  17.546  0.3074 -1.2048  1.3618
 6827SOL    HW231944   1.415   1.749  17.544 -3.5144  0.9041 -1.7443
 6828SOL     OW31945   0.541   1.150   5.464  0.1883  0.4418  0.2467
 6828SOL    HW131946   0.628   1.113   5.479 -1.8046 -3.6501  1.7435
 6828SOL    HW231947   0.480   1.084   5.497  0.2101 -0.3841 -1.3831
 6829SOL     OW31948   1.804   1.981   9.146 -0.1188 -0.0799  0.1020
 6829SOL    HW131949   1.848   2.059   9.112 -0.9473  1.0869  1.6973
 6829SOL    HW231950   1.879   1.928   9.170 -1.0394 -2.0650 -1.4142
 6830SOL     OW31951   0.900   4.064   6.466 -0.1594  0.1553 -0.2087
 6830SOL    HW131952   0.857   4.138   6.508  1.4664 -0.0747  1.8709
 6830SOL    HW231953   0.886   4.004   6.539 -1.6589  1.0781  0.2690
 6831SOL     OW31954   0.247   1.416   3.555 -0.4332 -0.6879 -0.2212
 6831SOL    HW131955   0.224   1.462   3.636  1.4557  2.5015 -1.4615
 6831SOL    HW231956   0.168   1.363   3.542  0.5728 -1.7267 -2.0733
 6832SOL     OW31957   0.595   1.835  10.395  0.1199  0.3702  0.1700
 6832SOL    HW131958   0.521   1.889  10.423  0.8710  0.2642  2.3310
 6832SOL    HW231959   0.656   1.902  10.366  0.3283 -0.7280 -1.9207
 6833SOL     OW31960   3.184   3.249   1.864 -0.4413  0.1397  0.2544
 6833SOL    HW131961   3.225   3.165   1.886 -1.8096 -0.5214  0.2394
 6833SOL    HW231962   3.234   3.311   1.916 -0.3103 -0.4933  0.8865
 6834SOL     OW31963   2.688   2.784   7.025 -0.1848  0.1393  0.6266
 6834SOL    HW131964   2.781   2.805   7.035 -0.6712  2.3094  0.7260
 6834SOL    HW231965   2.648   2.846   7.086  0.1541  0.8082  0.1711
 6835SOL     OW31966   2.779   1.700  11.056 -0.1468 -0.2444  0.2005
 6835SOL    HW131967   2.766   1.644  11.132  1.1177 -0.4876  0.2288
 6835SOL    HW231968   2.768   1.785  11.098  2.8215  1.1762 -1.9176
 6836SOL     OW31969   4.680   0.590   2.080  0.1315  0.1182  0.0876
 6836SOL    HW131970   4.652   0.680   2.059 -1.9817 -0.2749  1.1962
 6836SOL    HW231971   4.623   0.539   2.024 -0.3984  1.6589 -0.7914
 6837SOL     OW31972   2.122   0.154   4.924  0.2152 -0.5090  0.4671
 6837SOL    HW131973   2.177   0.227   4.894 -1.6919  0.4378 -0.7292
 6837SOL    HW231974   2.082   0.196   5.000 -0.8825  0.0214 -0.4090
 6838SOL     OW31975   1.262   3.905  10.586  0.4417  0.5865  0.1105
 6838SOL    HW131976   1.301   3.839  10.644  0.0396  0.6957  0.5064
 6838SOL    HW231977   1.302   3.883  10.502 -0.1171 -0.2530  0.0578
 6839SOL     OW31978   3.040   2.590   8.115  0.3798 -0.2099  0.1615
 6839SOL    HW131979   2.983   2.552   8.182 -0.8303  0.2643 -0.5977
 6839SOL    HW231980   2.986   2.585   8.036  0.0623  0.5608  0.3239
 6840SOL     OW31981   4.140   3.055  16.656  0.6193 -0.3066 -0.4639
 6840SOL    HW131982   4.139   2.959  16.663 -0.8054 -0.2394  0.1664
 6840SOL    HW231983   4.234   3.065  16.640  0.1306  0.2551 -2.9713
 6841SOL     OW31984   3.841   0.074  12.514  0.4667 -0.3968 -0.4930
 6841SOL    HW131985   3.899   0.028  12.453  1.4461 -0.7505  0.6813
 6841SOL    HW231986   3.837   0.155  12.464  0.3796 -0.9945 -1.4649
 6842SOL     OW31987   3.644   1.234   7.179  0.2458 -0.3633 -0.0770
 6842SOL    HW131988   3.634   1.150   7.135 -1.5314 -0.4608  0.5327
 6842SOL    HW231989   3.641   1.199   7.268 -0.1758  2.0750  0.8755
 6843SOL     OW31990   3.581   0.540   5.756 -0.1992  0.1353  0.2261
 6843SOL    HW131991   3.522   0.593   5.702 -0.8532 -1.2103 -0.3625
 6843SOL    HW231992   3.656   0.541   5.696  0.2031  1.0807  0.7386
 6844SOL     OW31993   0.323   0.219   0.445 -0.7568 -0.0581 -0.1166
 6844SOL    HW131994   0.251   0.216   0.382 -2.2215 -1.6423  1.6244
 6844SOL    HW231995   0.271   0.222   0.526  1.4479  1.5937  1.2312
 6845SOL     OW31996   2.913   4.206   9.002 -0.2402  0.3607 -0.3528
 6845SOL    HW131997   2.917   4.253   8.919  0.3228  1.1150  0.0971
 6845SOL    HW231998   2.854   4.258   9.055  0.9227  1.1483  0.1766
 6846SOL     OW31999   4.076   1.038   9.731  0.0558  1.1432 -0.2977
 6846SOL    HW132000   4.010   0.969   9.730 -0.5858  1.7589  0.0411
 6846SOL    HW232001   4.080   1.047   9.826  1.5035  0.2596 -0.2709
 6847SOL     OW32002   0.243   4.092   8.834 -0.1234  0.3140 -0.2482
 6847SOL    HW132003   0.242   4.131   8.746  3.9499  1.7244  0.3088
 6847SOL    HW232004   0.155   4.056   8.830 -0.0965  0.1446  0.7408
 6848SOL     OW32005   0.057   0.571   3.868 -0.2757 -0.0050 -0.5050
 6848SOL    HW132006   0.080   0.496   3.813 -1.3470 -1.1445  0.5964
 6848SOL    HW232007   0.112   0.551   3.944 -1.0330 -2.2763 -0.5547
 6849SOL     OW32008   1.270   1.986   6.181 -0.2851  0.0445  0.3124
 6849SOL    HW132009   1.199   1.925   6.202 -1.6121  1.2920 -0.5408
 6849SOL    HW232010   1.352   1.936   6.187 -0.7463 -0.5444  1.7097
 6850SOL     OW32011   1.354   0.959   8.642  0.0714  0.0278  0.1806
 6850SOL    HW132012   1.444   0.947   8.673  0.3847 -1.5382 -1.3524
 6850SOL    HW232013   1.309   0.978   8.725  0.2104  1.1386 -0.0054
 6851SOL     OW32014   1.735   2.040  17.647 -0.7383 -0.0275  0.4392
 6851SOL    HW132015   1.790   1.967  17.618  0.2061  0.4000  1.1379
 6851SOL    HW232016   1.785   2.112  17.609  0.3397 -0.5185  0.9180
 6852SOL     OW32017   2.875   2.867   2.809 -0.0840 -0.0767  0.0665
 6852SOL    HW132018   2.944   2.881   2.873 -1.9022  1.9774  1.5907
 6852SOL    HW232019   2.820   2.942   2.832  1.6338  0.6133  1.9290
 6853SOL     OW32020   1.972   4.532   0.263 -0.4320  0.4250 -0.0631
 6853SOL    HW132021   1.903   4.595   0.241 -0.9649 -0.9470 -2.4032
 6853SOL    HW232022   1.978   4.488   0.178  0.3813 -1.9194  1.1963
 6854SOL     OW32023   0.309   2.640   7.743  0.1821  0.4289 -0.8382
 6854SOL    HW132024   0.276   2.725   7.772 -1.2406  0.5885 -2.9029
 6854SOL    HW232025   0.311   2.655   7.648 -0.8025  0.2742 -0.8882
 6855SOL     OW32026   0.015   4.682   7.534  0.8424  0.0313 -0.3329
 6855SOL    HW132027   0.077   4.614   7.509 -0.5857 -1.0835 -0.8826
 6855SOL    HW232028   0.013   4.682   7.629  0.9690  3.1542 -0.3243
 6856SOL     OW32029   4.192   0.082  13.954 -0.3083  0.1742  0.8731
 6856SOL    HW132030   4.115   0.073  14.011 -1.6756 -0.5875 -1.0911
 6856SOL    HW232031   4.256   0.023  13.994 -0.6951  0.1480  1.4582
 6857SOL     OW32032   3.558   1.537   9.151  0.0490  0.3386 -0.0604
 6857SOL    HW132033   3.534   1.495   9.069  2.2468  2.8416 -1.9823
 6857SOL    HW232034   3.547   1.462   9.210  0.8929  0.8953  0.8175
 6858SOL     OW32035   0.480   3.377   4.820 -0.3804  0.1785  0.1983
 6858SOL    HW132036   0.497   3.451   4.879 -0.9317 -0.5145  1.2201
 6858SOL    HW232037   0.481   3.428   4.739  1.2869  0.7960  0.6073
 6859SOL     OW32038   1.581   1.791   5.376 -0.1150  0.2228  0.0797
 6859SOL    HW132039   1.665   1.777   5.419 -1.2503 -4.5814  0.6657
 6859SOL    HW232040   1.577   1.887   5.371  1.9892  0.3247  0.2618
 6860SOL     OW32041   1.225   0.715   8.650  0.2900 -0.1858  0.1447
 6860SOL    HW132042   1.302   0.681   8.603  1.0469  2.5726 -0.6067
 6860SOL    HW232043   1.241   0.808   8.640  0.6398 -0.2361  0.2331
 6861SOL     OW32044   0.235   1.132  14.602  0.0595 -0.0574  0.3197
 6861SOL    HW132045   0.155   1.152  14.552 -0.5489 -1.3823  0.7835
 6861SOL    HW232046   0.244   1.211  14.655  0.0386 -1.1334  1.9248
 6862SOL     OW32047   3.648   2.985   1.225  0.2440 -0.0011  0.4237
 6862SOL    HW132048   3.558   3.003   1.198 -0.0447 -0.4525  1.1159
 6862SOL    HW232049   3.684   3.072   1.204 -2.1055  1.0035  0.5457
 6863SOL     OW32050   0.077   3.793  15.717 -0.3569 -0.3701  0.0911
 6863SOL    HW132051   0.114   3.827  15.636  0.8802  0.8801  1.1676
 6863SOL    HW232052   0.060   3.703  15.691  1.9466 -0.3776 -1.3638
 6864SOL     OW32053   1.470   2.395   9.257 -0.1670 -0.1748 -0.3761
 6864SOL    HW132054   1.525   2.328   9.217 -0.7157 -1.1739  0.5653
 6864SOL    HW232055   1.472   2.371   9.349 -0.9171 -1.1681 -0.6299
 6865SOL     OW32056   3.415   4.286   5.609 -0.1699  0.5937 -0.2658
 6865SOL    HW132057   3.411   4.257   5.700  1.1807 -0.9188 -0.6866
 6865SOL    HW232058   3.506   4.314   5.600  0.4720 -1.0877  0.9207
 6866SOL     OW32059   4.676   3.982   1.758 -0.2851 -0.1346 -0.3654
 6866SOL    HW132060   4.653   4.070   1.786 -0.3937  0.3092 -1.8151
 6866SOL    HW232061   4.599   3.940   1.794  0.2394 -0.2861  0.5784
 6867SOL     OW32062   2.897   1.765   7.581  0.3499  0.5895 -0.1761
 6867SOL    HW132063   2.922   1.673   7.597 -1.2131  0.5060  1.8635
 6867SOL    HW232064   2.842   1.753   7.504 -0.0562 -3.1446  0.6615
 6868SOL     OW32065   4.713   1.581   7.896 -0.0474 -0.1693  0.0982
 6868SOL    HW132066   4.682   1.511   7.953 -0.5171 -1.8361 -2.1809
 6868SOL    HW232067   0.082   1.566   7.916 -0.1653 -1.4775 -0.2994
 6869SOL     OW32068   3.961   3.668   5.993  0.2804  0.4776 -0.5751
 6869SOL    HW132069   3.984   3.726   6.065  1.2442 -1.2781  0.5189
 6869SOL    HW232070   3.879   3.707   5.962  2.3331  2.9039 -2.9569
 6870SOL     OW32071   2.038   3.734   8.885  0.1966 -0.1470  0.0881
 6870SOL    HW132072   1.954   3.707   8.923  0.4394  1.0704  1.4894
 6870SOL    HW232073   2.074   3.646   8.873  1.4534  0.2351  1.0034
 6871SOL     OW32074   3.036   4.316   6.798  0.0111 -0.1548  0.2208
 6871SOL    HW132075   3.061   4.347   6.711 -3.2662  1.9084  0.0292
 6871SOL    HW232076   3.012   4.227   6.773 -0.9375  0.4526 -1.0577
 6872SOL     OW32077   0.314   3.464   9.334  0.1107  0.1774  0.7481
 6872SOL    HW132078   0.225   3.430   9.335  0.6520 -1.2113  2.2884
 6872SOL    HW232079   0.306   3.555   9.306  2.1202 -0.0732 -0.6633
 6873SOL     OW32080   1.881   3.873   2.370 -0.0705 -0.4116  0.1222
 6873SOL    HW132081   1.917   3.950   2.324 -1.8874 -0.0586 -0.7178
 6873SOL    HW232082   1.930   3.799   2.335  0.3756  0.4313 -1.0834
 6874SOL     OW32083   2.654   4.633   8.236 -0.3983 -0.7925  0.1244
 6874SOL    HW132084   2.661   4.563   8.300 -2.2510  0.5023  1.7652
 6874SOL    HW232085   2.646   4.592   8.150 -1.8999  0.5142 -0.3604
 6875SOL     OW32086   0.280   1.857   8.092 -0.2482  0.5948  0.2571
 6875SOL    HW132087   0.210   1.793   8.106 -0.3322  0.7509  0.5395
 6875SOL    HW232088   0.279   1.858   7.996  0.7717  2.5794  0.2656
 6876SOL     OW32089   0.635   0.142   7.747 -0.3634 -0.8309 -0.5126
 6876SOL    HW132090   0.559   0.085   7.749 -0.6189 -0.3755  2.2596
 6876SOL    HW232091   0.709   0.080   7.747  0.0187 -0.3743  0.1763
 6877SOL     OW32092   0.632   2.729   4.521  0.1724 -0.5804  0.1074
 6877SOL    HW132093   0.663   2.687   4.601 -1.4204 -1.8279  0.0668
 6877SOL    HW232094   0.562   2.670   4.493 -1.3988  1.2689  0.1134
 6878SOL     OW32095   4.553   3.042   7.926  0.3044 -0.1719 -0.4335
 6878SOL    HW132096   4.584   2.951   7.927  1.6165  0.2629 -1.4900
 6878SOL    HW232097   4.619   3.080   7.984 -0.0232 -1.3265  0.7048
 6879SOL     OW32098   2.685   3.776   7.670 -0.6074 -0.0795  0.2399
 6879SOL    HW132099   2.739   3.698   7.681  1.3051  1.5068  2.1262
 6879SOL    HW232100   2.674   3.803   7.762 -0.0156  1.4328 -0.1331
 6880SOL     OW32101   0.298   1.067  11.737  0.5056  0.3111 -0.1933
 6880SOL    HW132102   0.338   1.053  11.651  1.1896 -0.4003  0.2522
 6880SOL    HW232103   0.374   1.081  11.793  0.7625 -3.2298  0.3457
 6881SOL     OW32104   4.345   3.161   6.673  0.0971 -0.1194 -0.0388
 6881SOL    HW132105   4.297   3.221   6.617 -1.9339 -1.8441 -0.1556
 6881SOL    HW232106   4.368   3.213   6.750 -0.5103  2.6273 -1.7162
 6882SOL     OW32107   1.278   3.076  16.630  0.1938 -0.1473 -0.2859
 6882SOL    HW132108   1.219   3.150  16.617 -2.6510 -1.9737  2.1677
 6882SOL    HW232109   1.312   3.078  16.540  0.0480 -0.7927 -0.3580
 6883SOL     OW32110   2.960   2.865   9.971 -0.0014  0.5353 -0.5495
 6883SOL    HW132111   2.903   2.810   9.917 -0.1363  1.7827 -1.6978
 6883SOL    HW232112   2.911   2.861  10.053  1.9366  0.6265  0.6029
 6884SOL     OW32113   2.016   3.079   4.702 -0.1078 -0.1245 -0.3205
 6884SOL    HW132114   2.004   3.124   4.785  0.1254 -1.0920  0.2379
 6884SOL    HW232115   1.953   3.124   4.645  0.0076 -1.4110 -1.4595
 6885SOL     OW32116   3.724   0.303   0.466  0.8763  0.1031  0.2356
 6885SOL    HW132117   3.679   0.243   0.526  1.4180 -0.7658 -0.2204
 6885SOL    HW232118   3.649   0.356   0.441  1.0914  0.6932  0.8419
 6886SOL     OW32119   0.818   3.821  17.118  0.5826  0.9889 -0.5727
 6886SOL    HW132120   0.868   3.893  17.080  1.2593  0.3481 -0.8967
 6886SOL    HW232121   0.871   3.798  17.194 -0.2185  1.3780  0.0929
 6887SOL     OW32122   4.169   3.850  11.748 -0.2252  0.0774  0.7211
 6887SOL    HW132123   4.081   3.828  11.778 -0.3148  0.1969  0.5423
 6887SOL    HW232124   4.162   3.945  11.757  2.1243  0.4071 -0.9791
 6888SOL     OW32125   0.373   2.607  10.625 -0.1113  0.1248  0.6362
 6888SOL    HW132126   0.435   2.591  10.695  0.0094 -0.9938  0.2695
 6888SOL    HW232127   0.311   2.674  10.655 -1.6864 -1.6725  1.3800
 6889SOL     OW32128   0.313   1.746  10.596 -0.2611  0.9290 -0.4818
 6889SOL    HW132129   0.321   1.745  10.691  2.2115  0.7480 -0.6771
 6889SOL    HW232130   0.244   1.683  10.576 -1.3989  2.2398 -0.7054
 6890SOL     OW32131   1.627   3.137  17.441  0.2710  0.2630  0.0925
 6890SOL    HW132132   1.669   3.107  17.522  0.4830  0.8650  0.2121
 6890SOL    HW232133   1.677   3.087  17.377 -0.4538  0.6085 -0.7327
 6891SOL     OW32134   0.451   2.864   3.162 -0.1519  0.2175  0.4080
 6891SOL    HW132135   0.516   2.933   3.164 -0.1983  0.3025 -1.0634
 6891SOL    HW232136   0.413   2.887   3.077  0.7575 -0.9751 -0.3099
 6892SOL     OW32137   4.646   2.113   1.400  0.2392 -0.1340 -0.1617
 6892SOL    HW132138   0.012   2.105   1.431  0.2086 -2.0920 -0.6067
 6892SOL    HW232139   4.640   2.208   1.392 -0.0334 -0.0021  1.7029
 6893SOL     OW32140   3.027   2.659   6.896 -0.3099  0.3362 -0.6018
 6893SOL    HW132141   3.047   2.649   6.803 -1.4547 -1.3763 -0.6787
 6893SOL    HW232142   2.963   2.588   6.897  1.8041 -1.6302 -1.7698
 6894SOL     OW32143   3.777   0.072   6.746 -0.2160  0.0533  0.1477
 6894SOL    HW132144   3.855   0.128   6.751 -1.3247  1.5302  0.8314
 6894SOL    HW232145   3.812   4.710   6.769 -0.1323 -0.4527 -1.8877
 6895SOL     OW32146   2.885   0.358  13.682  0.7055  0.5546  0.2945
 6895SOL    HW132147   2.820   0.308  13.731  1.2706 -0.0754  0.4140
 6895SOL    HW232148   2.885   0.439  13.733  1.9289  0.2846  0.7144
 6896SOL     OW32149   3.260   0.186  14.379 -0.1936  0.3853  0.2681
 6896SOL    HW132150   3.328   0.253  14.391  0.1904  0.0958 -0.3036
 6896SOL    HW232151   3.314   0.111  14.405 -1.0877 -0.4288 -0.2322
 6897SOL     OW32152   1.359   0.448   7.235  0.7253  0.3577 -0.3859
 6897SOL    HW132153   1.319   0.490   7.311 -1.0546  0.0277 -1.1621
 6897SOL    HW232154   1.337   0.512   7.168 -1.1742  2.4089  2.1964
 6898SOL     OW32155   2.743   1.048   4.010 -0.2938 -0.3717  0.4367
 6898SOL    HW132156   2.803   1.073   4.081 -0.1026 -1.0248  0.5119
 6898SOL    HW232157   2.665   1.017   4.057 -3.0292  1.8528 -2.7254
 6899SOL     OW32158   2.537   4.638  14.120 -0.1954  0.5810  0.1974
 6899SOL    HW132159   2.478   4.711  14.143 -0.4987  1.6286 -3.8529
 6899SOL    HW232160   2.497   4.603  14.040 -0.4831  0.4207  0.4119
 6900SOL     OW32161   1.780   0.356  12.946 -0.0206  0.6104  0.3287
 6900SOL    HW132162   1.720   0.431  12.953  0.9370  1.6258 -2.4973
 6900SOL    HW232163   1.726   0.286  12.982 -1.8648  1.7673 -0.1819
 6901SOL     OW32164   1.027   2.793   6.756 -0.0894  0.5991 -0.9551
 6901SOL    HW132165   1.098   2.783   6.820  0.5162  0.0526 -1.7086
 6901SOL    HW232166   0.985   2.869   6.796 -0.6761  1.1604 -2.6550
 6902SOL     OW32167   4.004   0.219   6.756 -0.5859 -0.3057 -0.1415
 6902SOL    HW132168   4.033   0.279   6.824 -1.4022 -0.4103  0.2934
 6902SOL    HW232169   4.031   0.278   6.685 -1.4988  0.5675  0.2566
 6903SOL     OW32170   4.087   3.156  12.328  0.8722 -0.0048  0.3068
 6903SOL    HW132171   4.093   3.086  12.264 -1.9297 -0.7241  0.8207
 6903SOL    HW232172   4.087   3.111  12.413 -0.9838 -1.8337 -0.6558
 6904SOL     OW32173   3.346   3.841   8.240  0.0353  0.0106  0.0148
 6904SOL    HW132174   3.416   3.888   8.286  0.0841 -1.3960  1.3534
 6904SOL    HW232175   3.360   3.767   8.299 -1.1868  1.5290  2.2411
 6905SOL     OW32176   3.793   3.382  10.716  0.0636  0.0184  0.5821
 6905SOL    HW132177   3.807   3.477  10.708  0.6494 -0.1782 -0.7426
 6905SOL    HW232178   3.857   3.362  10.783  0.3924 -1.9294 -0.3191
 6906SOL     OW32179   1.241   4.654  14.075  0.9042  0.2320 -0.0505
 6906SOL    HW132180   1.334   4.648  14.097  1.0250  2.6179  0.0448
 6906SOL    HW232181   1.248   4.609  13.991  1.0941 -1.1249  0.6757
 6907SOL     OW32182   4.041   0.631   3.919  0.4754 -0.3058  0.4080
 6907SOL    HW132183   4.012   0.588   3.999  3.9771 -1.2710  1.1415
 6907SOL    HW232184   4.115   0.576   3.893 -0.1400 -1.0288  0.1708
 6908SOL     OW32185   1.341   4.169   4.944 -0.2666  0.4695 -0.0428
 6908SOL    HW132186   1.386   4.118   4.877 -0.1884 -0.5111  0.7456
 6908SOL    HW232187   1.350   4.252   4.898  2.6083  0.2288  0.0840
 6909SOL     OW32188   3.204   3.915   9.136  0.3750 -0.1013 -0.2387
 6909SOL    HW132189   3.162   3.829   9.147 -0.9930  0.7331  1.1512
 6909SOL    HW232190   3.298   3.900   9.132  0.3757  0.1067 -0.9369
 6910SOL     OW32191   3.239   0.238   8.221  0.0061 -0.4079  0.0700
 6910SOL    HW132192   3.234   0.215   8.128  0.0837 -1.0392  0.2172
 6910SOL    HW232193   3.255   0.149   8.252  0.1245 -0.6221 -0.5859
 6911SOL     OW32194   1.267   2.578   3.147  0.3155  0.1092 -0.3133
 6911SOL    HW132195   1.247   2.527   3.068  0.3441  0.0505 -0.2819
 6911SOL    HW232196   1.361   2.566   3.158  0.3284  0.7374  0.2289
 6912SOL     OW32197   0.784   3.134  15.142  0.8023  0.2634  0.0146
 6912SOL    HW132198   0.714   3.192  15.172 -0.4581  0.1805 -2.7328
 6912SOL    HW232199   0.856   3.165  15.197  0.4193  1.5880 -0.2209
 6913SOL     OW32200   1.507   3.467  10.917  0.0001  0.4571 -0.8653
 6913SOL    HW132201   1.515   3.402  10.846  1.9633 -0.6040  0.3338
 6913SOL    HW232202   1.573   3.435  10.978 -0.7357 -0.1804 -0.3932
 6914SOL     OW32203   1.985   0.958  16.544 -0.2819  0.0810 -0.4964
 6914SOL    HW132204   1.986   0.999  16.630  1.5927  0.2257 -0.5891
 6914SOL    HW232205   1.896   0.964  16.507 -1.5729 -0.7514  2.4777
 6915SOL     OW32206   4.469   1.630   8.629  0.0874 -0.1335 -0.2328
 6915SOL    HW132207   4.405   1.579   8.679 -0.5514 -0.0862 -1.0142
 6915SOL    HW232208   4.548   1.618   8.683 -0.8669  2.9750  1.8453
 6916SOL     OW32209   1.979   0.590   5.094  0.1961  0.2077  0.1594
 6916SOL    HW132210   1.935   0.654   5.150  1.2215 -0.6208  1.9097
 6916SOL    HW232211   1.908   0.564   5.034 -0.2434 -1.4374  1.4080
 6917SOL     OW32212   4.541   4.429  10.876 -0.0161  0.3961  0.3355
 6917SOL    HW132213   4.531   4.525  10.875  0.7474  0.5084  2.6278
 6917SOL    HW232214   4.453   4.401  10.853  0.2193  0.5604 -0.7440
 6918SOL     OW32215   1.853   4.473  11.489 -0.0270  0.1060 -0.1573
 6918SOL    HW132216   1.898   4.496  11.407  1.0038 -1.4079 -0.0164
 6918SOL    HW232217   1.918   4.441  11.551  0.8878  0.8975 -0.6944
 6919SOL     OW32218   2.981   3.876   9.455  0.1918  0.0684 -0.0487
 6919SOL    HW132219   3.076   3.885   9.447  0.3590  0.0706  1.9700
 6919SOL    HW232220   2.974   3.840   9.543 -0.9540  0.5129  0.0340
 6920SOL     OW32221   2.225   1.358   6.096  0.2120 -0.5527 -0.2150
 6920SOL    HW132222   2.280   1.427   6.134  1.8255 -1.3713 -1.0572
 6920SOL    HW232223   2.185   1.412   6.028 -0.2942  0.0586  0.5695
 6921SOL     OW32224   1.549   2.418   4.266 -0.1505 -0.1081  0.0318
 6921SOL    HW132225   1.493   2.437   4.341 -0.6133  0.6611 -0.5102
 6921SOL    HW232226   1.544   2.504   4.226 -0.9730 -0.3988 -0.4994
 6922SOL     OW32227   2.671   4.333   2.142 -0.1367 -0.2563 -0.2940
 6922SOL    HW132228   2.729   4.263   2.114  0.6764  1.2156 -2.2500
 6922SOL    HW232229   2.625   4.350   2.059  0.9042  0.3809 -0.7349
 6923SOL     OW32230   1.343   3.745   8.804 -0.1137  0.1484 -0.0170
 6923SOL    HW132231   1.388   3.807   8.862 -0.2745 -2.5985  3.0086
 6923SOL    HW232232   1.302   3.811   8.748 -0.6862 -0.3680 -0.2001
 6924SOL     OW32233   2.123   2.650   9.550 -0.1652  1.0074  0.5171
 6924SOL    HW132234   2.146   2.743   9.545  0.6888  0.9495  3.4609
 6924SOL    HW232235   2.037   2.644   9.509  0.2426 -0.3719 -0.1392
 6925SOL     OW32236   4.008   3.180   2.444 -0.0229 -0.2406 -0.1728
 6925SOL    HW132237   4.081   3.175   2.382  0.5952  1.5965  0.4252
 6925SOL    HW232238   4.048   3.153   2.527  3.0732  1.7024 -1.0300
 6926SOL     OW32239   3.622   3.112   6.370  0.4496 -0.0025 -0.1001
 6926SOL    HW132240   3.547   3.113   6.310  0.6999 -1.4065 -0.4337
 6926SOL    HW232241   3.623   3.022   6.400  1.0860 -0.4303 -1.4093
 6927SOL     OW32242   1.898   3.855   7.042  0.0474  0.4277 -0.2085
 6927SOL    HW132243   1.853   3.780   7.080  1.5406  0.9584  2.5918
 6927SOL    HW232244   1.903   3.835   6.949 -0.0800 -1.6423  0.2356
 6928SOL     OW32245   3.836   1.867   9.693  0.0330 -1.1153 -0.1369
 6928SOL    HW132246   3.849   1.897   9.783 -1.7500 -2.4197  0.5434
 6928SOL    HW232247   3.896   1.793   9.694 -1.2844 -2.1887 -1.7436
 6929SOL     OW32248   1.309   1.453   3.169 -0.1421 -0.3271  0.3089
 6929SOL    HW132249   1.364   1.412   3.236  0.7643 -2.4470 -1.7132
 6929SOL    HW232250   1.239   1.492   3.221 -2.3334  0.4245 -3.2293
 6930SOL     OW32251   0.084   4.379  10.977 -0.1837  0.1426 -0.5453
 6930SOL    HW132252   0.001   4.428  10.975 -0.1815  0.2593  1.7569
 6930SOL    HW232253   0.143   4.451  10.954 -2.1672  2.2313  0.8584
 6931SOL     OW32254   0.238   2.208   5.825 -0.0592 -0.7991 -0.3545
 6931SOL    HW132255   0.203   2.204   5.914  1.1323 -0.6319  0.1222
 6931SOL    HW232256   0.279   2.294   5.830 -1.2138 -0.1279 -2.1913
 6932SOL     OW32257   2.950   3.694   6.779 -0.3159  0.2618 -0.0688
 6932SOL    HW132258   2.920   3.658   6.696  0.4350 -1.7406  0.5222
 6932SOL    HW232259   2.906   3.636   6.841 -0.7803 -0.4195 -1.0416
 6933SOL     OW32260   4.340   4.017  12.219 -0.4102  0.1805  1.2614
 6933SOL    HW132261   4.427   3.984  12.198 -0.5149  0.2801  0.6455
 6933SOL    HW232262   4.303   3.945  12.270 -0.1626  0.0106  1.1969
 6934SOL     OW32263   0.721   1.231   2.939  0.0443 -0.0675 -0.4302
 6934SOL    HW132264   0.750   1.302   2.995 -1.7020  0.2482  0.0757
 6934SOL    HW232265   0.730   1.155   2.996 -0.5792 -0.6943 -1.1719
 6935SOL     OW32266   2.839   0.486   4.622  0.0013  0.0195  0.2145
 6935SOL    HW132267   2.799   0.557   4.672  0.7529 -1.1689  2.5433
 6935SOL    HW232268   2.772   0.418   4.626 -0.1044  0.0299 -1.5875
 6936SOL     OW32269   0.543   1.436   6.992 -0.3565 -0.0582 -0.5674
 6936SOL    HW132270   0.566   1.344   6.975 -0.5119 -0.3572  0.8501
 6936SOL    HW232271   0.584   1.442   7.078  0.7797 -0.9448 -1.0391
 6937SOL     OW32272   4.514   0.911   4.399 -0.5867 -0.5658 -0.5532
 6937SOL    HW132273   4.572   0.965   4.346  0.8562 -1.2265  0.3555
 6937SOL    HW232274   4.572   0.847   4.441  1.4938  0.7505 -1.4109
 6938SOL     OW32275   2.286   2.447   2.390 -0.2124  0.5475 -0.3020
 6938SOL    HW132276   2.333   2.365   2.401 -1.7676 -0.3478 -0.2707
 6938SOL    HW232277   2.204   2.414   2.426  0.5463 -2.4699 -1.3668
 6939SOL     OW32278   4.292   3.521  14.253  0.1831 -0.2685  0.1647
 6939SOL    HW132279   4.228   3.451  14.266  0.6009 -0.4744  1.0895
 6939SOL    HW232280   4.253   3.565  14.177 -0.7419 -1.8303 -0.2572
 6940SOL     OW32281   0.565   4.470   7.737 -0.1052 -0.0605  0.0713
 6940SOL    HW132282   0.538   4.427   7.655 -2.3647  0.5404  0.4950
 6940SOL    HW232283   0.480   4.461   7.780 -0.8232 -0.5980 -1.4435
 6941SOL     OW32284   0.261   3.660   2.795  0.0296  0.5593  0.2300
 6941SOL    HW132285   0.238   3.630   2.707  0.3186 -0.6249  0.5632
 6941SOL    HW232286   0.319   3.735   2.778  1.7132 -1.0729 -1.1184
 6942SOL     OW32287   3.657   3.549   3.050 -0.3125 -0.0514  0.3169
 6942SOL    HW132288   3.591   3.609   3.084 -0.2149 -0.0093  0.4332
 6942SOL    HW232289   3.698   3.512   3.128  0.7530  1.1704  0.3402
 6943SOL     OW32290   2.098   2.076   3.519  0.3831  0.2824 -0.3685
 6943SOL    HW132291   2.128   2.128   3.594 -0.5598 -0.1325  0.2891
 6943SOL    HW232292   2.013   2.045   3.550 -0.6216  1.7960 -1.6061
 6944SOL     OW32293   1.079   3.719  10.869 -0.0361 -0.1933 -0.5560
 6944SOL    HW132294   1.001   3.691  10.918 -0.3981  2.0208  0.1130
 6944SOL    HW232295   1.142   3.693  10.936 -0.4149 -0.0581 -0.1476
 6945SOL     OW32296   3.104   0.876   1.909  0.0306  0.2477  0.3752
 6945SOL    HW132297   3.187   0.845   1.946 -0.3966  0.7395  1.7297
 6945SOL    HW232298   3.118   0.864   1.815  1.6799  2.1466  0.3709
 6946SOL     OW32299   0.601   1.242   7.432 -0.9381  0.1665 -0.1446
 6946SOL    HW132300   0.597   1.294   7.512  2.8357  0.8379 -0.3846
 6946SOL    HW232301   0.513   1.216   7.405  0.0435 -3.2769 -0.0303
 6947SOL     OW32302   0.438   4.661   5.322 -0.5180  0.5326  0.3645
 6947SOL    HW132303   0.344   4.646   5.322 -0.5011  0.4335 -0.8932
 6947SOL    HW232304   0.454   0.005   5.256  1.2269  0.2584  0.5027
 6948SOL     OW32305   2.224   3.853   1.897  0.5489 -0.9621  0.0715
 6948SOL    HW132306   2.194   3.841   1.987  1.6181 -1.1651  0.4119
 6948SOL    HW232307   2.308   3.899   1.909  0.6389 -1.2540  0.5716
 6949SOL     OW32308   2.575   0.802   6.695  0.0728 -0.7251 -0.1098
 6949SOL    HW132309   2.650   0.817   6.753  1.0509  1.2305 -1.8655
 6949SOL    HW232310   2.550   0.713   6.721 -0.2863 -0.6867 -0.3275
 6950SOL     OW32311   0.642   3.300  13.598  0.1294 -0.2652  0.0068
 6950SOL    HW132312   0.737   3.309  13.603 -0.1220  0.9447  2.6039
 6950SOL    HW232313   0.632   3.209  13.627  0.2280  0.1664  1.3493
 6951SOL     OW32314   0.797   3.671   8.704 -0.5328 -0.3950 -0.0961
 6951SOL    HW132315   0.771   3.584   8.733 -2.4214  0.8213  1.7869
 6951SOL    HW232316   0.811   3.650   8.612 -1.0802  0.7333 -0.4380
 6952SOL     OW32317   2.840   2.150  15.395  0.5179  0.1431  0.5974
 6952SOL    HW132318   2.932   2.127  15.389  0.7136  1.1687 -0.4145
 6952SOL    HW232319   2.836   2.214  15.466 -1.7074  1.2232 -0.4872
 6953SOL     OW32320   2.276   4.380  16.301  0.4663  0.3999  0.0987
 6953SOL    HW132321   2.309   4.368  16.212  0.4012  0.2868  0.0904
 6953SOL    HW232322   2.330   4.317  16.349  0.1331  0.0498  0.0129
 6954SOL     OW32323   3.000   2.973   3.025 -0.0710  0.1341 -0.2861
 6954SOL    HW132324   2.954   3.007   3.102 -2.4044 -1.6592 -0.8730
 6954SOL    HW232325   3.071   3.034   3.008  0.2388 -0.2167 -0.2348
 6955SOL     OW32326   3.499   4.157   9.807  0.3178 -0.0008  0.1419
 6955SOL    HW132327   3.553   4.158   9.886 -0.5071 -2.1145  0.7375
 6955SOL    HW232328   3.446   4.234   9.828 -1.3116 -1.0695 -0.0613
 6956SOL     OW32329   4.025   0.361   7.918  1.0522 -0.2928 -0.0794
 6956SOL    HW132330   3.985   0.283   7.954  3.0312 -0.8019  1.0217
 6956SOL    HW232331   4.074   0.388   7.996  1.0816 -1.5350  0.3207
 6957SOL     OW32332   4.604   1.472   5.908  0.0214  0.3920 -0.6895
 6957SOL    HW132333   4.612   1.514   5.823  1.2026  0.2664 -0.6444
 6957SOL    HW232334   4.547   1.536   5.950 -0.8416  0.2863 -1.6950
 6958SOL     OW32335   3.676   0.746  12.804  0.0496  0.4296 -0.4108
 6958SOL    HW132336   3.653   0.823  12.751 -2.6110 -0.3786 -0.4245
 6958SOL    HW232337   3.760   0.770  12.844  0.1015 -0.9539  0.3110
 6959SOL     OW32338   2.851   2.023   0.735  0.1790  0.1921 -0.2631
 6959SOL    HW132339   2.854   1.928   0.747  2.8358  0.1465 -1.2132
 6959SOL    HW232340   2.766   2.048   0.770  0.5152  0.5985  0.2583
 6960SOL     OW32341   1.011   2.240   7.055  0.4766 -0.1061  0.6039
 6960SOL    HW132342   0.948   2.195   7.111  0.3008  2.5324  2.5230
 6960SOL    HW232343   0.957   2.310   7.016  0.3428  0.9044  2.6395
 6961SOL     OW32344   1.792   0.291  12.464  0.3289  0.8180 -0.3385
 6961SOL    HW132345   1.775   0.245  12.546 -1.7069  2.1640  0.0101
 6961SOL    HW232346   1.887   0.299  12.468  0.2344  1.2534  1.1886
 6962SOL     OW32347   3.515   0.240   0.195 -0.0541 -0.1370  0.4235
 6962SOL    HW132348   3.499   0.324   0.238 -0.5925 -0.5843  1.1197
 6962SOL    HW232349   3.462   0.182   0.250 -0.8077 -0.6944 -0.8956
 6963SOL     OW32350   1.154   2.879   8.988 -0.0075  0.6227  0.4068
 6963SOL    HW132351   1.071   2.926   8.988 -0.0090  0.6112 -1.0615
 6963SOL    HW232352   1.122   2.799   9.028 -1.5496 -0.2973 -2.6546
 6964SOL     OW32353   1.520   3.511  15.189  0.0243  0.3416 -0.0843
 6964SOL    HW132354   1.428   3.536  15.188 -0.0293  0.1660  0.7196
 6964SOL    HW232355   1.502   3.422  15.220  1.2751  0.3248  0.5820
 6965SOL     OW32356   3.626   2.046   2.452  0.4291 -0.7285 -0.2718
 6965SOL    HW132357   3.627   2.133   2.412  2.1718  0.3372  2.1061
 6965SOL    HW232358   3.535   2.041   2.480  0.4161  1.5890  0.1263
 6966SOL     OW32359   2.410   0.173   3.927 -0.1406 -0.0556  0.5101
 6966SOL    HW132360   2.503   0.169   3.902  0.3274 -0.2311  2.3113
 6966SOL    HW232361   2.408   0.081   3.954 -0.2462  0.2733  1.6239
 6967SOL     OW32362   0.374   2.003  13.184  0.9099  0.1452 -0.0844
 6967SOL    HW132363   0.324   2.079  13.215  0.3823  0.5405 -1.9518
 6967SOL    HW232364   0.302   1.968  13.131 -0.3639  0.8122  1.1815
 6968SOL     OW32365   2.444   2.534   3.909 -0.1089  0.2699  0.4199
 6968SOL    HW132366   2.375   2.521   3.844 -0.3717  1.1494  0.5197
 6968SOL    HW232367   2.521   2.498   3.866 -0.8284  0.0502 -0.6926
 6969SOL     OW32368   1.024   2.325   3.244 -0.5866  0.7181 -0.0012
 6969SOL    HW132369   1.031   2.406   3.293 -0.2678  0.5177  0.2859
 6969SOL    HW232370   1.026   2.352   3.152 -1.4690  0.0488 -0.2140
 6970SOL     OW32371   1.061   1.673   1.499  0.1613 -0.4896 -0.1495
 6970SOL    HW132372   1.151   1.646   1.517  0.7826  2.5004  1.2788
 6970SOL    HW232373   1.011   1.592   1.492  0.8293 -0.9209  0.2073
 6971SOL     OW32374   4.394   2.960  12.758  0.1519  0.1422  0.7148
 6971SOL    HW132375   4.399   2.992  12.668  0.9428  0.4542  0.8678
 6971SOL    HW232376   4.310   2.914  12.756 -0.5845  1.4972  0.5071
 6972SOL     OW32377   1.424   1.193   3.949 -0.8458 -0.1382 -0.4132
 6972SOL    HW132378   1.485   1.131   3.910 -1.9849 -0.5026 -1.6343
 6972SOL    HW232379   1.382   1.233   3.873  0.6743 -1.1561 -1.7803
 6973SOL     OW32380   4.038   0.772   5.528 -0.4915 -0.3083 -0.1844
 6973SOL    HW132381   4.074   0.802   5.444  1.3922  2.0103  1.4436
 6973SOL    HW232382   4.022   0.678   5.516 -0.7600 -0.6485  2.9126
 6974SOL     OW32383   3.161   2.052   0.913  0.3350 -0.2616 -0.7243
 6974SOL    HW132384   3.118   2.051   0.999  0.0330  1.6543 -0.8469
 6974SOL    HW232385   3.252   2.046   0.944  0.3225  0.4286 -0.5436
 6975SOL     OW32386   1.477   0.753   0.618 -0.1077 -0.8732  0.2174
 6975SOL    HW132387   1.411   0.692   0.585 -1.0340 -0.0627  0.5698
 6975SOL    HW232388   1.549   0.735   0.557 -0.2246 -1.0329  0.1268
 6976SOL     OW32389   1.348   2.219   1.235 -0.2164  0.2365 -0.0493
 6976SOL    HW132390   1.301   2.302   1.228  0.5356  0.9781  3.7062
 6976SOL    HW232391   1.287   2.178   1.175 -0.6618  0.6226  0.1403
 6977SOL     OW32392   1.966   4.515   5.952  0.3394 -0.1133 -0.3371
 6977SOL    HW132393   1.929   4.584   6.008  1.0282  0.3981 -0.5202
 6977SOL    HW232394   1.887   4.460   5.959  1.4348 -1.7069 -0.5130
 6978SOL     OW32395   2.353   0.538   0.921  0.7577 -0.4774  0.1829
 6978SOL    HW132396   2.328   0.628   0.899  1.5691  0.2670  2.2992
 6978SOL    HW232397   2.423   0.535   0.855 -1.0296  1.5626 -1.8080
 6979SOL     OW32398   1.942   4.600   7.469  0.1084  1.0116 -0.4251
 6979SOL    HW132399   1.934   4.629   7.559 -0.2453 -0.1340 -0.0832
 6979SOL    HW232400   2.034   4.577   7.458 -0.5016 -1.1621 -1.1233
 6980SOL     OW32401   2.725   0.375  16.694 -0.0036  0.3856 -0.0190
 6980SOL    HW132402   2.742   0.447  16.754  1.3528  0.8491 -0.9637
 6980SOL    HW232403   2.806   0.325  16.697 -0.4098 -0.1054  2.3914
 6981SOL     OW32404   2.296   2.805   5.703  0.0583 -0.2523 -0.2475
 6981SOL    HW132405   2.300   2.793   5.798  1.6206 -0.7086 -0.3695
 6981SOL    HW232406   2.202   2.797   5.693  0.5296 -1.8532 -3.6883
 6982SOL     OW32407   0.439   1.265  11.883 -0.2610  0.1061  0.3301
 6982SOL    HW132408   0.365   1.325  11.887 -0.1350  0.3242 -0.5447
 6982SOL    HW232409   0.486   1.300  11.807  0.5252  3.6758  2.5188
 6983SOL     OW32410   2.928   4.624   0.817  0.2490 -0.2090 -0.5594
 6983SOL    HW132411   2.903   4.711   0.786  1.5601 -0.2633 -1.7847
 6983SOL    HW232412   3.023   4.627   0.819  0.2466 -2.1326  1.8400
 6984SOL     OW32413   3.331   4.543   9.085  0.1104 -0.2591  0.0493
 6984SOL    HW132414   3.367   4.464   9.046  0.4246 -0.0899 -0.0005
 6984SOL    HW232415   3.240   4.515   9.098  0.3953 -0.7684  0.9445
 6985SOL     OW32416   0.165   3.801   8.958  0.5796 -0.4242  0.4883
 6985SOL    HW132417   0.087   3.822   8.907  0.5205 -1.3892  0.1752
 6985SOL    HW232418   0.130   3.792   9.047 -1.0684  1.0325 -0.0311
 6986SOL     OW32419   0.205   3.468  10.913  0.2912  0.3173 -0.0359
 6986SOL    HW132420   0.155   3.519  10.977  1.2343  0.4754  0.5760
 6986SOL    HW232421   0.160   3.383  10.907 -0.4850  0.7931 -0.9583
 6987SOL     OW32422   0.691   4.203   7.821  0.0064  0.5265 -0.1011
 6987SOL    HW132423   0.623   4.244   7.875  1.4085  1.6677  0.8110
 6987SOL    HW232424   0.653   4.216   7.734  1.5893  0.7174 -0.7637
 6988SOL     OW32425   4.386   4.502   6.336  0.0328 -0.2548 -0.1229
 6988SOL    HW132426   4.363   4.518   6.245  2.0396  2.8283 -0.0818
 6988SOL    HW232427   4.420   4.414   6.326  1.9865  0.2239  2.4067
 6989SOL     OW32428   1.450   2.306  10.252 -0.4928  0.6378  0.1985
 6989SOL    HW132429   1.458   2.362  10.328 -0.3897  0.9492 -0.0420
 6989SOL    HW232430   1.527   2.250  10.259 -0.3916  0.7399 -0.0933
 6990SOL     OW32431   2.452   0.627   1.584  0.2322 -0.6865 -0.3403
 6990SOL    HW132432   2.536   0.582   1.582  0.5953  0.0056 -0.4099
 6990SOL    HW232433   2.449   0.671   1.499  1.5043 -0.1802 -0.1203
 6991SOL     OW32434   3.434   3.637   5.626  0.2781  0.2157 -0.4927
 6991SOL    HW132435   3.485   3.557   5.615 -0.3995  0.0817 -2.5332
 6991SOL    HW232436   3.489   3.709   5.594 -1.4393  2.0824  0.7202
 6992SOL     OW32437   3.734   1.464   7.064  0.2391 -0.0607 -0.1880
 6992SOL    HW132438   3.687   1.519   7.126 -0.1383  0.3507 -0.8369
 6992SOL    HW232439   3.714   1.379   7.103 -2.6787 -0.4204 -2.4854
 6993SOL     OW32440   3.335   3.347   2.057  0.7100 -0.1104 -0.4009
 6993SOL    HW132441   3.377   3.340   2.143  1.0607 -1.2987 -0.6782
 6993SOL    HW232442   3.284   3.428   2.065 -0.9146 -0.9088 -2.7966
 6994SOL     OW32443   3.049   3.250   7.030 -0.4048 -0.1012  0.5241
 6994SOL    HW132444   3.086   3.246   7.118  1.3057  0.6039 -0.1617
 6994SOL    HW232445   3.073   3.340   7.009  0.9748  0.3125  3.9097
 6995SOL     OW32446   2.322   4.396   8.016  0.2617  0.5721  0.1657
 6995SOL    HW132447   2.281   4.433   7.938  2.6182  0.2767 -1.2295
 6995SOL    HW232448   2.322   4.467   8.081 -1.4824 -0.4995  1.3271
 6996SOL     OW32449   0.037   1.712   6.322  0.4002 -0.6159 -0.9533
 6996SOL    HW132450   0.107   1.699   6.258  1.0901  0.3046 -0.3839
 6996SOL    HW232451   4.716   1.631   6.299  0.6360 -1.8463  2.9080
 6997SOL     OW32452   0.608   1.909   3.055  0.5584 -0.0701  0.4169
 6997SOL    HW132453   0.531   1.864   3.020  1.6971 -2.3216  0.7751
 6997SOL    HW232454   0.662   1.840   3.095  2.4964  0.8617 -0.5424
 6998SOL     OW32455   1.774   0.421   8.227  0.2781  0.1454 -0.0085
 6998SOL    HW132456   1.818   0.336   8.223 -0.8205 -0.4290  0.1007
 6998SOL    HW232457   1.687   0.403   8.191 -0.3659 -0.2228  1.7346
 6999SOL     OW32458   3.906   0.136  12.152 -0.0236 -0.1323  0.1078
 6999SOL    HW132459   3.985   0.083  12.150  0.1529  0.1452 -0.1535
 6999SOL    HW232460   3.938   0.213  12.105 -1.2482 -0.9315 -2.0498
 7000SOL     OW32461   0.684   4.307   8.522 -0.2704  0.0856  0.0999
 7000SOL    HW132462   0.704   4.306   8.616  1.3165  0.7704 -0.2275
 7000SOL    HW232463   0.678   4.212   8.514 -2.0304  0.3152 -1.2285
 7001SOL     OW32464   4.252   0.040  11.153  0.2073  0.0078 -0.0276
 7001SOL    HW132465   4.285   0.129  11.163  1.6002 -0.5205  0.0431
 7001SOL    HW232466   4.200   0.030  11.233  0.8983 -0.9940  0.2850
 7002SOL     OW32467   2.456   2.376   6.243  0.2856 -0.4593 -0.3236
 7002SOL    HW132468   2.439   2.433   6.318  1.4379  0.1925 -0.5589
 7002SOL    HW232469   2.488   2.302   6.294 -1.6909 -0.9831  0.1500
 7003SOL     OW32470   1.379   0.852   0.858  0.1352  0.6033 -0.3034
 7003SOL    HW132471   1.425   0.797   0.794  0.3665  0.9414 -0.4286
 7003SOL    HW232472   1.452   0.893   0.904 -1.2951  0.1804  2.3414
 7004SOL     OW32473   4.164   1.374   2.073 -0.3149  0.2738 -0.3817
 7004SOL    HW132474   4.188   1.465   2.088 -0.3515  0.1692  0.3383
 7004SOL    HW232475   4.074   1.359   2.101 -0.6222  0.0780 -1.4807
 7005SOL     OW32476   2.532   4.076  12.306 -0.4420  1.0528 -0.3379
 7005SOL    HW132477   2.583   4.087  12.226 -0.9202  1.2682 -0.6136
 7005SOL    HW232478   2.485   4.159  12.314 -0.4653  1.4481 -4.3648
 7006SOL     OW32479   3.705   1.781  17.036  0.1202 -0.0038 -0.1573
 7006SOL    HW132480   3.613   1.754  17.030 -0.7349  2.6257  0.6781
 7006SOL    HW232481   3.750   1.721  16.977 -0.6758 -0.8978  0.1516
 7007SOL     OW32482   1.552   0.627  13.992 -0.0687  0.3456  0.2783
 7007SOL    HW132483   1.491   0.553  13.996 -0.7120  0.7971 -1.0821
 7007SOL    HW232484   1.492   0.699  14.011  1.7165  1.5535  1.3434
 7008SOL     OW32485   0.517   4.232   8.044 -0.7700  0.0069  0.0436
 7008SOL    HW132486   0.439   4.286   8.033  0.6356  1.4102 -3.0025
 7008SOL    HW232487   0.547   4.272   8.125 -0.1965 -0.3203 -0.0102
 7009SOL     OW32488   4.300   4.583   0.568 -0.0128 -0.0458 -0.2693
 7009SOL    HW132489   4.318   4.622   0.654 -3.2601  0.9115 -0.0369
 7009SOL    HW232490   4.216   4.540   0.580  0.7494 -1.7758 -1.0869
 7010SOL     OW32491   2.813   1.378   4.951  0.4674  0.1451  0.2066
 7010SOL    HW132492   2.870   1.323   4.897  0.1881  0.5325 -0.4777
 7010SOL    HW232493   2.743   1.402   4.891  0.4185  1.5212  0.8280
 7011SOL     OW32494   0.117   2.475   7.446  0.5475  0.1313 -0.1631
 7011SOL    HW132495   0.079   2.464   7.533  1.1060  3.1820  0.4601
 7011SOL    HW232496   0.153   2.386   7.447 -3.7080 -1.5930 -1.5815
 7012SOL     OW32497   2.839   3.204   5.391 -0.1311  0.0995 -0.5935
 7012SOL    HW132498   2.794   3.261   5.454 -1.5767 -1.4589 -0.1886
 7012SOL    HW232499   2.857   3.126   5.444 -1.8987  1.2174  1.6454
 7013SOL     OW32500   3.941   3.594   2.176  0.5430  0.1635  0.3088
 7013SOL    HW132501   3.945   3.638   2.091  0.3025 -3.0243 -1.3227
 7013SOL    HW232502   3.981   3.655   2.239  0.8664  0.3048 -0.0284
 7014SOL     OW32503   0.019   4.399   4.939 -0.3090  0.2708  0.1810
 7014SOL    HW132504   0.033   4.325   4.881  0.9296 -1.8592  3.2238
 7014SOL    HW232505   0.057   4.468   4.885  1.4558 -0.7767  0.0960
 7015SOL     OW32506   1.849   3.674   9.145 -0.9384 -0.3080  0.3068
 7015SOL    HW132507   1.798   3.663   9.225  0.7541 -1.6012  1.2055
 7015SOL    HW232508   1.839   3.587   9.106 -0.1228 -0.2344 -0.0643
 7016SOL     OW32509   0.610   0.765   5.802  0.1344 -0.1322  0.2783
 7016SOL    HW132510   0.702   0.765   5.773 -0.1855 -2.2319 -0.7337
 7016SOL    HW232511   0.597   0.845   5.854 -1.7322 -1.2484  1.5168
 7017SOL     OW32512   3.421   2.869  11.174 -0.4207  0.0309 -0.3652
 7017SOL    HW132513   3.457   2.957  11.164  0.5210 -0.6132 -2.6736
 7017SOL    HW232514   3.499   2.820  11.200  0.1983 -0.2364 -2.6653
 7018SOL     OW32515   1.847   1.110  13.952 -0.5999  0.2954 -0.4194
 7018SOL    HW132516   1.941   1.095  13.940 -1.0845 -0.5289 -3.3186
 7018SOL    HW232517   1.818   1.038  14.007  2.6666 -1.1843 -0.6441
 7019SOL     OW32518   0.849   4.411   7.619 -0.0502 -0.2690  0.1605
 7019SOL    HW132519   0.915   4.404   7.689  1.1113 -0.2965 -0.9373
 7019SOL    HW232520   0.767   4.386   7.662 -0.3741  1.6840  0.6963
 7020SOL     OW32521   0.085   3.439   5.168 -0.0471  0.6013  0.2323
 7020SOL    HW132522   0.124   3.365   5.120 -0.8503 -0.9162  1.9163
 7020SOL    HW232523   0.112   3.408   5.254  0.9685  0.3628 -0.1724
 7021SOL     OW32524   2.554   4.149   7.987 -0.5998 -0.2061 -0.2737
 7021SOL    HW132525   2.646   4.144   7.963 -0.0697  0.9672  1.4824
 7021SOL    HW232526   2.549   4.069   8.039 -3.3475  0.2850  0.2570
 7022SOL     OW32527   1.820   1.481   7.066  0.1980 -0.2929  0.0906
 7022SOL    HW132528   1.804   1.387   7.079 -1.4350 -0.3502 -2.2998
 7022SOL    HW232529   1.732   1.517   7.054  0.4081 -0.1395 -0.9766
 7023SOL     OW32530   2.868   4.157   2.104  0.0890  0.3487 -0.4649
 7023SOL    HW132531   2.888   4.067   2.080  0.5559  0.2936  0.1174
 7023SOL    HW232532   2.927   4.210   2.051  0.1844  0.1537 -0.5536
 7024SOL     OW32533   1.406   4.149   2.452 -0.4894 -0.4060  0.4541
 7024SOL    HW132534   1.417   4.144   2.357  2.0611 -3.1674  0.8737
 7024SOL    HW232535   1.469   4.080   2.472  0.0402 -0.5552 -1.7787
 7025SOL     OW32536   0.863   4.042   5.062 -0.1044 -0.0731 -0.5817
 7025SOL    HW132537   0.855   4.104   5.134 -0.6569  1.0903 -1.6383
 7025SOL    HW232538   0.783   3.990   5.069 -0.0700  0.2881  2.4310
 7026SOL     OW32539   0.029   0.919  11.167 -0.7917 -0.1120 -0.8894
 7026SOL    HW132540   0.081   0.978  11.222 -1.6405  0.4054 -0.6508
 7026SOL    HW232541   4.667   0.929  11.207 -1.1687 -2.1239 -1.2096
 7027SOL     OW32542   2.400   3.440   6.571 -0.7154  0.3751 -0.0795
 7027SOL    HW132543   2.380   3.530   6.544  0.5332  0.9945  1.0146
 7027SOL    HW232544   2.347   3.398   6.503  1.1718 -0.9769 -0.7040
 7028SOL     OW32545   4.480   4.014  10.407  0.4147  0.0590 -0.0593
 7028SOL    HW132546   4.565   4.054  10.388  0.2423  0.2398 -0.4484
 7028SOL    HW232547   4.449   4.058  10.486 -1.5495 -2.0351  0.3479
 7029SOL     OW32548   0.075   4.183   2.193  0.3544  0.1194  0.5545
 7029SOL    HW132549   0.141   4.205   2.127  1.0595 -0.4820  1.0667
 7029SOL    HW232550   4.724   4.229   2.155  1.4789  0.6968 -0.9916
 7030SOL     OW32551   2.683   2.238  12.354 -0.1452 -0.0820 -0.3706
 7030SOL    HW132552   2.597   2.255  12.316  0.5599  2.0169 -1.0327
 7030SOL    HW232553   2.690   2.312  12.415 -0.9538  0.5939 -1.0988
 7031SOL     OW32554   3.377   3.550  15.213 -0.5610  0.0800  0.3166
 7031SOL    HW132555   3.456   3.602  15.229 -0.1671  0.4789 -2.8674
 7031SOL    HW232556   3.407   3.511  15.130  0.3850  1.7690 -0.1318
 7032SOL     OW32557   1.089   3.662   5.998 -0.3610 -0.0916  0.4034
 7032SOL    HW132558   1.076   3.570   6.024 -0.0642 -0.7644 -1.8554
 7032SOL    HW232559   1.113   3.658   5.906 -1.8449 -0.0324  0.0151
 7033SOL     OW32560   0.106   0.496   4.967 -0.1926  0.0486 -0.4873
 7033SOL    HW132561   0.152   0.519   5.047  0.2317 -1.2683 -0.3453
 7033SOL    HW232562   0.056   0.418   4.991  0.4587  0.3339  1.7477
 7034SOL     OW32563   1.832   4.151  14.114  0.4296  0.3432 -0.2389
 7034SOL    HW132564   1.874   4.210  14.051  0.2293  1.2806  0.5113
 7034SOL    HW232565   1.796   4.081  14.059  2.4782  1.6695 -3.2431
 7035SOL     OW32566   4.116   4.266   1.979 -0.2616  0.1440 -0.1340
 7035SOL    HW132567   4.036   4.318   1.980  0.0313  0.5999 -0.2902
 7035SOL    HW232568   4.085   4.177   1.964  2.1661 -1.0841  1.9687
 7036SOL     OW32569   4.121   3.207   9.583 -0.1365 -0.0971 -0.5264
 7036SOL    HW132570   4.126   3.125   9.534 -2.2693 -1.1662  1.0181
 7036SOL    HW232571   4.212   3.225   9.608 -0.2901 -0.2908  0.1881
 7037SOL     OW32572   1.462   4.148   4.323  0.2022 -0.0050  0.0905
 7037SOL    HW132573   1.454   4.243   4.311  0.5087  0.0422  0.2594
 7037SOL    HW232574   1.461   4.110   4.236 -1.2895  1.4209 -0.5269
 7038SOL     OW32575   0.028   1.465   5.450 -0.2754  0.2558  0.2462
 7038SOL    HW132576   0.061   1.383   5.413 -0.0991 -0.0790  1.1295
 7038SOL    HW232577   4.684   1.497   5.391  0.7809  4.6244  1.3975
 7039SOL     OW32578   0.335   0.675  10.425 -0.6838  0.6325  0.0643
 7039SOL    HW132579   0.315   0.762  10.461  1.1508  1.2106 -0.3363
 7039SOL    HW232580   0.429   0.688  10.426 -0.5665 -0.2536  2.7205
 7040SOL     OW32581   1.979   1.345  15.886  0.0763 -0.3162  0.2506
 7040SOL    HW132582   1.977   1.440  15.875  1.4500 -0.2775  0.3672
 7040SOL    HW232583   1.921   1.327  15.960 -1.9606 -0.8162 -1.4691
 7041SOL     OW32584   0.557   3.871   1.751  0.6363  0.2081  0.0285
 7041SOL    HW132585   0.500   3.798   1.777  1.6438 -0.9671 -1.0078
 7041SOL    HW232586   0.575   3.830   1.666  0.2772  1.5726 -0.6981
 7042SOL     OW32587   2.274   3.085   4.145 -0.4716 -0.3683 -0.8487
 7042SOL    HW132588   2.182   3.110   4.136 -0.3064  0.5589 -0.0177
 7042SOL    HW232589   2.316   3.171   4.156  0.4335 -0.7656 -1.1481
 7043SOL     OW32590   4.610   3.595   7.049  0.0347 -0.6273  0.2682
 7043SOL    HW132591   4.535   3.548   7.013 -0.1139 -0.3898  0.2654
 7043SOL    HW232592   4.628   3.552   7.133  0.2905 -0.1097  0.4830
 7044SOL     OW32593   4.379   4.585   8.127  0.0523  0.1786  0.2508
 7044SOL    HW132594   4.360   4.492   8.120  0.5410  0.2107 -1.6823
 7044SOL    HW232595   4.405   4.587   8.219 -2.2805 -1.3935  0.9251
 7045SOL     OW32596   0.080   2.516   8.170  0.0718  0.6107  0.1652
 7045SOL    HW132597   0.111   2.425   8.165 -2.7335 -0.4341  1.6403
 7045SOL    HW232598   0.130   2.547   8.094  0.5730 -1.3548 -0.3114
 7046SOL     OW32599   4.717   3.387   6.077 -0.7984 -0.8286  0.5127
 7046SOL    HW132600   0.068   3.389   6.017 -0.8759 -3.4010  0.3458
 7046SOL    HW232601   4.659   3.347   6.012 -0.7184  0.0791 -0.1203
 7047SOL     OW32602   0.655   4.709  13.093  0.1835 -0.3187  0.0425
 7047SOL    HW132603   0.685   0.072  13.068 -1.2992 -0.3873 -1.9593
 7047SOL    HW232604   0.601   4.687  13.017  0.9650  2.0347 -1.1838
 7048SOL     OW32605   3.454   2.354   4.138  0.1312 -0.1829 -0.1130
 7048SOL    HW132606   3.531   2.299   4.152  0.2718  0.1647  0.4915
 7048SOL    HW232607   3.408   2.290   4.084  0.8057  0.8293 -1.8922
 7049SOL     OW32608   4.661   0.518  13.938 -0.7039 -0.7793 -0.1630
 7049SOL    HW132609   4.676   0.460  14.013  1.3065  0.0713  0.1087
 7049SOL    HW232610   4.572   0.538  13.967  0.5605  1.8244  1.8752
 7050SOL     OW32611   2.977   0.131   8.859 -0.2226 -0.0292 -0.0444
 7050SOL    HW132612   2.907   0.177   8.905 -0.1064  2.4106 -2.3341
 7050SOL    HW232613   3.053   0.179   8.890 -0.3522 -0.6448  1.2215
 7051SOL     OW32614   3.450   0.089  12.841  0.4929  0.3012 -0.2680
 7051SOL    HW132615   3.376   0.070  12.898 -0.4457 -1.0245 -1.8949
 7051SOL    HW232616   3.486   4.724  12.843 -2.0142 -0.6874  0.7886
 7052SOL     OW32617   3.155   3.648  10.391 -0.2007 -0.8004 -0.2091
 7052SOL    HW132618   3.185   3.562  10.420  0.5763 -0.0373  1.2555
 7052SOL    HW232619   3.060   3.650  10.385 -0.2058 -1.2282 -0.3023
 7053SOL     OW32620   2.443   2.644   9.633 -0.6643  0.1412 -0.3969
 7053SOL    HW132621   2.389   2.690   9.568 -0.4280  2.2305  0.8800
 7053SOL    HW232622   2.422   2.688   9.715  1.3106 -0.0217  0.1998
 7054SOL     OW32623   4.419   1.490   2.421  0.2494 -0.1450 -0.0430
 7054SOL    HW132624   4.372   1.566   2.454 -0.3998 -1.7012  2.6052
 7054SOL    HW232625   4.465   1.539   2.353  1.4008 -1.0384  0.0918
 7055SOL     OW32626   4.092   4.174  16.433  0.2894  0.3240  0.1306
 7055SOL    HW132627   4.140   4.230  16.493 -0.1544 -0.7801  1.5020
 7055SOL    HW232628   4.131   4.188  16.346 -0.3363 -2.2267 -0.5697
 7056SOL     OW32629   2.604   2.700  17.590  0.1125  0.3865 -0.0290
 7056SOL    HW132630   2.549   2.732  17.518  1.3053 -1.9941 -1.9758
 7056SOL    HW232631   2.661   2.646  17.537  0.3393 -2.4844  3.1612
 7057SOL     OW32632   2.260   4.608  16.471  0.0108  0.3447 -0.5228
 7057SOL    HW132633   2.255   4.545  16.399  0.4228  0.3052 -0.5177
 7057SOL    HW232634   2.279   4.555  16.549  1.5590  2.1238  0.3270
 7058SOL     OW32635   3.725   0.390   5.236  0.4867 -0.0470 -0.4120
 7058SOL    HW132636   3.742   0.303   5.200 -3.3199 -0.0926 -2.1039
 7058SOL    HW232637   3.747   0.373   5.328 -0.3441  0.0553 -0.1863
 7059SOL     OW32638   0.873   0.234   6.005  0.5088  0.1377  0.2401
 7059SOL    HW132639   0.870   0.166   5.938 -0.4596 -1.7285  2.1811
 7059SOL    HW232640   0.827   0.310   5.970  0.7246  0.6170  0.9832
 7060SOL     OW32641   0.078   3.796   5.184  0.0769 -0.5503  0.3435
 7060SOL    HW132642   0.171   3.775   5.187 -0.3330 -2.6398 -1.5881
 7060SOL    HW232643   0.080   3.888   5.213  1.7342 -0.8705  1.2163
 7061SOL     OW32644   0.940   3.403   4.028 -0.1975 -0.3441 -0.0297
 7061SOL    HW132645   1.020   3.352   4.024 -0.8401 -1.6076  3.0226
 7061SOL    HW232646   0.916   3.394   4.120  1.2443 -0.6666  0.3060
 7062SOL     OW32647   1.253   1.786   3.793 -0.3116 -0.0089 -0.2086
 7062SOL    HW132648   1.323   1.845   3.767 -1.7835  2.0490  0.5321
 7062SOL    HW232649   1.216   1.827   3.871 -0.2148 -0.5463  0.1204
 7063SOL     OW32650   1.643   2.673   6.054 -0.4491  0.2085  1.2459
 7063SOL    HW132651   1.598   2.691   6.137 -1.0182 -3.3788  1.7264
 7063SOL    HW232652   1.735   2.684   6.078 -0.2502 -0.9531  1.0157
 7064SOL     OW32653   3.815   1.754   8.092 -0.3865 -0.2467  0.0614
 7064SOL    HW132654   3.900   1.773   8.053 -0.6395 -1.7604 -1.2589
 7064SOL    HW232655   3.786   1.678   8.041  1.0204 -0.7694  0.0400
 7065SOL     OW32656   2.226   2.667   6.220 -0.2672  0.0533 -0.0147
 7065SOL    HW132657   2.274   2.725   6.280  0.7463  1.0278 -1.7585
 7065SOL    HW232658   2.176   2.611   6.279  1.4467 -0.7120  0.6962
 7066SOL     OW32659   1.266   3.301   3.793  0.1100  0.6782  1.1990
 7066SOL    HW132660   1.313   3.223   3.763 -0.0245  1.3143 -0.5929
 7066SOL    HW232661   1.262   3.343   3.708  2.0649  2.0157  1.8007
 7067SOL     OW32662   0.494   2.158  13.580  0.9929  0.8337 -0.0204
 7067SOL    HW132663   0.498   2.243  13.625  0.6527  2.0575 -2.2737
 7067SOL    HW232664   0.531   2.104  13.650 -1.9267 -2.1866 -0.8811
 7068SOL     OW32665   0.094   4.008   8.171  0.1193  0.1648 -0.0724
 7068SOL    HW132666   0.189   3.999   8.161  0.3682  1.4137  1.3109
 7068SOL    HW232667   0.062   3.923   8.200  0.3424  0.2271  0.3495
 7069SOL     OW32668   2.219   1.206   4.041  0.1216  0.1074  0.2300
 7069SOL    HW132669   2.170   1.239   4.116 -0.1340 -1.0921  0.5778
 7069SOL    HW232670   2.236   1.122   4.083 -0.6336  0.2976  0.9104
 7070SOL     OW32671   1.977   4.069   7.798  0.2111  0.3465  0.3439
 7070SOL    HW132672   2.033   4.012   7.852 -0.4543  0.1813  0.8621
 7070SOL    HW232673   2.019   4.155   7.799  0.3737  0.2655  0.6987
 7071SOL     OW32674   0.538   1.297   6.056 -0.2470  0.0880 -0.2047
 7071SOL    HW132675   0.519   1.365   5.991  1.5369 -0.9340 -1.7745
 7071SOL    HW232676   0.621   1.267   6.021 -0.2947  0.4637 -0.6351
 7072SOL     OW32677   0.128   1.336  14.748  0.1830 -0.2115  0.1905
 7072SOL    HW132678   0.065   1.298  14.809 -1.3786 -0.1134 -1.3655
 7072SOL    HW232679   0.163   1.415  14.788  0.7729 -0.6159  0.4762
 7073SOL     OW32680   1.163   3.233  15.054 -0.3983  0.4230  0.1947
 7073SOL    HW132681   1.101   3.229  15.127 -1.4753  2.2898 -0.6125
 7073SOL    HW232682   1.104   3.242  14.979  0.3657 -2.0749 -0.7309
 7074SOL     OW32683   0.428   4.623   4.752 -0.2036 -0.5339 -0.0918
 7074SOL    HW132684   0.477   4.695   4.791 -0.6018 -0.7300  0.7605
 7074SOL    HW232685   0.483   4.619   4.674  1.3329 -0.3446  0.9889
 7075SOL     OW32686   3.609   4.157   6.717  0.2960  0.1940 -0.2991
 7075SOL    HW132687   3.591   4.085   6.656  2.4165  0.5209 -1.3180
 7075SOL    HW232688   3.522   4.182   6.746  0.2609 -0.8781  0.5491
 7076SOL     OW32689   2.522   3.954  10.248 -0.0298 -0.4280 -0.1859
 7076SOL    HW132690   2.525   3.860  10.229 -1.1188 -0.3864 -0.5258
 7076SOL    HW232691   2.598   3.968  10.305 -0.9097 -2.0943  1.3982
 7077SOL     OW32692   3.382   3.833  14.051  0.1141  0.5169 -0.2327
 7077SOL    HW132693   3.442   3.778  14.002 -0.6278 -0.4303 -0.0898
 7077SOL    HW232694   3.343   3.879  13.976 -0.1918 -0.7150 -0.8378
 7078SOL     OW32695   1.054   4.645   8.910  0.3827  0.3901  0.5523
 7078SOL    HW132696   0.976   4.593   8.925  0.2171  0.6249  0.5004
 7078SOL    HW232697   1.092   4.651   8.998 -1.7018  0.4369  1.4443
 7079SOL     OW32698   1.190   3.637   2.440 -0.0081 -0.8150  1.2851
 7079SOL    HW132699   1.104   3.601   2.418 -0.1678 -1.4544  2.8923
 7079SOL    HW232700   1.226   3.572   2.501  1.3076 -2.3209 -1.1319
 7080SOL     OW32701   2.373   3.448   2.540 -0.0861 -0.4328 -0.0778
 7080SOL    HW132702   2.415   3.361   2.541  1.7310  0.4466  0.3185
 7080SOL    HW232703   2.345   3.460   2.450 -0.7204  1.9397  0.4569
 7081SOL     OW32704   3.113   0.812   3.810  0.2229 -0.4213 -0.2265
 7081SOL    HW132705   3.193   0.780   3.850 -0.7473 -1.5474  0.8043
 7081SOL    HW232706   3.068   0.850   3.886 -1.2853 -0.7132 -0.9558
 7082SOL     OW32707   0.059   2.050   7.940 -0.8247  0.1858  0.1915
 7082SOL    HW132708   0.150   2.055   7.909 -2.4498 -0.3768 -4.6542
 7082SOL    HW232709   0.013   2.028   7.859  0.7881 -1.2689 -0.3282
 7083SOL     OW32710   0.656   1.338   5.727  0.4341  0.2795 -0.5776
 7083SOL    HW132711   0.635   1.429   5.705  1.7172  1.4107  2.8494
 7083SOL    HW232712   0.575   1.287   5.720 -0.3316  1.2428  1.1618
 7084SOL     OW32713   1.333   4.066   2.896  0.2007 -0.5215 -0.6321
 7084SOL    HW132714   1.253   4.118   2.910  0.6465  0.2219 -0.8483
 7084SOL    HW232715   1.388   4.139   2.869 -0.3988  0.2528  0.2080
 7085SOL     OW32716   3.360   1.520   3.673  0.1264 -0.1696 -0.4238
 7085SOL    HW132717   3.348   1.429   3.644  1.2095  0.4760 -2.9583
 7085SOL    HW232718   3.285   1.562   3.632 -1.2611 -1.0277  1.2545
 7086SOL     OW32719   2.884   3.704   1.307 -0.7779  0.3914  0.1702
 7086SOL    HW132720   2.890   3.714   1.212 -2.5895  2.5633  0.2707
 7086SOL    HW232721   2.904   3.796   1.324  1.2460 -0.3153  1.5687
 7087SOL     OW32722   4.510   3.466   7.295  0.1932 -0.1745 -0.3915
 7087SOL    HW132723   4.498   3.379   7.332  0.6661 -0.2558 -0.4236
 7087SOL    HW232724   4.429   3.507   7.326  0.8111  0.0808  0.9184
 7088SOL     OW32725   2.069   0.046  16.161 -0.3730 -0.0069  0.4490
 7088SOL    HW132726   2.023   0.128  16.145 -0.7687 -0.0336  1.4685
 7088SOL    HW232727   2.070   0.016  16.070  1.2909  0.6003  0.2672
 7089SOL     OW32728   0.814   4.460   9.891 -0.3991 -0.2719  0.2144
 7089SOL    HW132729   0.889   4.467   9.951  0.3694 -2.4402 -0.4947
 7089SOL    HW232730   0.813   4.365   9.879 -2.0617 -0.3855  1.3257
 7090SOL     OW32731   4.099   2.052   5.678 -0.1024 -0.6259  0.2254
 7090SOL    HW132732   4.119   1.993   5.606 -1.6806 -1.1684  0.2187
 7090SOL    HW232733   4.058   1.994   5.742  1.9925 -0.8126  1.3984
 7091SOL     OW32734   3.567   4.627   8.221  0.5269 -0.3128 -0.2386
 7091SOL    HW132735   3.570   4.712   8.264 -2.1718 -0.7145  0.7772
 7091SOL    HW232736   3.536   4.573   8.293 -0.6880  1.8786  0.8716
 7092SOL     OW32737   2.337   2.583   7.511 -0.1468  1.0940 -0.1330
 7092SOL    HW132738   2.347   2.499   7.556 -2.3279 -0.2408 -2.0850
 7092SOL    HW232739   2.245   2.597   7.535 -0.5237 -0.2681 -0.7451
 7093SOL     OW32740   2.431   4.479  11.484  0.5470  0.0240 -0.6003
 7093SOL    HW132741   2.523   4.500  11.503  0.2081  0.3977  0.6036
 7093SOL    HW232742   2.432   4.384  11.497 -2.1351  0.0147 -0.5209
 7094SOL     OW32743   1.601   0.382   2.593  0.0522 -0.2214  0.1626
 7094SOL    HW132744   1.568   0.295   2.571 -2.1298  0.5491  0.2800
 7094SOL    HW232745   1.514   0.423   2.588 -0.2368 -0.7382  0.9162
 7095SOL     OW32746   3.862   2.644   5.731  0.4984  0.3626 -0.2493
 7095SOL    HW132747   3.800   2.623   5.661 -0.4984 -0.1291  0.7739
 7095SOL    HW232748   3.801   2.683   5.793  0.3955  0.3858 -0.3646
 7096SOL     OW32749   3.128   3.070   6.826  0.3368 -0.2422  0.5376
 7096SOL    HW132750   3.179   3.003   6.872  1.4655 -0.6415 -1.2866
 7096SOL    HW232751   3.102   3.129   6.897 -0.9139  2.0054 -1.8125
 7097SOL     OW32752   3.049   0.925   7.705 -0.4870 -0.4388 -0.0148
 7097SOL    HW132753   3.103   0.970   7.640  0.6385  1.2596  2.0714
 7097SOL    HW232754   3.022   0.839   7.673  1.2020 -0.5820 -1.0194
 7098SOL     OW32755   4.351   3.432   2.226  0.0287  0.2011  0.0188
 7098SOL    HW132756   4.388   3.356   2.270  0.6075  0.7328  0.4480
 7098SOL    HW232757   4.353   3.494   2.299 -4.1729 -2.1460  2.0866
 7099SOL     OW32758   2.007   0.767  16.262  0.3660  0.2415  0.3644
 7099SOL    HW132759   1.914   0.765  16.240  0.6243  1.8160 -0.8098
 7099SOL    HW232760   2.010   0.847  16.315  1.9946 -0.5079  1.4208
 7100SOL     OW32761   2.780   1.177  10.092 -0.3558  0.5359 -0.5830
 7100SOL    HW132762   2.816   1.127  10.164  1.9660  2.3972 -0.4376
 7100SOL    HW232763   2.759   1.257  10.140 -0.5501  0.2290 -0.1664
 7101SOL     OW32764   3.034   2.857   8.009 -0.0517  0.0744 -0.6484
 7101SOL    HW132765   3.045   2.796   8.082  0.6419  0.2374 -0.6149
 7101SOL    HW232766   2.970   2.818   7.950 -0.8437  0.0211  0.2414
 7102SOL     OW32767   2.922   4.431   1.002  0.1145  0.2283 -0.2142
 7102SOL    HW132768   3.012   4.427   1.036 -0.0078  1.8262  0.3046
 7102SOL    HW232769   2.945   4.471   0.918 -0.6736  2.0813  0.4636
 7103SOL     OW32770   0.195   0.177  15.278 -0.1321 -0.2274  0.6314
 7103SOL    HW132771   0.192   0.082  15.292 -2.1406 -0.1694  0.6459
 7103SOL    HW232772   0.281   0.190  15.240 -1.2651  1.7296 -1.2155
 7104SOL     OW32773   4.121   3.347  10.683 -0.4669 -0.2613  0.0549
 7104SOL    HW132774   4.193   3.402  10.716 -0.9257  0.4811 -0.1755
 7104SOL    HW232775   4.067   3.335  10.761 -0.9311  1.2110 -0.0343
 7105SOL     OW32776   3.729   2.781   1.677 -0.2022  0.5463  0.0326
 7105SOL    HW132777   3.767   2.864   1.708 -1.4610  1.6266 -1.3103
 7105SOL    HW232778   3.691   2.818   1.597 -0.4619 -4.4728 -2.1674
 7106SOL     OW32779   1.748   2.527   9.913 -0.5702 -0.2420 -0.4262
 7106SOL    HW132780   1.668   2.579   9.913 -3.0255 -4.1115  0.6241
 7106SOL    HW232781   1.729   2.444   9.870  0.5180  0.1244 -1.6145
 7107SOL     OW32782   1.790   3.230   3.514 -0.6567 -0.5525 -0.4911
 7107SOL    HW132783   1.824   3.161   3.571  1.8011  0.9846 -0.1127
 7107SOL    HW232784   1.838   3.207   3.434  0.2609  1.2858 -0.4489
 7108SOL     OW32785   0.410   1.708   8.570 -0.1965 -0.4468 -0.4442
 7108SOL    HW132786   0.337   1.646   8.570 -1.0136  0.5118  4.2431
 7108SOL    HW232787   0.435   1.703   8.477  0.3784 -2.4920 -0.1827
 7109SOL     OW32788   2.437   3.737  13.432  0.2647 -0.3121  0.0440
 7109SOL    HW132789   2.481   3.688  13.502  0.9718  1.4494  0.8449
 7109SOL    HW232790   2.446   3.681  13.355  2.8849  0.2873 -0.0837
 7110SOL     OW32791   1.802   2.316  13.469  0.3166 -0.7972  0.3812
 7110SOL    HW132792   1.788   2.314  13.374  4.4068  0.0455 -0.2444
 7110SOL    HW232793   1.826   2.408  13.481 -0.2586 -0.4837 -0.9080
 7111SOL     OW32794   4.017   4.416   5.813  0.1506 -0.2194  0.2922
 7111SOL    HW132795   3.945   4.474   5.790 -0.6552 -0.4451  2.2826
 7111SOL    HW232796   4.083   4.485   5.816  0.7312 -0.6984 -1.3097
 7112SOL     OW32797   1.277   0.686   8.042 -0.4264  0.1648  0.6743
 7112SOL    HW132798   1.227   0.683   8.124  0.8539  0.4598  1.4502
 7112SOL    HW232799   1.360   0.719   8.075 -0.1838 -0.4320  0.6673
 7113SOL     OW32800   1.019   3.283   2.896 -0.1373 -0.1679 -0.0439
 7113SOL    HW132801   1.010   3.313   2.986  1.9854  0.9954 -0.2099
 7113SOL    HW232802   1.105   3.240   2.895  0.1122  0.3236  0.7431
 7114SOL     OW32803   1.696   4.377  16.129 -0.3196 -0.3436  0.3805
 7114SOL    HW132804   1.745   4.432  16.191  1.2579 -1.9379  0.5551
 7114SOL    HW232805   1.614   4.371  16.179 -0.1558 -0.8432  0.5918
 7115SOL     OW32806   3.269   3.266  17.692 -0.6092 -0.8625 -0.4508
 7115SOL    HW132807   3.309   3.216   0.066 -0.6236  0.2337  0.3357
 7115SOL    HW232808   3.234   3.338   0.047  1.0780  0.6689 -1.3880
 7116SOL     OW32809   1.406   2.794  13.029  0.2932 -0.7442 -0.0534
 7116SOL    HW132810   1.333   2.822  12.974  1.3817  3.2117  0.5855
 7116SOL    HW232811   1.366   2.741  13.099  2.4086  0.7811  2.2910
 7117SOL     OW32812   1.099   0.687  10.234 -0.5783  0.6885  0.3862
 7117SOL    HW132813   1.069   0.605  10.194  0.9644 -0.7435  2.1827
 7117SOL    HW232814   1.079   0.743  10.159 -0.4012 -0.2360 -0.3472
 7118SOL     OW32815   4.303   3.418   6.574  0.7217  0.1047 -0.0493
 7118SOL    HW132816   4.278   3.511   6.566  1.3368  0.4329  1.8901
 7118SOL    HW232817   4.394   3.430   6.598 -0.0394  0.3584  2.6881
 7119SOL     OW32818   4.123   2.910  11.197 -0.1559  0.3234 -0.5155
 7119SOL    HW132819   4.081   2.930  11.114 -3.4335 -0.9808  0.8325
 7119SOL    HW232820   4.042   2.912  11.248  1.4487  0.8536  2.0647
 7120SOL     OW32821   0.104   2.901   8.733  0.2603  0.0518  1.2440
 7120SOL    HW132822   0.040   2.831   8.745  0.9436 -1.3552 -3.4174
 7120SOL    HW232823   0.186   2.864   8.764 -0.7035 -2.8669  0.2814
 7121SOL     OW32824   1.256   0.831   5.169  0.0402  0.7640  0.4790
 7121SOL    HW132825   1.257   0.873   5.083  0.1084  1.1177  0.6526
 7121SOL    HW232826   1.349   0.809   5.178 -0.1387 -0.2892 -0.1972
 7122SOL     OW32827   1.156   1.993   6.753 -0.1705  0.2780 -0.2834
 7122SOL    HW132828   1.230   1.997   6.693 -0.1280 -0.3120 -0.2750
 7122SOL    HW232829   1.125   1.909   6.719 -0.0924  0.6959 -1.3680
 7123SOL     OW32830   3.628   4.529  17.540 -0.0068  0.2487 -0.0571
 7123SOL    HW132831   3.650   4.580  17.462  1.6822 -1.2196 -0.5305
 7123SOL    HW232832   3.645   4.594  17.608  0.4762  1.0574 -0.9378
 7124SOL     OW32833   4.191   4.532   9.067 -0.3354  0.0349 -0.1104
 7124SOL    HW132834   4.102   4.545   9.097 -0.5924 -0.5795 -0.6049
 7124SOL    HW232835   4.195   4.442   9.101 -2.1269  0.8338  2.1840
 7125SOL     OW32836   0.414   0.342   3.069 -0.0331 -0.5272  0.8279
 7125SOL    HW132837   0.489   0.378   3.115 -0.1652  0.3897  0.3276
 7125SOL    HW232838   0.460   0.314   2.990 -0.3503 -2.0041  1.1719
 7126SOL     OW32839   1.237   2.641   8.675  0.1895 -0.0427  0.4478
 7126SOL    HW132840   1.174   2.710   8.657 -0.4398 -0.5176  0.8286
 7126SOL    HW232841   1.210   2.607   8.761 -1.7414  1.6164  0.4911
 7127SOL     OW32842   4.082   2.159   7.015 -0.4725  0.1222 -0.0640
 7127SOL    HW132843   4.137   2.225   7.057 -0.3785  0.1429 -0.2224
 7127SOL    HW232844   4.139   2.127   6.945  0.2461  0.7097  0.2585
 7128SOL     OW32845   4.057   3.559   7.623 -0.9168 -0.1081 -0.0415
 7128SOL    HW132846   3.967   3.580   7.646 -0.3335  1.7064  0.5733
 7128SOL    HW232847   4.071   3.472   7.660 -1.8821 -0.1492  0.2207
 7129SOL     OW32848   2.253   2.397   6.049  0.1004 -0.4366 -0.2718
 7129SOL    HW132849   2.182   2.461   6.055  1.1473  0.6882  0.1068
 7129SOL    HW232850   2.308   2.409   6.127  0.1212  0.9788 -0.5003
 7130SOL     OW32851   1.949   3.425   1.633 -0.2800 -0.1650  0.1604
 7130SOL    HW132852   1.863   3.385   1.636 -1.2624  1.8774 -0.7529
 7130SOL    HW232853   2.010   3.352   1.643 -0.1220 -0.0329  0.1714
 7131SOL     OW32854   4.537   0.980  15.615 -0.1224 -0.3736 -0.4758
 7131SOL    HW132855   4.591   1.050  15.652 -2.4247 -0.1709  2.5300
 7131SOL    HW232856   4.506   0.937  15.695 -0.6148  1.2991  0.2385
 7132SOL     OW32857   2.533   1.889   7.678  0.7911 -0.3107  0.6282
 7132SOL    HW132858   2.604   1.940   7.716  1.7278 -0.0182 -1.5651
 7132SOL    HW232859   2.458   1.933   7.719 -1.4879 -1.4715 -2.3291
 7133SOL     OW32860   2.876   3.025   7.393 -0.1446 -0.6140  0.0316
 7133SOL    HW132861   2.836   2.997   7.476  0.1049  0.6894  0.5849
 7133SOL    HW232862   2.803   3.070   7.351  0.5987  0.4716 -0.0738
 7134SOL     OW32863   0.980   0.744   2.520  0.2081 -0.2469  0.1147
 7134SOL    HW132864   0.894   0.750   2.478 -0.0458  1.4421  0.8593
 7134SOL    HW232865   1.034   0.757   2.443  0.5462  0.6773  0.5057
 7135SOL     OW32866   2.516   1.538   7.951 -0.3250  0.5006  0.3150
 7135SOL    HW132867   2.565   1.554   8.032  4.1659  1.5399 -2.5842
 7135SOL    HW232868   2.428   1.519   7.983  0.2566  0.6087  1.9895
 7136SOL     OW32869   0.401   3.018   2.572 -0.0320  0.3484 -0.4960
 7136SOL    HW132870   0.334   2.952   2.554 -0.0858  0.0216  0.9034
 7136SOL    HW232871   0.465   3.019   2.501 -0.8008 -0.7421 -1.1892
 7137SOL     OW32872   1.294   0.309   8.516  0.6535 -0.3611 -0.1125
 7137SOL    HW132873   1.298   0.254   8.438  1.6246 -1.6036  0.8139
 7137SOL    HW232874   1.204   0.342   8.517  0.2448 -1.3132 -3.0705
 7138SOL     OW32875   2.038   0.936   0.950  0.6219  0.2627  0.4420
 7138SOL    HW132876   2.033   1.015   0.897  0.3508  0.2596  0.4609
 7138SOL    HW232877   2.026   0.865   0.886  0.4027 -0.6258  1.4720
 7139SOL     OW32878   2.903   1.185   3.437 -0.0946  0.1727  0.3298
 7139SOL    HW132879   2.808   1.185   3.445  0.0663  0.3397  2.2198
 7139SOL    HW232880   2.922   1.145   3.521 -2.4726 -0.6939  0.4435
 7140SOL     OW32881   0.345   1.202   7.315  0.0880 -0.2369  0.1433
 7140SOL    HW132882   0.262   1.178   7.354 -0.3979  0.1624 -0.6452
 7140SOL    HW232883   0.333   1.284   7.266 -0.3552 -1.1155 -1.1949
 7141SOL     OW32884   1.553   2.937   4.086 -0.0602 -0.2719 -0.3154
 7141SOL    HW132885   1.484   2.910   4.148 -1.4019  1.3181 -1.1192
 7141SOL    HW232886   1.497   2.951   4.010 -0.7446  0.5133  0.3257
 7142SOL     OW32887   3.270   1.264   3.527 -0.6472  0.6981 -0.4920
 7142SOL    HW132888   3.278   1.172   3.501  2.5547  1.1360 -1.0763
 7142SOL    HW232889   3.300   1.296   3.442 -1.6368 -0.0138 -1.1161
 7143SOL     OW32890   3.095   3.546  11.305  0.2395  0.4129  0.0644
 7143SOL    HW132891   3.155   3.611  11.267  0.0379  0.8468  0.4933
 7143SOL    HW232892   3.158   3.482  11.339 -0.6325 -0.1503  0.6100
 7144SOL     OW32893   2.617   4.662  13.245  0.1980  0.6515  0.4011
 7144SOL    HW132894   2.702   4.623  13.268  0.5977  0.5864 -1.1817
 7144SOL    HW232895   2.594   4.604  13.173  0.5518  0.9162  0.0716
 7145SOL     OW32896   1.791   2.710   9.654  0.0157 -0.1220  0.5101
 7145SOL    HW132897   1.759   2.794   9.688 -1.6896  0.3358 -2.1930
 7145SOL    HW232898   1.828   2.735   9.569 -1.8346  2.1246  0.3367
 7146SOL     OW32899   2.039   0.890   9.287 -0.5533 -0.6759 -0.0881
 7146SOL    HW132900   2.113   0.948   9.304  0.9748 -2.1954 -1.5863
 7146SOL    HW232901   2.052   0.872   9.194  0.4080  1.2713 -0.3444
 7147SOL     OW32902   2.858   4.319   7.008  0.1105 -0.3362  0.1892
 7147SOL    HW132903   2.913   4.296   7.083  0.1205 -2.5659 -0.4954
 7147SOL    HW232904   2.927   4.345   6.947 -0.0118  0.3948  0.3560
 7148SOL     OW32905   3.130   1.890   3.670  0.6260 -0.0277 -0.2289
 7148SOL    HW132906   3.184   1.869   3.746 -2.4193  1.9661  2.4906
 7148SOL    HW232907   3.098   1.802   3.649  0.1116  0.0046  0.4199
 7149SOL     OW32908   2.012   2.100   2.920  0.1166 -0.2590 -0.1035
 7149SOL    HW132909   1.920   2.093   2.894 -0.0657  0.8800  0.2523
 7149SOL    HW232910   2.012   2.143   3.006  0.1937 -0.1983 -0.1351
 7150SOL     OW32911   0.881   3.375   5.318  0.0160 -0.1518 -0.0080
 7150SOL    HW132912   0.859   3.463   5.286 -1.1938 -0.4839 -0.0943
 7150SOL    HW232913   0.936   3.408   5.389  0.8206 -0.4881 -0.4711
 7151SOL     OW32914   1.326   1.143   9.893 -0.1067 -0.2471  0.5603
 7151SOL    HW132915   1.242   1.112   9.859  0.7407 -0.1606 -1.6133
 7151SOL    HW232916   1.389   1.104   9.832  0.1996  1.8895 -0.5016
 7152SOL     OW32917   3.101   2.546   7.706  0.3012 -1.0432 -0.0536
 7152SOL    HW132918   3.079   2.586   7.622  2.1160  0.2705  0.0959
 7152SOL    HW232919   3.080   2.454   7.691 -1.7427 -0.5545 -0.2169
 7153SOL     OW32920   1.301   4.332   9.433 -0.5670 -0.8908 -0.5733
 7153SOL    HW132921   1.235   4.399   9.452  1.2677  1.4787 -2.5615
 7153SOL    HW232922   1.369   4.365   9.492 -1.8949 -0.8183  0.9295
 7154SOL     OW32923   2.614   1.906  13.282  0.0091  0.3400  0.2652
 7154SOL    HW132924   2.619   1.914  13.377 -0.0379 -0.7604  0.3575
 7154SOL    HW232925   2.600   1.811  13.281  1.8527  0.0105  2.8066
 7155SOL     OW32926   0.277   2.564   1.772 -0.2240 -0.6811 -0.1097
 7155SOL    HW132927   0.333   2.620   1.827  0.1918 -0.6994 -0.5146
 7155SOL    HW232928   0.292   2.593   1.682  0.4569 -2.7067 -0.6448
 7156SOL     OW32929   1.464   0.716   8.221 -0.4738  0.2213 -0.1136
 7156SOL    HW132930   1.420   0.631   8.214  0.5828 -0.3188 -0.2321
 7156SOL    HW232931   1.476   0.732   8.314 -0.7318  1.1274 -0.2385
 7157SOL     OW32932   3.665   0.662  16.726 -0.4827  0.5619 -0.2082
 7157SOL    HW132933   3.572   0.636  16.726 -0.0428 -0.9700  1.2297
 7157SOL    HW232934   3.697   0.660  16.636  0.5053  4.3631  0.0340
 7158SOL     OW32935   2.453   0.439   3.284 -0.0923 -0.5483 -0.6746
 7158SOL    HW132936   2.488   0.443   3.195 -2.0337  0.9979 -1.3645
 7158SOL    HW232937   2.473   0.529   3.309 -0.6577 -0.6273  0.0388
 7159SOL     OW32938   0.361   2.323   4.875  0.4761  0.1593 -0.0380
 7159SOL    HW132939   0.379   2.234   4.843 -0.4714  0.0257 -0.2127
 7159SOL    HW232940   0.275   2.337   4.834  0.2292  3.6721  1.6841
 7160SOL     OW32941   1.204   2.715   4.564 -0.4200 -0.1963  0.5263
 7160SOL    HW132942   1.116   2.742   4.592 -0.6708  0.5240 -0.9607
 7160SOL    HW232943   1.186   2.628   4.527 -0.0462 -0.0103 -0.0808
 7161SOL     OW32944   0.854   1.387   8.291  0.1252  0.2629 -0.2130
 7161SOL    HW132945   0.803   1.417   8.366  3.2142  1.5669  1.3670
 7161SOL    HW232946   0.790   1.382   8.220  0.6924  0.2642 -0.7240
 7162SOL     OW32947   0.575   3.448   3.958  0.0271 -0.2610 -0.6446
 7162SOL    HW132948   0.625   3.502   4.020 -3.9763  0.4191  2.0177
 7162SOL    HW232949   0.592   3.480   3.870 -2.3886 -0.0845 -1.0526
 7163SOL     OW32950   4.222   3.141   0.651 -0.5590 -0.1532  0.1105
 7163SOL    HW132951   4.131   3.172   0.653 -1.2335 -2.0958 -0.8625
 7163SOL    HW232952   4.226   3.073   0.718 -0.2705  0.3527  0.6102
 7164SOL     OW32953   0.529   0.105   5.591 -0.1650 -0.0654 -0.2518
 7164SOL    HW132954   0.531   0.015   5.622 -0.1542 -1.0513 -3.1413
 7164SOL    HW232955   0.505   0.161   5.666  1.5363  1.7600 -1.0590
 7165SOL     OW32956   1.295   0.906   6.774 -0.3648  0.3232  0.4198
 7165SOL    HW132957   1.343   0.895   6.856  1.7963 -0.5970 -0.9600
 7165SOL    HW232958   1.367   0.920   6.712  0.7198  1.6241  1.9447
 7166SOL     OW32959   4.133   4.294   0.707  0.2127 -0.3803 -0.4207
 7166SOL    HW132960   4.169   4.247   0.632  0.7641  0.1728 -0.5017
 7166SOL    HW232961   4.065   4.349   0.669  0.8497  0.8986  0.3041
 7167SOL     OW32962   2.578   3.204   7.255  0.0872 -0.6048 -0.7109
 7167SOL    HW132963   2.577   3.254   7.336 -1.0858 -2.6560  0.5404
 7167SOL    HW232964   2.554   3.115   7.279  3.7222 -1.6054 -0.8897
 7168SOL     OW32965   4.266   1.487   8.445 -0.2126 -0.6139 -0.0499
 7168SOL    HW132966   4.344   1.517   8.492  0.0417 -0.9091 -0.2869
 7168SOL    HW232967   4.208   1.561   8.464 -0.3099 -0.1151 -2.3397
 7169SOL     OW32968   0.265   3.066   1.363  0.1283  0.1899  0.4882
 7169SOL    HW132969   0.299   2.977   1.355  2.2803  1.0825 -0.4511
 7169SOL    HW232970   0.287   3.096   1.274  0.4751 -1.5810 -0.0101
 7170SOL     OW32971   3.668   1.615  10.078 -0.0925  0.2481 -0.1548
 7170SOL    HW132972   3.762   1.607  10.063 -0.1228  3.1134 -1.8822
 7170SOL    HW232973   3.632   1.549  10.018  3.4295 -1.2438 -0.6290
 7171SOL     OW32974   1.483   3.658   4.160 -0.0728 -0.3175 -0.8522
 7171SOL    HW132975   1.559   3.696   4.115 -0.2305 -0.2378 -1.0532
 7171SOL    HW232976   1.412   3.719   4.140 -0.8875 -0.8652  0.4428
 7172SOL     OW32977   3.908   2.661   1.402 -0.6393 -0.0153 -0.0373
 7172SOL    HW132978   3.821   2.642   1.367 -0.6814 -0.0917  0.1076
 7172SOL    HW232979   3.888   2.715   1.479 -1.1587  0.3274 -0.4142
 7173SOL     OW32980   0.297   1.577   5.146  0.7669  0.5086 -0.0406
 7173SOL    HW132981   0.297   1.653   5.087  2.1944 -0.3340 -1.1325
 7173SOL    HW232982   0.204   1.561   5.163  0.2474  0.7392 -2.5731
 7174SOL     OW32983   1.974   4.523   9.269  0.0789  0.2092 -0.7720
 7174SOL    HW132984   1.883   4.501   9.253 -0.6008  1.2457  1.7437
 7174SOL    HW232985   1.987   4.464   9.343 -0.4866  2.8855  1.4581
 7175SOL     OW32986   3.747   1.766   7.281 -0.2271  0.4041  0.2456
 7175SOL    HW132987   3.781   1.741   7.366  0.8745 -1.1562 -0.6614
 7175SOL    HW232988   3.774   1.855   7.257 -0.6497  0.7427  1.0661
 7176SOL     OW32989   2.907   4.677  17.205 -0.5243 -0.0685 -0.1532
 7176SOL    HW132990   2.996   4.691  17.237 -0.7676  0.8921  0.0986
 7176SOL    HW232991   2.879   0.044  17.208  1.4528  0.4911  0.8614
 7177SOL     OW32992   2.044   3.235   9.383 -0.1132 -0.6698 -0.2665
 7177SOL    HW132993   1.999   3.317   9.365  1.7747  0.5869  0.7123
 7177SOL    HW232994   1.998   3.213   9.463  0.9529 -1.2607  0.1868
 7178SOL     OW32995   1.771   1.657  12.429 -0.2904 -0.0749 -0.3799
 7178SOL    HW132996   1.772   1.587  12.363 -1.6095  0.3822 -0.8845
 7178SOL    HW232997   1.848   1.708  12.404 -0.0534 -0.9162 -1.4268
 7179SOL     OW32998   4.104   0.726   7.043  0.3219 -0.2026  0.1651
 7179SOL    HW132999   4.030   0.691   7.092  0.0776 -2.0969 -1.5580
 7179SOL    HW233000   4.151   0.648   7.013  1.6461  0.4008  0.6669
 7180SOL     OW33001   1.392   0.462   2.981 -0.1971 -0.2662 -0.6180
 7180SOL    HW133002   1.366   0.512   3.059 -1.1484  0.4301 -1.3886
 7180SOL    HW233003   1.337   0.385   2.987 -0.2944 -0.2499 -1.3221
 7181SOL     OW33004   4.522   2.744   7.655 -0.2925  0.0615 -0.3572
 7181SOL    HW133005   4.595   2.785   7.609  1.2958 -1.7713  0.5523
 7181SOL    HW233006   4.444   2.786   7.616 -1.0013 -0.0152  0.9682
 7182SOL     OW33007   0.586   1.240   6.326  0.0389  0.4854 -0.0573
 7182SOL    HW133008   0.559   1.256   6.236  0.1611 -1.0093 -0.3600
 7182SOL    HW233009   0.568   1.326   6.364  3.3658 -0.2850  3.2623
 7183SOL     OW33010   1.643   1.917   4.588 -0.2799 -0.0840 -0.1845
 7183SOL    HW133011   1.697   1.972   4.644  1.0134  0.3813 -1.8891
 7183SOL    HW233012   1.559   1.962   4.579 -1.4974 -2.0652  1.1587
 7184SOL     OW33013   0.375   1.101  15.045 -0.0924 -0.4247 -0.3216
 7184SOL    HW133014   0.412   1.073  14.961  1.6423  1.9165 -0.3731
 7184SOL    HW233015   0.284   1.084  15.024  0.4893 -2.8543 -0.8539
 7185SOL     OW33016   3.660   4.715   4.030  0.3333 -0.0382  0.1978
 7185SOL    HW133017   3.640   4.635   3.983  0.2092  1.7455 -2.7744
 7185SOL    HW233018   3.706   4.672   4.102  1.8063  1.6932  0.3010
 7186SOL     OW33019   4.145   3.124   5.660  0.3890 -0.4482  0.1658
 7186SOL    HW133020   4.220   3.068   5.680  1.2344  0.7035  0.2055
 7186SOL    HW233021   4.191   3.207   5.668  0.7444 -0.8387  2.1951
 7187SOL     OW33022   4.304   2.276   3.076  0.3279 -0.0224  0.0507
 7187SOL    HW133023   4.326   2.318   2.993 -2.3689 -0.8607 -1.0662
 7187SOL    HW233024   4.340   2.190   3.055 -1.7086 -0.1868 -2.6467
 7188SOL     OW33025   4.042   3.674   6.325  0.5560  0.1071  0.0647
 7188SOL    HW133026   4.113   3.678   6.389  0.1775  0.9574  0.4305
 7188SOL    HW233027   3.985   3.615   6.375  0.2790  0.6626  0.4106
 7189SOL     OW33028   1.736   2.718   4.150 -0.0447  0.9249 -0.2475
 7189SOL    HW133029   1.652   2.751   4.121  0.1858  2.8954  1.3305
 7189SOL    HW233030   1.781   2.784   4.097 -0.0308  1.4992  0.4794
 7190SOL     OW33031   1.680   2.834  13.118  0.1220  0.2739  0.0784
 7190SOL    HW133032   1.746   2.879  13.065  0.5499  0.4844  0.7875
 7190SOL    HW233033   1.592   2.863  13.096  0.9296  2.3019 -0.4341
 7191SOL     OW33034   1.862   0.543   3.842 -0.4876  0.5571 -0.5149
 7191SOL    HW133035   1.840   0.455   3.812  1.4922  0.0501 -0.4298
 7191SOL    HW233036   1.936   0.559   3.783  0.7606 -0.9805  0.6440
 7192SOL     OW33037   0.569   1.491   5.064 -0.5823 -0.4988  0.4755
 7192SOL    HW133038   0.590   1.584   5.066  0.3908 -0.7314  1.3583
 7192SOL    HW233039   0.477   1.506   5.084 -0.8544  0.6534 -1.6149
 7193SOL     OW33040   2.026   0.548   4.054  0.7838  0.7315 -0.3286
 7193SOL    HW133041   1.959   0.552   3.985  0.0526 -0.6130  0.2939
 7193SOL    HW233042   2.008   0.477   4.116 -0.2948  1.1938 -0.1141
 7194SOL     OW33043   4.172   0.371   5.797 -0.0619 -0.1443 -0.0493
 7194SOL    HW133044   4.243   0.432   5.815  0.0523  0.0772 -1.2789
 7194SOL    HW233045   4.101   0.429   5.772  1.3691  0.7245 -2.0981
 7195SOL     OW33046   2.019   0.682  15.871 -0.0352 -0.3366  0.1543
 7195SOL    HW133047   1.954   0.751  15.883 -1.2199 -1.5423  0.6638
 7195SOL    HW233048   2.020   0.639  15.785  0.6462 -0.5896  0.2902
 7196SOL     OW33049   3.121   2.472  14.963 -0.5772 -0.1327  0.0984
 7196SOL    HW133050   3.154   2.431  14.883 -1.1595  2.3900 -1.4257
 7196SOL    HW233051   3.204   2.489  15.008 -1.4411 -0.9151  2.0090
 7197SOL     OW33052   3.242   4.543   7.539 -0.0230  1.1870  0.2213
 7197SOL    HW133053   3.179   4.541   7.467  0.6645  3.1954 -0.4399
 7197SOL    HW233054   3.242   4.454   7.575  1.8663  0.5906 -1.2465
 7198SOL     OW33055   2.693   2.286  13.674  0.0453  0.3331 -0.2238
 7198SOL    HW133056   2.611   2.335  13.684  0.2218  1.0733 -2.4426
 7198SOL    HW233057   2.724   2.342  13.602  1.4120 -0.0611  0.0677
 7199SOL     OW33058   3.544   2.110   6.767 -0.0004 -0.0455  0.1222
 7199SOL    HW133059   3.453   2.098   6.794 -0.2714 -0.0048 -0.7686
 7199SOL    HW233060   3.571   2.032   6.720 -0.9634 -1.1438  1.3902
 7200SOL     OW33061   3.277   1.977   6.366  0.0589  0.6372 -0.3122
 7200SOL    HW133062   3.370   1.996   6.360 -0.1056  1.3671 -0.5169
 7200SOL    HW233063   3.274   1.900   6.310 -0.3978 -0.1931  0.8407
 7201SOL     OW33064   3.224   2.198   7.845 -0.1620  0.2254 -0.0451
 7201SOL    HW133065   3.201   2.175   7.935  2.0057 -1.1651  0.1563
 7201SOL    HW233066   3.259   2.118   7.806  2.0125  1.0067  0.2672
 7202SOL     OW33067   2.187   1.966   5.999  0.4641  0.1613  0.3074
 7202SOL    HW133068   2.194   1.947   6.092 -1.2079  1.3295  0.6838
 7202SOL    HW233069   2.169   2.060   6.004 -0.4500  0.1347 -2.0759
 7203SOL     OW33070   4.056   4.674  12.388  0.0904 -0.6154  0.2736
 7203SOL    HW133071   4.035   4.601  12.446 -1.2952  0.8024  1.5622
 7203SOL    HW233072   4.118   4.638  12.325  2.8437  0.2354  2.4801
 7204SOL     OW33073   0.548   0.403  11.836  0.3287  0.1628  0.1935
 7204SOL    HW133074   0.505   0.390  11.751  2.2350 -0.9831 -0.5842
 7204SOL    HW233075   0.570   0.315  11.866 -0.9312 -0.7767 -1.6885
 7205SOL     OW33076   2.592   2.210   6.908  0.4056  0.4961 -0.4194
 7205SOL    HW133077   2.600   2.124   6.949 -0.4138 -0.2819 -1.8732
 7205SOL    HW233078   2.560   2.263   6.981  0.6900 -0.2893  0.2882
 7206SOL     OW33079   2.779   4.515   6.474  0.3310  0.3799 -0.3840
 7206SOL    HW133080   2.767   4.602   6.511  0.7394 -0.2082  1.1414
 7206SOL    HW233081   2.850   4.484   6.531  0.6488  0.6636 -0.6258
 7207SOL     OW33082   0.827   2.867  11.231  0.2617  0.1583  0.0827
 7207SOL    HW133083   0.748   2.917  11.211  0.3401  0.9219  1.6528
 7207SOL    HW233084   0.872   2.928  11.290  1.4220 -2.2077  1.6587
 7208SOL     OW33085   1.144   1.229   3.449 -0.3325 -0.1002 -0.5996
 7208SOL    HW133086   1.110   1.233   3.360  3.0533 -1.6607 -1.9711
 7208SOL    HW233087   1.187   1.314   3.445  1.9743 -1.1833  0.8223
 7209SOL     OW33088   3.842   3.843   7.246 -0.4541 -0.0436 -0.6581
 7209SOL    HW133089   3.907   3.914   7.246 -0.0695 -0.3968 -1.6309
 7209SOL    HW233090   3.893   3.773   7.206 -0.9134 -0.1037 -1.1377
 7210SOL     OW33091   0.728   3.396  10.307  1.0134  0.4468  0.4170
 7210SOL    HW133092   0.646   3.400  10.355  1.9089  1.1351  1.8916
 7210SOL    HW233093   0.742   3.302  10.302 -0.4934  0.3195 -1.3322
 7211SOL     OW33094   2.573   0.825  15.724 -0.7739 -0.4574  0.1284
 7211SOL    HW133095   2.519   0.798  15.798  0.0867  0.0828  0.9615
 7211SOL    HW233096   2.631   0.895  15.755 -0.6503 -0.6985  0.4385
 7212SOL     OW33097   1.405   1.589  17.644 -0.0863  0.3464  0.3464
 7212SOL    HW133098   1.312   1.575  17.663  0.1878 -2.1236 -0.1059
 7212SOL    HW233099   1.448   1.537   0.014  0.9908  1.5339  0.5766
 7213SOL     OW33100   3.914   0.834   9.729 -0.0617  0.3738  0.3217
 7213SOL    HW133101   3.867   0.780   9.665  1.8129 -1.4488  0.4675
 7213SOL    HW233102   3.882   0.807   9.815 -1.0652  0.2016 -0.1045
 7214SOL     OW33103   1.623   4.389   2.505  0.1921 -0.9617 -0.2966
 7214SOL    HW133104   1.612   4.392   2.410  1.0012  1.6628 -0.3006
 7214SOL    HW233105   1.644   4.297   2.520 -0.4814 -1.1724 -0.6314
 7215SOL     OW33106   2.573   3.035   8.578  0.2523 -0.1306  0.0044
 7215SOL    HW133107   2.589   3.128   8.563 -1.0023 -0.0021 -0.4869
 7215SOL    HW233108   2.648   3.015   8.633 -0.1298 -0.0460  0.5475
 7216SOL     OW33109   2.483   2.888   6.819  0.2603 -0.0429  0.5523
 7216SOL    HW133110   2.558   2.853   6.867  0.5744  0.8677  0.7326
 7216SOL    HW233111   2.429   2.918   6.891 -0.9869 -0.5409 -0.1735
 7217SOL     OW33112   3.353   3.766   2.889  0.0420 -0.2696 -0.3103
 7217SOL    HW133113   3.366   3.671   2.889 -0.0750 -0.2651  2.5675
 7217SOL    HW233114   3.417   3.792   2.822 -1.6889 -2.1071 -2.6760
 7218SOL     OW33115   1.801   3.033   2.634  0.4101 -0.1653 -0.1493
 7218SOL    HW133116   1.711   3.010   2.656  0.8836 -1.2824  0.5778
 7218SOL    HW233117   1.819   3.003   2.545 -3.2520 -1.4889 -0.4382
 7219SOL     OW33118   0.653   0.428   3.637  0.1295 -0.0605 -0.3595
 7219SOL    HW133119   0.730   0.379   3.606  0.3987 -0.1419  0.4449
 7219SOL    HW233120   0.649   0.391   3.725  1.3344 -0.4865 -0.4781
 7220SOL     OW33121   1.054   3.575  13.528  0.2511 -0.1783  0.5822
 7220SOL    HW133122   1.123   3.639  13.545 -2.0588  2.1078  1.3973
 7220SOL    HW233123   1.085   3.522  13.454 -0.2283  1.0398 -0.4820
 7221SOL     OW33124   0.833   4.093   8.034  0.0830  0.0552 -0.5562
 7221SOL    HW133125   0.798   4.139   7.958 -0.0597 -0.5553 -0.8536
 7221SOL    HW233126   0.771   4.022   8.051  2.3383 -1.9881 -1.0451
 7222SOL     OW33127   0.114   2.442   4.805 -0.0635 -0.6575 -0.1042
 7222SOL    HW133128   0.118   2.535   4.829 -2.5529 -0.2689 -1.2098
 7222SOL    HW233129   0.066   2.442   4.722 -2.1567 -3.1808  1.0914
 7223SOL     OW33130   3.920   2.703   7.304 -0.5058  0.2498 -0.3363
 7223SOL    HW133131   3.939   2.620   7.348 -0.1875 -1.2931 -3.3428
 7223SOL    HW233132   3.938   2.757   7.381  0.0687 -1.5102  0.7636
 7224SOL     OW33133   2.692   0.348  16.998  0.2335 -0.2550 -0.2847
 7224SOL    HW133134   2.603   0.346  16.965  0.7167 -1.2260 -1.4952
 7224SOL    HW233135   2.684   0.416  17.065  3.6658  1.7744 -1.9066
 7225SOL     OW33136   1.174   0.114   2.269 -0.4847  0.0476 -0.4810
 7225SOL    HW133137   1.238   0.141   2.204 -1.0325 -2.1945 -1.9646
 7225SOL    HW233138   1.111   0.068   2.213 -1.3914  1.7705 -0.8755
 7226SOL     OW33139   0.775   1.896   5.946 -0.0804 -0.2846  0.2462
 7226SOL    HW133140   0.692   1.888   5.994  0.8159 -0.7252  1.7172
 7226SOL    HW233141   0.757   1.823   5.887  0.9425 -0.9848  0.7992
 7227SOL     OW33142   2.520   2.508   4.865 -0.2129 -0.0150 -0.0893
 7227SOL    HW133143   2.564   2.424   4.861 -2.4841 -1.2069  0.1889
 7227SOL    HW233144   2.588   2.566   4.900 -0.6204 -0.6628  1.7801
 7228SOL     OW33145   4.653   0.361   0.766 -0.1242 -0.2952  0.0380
 7228SOL    HW133146   4.585   0.300   0.738 -0.3709 -0.1799  0.3899
 7228SOL    HW233147   4.599   0.437   0.747 -1.7217 -0.7362  2.7557
 7229SOL     OW33148   3.230   2.687  11.816  0.5784  0.1761  0.0847
 7229SOL    HW133149   3.272   2.767  11.849 -0.1318  0.8149 -0.5602
 7229SOL    HW233150   3.279   2.660  11.738  0.1924 -1.1719  0.3218
 7230SOL     OW33151   0.547   2.167   3.105  0.0782  1.1264  0.0479
 7230SOL    HW133152   0.565   2.078   3.072  0.2256  1.2976 -0.3426
 7230SOL    HW233153   0.631   2.193   3.142 -0.4476 -0.6147  2.4363
 7231SOL     OW33154   1.069   1.700   5.159 -0.2291  0.3113 -0.0386
 7231SOL    HW133155   1.096   1.622   5.206 -0.1451 -1.2331 -2.6507
 7231SOL    HW233156   1.013   1.748   5.220 -0.8116  0.1737 -0.4698
 7232SOL     OW33157   0.838   0.676  13.977  0.8145  0.1642 -0.4583
 7232SOL    HW133158   0.854   0.621  13.901 -0.3979 -0.5903 -0.1608
 7232SOL    HW233159   0.866   0.623  14.052  0.5330  0.2096 -0.3224
 7233SOL     OW33160   2.223   1.098   8.979 -0.0027  0.6704  0.1035
 7233SOL    HW133161   2.200   1.160   9.049  0.4450  1.7464 -0.7106
 7233SOL    HW233162   2.271   1.152   8.917 -1.4593  0.4432 -1.2255
 7234SOL     OW33163   3.412   2.760   7.420 -0.5851  0.5095  0.3216
 7234SOL    HW133164   3.467   2.747   7.497  0.4743 -0.9106 -0.6714
 7234SOL    HW233165   3.371   2.841   7.450  0.9691  1.1301  0.7755
 7235SOL     OW33166   0.052   3.730  16.786  0.1852 -0.3332 -0.5409
 7235SOL    HW133167   0.141   3.736  16.820 -0.0890  1.5446 -0.1771
 7235SOL    HW233168   0.060   3.776  16.702 -0.9255  0.8688  0.0133
 7236SOL     OW33169   1.737   0.161  12.690 -0.1590  0.6805  0.1193
 7236SOL    HW133170   1.799   0.161  12.763  0.7571  1.8932 -0.6384
 7236SOL    HW233171   1.699   0.074  12.692  0.8405  0.2214 -0.8697
 7237SOL     OW33172   0.603   3.996   3.245  0.5647 -0.2812 -0.5822
 7237SOL    HW133173   0.599   4.087   3.217 -0.7764  0.2919  1.4609
 7237SOL    HW233174   0.649   3.961   3.169  1.5912 -1.4967  0.5923
 7238SOL     OW33175   3.185   3.822  13.458 -0.0993 -0.2790  0.5659
 7238SOL    HW133176   3.206   3.762  13.386 -3.0858 -0.0065 -0.5375
 7238SOL    HW233177   3.150   3.762  13.524  0.1783 -0.3942  0.6110
 7239SOL     OW33178   0.360   2.240  14.728  0.3557 -0.1220 -0.2219
 7239SOL    HW133179   0.380   2.151  14.701  1.2672 -0.6508  2.1901
 7239SOL    HW233180   0.408   2.243  14.811  0.7719  0.1446 -0.4703
 7240SOL     OW33181   2.605   4.480  12.963 -0.0685  0.0188  0.8917
 7240SOL    HW133182   2.557   4.553  12.924 -2.4137 -0.8405  2.2186
 7240SOL    HW233183   2.534   4.418  12.980 -1.3974  1.1131 -0.6712
 7241SOL     OW33184   1.726   3.251   1.889 -0.6169 -0.6642 -0.1999
 7241SOL    HW133185   1.787   3.181   1.865  1.4086  0.9776  0.1582
 7241SOL    HW233186   1.713   3.281   1.799 -0.8348  0.6085  0.2598
 7242SOL     OW33187   3.417   3.440   4.633 -0.3404 -0.3925 -0.2572
 7242SOL    HW133188   3.476   3.510   4.662 -0.5906  0.6192 -2.1871
 7242SOL    HW233189   3.332   3.484   4.633  0.2978  0.8425  0.6472
 7243SOL     OW33190   2.070   2.205   6.031 -0.4998  0.4291  0.3110
 7243SOL    HW133191   2.132   2.273   6.057  1.5884 -0.3790 -2.6282
 7243SOL    HW233192   1.988   2.220   6.078 -0.8589 -0.3811 -0.0574
 7244SOL     OW33193   3.927   4.146  17.112  0.6930  0.2230 -0.5040
 7244SOL    HW133194   3.842   4.158  17.154  1.0326  2.2563 -0.3858
 7244SOL    HW233195   3.947   4.232  17.075  0.4405  1.1163  1.4698
 7245SOL     OW33196   2.046   2.080   9.785  0.0449  0.4367 -0.3498
 7245SOL    HW133197   2.138   2.054   9.783 -0.5809 -1.6970 -1.4624
 7245SOL    HW233198   2.047   2.098   9.879  0.6904 -0.4016 -0.2066
 7246SOL     OW33199   4.465   1.070   1.940  0.0101 -0.1069 -0.5787
 7246SOL    HW133200   4.468   0.982   1.976 -2.2852  0.7035  1.6306
 7246SOL    HW233201   4.505   1.059   1.854  0.0100  1.3648 -0.7735
 7247SOL     OW33202   1.486   3.368  14.924 -0.0650 -0.6791  0.2259
 7247SOL    HW133203   1.476   3.362  15.019 -0.4740  2.4354  0.3705
 7247SOL    HW233204   1.448   3.450  14.893  0.4140 -0.7684 -0.5971
 7248SOL     OW33205   3.263   3.925  15.892 -0.1618  0.0794  0.2200
 7248SOL    HW133206   3.215   3.896  15.815 -0.5301  1.2329  0.0122
 7248SOL    HW233207   3.346   3.947  15.851  0.1310 -0.0688  0.7372
 7249SOL     OW33208   1.033   2.056  13.967 -0.1257 -0.0645  0.4103
 7249SOL    HW133209   0.968   2.107  13.918  0.0416 -0.1198  0.1319
 7249SOL    HW233210   0.969   2.033  14.035 -0.5450  2.1222  0.7492
 7250SOL     OW33211   0.814   3.002   3.819 -0.2196  0.6332 -0.5711
 7250SOL    HW133212   0.840   3.094   3.817  0.9381  0.3330  1.3276
 7250SOL    HW233213   0.775   2.997   3.731 -0.8709 -0.4179 -0.2257
 7251SOL     OW33214   3.072   4.347   2.799  0.7864  0.3026  0.0425
 7251SOL    HW133215   3.057   4.338   2.704  0.4985  2.5725 -0.1246
 7251SOL    HW233216   3.045   4.263   2.836 -0.3648  1.3338  1.5345
 7252SOL     OW33217   3.826   4.060  11.041  0.1095 -0.6190 -0.7017
 7252SOL    HW133218   3.856   3.995  10.977 -0.5395 -1.8294  0.2099
 7252SOL    HW233219   3.844   4.143  10.997 -0.2585  1.2838  2.7723
 7253SOL     OW33220   1.523   0.322  12.700 -0.1838 -0.0318  0.1947
 7253SOL    HW133221   1.594   0.257  12.695 -1.4957 -1.5587  1.1437
 7253SOL    HW233222   1.465   0.265  12.750 -0.4525 -0.0705 -0.1626
 7254SOL     OW33223   1.380   2.483   3.478  0.5471  0.0248  0.3548
 7254SOL    HW133224   1.435   2.532   3.418  0.8152 -3.0785 -1.9210
 7254SOL    HW233225   1.332   2.423   3.421  0.3673 -0.6426  1.1978
 7255SOL     OW33226   0.970   4.672  11.317  0.3836  0.4295 -0.3474
 7255SOL    HW133227   0.993   0.034  11.280 -1.6673  0.9888 -0.3428
 7255SOL    HW233228   1.053   4.642  11.354  1.3299  2.1611 -1.0465
 7256SOL     OW33229   3.449   2.937   2.003 -0.4471 -0.3584 -0.2101
 7256SOL    HW133230   3.499   2.951   1.922 -0.3124 -1.9826 -0.4187
 7256SOL    HW233231   3.362   2.952   1.966 -0.5140  0.8227  0.4249
 7257SOL     OW33232   2.290   0.645  16.337  0.3586  0.3080 -0.2571
 7257SOL    HW133233   2.233   0.672  16.408  0.2503 -0.0602 -0.2045
 7257SOL    HW233234   2.228   0.607  16.275 -0.9830  0.8804  0.7475
 7258SOL     OW33235   0.123   1.377   2.347 -0.4757 -0.0312  0.2939
 7258SOL    HW133236   0.029   1.362   2.354 -0.7386  0.7025 -1.7781
 7258SOL    HW233237   0.149   1.425   2.426  1.6244 -0.9782  0.1782
 7259SOL     OW33238   1.133   3.853   0.941 -0.5494 -0.0764 -0.1534
 7259SOL    HW133239   1.084   3.898   0.872  1.4482  0.6140 -1.1472
 7259SOL    HW233240   1.080   3.841   1.019  0.5013 -0.5701  0.4827
 7260SOL     OW33241   0.314   3.513   7.907  0.3079  0.2342  0.2944
 7260SOL    HW133242   0.276   3.426   7.924  0.7951 -0.3268 -1.5437
 7260SOL    HW233243   0.236   3.558   7.874  0.1306  1.7106  2.7187
 7261SOL     OW33244   3.857   4.210   0.429  0.8041  0.3635  0.1038
 7261SOL    HW133245   3.819   4.135   0.384  1.6838  0.2964 -0.5314
 7261SOL    HW233246   3.804   4.223   0.507  2.1392  1.5811  0.8043
 7262SOL     OW33247   1.616   1.086   7.060 -0.1161 -0.6481  0.0968
 7262SOL    HW133248   1.631   1.159   7.000 -0.4884 -1.9821 -1.6383
 7262SOL    HW233249   1.683   1.106   7.125  0.7797  0.8295 -1.2819
 7263SOL     OW33250   1.622   0.521   5.327  0.0379  0.0489  0.2015
 7263SOL    HW133251   1.528   0.537   5.319 -0.3291 -1.7352  0.8279
 7263SOL    HW233252   1.634   0.474   5.409 -0.0087 -1.2492 -0.5243
 7264SOL     OW33253   0.865   4.553   3.972  0.2873 -0.0248 -0.1062
 7264SOL    HW133254   0.874   4.458   3.981  2.5203  0.4648  2.6599
 7264SOL    HW233255   0.904   4.585   4.053 -0.6817 -0.8904  0.7014
 7265SOL     OW33256   2.408   3.229  14.264  0.7269  0.6625 -0.5455
 7265SOL    HW133257   2.448   3.151  14.226 -1.2086 -0.3326 -0.5552
 7265SOL    HW233258   2.320   3.194  14.270  0.9831  0.4907  2.2746
 7266SOL     OW33259   1.307   2.554  15.701  0.1012  0.0073  0.1326
 7266SOL    HW133260   1.296   2.649  15.704  1.1937  0.1658 -0.7839
 7266SOL    HW233261   1.277   2.531  15.613  0.1681  3.5591 -0.7970
 7267SOL     OW33262   3.354   4.127  13.963  0.1082 -0.4353  0.2512
 7267SOL    HW133263   3.435   4.166  13.997 -0.8948  3.2235 -1.5279
 7267SOL    HW233264   3.372   4.089  13.877  1.9352  0.5408  0.1973
 7268SOL     OW33265   2.445   1.031  12.460  0.0833  0.3079  0.0655
 7268SOL    HW133266   2.380   0.962  12.460  0.1156  0.2780  0.4845
 7268SOL    HW233267   2.487   1.015  12.545 -0.2586 -1.3508 -0.0837
 7269SOL     OW33268   4.677   4.453  17.184 -0.7590  0.2146  0.1992
 7269SOL    HW133269   4.588   4.420  17.174 -1.3877  2.3677 -1.3483
 7269SOL    HW233270   4.713   4.442  17.095  0.7562  4.3453  0.2551
 7270SOL     OW33271   0.512   4.005   3.524 -0.7466  0.1331 -0.4722
 7270SOL    HW133272   0.533   3.985   3.432  0.2773  0.1183 -0.2387
 7270SOL    HW233273   0.599   4.030   3.556 -0.7170 -1.2839  0.5131
 7271SOL     OW33274   1.000   0.180   2.779  0.7344 -0.2371  0.2294
 7271SOL    HW133275   1.002   0.106   2.718 -1.1280 -0.0142 -0.1085
 7271SOL    HW233276   1.095   0.183   2.790  0.5268 -1.3564  2.3235
 7272SOL     OW33277   2.079   1.587   4.380 -0.7014 -0.9040 -0.3084
 7272SOL    HW133278   2.013   1.537   4.428 -2.0040  1.2318  0.1602
 7272SOL    HW233279   2.030   1.658   4.339  1.1565  0.0053 -0.9684
 7273SOL     OW33280   1.958   2.562   3.682  0.7333 -0.7673  0.5773
 7273SOL    HW133281   1.889   2.588   3.621  2.1967 -0.0858 -0.8042
 7273SOL    HW233282   1.917   2.495   3.737  0.5999 -1.5689 -0.4952
 7274SOL     OW33283   3.681   1.074   7.387 -0.1433  0.5662  0.0988
 7274SOL    HW133284   3.740   1.072   7.462 -1.3993 -1.5559  1.0285
 7274SOL    HW233285   3.663   0.981   7.370 -1.3329  1.2981 -2.5838
 7275SOL     OW33286   1.833   2.438   7.558  0.2851 -0.2926 -0.4109
 7275SOL    HW133287   1.758   2.495   7.542 -1.0337 -2.1650 -0.9516
 7275SOL    HW233288   1.783   2.382   7.617 -0.3043  1.6799  0.9508
 7276SOL     OW33289   4.235   2.693   3.823 -0.1396 -0.5158  0.3989
 7276SOL    HW133290   4.219   2.786   3.809  0.1139 -0.6001 -0.4432
 7276SOL    HW233291   4.145   2.665   3.842 -0.0119 -1.1700  0.0445
 7277SOL     OW33292   1.827   1.260   2.132  0.2982 -0.1733 -0.2671
 7277SOL    HW133293   1.888   1.189   2.111 -0.1128 -0.5176 -0.2951
 7277SOL    HW233294   1.785   1.217   2.206 -0.4526  0.3615 -0.3804
 7278SOL     OW33295   2.188   2.574  13.773  0.0423  0.4549 -0.2882
 7278SOL    HW133296   2.176   2.507  13.841  0.4873  0.8027  0.1307
 7278SOL    HW233297   2.199   2.650  13.830 -0.3569 -0.7633  1.4312
 7279SOL     OW33298   0.997   2.471   6.053  0.9297  0.1729 -0.7138
 7279SOL    HW133299   1.050   2.508   6.123  3.4274 -0.2619 -2.3744
 7279SOL    HW233300   0.908   2.483   6.087  1.1505 -2.0527  0.6051
 7280SOL     OW33301   2.791   4.230   8.238 -0.0518  0.3176  0.0827
 7280SOL    HW133302   2.729   4.213   8.167  0.2865  0.9288 -0.3637
 7280SOL    HW233303   2.878   4.218   8.201  0.7735 -2.3170  2.8604
 7281SOL     OW33304   2.825   2.914  12.869  0.1993  0.2915 -0.1599
 7281SOL    HW133305   2.847   3.005  12.890 -0.1249  0.3679 -0.1353
 7281SOL    HW233306   2.837   2.912  12.774  1.3803 -1.4263  0.0423
 7282SOL     OW33307   4.481   0.673   7.144 -0.5941  0.0094  0.3378
 7282SOL    HW133308   4.480   0.581   7.117 -0.1338 -0.3391  1.5455
 7282SOL    HW233309   4.398   0.683   7.191  0.6411  0.6336  2.3352
 7283SOL     OW33310   1.962   0.286  16.397 -0.0715  0.0636  0.5286
 7283SOL    HW133311   1.916   0.339  16.331 -2.3432 -2.2400  0.2653
 7283SOL    HW233312   2.055   0.304  16.381 -0.3618  0.5990 -0.5981
 7284SOL     OW33313   2.546   2.246  13.350 -0.0427  0.2503 -0.4309
 7284SOL    HW133314   2.505   2.329  13.374 -0.8688 -0.4870  0.7111
 7284SOL    HW233315   2.635   2.275  13.329 -0.4579  2.5777  0.9568
 7285SOL     OW33316   1.259   0.208   7.126 -0.4012  0.1524 -0.1278
 7285SOL    HW133317   1.263   0.271   7.199 -0.0161  0.4219 -0.3865
 7285SOL    HW233318   1.313   0.246   7.058 -4.0174  0.8540 -2.6125
 7286SOL     OW33319   3.954   0.610   3.204  0.0770  0.1677 -0.6493
 7286SOL    HW133320   3.870   0.611   3.158 -0.0982 -1.5209 -0.3585
 7286SOL    HW233321   4.004   0.544   3.155  0.3023  0.2101 -0.4755
 7287SOL     OW33322   3.778   3.044   3.269 -0.1469 -0.5275 -0.0865
 7287SOL    HW133323   3.853   3.004   3.313  0.5246  0.5558 -0.2431
 7287SOL    HW233324   3.714   2.973   3.274  0.1460 -0.8859 -1.5095
 7288SOL     OW33325   4.316   0.310  12.297  0.2566 -0.0139 -0.2537
 7288SOL    HW133326   4.363   0.242  12.249 -1.4710 -1.4302  0.0609
 7288SOL    HW233327   4.373   0.386  12.289  0.6330 -0.2978 -0.2697
 7289SOL     OW33328   0.886   4.668  17.532  0.4913  0.3344  0.7608
 7289SOL    HW133329   0.908   4.647  17.441 -2.0953 -3.3585  0.9885
 7289SOL    HW233330   0.794   4.690  17.520 -0.0158 -0.7533  2.6719
 7290SOL     OW33331   1.148   2.629  15.068  0.1874 -0.1589  0.1446
 7290SOL    HW133332   1.180   2.567  15.133 -1.1473 -1.1730 -0.1617
 7290SOL    HW233333   1.230   2.670  15.040  0.4551 -1.1348 -0.4909
 7291SOL     OW33334   3.111   1.849   8.141 -0.0217  0.3350 -0.4643
 7291SOL    HW133335   3.190   1.796   8.143  0.5842  1.2031 -1.2938
 7291SOL    HW233336   3.041   1.789   8.169  0.5340  0.8906  2.1776
 7292SOL     OW33337   2.912   4.621   6.215  0.0344 -0.8681  0.2935
 7292SOL    HW133338   2.973   4.549   6.233 -1.4784 -2.3900 -0.5866
 7292SOL    HW233339   2.881   4.627   6.305 -0.1498 -1.0369  0.2416
 7293SOL     OW33340   2.006   2.964   5.447  0.8835  0.0284  0.5537
 7293SOL    HW133341   2.060   2.888   5.422  1.5568  0.6768  0.0303
 7293SOL    HW233342   2.034   3.034   5.388 -1.1419 -0.3230 -0.7976
 7294SOL     OW33343   0.886   2.118   9.389  0.5485  0.0872 -0.3047
 7294SOL    HW133344   0.941   2.057   9.341 -1.1036 -1.8850  0.3079
 7294SOL    HW233345   0.946   2.192   9.400  0.6754 -0.2867  1.5563
 7295SOL     OW33346   2.330   2.292  11.350 -0.5596  0.0519 -0.1801
 7295SOL    HW133347   2.424   2.301  11.363 -0.3505 -0.4772 -1.3052
 7295SOL    HW233348   2.317   2.197  11.353  1.1826 -0.1018  2.4772
 7296SOL     OW33349   1.245   3.482  15.149  0.1269 -0.6493  0.5415
 7296SOL    HW133350   1.258   3.387  15.157  0.1284 -0.5900  1.2441
 7296SOL    HW233351   1.236   3.498  15.055  0.9284  2.2486  0.9493
 7297SOL     OW33352   4.038   1.176   4.680  0.8525  0.3756 -0.1216
 7297SOL    HW133353   4.105   1.244   4.677 -0.2194  1.4161 -0.5124
 7297SOL    HW233354   4.033   1.158   4.586 -2.2308 -2.7745  0.6455
 7298SOL     OW33355   2.134   4.078   4.426 -0.0076  0.6026 -0.3055
 7298SOL    HW133356   2.102   3.993   4.398  1.2074 -0.9154  2.9163
 7298SOL    HW233357   2.052   4.104   4.469  0.4120 -0.4285  1.1326
 7299SOL     OW33358   3.061   4.266  13.051 -0.0589  0.0075 -0.4415
 7299SOL    HW133359   3.109   4.295  13.128  0.3905 -3.3236  0.5073
 7299SOL    HW233360   3.126   4.266  12.980  1.9375  1.1495  1.3830
 7300SOL     OW33361   1.231   2.272   8.641 -0.2263 -0.3775 -0.0509
 7300SOL    HW133362   1.325   2.289   8.649 -0.5311  0.8261  1.1772
 7300SOL    HW233363   1.196   2.340   8.699 -1.7844 -1.1030 -0.1687
 7301SOL     OW33364   2.575   2.881   5.707 -0.2494  0.5864  0.0361
 7301SOL    HW133365   2.613   2.808   5.658  0.0599  0.8260 -0.0830
 7301SOL    HW233366   2.483   2.871   5.684  0.1924  0.3485 -1.6129
 7302SOL     OW33367   2.681   3.331   5.636 -0.0020  0.2469 -0.3400
 7302SOL    HW133368   2.678   3.423   5.607 -1.2276  0.6726  1.1510
 7302SOL    HW233369   2.591   3.303   5.623 -0.3019  0.9718  0.1399
 7303SOL     OW33370   2.228   1.320  16.466 -0.8611 -0.0264 -0.0304
 7303SOL    HW133371   2.202   1.397  16.516 -0.7854  0.4071 -0.6612
 7303SOL    HW233372   2.142   1.314  16.424 -0.0586 -0.7763 -1.5685
 7304SOL     OW33373   4.476   1.774   8.307 -0.4457  0.7003  0.7150
 7304SOL    HW133374   4.546   1.834   8.282 -1.6684  2.5704  1.7278
 7304SOL    HW233375   4.519   1.689   8.306 -1.6096  0.1012  1.6466
 7305SOL     OW33376   2.319   4.587   3.394  0.1766  0.0625  0.2150
 7305SOL    HW133377   2.410   4.561   3.379  0.3081 -0.9578  2.8434
 7305SOL    HW233378   2.276   4.536   3.324 -0.1484 -0.6341  0.9219
 7306SOL     OW33379   1.065   0.486   8.516 -0.0024 -0.1772 -0.8129
 7306SOL    HW133380   1.089   0.576   8.541 -1.5676 -0.8573  3.1293
 7306SOL    HW233381   0.999   0.476   8.584  0.6510 -0.4701 -0.2292
 7307SOL     OW33382   1.796   1.380  13.993  0.1616 -0.2154 -0.1328
 7307SOL    HW133383   1.855   1.430  13.937 -0.8514 -1.3750 -2.2336
 7307SOL    HW233384   1.807   1.286  13.977  0.0636 -0.3928  0.8562
 7308SOL     OW33385   0.069   1.495  17.225  0.7113  0.6536  0.0654
 7308SOL    HW133386   0.073   1.400  17.211  2.7224  0.5270  1.5207
 7308SOL    HW233387   0.077   1.493  17.320  0.3943 -0.3282  0.0794
 7309SOL     OW33388   2.963   3.854   2.083  0.4359  0.0827  0.1165
 7309SOL    HW133389   3.025   3.784   2.067 -0.8412 -1.2404  1.0219
 7309SOL    HW233390   2.884   3.801   2.093  0.5482 -0.3145 -1.0790
 7310SOL     OW33391   0.870   2.869   2.857 -0.2123 -0.3990 -0.1875
 7310SOL    HW133392   0.818   2.913   2.924  1.7761  0.5665  0.7550
 7310SOL    HW233393   0.840   2.915   2.779  0.6278  1.3438  0.5033
 7311SOL     OW33394   3.993   0.990   7.148 -0.5128 -0.0129 -0.8388
 7311SOL    HW133395   4.065   0.927   7.138  0.2898  1.4522 -4.3220
 7311SOL    HW233396   3.921   0.929   7.159 -0.4399  0.1646  0.6267
 7312SOL     OW33397   2.523   0.340  15.896 -0.3717  0.2814 -0.3418
 7312SOL    HW133398   2.576   0.320  15.819  0.0605 -0.3564  0.1180
 7312SOL    HW233399   2.493   0.261  15.941 -0.5931  0.9172  0.6524
 7313SOL     OW33400   3.090   1.803   7.236 -0.0621 -0.0284  0.4886
 7313SOL    HW133401   3.023   1.753   7.190 -0.0686  1.2243 -0.8727
 7313SOL    HW233402   3.164   1.816   7.176  1.5431  0.8146  2.6610
 7314SOL     OW33403   0.597   0.086  13.596  0.2776 -0.0818  0.4385
 7314SOL    HW133404   0.669   0.092  13.533  0.3942 -0.6880  0.5193
 7314SOL    HW233405   0.532   0.139  13.549  1.4173 -0.2585 -1.3293
 7315SOL     OW33406   0.065   2.408   0.034  0.1152 -0.3121  0.0758
 7315SOL    HW133407   0.075   2.326   0.081 -2.9484 -2.1272 -2.4186
 7315SOL    HW233408   0.011   2.454   0.099  2.6577  0.9684  1.2635
 7316SOL     OW33409   1.094   0.080  16.291  0.4987 -0.0074 -0.4409
 7316SOL    HW133410   1.116   0.157  16.344 -0.5105  0.3663 -0.5745
 7316SOL    HW233411   1.118   0.117  16.207 -4.8554 -0.8795 -2.3585
 7317SOL     OW33412   1.705   0.137   2.084 -0.3912 -0.0637  0.0541
 7317SOL    HW133413   1.649   0.210   2.060 -0.3072 -0.2497 -0.6958
 7317SOL    HW233414   1.649   0.103   2.154  0.1191  0.5378  0.7630
 7318SOL     OW33415   2.605   1.003  11.600  0.1832 -0.0558  0.2413
 7318SOL    HW133416   2.612   0.909  11.614 -1.2855 -0.6940 -3.3174
 7318SOL    HW233417   2.630   1.046  11.682  0.6946  0.9639 -0.4346
 7319SOL     OW33418   2.853   2.969   2.533 -0.2638  0.4348  0.3527
 7319SOL    HW133419   2.872   2.933   2.619 -2.0363  1.3574  1.1230
 7319SOL    HW233420   2.870   2.896   2.474 -0.1215 -0.8686  2.0129
 7320SOL     OW33421   4.110   1.216   4.076 -0.2734  0.0164 -0.1039
 7320SOL    HW133422   4.195   1.172   4.086 -1.0760 -1.4934 -0.0102
 7320SOL    HW233423   4.129   1.282   4.142 -1.6829  1.2821 -0.9724
 7321SOL     OW33424   0.844   1.584   2.396  0.4406  0.3951 -0.4268
 7321SOL    HW133425   0.918   1.643   2.390  0.6638  0.1091 -0.4761
 7321SOL    HW233426   0.831   1.575   2.491 -2.8738  0.4926 -0.8505
 7322SOL     OW33427   4.307   4.222   9.702  0.0933 -0.1699  0.1376
 7322SOL    HW133428   4.319   4.298   9.759  1.3252  1.6714 -2.5687
 7322SOL    HW233429   4.391   4.177   9.716  0.3572  0.7509  1.5804
 7323SOL     OW33430   0.907   1.505   5.899  0.5263 -0.2945  0.3855
 7323SOL    HW133431   0.963   1.521   5.823 -0.6540  2.0130  0.0031
 7323SOL    HW233432   0.835   1.563   5.875  1.4551  0.9540  0.5709
 7324SOL     OW33433   1.545   3.935   8.457  0.4817  0.0558 -0.1269
 7324SOL    HW133434   1.633   3.906   8.434  0.4305 -0.9268  0.9072
 7324SOL    HW233435   1.508   3.947   8.369  2.6848  0.9691 -0.9328
 7325SOL     OW33436   0.210   2.895   5.355 -0.1852  0.3316 -0.7874
 7325SOL    HW133437   0.151   2.933   5.289  1.3528 -0.5025 -2.6228
 7325SOL    HW233438   0.291   2.941   5.333 -0.4900  0.9962 -0.5376
 7326SOL     OW33439   2.042   1.236  10.482 -0.3128 -0.3716 -0.1987
 7326SOL    HW133440   2.074   1.146  10.477  1.7785  0.3805 -0.3882
 7326SOL    HW233441   2.106   1.278  10.540 -1.0388  1.3307 -0.6349
 7327SOL     OW33442   0.880   0.978   3.297 -0.4624  0.2632  0.2410
 7327SOL    HW133443   0.946   1.037   3.262 -1.3047  1.5159  0.7777
 7327SOL    HW233444   0.842   0.957   3.211  4.6970 -1.7824 -1.5272
 7328SOL     OW33445   1.052   0.828  12.754  0.4101  0.3834 -0.1602
 7328SOL    HW133446   1.123   0.840  12.817  0.8101 -0.4967 -0.4379
 7328SOL    HW233447   1.013   0.741  12.767  3.1628 -0.9465 -0.5850
 7329SOL     OW33448   2.473   2.345  14.236 -0.0721 -0.1312 -0.1236
 7329SOL    HW133449   2.458   2.392  14.318 -0.3867  0.4623 -0.5204
 7329SOL    HW233450   2.503   2.257  14.257 -0.1303 -0.6247 -2.1138
 7330SOL     OW33451   4.533   2.001   9.477 -0.3528  0.1512  0.1081
 7330SOL    HW133452   4.566   2.088   9.498 -0.8948  0.1175  1.0728
 7330SOL    HW233453   4.460   1.985   9.538 -0.7975 -2.0543 -0.9910
 7331SOL     OW33454   3.231   1.566   8.746  0.1434  0.0896  0.5241
 7331SOL    HW133455   3.254   1.473   8.742  4.1701  1.0677  1.1620
 7331SOL    HW233456   3.139   1.567   8.773  1.1673 -1.8816  4.0796
 7332SOL     OW33457   1.034   2.288   8.413  0.2378  0.0368 -0.1625
 7332SOL    HW133458   1.072   2.249   8.492  0.4775 -3.9831 -2.2546
 7332SOL    HW233459   1.074   2.236   8.343  1.7687 -0.3148  0.9673
 7333SOL     OW33460   0.748   2.387  13.774  0.2492  0.2225 -0.1620
 7333SOL    HW133461   0.784   2.412  13.859 -2.2019 -1.2076  1.2865
 7333SOL    HW233462   0.779   2.298  13.759  0.2214  0.0766  0.6817
 7334SOL     OW33463   2.524   1.583   6.487 -0.5562 -0.4407  0.2307
 7334SOL    HW133464   2.617   1.562   6.484 -0.5894 -0.5618  0.0755
 7334SOL    HW233465   2.486   1.521   6.425 -1.7486  0.4503  0.0712
 7335SOL     OW33466   3.116   2.722   3.186  0.0119  0.4336  0.2851
 7335SOL    HW133467   3.210   2.733   3.173  0.2500  0.0530  1.6734
 7335SOL    HW233468   3.090   2.790   3.125 -2.3823 -1.8710 -1.2611
 7336SOL     OW33469   0.196   4.694  12.561  0.4034  0.0768 -0.2537
 7336SOL    HW133470   0.231   0.043  12.610 -1.8912  1.5195 -0.7969
 7336SOL    HW233471   0.217   4.617  12.614  1.2431 -0.4848 -1.3700
 7337SOL     OW33472   1.317   1.548   4.869  0.0869 -0.0750 -0.3801
 7337SOL    HW133473   1.252   1.511   4.810  0.4677 -0.6292 -0.4507
 7337SOL    HW233474   1.285   1.518   4.954  2.4434 -2.8815 -0.4936
 7338SOL     OW33475   4.416   2.660   8.392  1.0761  0.6358 -0.3875
 7338SOL    HW133476   4.491   2.714   8.367  0.2594  2.3955  0.9068
 7338SOL    HW233477   4.353   2.710   8.340 -0.6756 -2.1490 -0.9554
 7339SOL     OW33478   2.721   1.437   5.657 -0.4112 -0.3542 -0.7962
 7339SOL    HW133479   2.804   1.461   5.616 -1.3727  0.0849 -2.4894
 7339SOL    HW233480   2.755   1.365   5.709 -1.7116 -1.5788 -1.6456
 7340SOL     OW33481   0.595   4.523   4.527 -0.3760  0.8215 -0.1808
 7340SOL    HW133482   0.634   4.482   4.604 -1.6740 -1.1794 -0.5960
 7340SOL    HW233483   0.655   4.499   4.456  0.0053 -0.9618  0.7567
 7341SOL     OW33484   4.380   0.762   4.150  0.5546  0.3800 -0.8002
 7341SOL    HW133485   4.405   0.852   4.169 -0.9657  1.0111 -1.8307
 7341SOL    HW233486   4.453   0.731   4.095  0.1429  0.2047 -1.2415
 7342SOL     OW33487   1.902   4.066   9.518 -0.0996  0.4775 -0.3393
 7342SOL    HW133488   1.815   4.102   9.500  0.7607  2.3609 -0.7443
 7342SOL    HW233489   1.915   4.003   9.448  2.1416  0.3323  0.2162
 7343SOL     OW33490   1.545   0.069   6.281  0.4932 -0.6076  0.1534
 7343SOL    HW133491   1.453   0.067   6.304  0.4141 -0.9370 -0.1943
 7343SOL    HW233492   1.578   4.713   6.322  1.6112  0.2697  0.9780
 7344SOL     OW33493   3.762   1.911  14.145 -0.0927  0.1563  0.2657
 7344SOL    HW133494   3.774   2.003  14.168  2.0206  0.4083 -1.9069
 7344SOL    HW233495   3.775   1.909  14.050 -1.2061 -0.3746  0.1155
 7345SOL     OW33496   3.591   2.393   9.712  0.0457 -0.2315  0.3726
 7345SOL    HW133497   3.522   2.459   9.710  0.0819 -0.2526 -1.4768
 7345SOL    HW233498   3.542   2.311   9.704  0.2707 -0.1358 -1.8530
 7346SOL     OW33499   4.072   3.136   7.533  0.2064 -0.3275 -0.2189
 7346SOL    HW133500   4.075   3.142   7.438 -0.2239  0.7178 -0.1674
 7346SOL    HW233501   4.164   3.119   7.549 -0.0804  1.7807  3.6803
 7347SOL     OW33502   1.920   0.597   8.374 -0.1333 -0.2692  0.0724
 7347SOL    HW133503   1.963   0.540   8.439  1.9525 -1.4695 -2.3675
 7347SOL    HW233504   1.856   0.535   8.339  1.1272 -1.6735  0.2051
 7348SOL     OW33505   1.290   1.212  11.119  0.3929 -0.4434 -0.3389
 7348SOL    HW133506   1.366   1.159  11.099 -0.3878 -0.8700 -2.1996
 7348SOL    HW233507   1.286   1.259  11.035 -2.1450  0.8723  0.4959
 7349SOL     OW33508   3.597   2.801   6.782 -0.8111  0.1514  0.1319
 7349SOL    HW133509   3.674   2.793   6.726 -0.9314  2.0514 -0.2875
 7349SOL    HW233510   3.603   2.714   6.822  1.4764 -0.1541 -0.8479
 7350SOL     OW33511   0.371   1.431   7.676  0.0692 -0.4752  0.4288
 7350SOL    HW133512   0.464   1.453   7.668  0.4843 -2.8511 -1.0999
 7350SOL    HW233513   0.376   1.354   7.732 -0.8311 -1.8980 -1.4506
 7351SOL     OW33514   0.877   2.753   8.088  0.3648 -0.1653 -0.2660
 7351SOL    HW133515   0.910   2.707   8.165  0.6767  0.5623  0.0332
 7351SOL    HW233516   0.783   2.749   8.108  0.5430  0.3852  0.6764
 7352SOL     OW33517   4.710   3.214  12.874  0.5608  0.1964 -0.1563
 7352SOL    HW133518   0.068   3.199  12.923 -1.8970  1.1517  4.2556
 7352SOL    HW233519   0.006   3.301  12.840 -0.4114  1.0215  1.3936
 7353SOL     OW33520   0.821   2.484  12.011  0.5452  0.2751 -0.2098
 7353SOL    HW133521   0.893   2.452  12.064  0.6951  1.4446  0.2957
 7353SOL    HW233522   0.786   2.551  12.069 -0.1452 -0.4143  0.1770
 7354SOL     OW33523   4.312   4.522   3.068  0.0603  0.1402 -0.7005
 7354SOL    HW133524   4.264   4.490   2.992  0.9111  0.9516 -1.5688
 7354SOL    HW233525   4.389   4.554   3.022 -0.1788  2.2019  0.3235
 7355SOL     OW33526   1.905   4.442   1.874  1.0111  0.0135  0.1417
 7355SOL    HW133527   1.849   4.520   1.873 -1.4469 -1.7946 -1.3919
 7355SOL    HW233528   1.984   4.478   1.916  2.2931  0.2032 -2.4168
 7356SOL     OW33529   0.418   3.208  11.068  0.1058 -0.4063  0.1690
 7356SOL    HW133530   0.453   3.297  11.066 -2.2342  0.5464  1.2184
 7356SOL    HW233531   0.489   3.153  11.101  0.5099  0.9123  1.5062
 7357SOL     OW33532   2.535   0.287  16.277  0.0535 -0.8805 -0.4487
 7357SOL    HW133533   2.477   0.211  16.264  1.6385 -2.2106  0.2661
 7357SOL    HW233534   2.507   0.330  16.196  2.9131  2.1756  0.2007
 7358SOL     OW33535   0.128   1.164   5.534  0.1007  0.0387  0.0423
 7358SOL    HW133536   0.061   1.176   5.602 -1.1393 -2.3461 -0.7413
 7358SOL    HW233537   0.075   1.161   5.454  1.7240  3.0897 -1.1198
 7359SOL     OW33538   0.485   3.991   6.820 -0.1947 -0.2038  0.3290
 7359SOL    HW133539   0.512   3.902   6.798 -0.8778  0.0068 -1.3554
 7359SOL    HW233540   0.398   3.976   6.858 -0.4153 -1.3160 -0.6412
 7360SOL     OW33541   0.645   0.729   8.536 -0.0121  0.9840 -0.9017
 7360SOL    HW133542   0.642   0.678   8.617  1.7579 -2.6885 -3.1892
 7360SOL    HW233543   0.736   0.754   8.522  0.0403  1.2891 -0.0031
 7361SOL     OW33544   4.663   2.785   7.440 -0.0940 -0.0620 -0.1942
 7361SOL    HW133545   4.663   2.821   7.351 -0.8833  0.6432  0.0936
 7361SOL    HW233546   4.632   2.697   7.419  2.4058 -0.9826  0.0755
 7362SOL     OW33547   0.816   0.201  14.037 -0.5552  0.8570  0.4002
 7362SOL    HW133548   0.754   0.147  13.987  2.2121 -0.3048 -1.7601
 7362SOL    HW233549   0.898   0.175  13.994 -0.8753 -1.3307  1.1172
 7363SOL     OW33550   3.302   0.117   5.797 -0.2480 -0.1302 -0.3207
 7363SOL    HW133551   3.305   0.206   5.762 -3.3454  0.4610  0.8770
 7363SOL    HW233552   3.348   0.124   5.880 -3.1230  0.1000  1.2747
 7364SOL     OW33553   0.502   0.997  16.888 -0.8346  0.3370  0.0765
 7364SOL    HW133554   0.445   1.056  16.838 -0.1799  0.1799 -0.8492
 7364SOL    HW233555   0.483   1.032  16.975  0.3920  2.4050 -0.4992
 7365SOL     OW33556   2.163   3.424   5.786 -0.2789  0.4579  0.1191
 7365SOL    HW133557   2.211   3.480   5.847 -1.0071  1.3084 -0.0905
 7365SOL    HW233558   2.164   3.473   5.704  2.6230 -0.7358 -0.5567
 7366SOL     OW33559   3.013   3.424   7.878 -0.7655  0.1374 -0.4476
 7366SOL    HW133560   3.017   3.329   7.892  3.9104  0.4176  0.2717
 7366SOL    HW233561   3.104   3.446   7.856 -0.1863 -0.5515  1.2675
 7367SOL     OW33562   2.603   3.240  10.314 -0.3806  0.5689 -0.0499
 7367SOL    HW133563   2.558   3.155  10.321  0.2977  0.3246  1.2501
 7367SOL    HW233564   2.650   3.224  10.232 -0.9484 -1.6517  0.0353
 7368SOL     OW33565   2.094   0.235   2.038  0.0100  0.4688  0.1102
 7368SOL    HW133566   2.059   0.164   1.985 -1.6076  1.4731 -0.1629
 7368SOL    HW233567   2.188   0.216   2.034 -0.1198  0.4623 -2.7489
 7369SOL     OW33568   1.314   4.678  16.607  0.6783 -0.6399  0.5780
 7369SOL    HW133569   1.231   4.655  16.650 -0.9357 -1.4642 -2.9665
 7369SOL    HW233570   1.326   4.600  16.552 -1.8773 -0.6644  0.0273
 7370SOL     OW33571   2.524   1.713   6.775  0.4961 -0.4824 -0.0079
 7370SOL    HW133572   2.524   1.768   6.854  0.4310 -0.8094  0.2186
 7370SOL    HW233573   2.574   1.635   6.799 -2.2912 -2.1342  0.4280
 7371SOL     OW33574   1.236   1.234   7.635  0.1664  0.3445 -0.2642
 7371SOL    HW133575   1.172   1.294   7.672 -1.0037 -2.1583  1.8048
 7371SOL    HW233576   1.237   1.176   7.712  4.5229  0.0436 -0.5321
 7372SOL     OW33577   4.680   0.392   4.388 -0.0891  0.2025 -0.9419
 7372SOL    HW133578   4.648   0.388   4.298  0.6628 -2.9193 -1.0423
 7372SOL    HW233579   4.675   0.486   4.407 -0.8152  0.2860 -1.5171
 7373SOL     OW33580   1.465   3.085  13.892  0.2158  0.1762 -0.0971
 7373SOL    HW133581   1.457   3.105  13.798  0.3893 -1.3454 -0.4294
 7373SOL    HW233582   1.377   3.107  13.922 -0.0495  0.7913 -1.3006
 7374SOL     OW33583   1.082   4.487   5.741 -0.1287 -0.3701  0.1854
 7374SOL    HW133584   1.033   4.509   5.662 -0.4403 -1.4607  0.0795
 7374SOL    HW233585   1.087   4.569   5.790 -0.2467 -1.2750  1.7215
 7375SOL     OW33586   1.429   3.483   2.127  0.3617  0.0004 -0.1919
 7375SOL    HW133587   1.492   3.458   2.195  1.1414  1.5905 -0.3342
 7375SOL    HW233588   1.405   3.568   2.161  1.3189  0.7902 -1.4852
 7376SOL     OW33589   2.625   1.912   9.966  0.4812  0.3265 -0.0003
 7376SOL    HW133590   2.654   1.996   9.931  1.6815  0.3119  0.9389
 7376SOL    HW233591   2.574   1.876   9.894 -0.2956  0.3733  0.5215
 7377SOL     OW33592   3.348   3.204   5.906  0.2583  0.1735  0.1433
 7377SOL    HW133593   3.410   3.220   5.977  0.2051 -2.1845  0.7160
 7377SOL    HW233594   3.348   3.289   5.862 -1.1312 -0.3564 -0.8751
 7378SOL     OW33595   0.199   2.206   5.232  0.4858 -0.3622  0.0655
 7378SOL    HW133596   0.216   2.131   5.290 -1.2497 -0.9261 -0.1474
 7378SOL    HW233597   0.283   2.252   5.229  0.2297  0.0540 -0.8492
 7379SOL     OW33598   1.302   2.313   0.624 -0.1454  0.6877  0.0495
 7379SOL    HW133599   1.330   2.404   0.613 -0.4175  0.5236 -1.9640
 7379SOL    HW233600   1.227   2.335   0.680 -0.3533  1.5369 -0.5579
 7380SOL     OW33601   1.138   0.419   4.780  0.4389 -1.2116 -0.0943
 7380SOL    HW133602   1.106   0.407   4.691  0.1887  0.7543 -0.2616
 7380SOL    HW233603   1.209   0.354   4.779  2.6210  1.1197  2.6417
 7381SOL     OW33604   0.639   4.097   1.858  0.2273 -0.1194 -0.5598
 7381SOL    HW133605   0.611   4.010   1.829  0.3836 -0.7819  1.2581
 7381SOL    HW233606   0.718   4.113   1.807  0.2809 -1.6815 -0.9517
 7382SOL     OW33607   4.599   3.230   5.775 -0.6523  0.3121  0.0796
 7382SOL    HW133608   4.531   3.166   5.751  1.0631 -0.7208 -2.0704
 7382SOL    HW233609   4.555   3.279   5.843  0.2575  0.3700  0.6233
 7383SOL     OW33610   3.206   0.392   6.754 -0.3722  0.5570 -0.0316
 7383SOL    HW133611   3.290   0.376   6.710 -1.1788  2.2774 -2.2289
 7383SOL    HW233612   3.204   0.486   6.741 -0.4496  0.3398 -1.5969
 7384SOL     OW33613   3.559   4.062  11.119 -0.1370 -0.2020  0.0144
 7384SOL    HW133614   3.580   4.086  11.209  0.9898  0.4525 -0.4193
 7384SOL    HW233615   3.646   4.063  11.080 -0.1059 -0.9992  0.0598
 7385SOL     OW33616   1.538   0.790   3.547 -0.2640  0.0543  0.3279
 7385SOL    HW133617   1.629   0.764   3.529 -0.0227  0.6686  0.6663
 7385SOL    HW233618   1.549   0.883   3.567 -0.1552  0.4973 -1.7789
 7386SOL     OW33619   4.496   0.473  17.370  0.3536  0.1019  0.1018
 7386SOL    HW133620   4.491   0.416  17.293  3.4495  0.6809 -0.5129
 7386SOL    HW233621   4.588   0.455  17.390  0.7034  0.2510 -1.3709
 7387SOL     OW33622   3.919   1.481  17.160  0.0043  0.1495  0.0535
 7387SOL    HW133623   3.929   1.494  17.254 -0.5839 -0.8022  0.2506
 7387SOL    HW233624   4.008   1.470  17.128  0.2426 -1.7258  1.3400
 7388SOL     OW33625   0.383   3.818  13.342  0.0356  0.3435  0.5449
 7388SOL    HW133626   0.349   3.858  13.262 -0.9086 -1.7061 -0.0900
 7388SOL    HW233627   0.421   3.890  13.392 -0.7721  1.8081 -0.9985
 7389SOL     OW33628   1.410   4.713   8.698 -0.5191 -0.1438  0.6262
 7389SOL    HW133629   1.461   0.064   8.667 -0.1173 -0.9271 -0.6003
 7389SOL    HW233630   1.397   0.014   8.790  0.8739  0.2454  0.7132
 7390SOL     OW33631   2.294   3.608   8.636  0.3986  0.0485 -0.5153
 7390SOL    HW133632   2.202   3.628   8.618  0.5805 -0.7811 -2.3367
 7390SOL    HW233633   2.313   3.672   8.705  0.0512  0.9757 -1.2673
 7391SOL     OW33634   2.553   2.418   5.769 -0.2410 -0.5139 -0.5685
 7391SOL    HW133635   2.503   2.339   5.789 -1.6641  0.2510 -1.0523
 7391SOL    HW233636   2.493   2.475   5.721 -0.4176 -0.3013 -0.0930
 7392SOL     OW33637   1.313   1.402   2.041  0.4837 -0.0173 -0.7787
 7392SOL    HW133638   1.308   1.396   1.945 -0.0999  0.3545 -0.7737
 7392SOL    HW233639   1.275   1.316   2.059  4.9312 -2.0014 -0.9507
 7393SOL     OW33640   3.577   1.115   8.247 -0.8535 -0.0020  0.1446
 7393SOL    HW133641   3.588   1.101   8.341 -0.3337  1.0287  0.2356
 7393SOL    HW233642   3.620   1.034   8.220 -1.3101 -0.7516  1.6829
 7394SOL     OW33643   0.796   4.637   1.360 -0.6379  0.3140 -0.8585
 7394SOL    HW133644   0.821   4.617   1.270 -3.0486 -0.2900 -1.3971
 7394SOL    HW233645   0.710   4.595   1.363 -0.9097  1.0187  1.0660
 7395SOL     OW33646   3.182   0.872   6.184 -0.0813  0.5593 -0.5564
 7395SOL    HW133647   3.231   0.908   6.110  0.5886  0.0650 -0.3537
 7395SOL    HW233648   3.205   0.779   6.177 -0.2643  0.4558  0.2593
 7396SOL     OW33649   1.052   1.296  13.130 -0.5400  0.1194  0.1282
 7396SOL    HW133650   0.993   1.354  13.082 -1.1309  1.5998  2.6772
 7396SOL    HW233651   0.995   1.232  13.172 -0.5193 -2.4056 -3.6132
 7397SOL     OW33652   2.119   4.491  13.630  0.0991 -0.0451 -0.1324
 7397SOL    HW133653   2.194   4.438  13.656 -1.4692 -2.0772  0.2878
 7397SOL    HW233654   2.146   4.516  13.542 -0.9412 -1.6148 -0.8982
 7398SOL     OW33655   1.182   3.864   0.371 -0.2069 -0.1878 -0.1089
 7398SOL    HW133656   1.196   3.954   0.339 -0.2396  0.4957  1.8387
 7398SOL    HW233657   1.224   3.862   0.457  1.1153 -0.6859 -0.7635
 7399SOL     OW33658   3.085   1.188   9.416 -0.2981  0.2198 -0.1238
 7399SOL    HW133659   3.176   1.170   9.441 -0.2591  0.2501 -0.2447
 7399SOL    HW233660   3.069   1.124   9.347  0.7982 -1.5337  1.2243
 7400SOL     OW33661   3.536   3.622   8.941 -0.6598  0.3077 -0.3606
 7400SOL    HW133662   3.444   3.629   8.916 -0.4055 -1.0332 -1.6396
 7400SOL    HW233663   3.511   3.569   9.016 -1.5871 -0.3093 -1.1122
 7401SOL     OW33664   4.473   1.671   9.075  0.3149 -0.2129 -0.0415
 7401SOL    HW133665   4.466   1.725   9.153  2.0395 -4.1470  2.8130
 7401SOL    HW233666   4.451   1.590   9.120 -1.4674 -0.1044 -0.7175
 7402SOL     OW33667   3.193   0.707   3.425 -0.7649 -0.1518  0.0129
 7402SOL    HW133668   3.204   0.694   3.330  0.1740 -0.7545  0.2082
 7402SOL    HW233669   3.265   0.760   3.458 -1.1778  1.3473 -1.4517
 7403SOL     OW33670   1.216   1.195  10.134  0.2721 -0.0073  0.0196
 7403SOL    HW133671   1.257   1.163  10.053 -0.4238  1.1008 -0.7728
 7403SOL    HW233672   1.292   1.231  10.180  1.7822 -1.2254 -1.4770
 7404SOL     OW33673   2.819   1.887   3.685  0.3966 -0.4670  0.0711
 7404SOL    HW133674   2.760   1.825   3.641 -0.1587  0.5167 -0.5706
 7404SOL    HW233675   2.904   1.843   3.685  0.4968 -0.2698 -0.3862
 7405SOL     OW33676   2.791   3.939  11.911 -0.5366  0.3306  0.3965
 7405SOL    HW133677   2.874   3.983  11.929 -0.2310 -0.9735  2.1381
 7405SOL    HW233678   2.818   3.847  11.910 -0.7756  0.2492  1.5878
 7406SOL     OW33679   3.637   2.421   9.225 -0.0782  0.0369 -0.0358
 7406SOL    HW133680   3.604   2.485   9.288  0.2358  0.9011 -0.7363
 7406SOL    HW233681   3.663   2.357   9.291 -0.2212  0.6769  0.6407
 7407SOL     OW33682   4.549   4.300   5.090 -0.1678 -0.0233  0.2012
 7407SOL    HW133683   4.558   4.379   5.143  1.3917 -0.1054  0.0533
 7407SOL    HW233684   4.624   4.320   5.034  0.2557  0.8569  1.0989
 7408SOL     OW33685   3.305   1.322   5.873 -0.1718 -0.5856 -0.1655
 7408SOL    HW133686   3.339   1.249   5.821  0.2713  0.0187 -0.7152
 7408SOL    HW233687   3.254   1.367   5.806  0.4977  0.5986  0.1283
 7409SOL     OW33688   1.691   2.651   4.405  0.3539  0.3268 -0.2288
 7409SOL    HW133689   1.697   2.701   4.324 -0.8088 -0.0597 -0.5623
 7409SOL    HW233690   1.756   2.585   4.381 -0.1517 -0.2713  0.0308
 7410SOL     OW33691   1.807   4.709   8.346  0.2134 -0.3140 -0.0722
 7410SOL    HW133692   1.808   4.616   8.370 -1.2308 -0.4052 -0.3452
 7410SOL    HW233693   1.752   4.711   8.268  0.1901  3.1390  0.0234
 7411SOL     OW33694   2.013   2.240  15.181  0.0390  0.6172  0.3674
 7411SOL    HW133695   2.084   2.243  15.245 -1.2814 -0.7568  1.8796
 7411SOL    HW233696   1.940   2.225  15.241 -0.3770 -0.1825 -0.3495
 7412SOL     OW33697   3.618   1.518   9.509  0.0841 -0.0884  0.3188
 7412SOL    HW133698   3.621   1.486   9.599  0.1436 -0.8635  0.0379
 7412SOL    HW233699   3.559   1.592   9.519  2.4639  2.1867 -2.6497
 7413SOL     OW33700   3.415   1.236  14.212 -0.2959 -0.5581  0.5943
 7413SOL    HW133701   3.354   1.179  14.258  1.2269 -2.1017  0.7276
 7413SOL    HW233702   3.480   1.264  14.276  1.8684 -2.2581 -0.8461
 7414SOL     OW33703   1.814   0.031   2.536 -0.3721  0.7617  0.3512
 7414SOL    HW133704   1.793   0.123   2.521  1.8066  0.9394 -1.7090
 7414SOL    HW233705   1.889   0.026   2.476 -1.6525 -0.5692 -1.1430
 7415SOL     OW33706   0.461   3.019   5.298 -0.2071 -0.0658  0.5674
 7415SOL    HW133707   0.548   3.010   5.259 -0.6505 -0.3259 -0.3642
 7415SOL    HW233708   0.417   3.073   5.232  1.0217 -2.2922 -2.0304
 7416SOL     OW33709   0.752   2.132  13.829  0.5874  0.1619 -0.0086
 7416SOL    HW133710   0.725   2.041  13.820 -0.1211  0.2334  1.3953
 7416SOL    HW233711   0.777   2.129  13.921  1.0262 -0.6787 -0.1585
 7417SOL     OW33712   4.311   3.817   6.862 -0.2408  0.0098 -0.0557
 7417SOL    HW133713   4.272   3.904   6.858 -0.5781 -0.1723 -0.7016
 7417SOL    HW233714   4.405   3.831   6.846 -0.1819 -2.5051 -1.9611
 7418SOL     OW33715   0.900   3.974   0.867 -0.1096 -0.2829  0.5653
 7418SOL    HW133716   0.806   3.979   0.851 -0.3185 -1.3187  1.4586
 7418SOL    HW233717   0.929   3.930   0.787 -0.3978  0.8278 -0.1537
 7419SOL     OW33718   0.147   0.669  17.258 -0.0748 -0.1488 -0.5663
 7419SOL    HW133719   0.219   0.647  17.318  0.3499  2.0056 -0.3128
 7419SOL    HW233720   0.136   0.582  17.219  1.5096 -0.6796  0.1235
 7420SOL     OW33721   3.375   2.411   9.414 -0.0422  0.0088 -0.1948
 7420SOL    HW133722   3.467   2.385   9.409  0.1471  0.4846  0.9312
 7420SOL    HW233723   3.388   2.505   9.417 -0.9005  0.0965  0.8800
 7421SOL     OW33724   3.033   0.254   7.548  0.8243 -0.1142 -0.3381
 7421SOL    HW133725   3.024   0.170   7.594  2.2239  0.3917  0.8828
 7421SOL    HW233726   2.954   0.294   7.584  1.0389 -0.0142  0.0255
 7422SOL     OW33727   0.150   2.486   5.603  0.0683 -0.4193  0.6152
 7422SOL    HW133728   0.186   2.533   5.528 -1.9491  0.3748  0.1550
 7422SOL    HW233729   0.224   2.483   5.664 -1.6381 -0.6380  2.6694
 7423SOL     OW33730   2.410   0.834  15.504  0.1313 -0.0630 -0.1412
 7423SOL    HW133731   2.478   0.835  15.571 -2.0860 -1.1925  2.1039
 7423SOL    HW233732   2.446   0.907  15.454  1.1559 -1.7123 -1.8211
 7424SOL     OW33733   0.537   1.325   8.293  0.0251 -0.1963  0.2027
 7424SOL    HW133734   0.496   1.370   8.219  2.0428  1.1417 -0.0922
 7424SOL    HW233735   0.510   1.233   8.297  1.5511 -0.6490 -0.1787
 7425SOL     OW33736   0.210   4.254   0.750  0.6603 -0.4626  0.7644
 7425SOL    HW133737   0.178   4.190   0.686 -1.3663 -0.3405  1.6471
 7425SOL    HW233738   0.267   4.314   0.702  1.7697 -1.2725  1.0642
 7426SOL     OW33739   2.853   2.703   1.726  0.2318  0.3399 -0.0032
 7426SOL    HW133740   2.906   2.629   1.694 -0.4295  0.3483 -1.1364
 7426SOL    HW233741   2.856   2.759   1.648 -0.3019  0.4411  0.0505
 7427SOL     OW33742   0.610   2.045   4.258 -0.7083 -0.4890 -0.2393
 7427SOL    HW133743   0.606   2.060   4.163  0.4788  0.3346 -0.1553
 7427SOL    HW233744   0.697   2.079   4.278 -0.1757 -0.1065 -3.1066
 7428SOL     OW33745   4.338   3.671   3.590  0.2069 -0.0226  0.7967
 7428SOL    HW133746   4.423   3.629   3.603  0.5593 -0.1538 -2.0326
 7428SOL    HW233747   4.331   3.649   3.497 -1.8017 -0.2023  1.0005
 7429SOL     OW33748   4.472   0.670   3.380 -0.1358  0.2008 -1.0488
 7429SOL    HW133749   4.566   0.650   3.377 -0.3428 -0.9176  0.4305
 7429SOL    HW233750   4.472   0.765   3.394  2.7178 -0.1163  1.1663
 7430SOL     OW33751   1.221   2.595   2.110 -0.1861  0.2438  0.3484
 7430SOL    HW133752   1.277   2.534   2.157  2.1894 -0.5493 -3.5612
 7430SOL    HW233753   1.275   2.630   2.039  1.0879 -1.4592  0.4903
 7431SOL     OW33754   0.134   3.710   6.766 -0.1841  0.1367 -0.3413
 7431SOL    HW133755   0.144   3.620   6.797 -0.2656  0.5117  0.7864
 7431SOL    HW233756   0.168   3.707   6.677  0.9867 -0.1537  0.1092
 7432SOL     OW33757   4.239   0.142  16.897  0.4033  0.2291 -0.2913
 7432SOL    HW133758   4.162   0.198  16.889 -0.5028 -0.7420  1.6503
 7432SOL    HW233759   4.263   0.133  16.804  1.7771  2.1814 -0.1364
 7433SOL     OW33760   4.630   4.166   8.598  0.0909 -0.3057  0.1080
 7433SOL    HW133761   4.562   4.220   8.559 -0.5628 -0.3405  1.2017
 7433SOL    HW233762   4.582   4.095   8.641 -0.3549 -1.2773 -1.9843
 7434SOL     OW33763   2.143   4.507   1.999  0.0794  0.5385 -0.0212
 7434SOL    HW133764   2.126   4.592   2.039  0.5829  2.3768 -3.6764
 7434SOL    HW233765   2.237   4.522   1.986  0.0984 -1.5074 -2.1526
 7435SOL     OW33766   2.926   2.343   9.132 -0.5217 -0.0496 -0.3712
 7435SOL    HW133767   2.948   2.432   9.104  2.1433 -0.6146 -0.0718
 7435SOL    HW233768   2.939   2.292   9.052  3.4316  0.8477 -0.3353
 7436SOL     OW33769   0.724   3.775   2.203 -0.6239  0.2839 -0.0855
 7436SOL    HW133770   0.714   3.771   2.298  1.1418  0.4569  0.0945
 7436SOL    HW233771   0.782   3.851   2.202 -0.5014  0.1913  0.0472
 7437SOL     OW33772   0.947   3.753   4.399  0.0533  0.0985 -0.3993
 7437SOL    HW133773   0.902   3.835   4.381 -1.9323 -1.0457 -0.5419
 7437SOL    HW233774   0.910   3.745   4.486  1.9943 -0.5963  0.3772
 7438SOL     OW33775   0.104   0.877   4.141 -0.0449  0.2728  0.2616
 7438SOL    HW133776   0.180   0.904   4.089 -0.0969 -0.6773 -0.2997
 7438SOL    HW233777   0.144   0.807   4.191 -2.2028 -1.1942 -0.0572
 7439SOL     OW33778   3.958   1.295   5.406 -0.2681  0.4774  0.3615
 7439SOL    HW133779   3.889   1.273   5.468  0.3315  1.0096  1.2175
 7439SOL    HW233780   4.032   1.251   5.447  1.5513  1.9575 -1.3179
 7440SOL     OW33781   2.117   2.567   1.413  1.0193  0.2646  0.3107
 7440SOL    HW133782   2.092   2.541   1.324  2.7390 -0.7238  0.1254
 7440SOL    HW233783   2.212   2.574   1.401  1.1160 -0.7375  0.5127
 7441SOL     OW33784   4.677   2.432   5.783 -0.2865  0.3542  0.4823
 7441SOL    HW133785   4.692   2.398   5.695 -2.5027  2.7179 -0.8213
 7441SOL    HW233786   4.702   2.524   5.770  0.9337  0.2603  2.2088
 7442SOL     OW33787   1.401   1.840   6.774  0.7186 -0.4179 -0.5579
 7442SOL    HW133788   1.341   1.820   6.846  1.8667  1.1528  0.8231
 7442SOL    HW233789   1.360   1.814   6.691  1.9132 -2.0294 -0.6459
 7443SOL     OW33790   0.814   0.165   8.284  0.0721 -0.4019 -0.0879
 7443SOL    HW133791   0.789   0.132   8.370 -1.2329  1.9526  0.4579
 7443SOL    HW233792   0.767   0.248   8.280  0.0613 -0.4151 -0.2693
 7444SOL     OW33793   3.727   3.361   8.261  0.5417 -0.2627 -0.0938
 7444SOL    HW133794   3.764   3.326   8.342 -1.8522 -0.1632  1.0239
 7444SOL    HW233795   3.752   3.453   8.259  0.5976 -0.2766 -0.0496
 7445SOL     OW33796   2.217   0.422  17.109  0.3409  0.3455  0.4882
 7445SOL    HW133797   2.161   0.359  17.063  1.3063  0.1411 -0.4080
 7445SOL    HW233798   2.168   0.431  17.191 -1.8740 -1.4635 -0.6065
 7446SOL     OW33799   2.942   2.544   8.514 -0.2131  0.3382  0.4464
 7446SOL    HW133800   3.002   2.587   8.574  0.3430 -0.4835  0.4664
 7446SOL    HW233801   2.857   2.588   8.520  0.4138  1.4542  1.0446
 7447SOL     OW33802   2.733   4.515   6.847  0.3361  0.2558 -0.0820
 7447SOL    HW133803   2.766   4.458   6.916  1.4989  0.9918 -0.0111
 7447SOL    HW233804   2.788   4.592   6.864 -1.5690  1.5823  0.1325
 7448SOL     OW33805   2.653   2.395   3.844 -0.3510 -0.3580  0.5838
 7448SOL    HW133806   2.708   2.458   3.798  1.0610 -1.8300  0.2603
 7448SOL    HW233807   2.719   2.367   3.908 -0.7915 -1.1356  0.7154
 7449SOL     OW33808   2.902   0.745   5.649 -0.1837  0.0167  0.0479
 7449SOL    HW133809   2.855   0.770   5.569 -0.4148 -0.6665 -0.0279
 7449SOL    HW233810   2.846   0.789   5.714 -1.0953 -1.3315  0.1658
 7450SOL     OW33811   2.683   2.459  12.540  0.1680 -0.0097 -0.7706
 7450SOL    HW133812   2.651   2.532  12.487 -2.7810 -0.3497  0.4978
 7450SOL    HW233813   2.776   2.481  12.541  0.3681 -0.7963 -2.0311
 7451SOL     OW33814   3.985   2.015  15.298 -0.0400  0.1703  0.1241
 7451SOL    HW133815   4.030   1.947  15.248  0.6994  0.4410  0.4313
 7451SOL    HW233816   4.043   2.017  15.374  0.6149 -1.2712 -0.3383
 7452SOL     OW33817   2.638   1.844   6.350  0.1760 -0.8856  0.1195
 7452SOL    HW133818   2.689   1.921   6.324  1.5108 -2.1386 -0.9856
 7452SOL    HW233819   2.627   1.794   6.270 -2.5815  0.0247 -0.0656
 7453SOL     OW33820   4.257   1.742   8.859  0.3552  0.3222  0.1228
 7453SOL    HW133821   4.279   1.653   8.832  1.1928  0.9655 -1.3041
 7453SOL    HW233822   4.280   1.738   8.952 -0.2427  1.1807  0.3107
 7454SOL     OW33823   0.071   4.433  14.034 -0.1968  0.2701 -0.2135
 7454SOL    HW133824   0.070   4.338  14.045 -1.0477  0.2113 -0.8025
 7454SOL    HW233825   0.140   4.456  14.096 -0.7041  0.1957  0.3831
 7455SOL     OW33826   1.600   1.217   1.252 -0.3993 -0.1197  0.4633
 7455SOL    HW133827   1.670   1.155   1.272 -0.6389 -0.6484 -0.3436
 7455SOL    HW233828   1.541   1.190   1.322 -2.7048  0.5813 -1.1957
 7456SOL     OW33829   3.095   0.614   2.737  0.1986 -0.4015 -0.3668
 7456SOL    HW133830   3.153   0.595   2.811  0.5897  1.2689 -0.2359
 7456SOL    HW233831   3.011   0.571   2.751  0.4413 -0.7676 -0.0217
 7457SOL     OW33832   0.010   0.679   8.522 -0.2883  0.1266 -0.1845
 7457SOL    HW133833   0.063   0.758   8.516 -2.7215  1.5672 -2.8284
 7457SOL    HW233834   4.672   0.701   8.452  1.3285 -1.5048 -2.1105
 7458SOL     OW33835   2.205   0.142   3.241 -0.2737 -0.1338  0.4566
 7458SOL    HW133836   2.128   0.198   3.231 -0.7194 -0.5327  1.5963
 7458SOL    HW233837   2.252   0.171   3.163 -1.4582 -0.3239 -0.3325
 7459SOL     OW33838   1.307   4.134   3.261 -0.8522 -0.1930  0.2114
 7459SOL    HW133839   1.325   4.158   3.170 -0.6002 -0.0406  0.3013
 7459SOL    HW233840   1.214   4.156   3.265 -1.0143 -0.5910 -1.6911
 7460SOL     OW33841   1.483   1.444   9.610 -0.0345  0.3941  0.7492
 7460SOL    HW133842   1.494   1.537   9.632 -0.6816  0.4003  1.0381
 7460SOL    HW233843   1.573   1.411   9.606  0.7883  2.8388 -1.1892
 7461SOL     OW33844   2.804   3.002   8.759 -0.2877  0.1878 -0.3523
 7461SOL    HW133845   2.863   2.990   8.684  0.4622 -2.3880  0.6607
 7461SOL    HW233846   2.844   2.955   8.832  1.4291  1.0911 -0.7136
 7462SOL     OW33847   1.901   2.263   9.201  0.2011 -0.0304 -0.6889
 7462SOL    HW133848   1.946   2.230   9.278 -1.7402  0.7247  0.7718
 7462SOL    HW233849   1.958   2.332   9.166 -0.7951  1.3640  0.4376
 7463SOL     OW33850   0.132   0.395   7.109 -0.4910  0.2115 -0.0289
 7463SOL    HW133851   0.140   0.344   7.190  2.1420 -0.5046 -0.7425
 7463SOL    HW233852   0.045   0.376   7.073 -0.7126 -0.1369  0.6872
 7464SOL     OW33853   0.520   2.287   0.277  0.1777 -0.4178  0.1991
 7464SOL    HW133854   0.487   2.198   0.285 -0.0694 -0.3752 -0.3482
 7464SOL    HW233855   0.439   2.330   0.304  0.5467  0.3440  0.1007
 7465SOL     OW33856   2.685   2.754   2.096 -0.0065  0.4619  0.3872
 7465SOL    HW133857   2.646   2.776   2.011 -0.0156  0.2333  0.3332
 7465SOL    HW233858   2.646   2.668   2.112 -1.0176  1.0008  0.8601
 7466SOL     OW33859   1.837   2.867   1.825  0.3262 -0.1779  0.4387
 7466SOL    HW133860   1.886   2.949   1.835  1.2106 -0.6737  0.1822
 7466SOL    HW233861   1.902   2.804   1.793 -0.4598 -1.2012  0.8778
 7467SOL     OW33862   2.695   0.048   6.569 -0.7025 -0.6437  0.0708
 7467SOL    HW133863   2.721   0.099   6.647  0.3803  0.6513 -1.1406
 7467SOL    HW233864   2.639   0.109   6.521  1.8608 -0.2638 -2.4189
 7468SOL     OW33865   2.461   3.434   6.223 -0.1639  0.4320  0.0547
 7468SOL    HW133866   2.391   3.472   6.170 -0.4252  1.5614  1.2155
 7468SOL    HW233867   2.435   3.342   6.217  1.3997  0.0207 -0.3233
 7469SOL     OW33868   4.311   3.704   4.014 -0.3031 -0.5824 -0.1280
 7469SOL    HW133869   4.231   3.693   4.066 -1.2685  0.7762 -1.3320
 7469SOL    HW233870   4.278   3.673   3.929 -1.0208 -1.1663  0.3589
 7470SOL     OW33871   0.163   3.145   5.834  0.2322 -0.4889  0.1333
 7470SOL    HW133872   0.076   3.106   5.835 -1.2632  2.8558  0.0227
 7470SOL    HW233873   0.209   3.069   5.868  1.3859  0.9527  1.8195
 7471SOL     OW33874   0.499   1.413   2.000 -0.1678 -0.1330 -0.2074
 7471SOL    HW133875   0.544   1.401   1.916  1.0394  0.1087  0.4046
 7471SOL    HW233876   0.530   1.335   2.046 -0.1963 -1.5233 -2.5579
 7472SOL     OW33877   3.065   2.052   1.187 -0.7301 -0.4233 -0.9203
 7472SOL    HW133878   3.073   2.146   1.172  1.2353 -0.5921 -0.8221
 7472SOL    HW233879   2.975   2.049   1.220 -0.5943  1.5990 -0.3867
 7473SOL     OW33880   1.565   1.573   3.482 -0.2223  0.6364 -0.1435
 7473SOL    HW133881   1.599   1.643   3.537 -2.5836  2.3063 -0.8045
 7473SOL    HW233882   1.584   1.495   3.534 -2.2387 -0.2256 -0.6656
 7474SOL     OW33883   2.602   1.746   8.535 -0.8280  0.1185  0.1380
 7474SOL    HW133884   2.594   1.722   8.627  0.6217  0.5789  0.3808
 7474SOL    HW233885   2.645   1.666   8.504 -2.7881 -0.2400 -1.6554
 7475SOL     OW33886   4.433   1.351  14.540  0.2389 -0.8244 -0.1786
 7475SOL    HW133887   4.405   1.396  14.461  2.6316  0.0998 -0.5003
 7475SOL    HW233888   4.365   1.369  14.606  0.3422  0.2756 -0.3659
 7476SOL     OW33889   0.096   3.715   9.248  0.8309  0.1750 -0.0473
 7476SOL    HW133890   0.011   3.680   9.275 -0.0346  0.8269 -1.9541
 7476SOL    HW233891   0.092   3.797   9.296 -0.5339  0.8435 -1.3112
 7477SOL     OW33892   1.251   2.708   5.693 -0.0914  0.0273  0.1932
 7477SOL    HW133893   1.221   2.692   5.783 -0.2082  0.4231  0.2253
 7477SOL    HW233894   1.177   2.664   5.650  0.4858 -0.4062 -0.3538
 7478SOL     OW33895   0.720   0.823   7.903  0.1797  0.2705 -0.4598
 7478SOL    HW133896   0.774   0.845   7.828  2.8520 -0.0979  1.3805
 7478SOL    HW233897   0.774   0.860   7.973  0.0928  0.6149 -0.5742
 7479SOL     OW33898   2.364   3.687   1.571  0.3097 -0.3109  0.6455
 7479SOL    HW133899   2.386   3.689   1.478  1.8302  0.1863  1.0075
 7479SOL    HW233900   2.431   3.745   1.609  1.5528 -0.7867 -0.8220
 7480SOL     OW33901   1.550   0.716   7.790  0.4869  0.4192 -0.1131
 7480SOL    HW133902   1.559   0.770   7.868 -0.5961  1.2232 -0.5334
 7480SOL    HW233903   1.573   0.630   7.825 -1.4261  0.1401  0.4575
 7481SOL     OW33904   2.281   3.361   7.379  0.4349  1.0965  0.0892
 7481SOL    HW133905   2.202   3.401   7.415 -1.8486 -2.2234 -1.2671
 7481SOL    HW233906   2.327   3.353   7.463  0.8071 -0.4476 -0.2478
 7482SOL     OW33907   3.660   1.101   2.460  0.3558  0.2769  0.6595
 7482SOL    HW133908   3.706   1.022   2.433 -0.1552 -0.8069  2.9267
 7482SOL    HW233909   3.583   1.052   2.486  0.7165 -1.5920 -1.8633
 7483SOL     OW33910   3.883   1.566   3.188 -0.4361 -0.2374  0.4078
 7483SOL    HW133911   3.846   1.512   3.258 -0.1497 -0.8537  0.0795
 7483SOL    HW233912   3.920   1.636   3.243 -0.8954  1.7895 -1.8744
 7484SOL     OW33913   1.043   0.034  14.684 -0.4414  0.4068 -0.1639
 7484SOL    HW133914   1.034   4.677  14.633 -2.2241 -0.3977  1.3879
 7484SOL    HW233915   1.079   4.707  14.757 -2.4520  0.9367  1.1940
 7485SOL     OW33916   3.441   2.102   3.017  0.3575  0.0428 -0.3057
 7485SOL    HW133917   3.374   2.171   3.023 -0.1923 -0.5481  0.3758
 7485SOL    HW233918   3.471   2.090   3.107  0.9848  0.5810 -0.4372
 7486SOL     OW33919   3.255   3.458   5.800 -0.0596 -0.0802 -0.0095
 7486SOL    HW133920   3.249   3.466   5.705 -1.4214 -1.3015 -0.0219
 7486SOL    HW233921   3.162   3.465   5.820 -0.0624 -1.7195  0.5907
 7487SOL     OW33922   1.735   0.846   0.778  0.3487 -0.2512  0.1263
 7487SOL    HW133923   1.652   0.818   0.739  0.9682  1.1505 -2.1627
 7487SOL    HW233924   1.724   0.824   0.870 -0.0622  2.0107  0.6054
 7488SOL     OW33925   2.050   1.711  12.079 -0.3194  0.3823  0.4006
 7488SOL    HW133926   2.108   1.635  12.082 -0.4419  0.2130 -1.5924
 7488SOL    HW233927   2.012   1.727  12.166  1.0210  1.9090  0.7207
 7489SOL     OW33928   1.409   3.033   3.325  0.1045  0.0484  0.4992
 7489SOL    HW133929   1.348   3.060   3.256  1.3386  1.2583 -0.1245
 7489SOL    HW233930   1.446   3.117   3.354  2.9691 -0.5349 -1.4919
 7490SOL     OW33931   3.669   1.982   1.104  0.5454  0.2214  0.1100
 7490SOL    HW133932   3.731   1.923   1.061  1.4501  1.4051 -0.2294
 7490SOL    HW233933   3.670   1.942   1.191  1.4835 -0.3164 -0.1425
 7491SOL     OW33934   4.622   1.475  14.361  0.0808 -0.3099 -0.0434
 7491SOL    HW133935   4.664   1.408  14.306 -0.7582 -0.9377  0.0808
 7491SOL    HW233936   4.701   1.529  14.368 -1.2020  1.3346  1.8548
 7492SOL     OW33937   2.673   3.611  12.668  0.1117  0.5533 -0.3574
 7492SOL    HW133938   2.645   3.578  12.753 -0.7154  2.0692 -0.0349
 7492SOL    HW233939   2.740   3.676  12.688 -0.5520  1.1570 -0.0915
 7493SOL     OW33940   4.145   4.099  11.823  0.1307 -0.6074  0.4844
 7493SOL    HW133941   4.176   4.146  11.900  2.2553 -2.0747  0.5151
 7493SOL    HW233942   4.050   4.114  11.823 -0.3162 -3.4062  1.3558
 7494SOL     OW33943   1.712   2.786   8.444 -0.4954 -0.2069 -0.1311
 7494SOL    HW133944   1.638   2.800   8.503 -1.3254  1.4361 -1.5698
 7494SOL    HW233945   1.774   2.754   8.510  0.1715 -2.1929 -1.7399
 7495SOL     OW33946   1.303   1.432  14.960  0.4584  0.5773 -0.0397
 7495SOL    HW133947   1.248   1.353  14.956  0.4885  0.5234  0.7683
 7495SOL    HW233948   1.350   1.420  15.042  1.4403  1.0048 -0.5376
 7496SOL     OW33949   2.466   2.253   2.729 -0.7094 -0.0650  0.0655
 7496SOL    HW133950   2.470   2.199   2.808  2.8112  1.7397  1.1155
 7496SOL    HW233951   2.375   2.251   2.699 -1.2991 -0.2503  1.8635
 7497SOL     OW33952   0.379   2.106   9.923 -1.0571 -0.1289 -0.0195
 7497SOL    HW133953   0.336   2.076  10.003 -0.5359 -1.2526 -0.1534
 7497SOL    HW233954   0.304   2.090   9.865 -1.4127 -0.5742  0.5613
 7498SOL     OW33955   3.864   1.024   2.670  0.1051 -0.1418  0.9029
 7498SOL    HW133956   3.886   0.953   2.609  0.2434 -0.0201  0.8097
 7498SOL    HW233957   3.841   1.103   2.621  0.1674 -0.4822  0.3291
 7499SOL     OW33958   3.986   2.104  11.101 -0.2989  0.2068  0.3057
 7499SOL    HW133959   3.957   2.130  11.014 -0.1299 -0.0777  0.1659
 7499SOL    HW233960   4.079   2.090  11.088 -0.6151 -0.7087 -0.9848
 7500SOL     OW33961   2.214   2.999  12.316 -0.2904  0.1962 -0.0628
 7500SOL    HW133962   2.140   2.971  12.262 -0.4978  0.8696 -0.1361
 7500SOL    HW233963   2.171   3.032  12.395  0.7503  0.4929  0.3725
 7501SOL     OW33964   0.946   3.081   8.105  0.2886 -0.2941 -0.2377
 7501SOL    HW133965   0.965   2.999   8.060 -0.7474 -1.1921  0.9561
 7501SOL    HW233966   1.034   3.117   8.108  0.5046 -0.7715 -0.9476
 7502SOL     OW33967   4.687   3.208   6.294 -0.1444 -0.6281  0.0644
 7502SOL    HW133968   4.684   3.131   6.237  2.0927 -1.7182  1.4354
 7502SOL    HW233969   4.702   3.282   6.236 -0.5120 -0.6810 -0.0972
 7503SOL     OW33970   1.257   1.227   2.330 -0.7029  0.5546 -0.1007
 7503SOL    HW133971   1.262   1.195   2.420  1.0281 -0.9523 -0.7198
 7503SOL    HW233972   1.177   1.279   2.323 -0.9831  0.4365  2.4825
 7504SOL     OW33973   0.746   2.733   2.510  0.0820  0.0523  0.0186
 7504SOL    HW133974   0.776   2.740   2.420  1.2746  3.9695  0.7150
 7504SOL    HW233975   0.742   2.638   2.523  1.5636  0.2309  1.8918
 7505SOL     OW33976   2.868   3.549   9.603 -0.6872  0.3123  0.3000
 7505SOL    HW133977   2.935   3.490   9.636 -1.1788  0.4137  1.4620
 7505SOL    HW233978   2.805   3.489   9.562  1.6957 -0.9947 -1.4153
 7506SOL     OW33979   4.563   3.811  10.886  0.0196 -0.6210  0.4187
 7506SOL    HW133980   4.537   3.813  10.794 -0.8591 -2.4381  0.6245
 7506SOL    HW233981   4.507   3.743  10.924 -0.1146 -0.3728  0.6612
 7507SOL     OW33982   4.343   4.639   0.315 -0.1476  0.5121  0.3822
 7507SOL    HW133983   4.303   0.001   0.326  1.2580  0.9866  1.6826
 7507SOL    HW233984   4.335   4.604   0.404 -0.3921  0.3125  0.2830
 7508SOL     OW33985   2.500   0.491   7.567  0.4771 -0.0663 -0.0093
 7508SOL    HW133986   2.563   0.482   7.496  0.0385 -0.6609 -0.3311
 7508SOL    HW233987   2.427   0.540   7.528 -0.4182 -0.5682  1.0359
 7509SOL     OW33988   3.409   0.857   1.552 -0.4360 -0.7143  0.1569
 7509SOL    HW133989   3.409   0.770   1.512  1.4018  0.1050 -1.6440
 7509SOL    HW233990   3.486   0.865   1.607 -0.3006  0.5951 -0.2300
 7510SOL     OW33991   2.696   3.591   6.260 -0.5447  0.0315 -0.7383
 7510SOL    HW133992   2.628   3.524   6.250  0.9007 -1.4508 -0.6680
 7510SOL    HW233993   2.779   3.543   6.260 -1.1034 -0.9016  0.9454
 7511SOL     OW33994   2.199   3.591   3.702 -0.0376  0.1101  0.0351
 7511SOL    HW133995   2.201   3.683   3.674 -1.9481  0.2252  0.2607
 7511SOL    HW233996   2.111   3.564   3.676 -0.3050  0.3608  0.6733
 7512SOL     OW33997   0.833   2.587   1.443  0.2208  0.0050 -0.7427
 7512SOL    HW133998   0.879   2.617   1.521 -2.1687  1.4399  0.1125
 7512SOL    HW233999   0.755   2.546   1.478  0.4534 -1.7039 -2.1926
 7513SOL     OW34000   0.581   4.627  11.168  0.5202  0.2734  0.0781
 7513SOL    HW134001   0.582   4.694  11.236  2.0029  1.4891 -1.1432
 7513SOL    HW234002   0.639   4.660  11.100  0.8960 -1.4261 -0.4320
 7514SOL     OW34003   4.679   0.953   6.569 -0.2515  0.8253 -0.4336
 7514SOL    HW134004   0.046   0.947   6.599 -0.3589  2.3848  0.2311
 7514SOL    HW234005   4.664   1.040   6.532 -0.7764  1.5687  1.5264
 7515SOL     OW34006   2.655   1.277   7.076 -0.2657  0.0207  0.2492
 7515SOL    HW134007   2.599   1.341   7.118  0.3575  0.1705  0.8464
 7515SOL    HW234008   2.600   1.200   7.060  1.3322 -1.2488  0.8214
 7516SOL     OW34009   2.260   3.943  12.821  0.2114 -0.4512 -0.2321
 7516SOL    HW134010   2.348   3.946  12.783 -0.1700 -0.8435 -1.1581
 7516SOL    HW234011   2.207   3.996  12.761 -1.2935 -0.5912  0.9731
 7517SOL     OW34012   2.810   0.470   5.390  0.0214  0.3736 -0.2733
 7517SOL    HW134013   2.826   0.432   5.476  2.7780  0.5928 -0.6913
 7517SOL    HW234014   2.795   0.562   5.410 -3.0756 -1.0884  3.9980
 7518SOL     OW34015   4.393   0.990   5.714  0.4936  0.3713 -0.8376
 7518SOL    HW134016   4.353   1.004   5.628  2.1652 -1.5174 -1.9298
 7518SOL    HW234017   4.417   1.080   5.738 -0.8163  0.4746  0.0932
 7519SOL     OW34018   1.174   3.243   8.173  0.6739  0.5571  0.3073
 7519SOL    HW134019   1.222   3.324   8.187  4.2014 -1.4326 -0.1441
 7519SOL    HW234020   1.231   3.203   8.107 -1.2046  0.3144 -1.1347
 7520SOL     OW34021   3.854   0.123  13.004  0.0382 -0.2356 -0.1376
 7520SOL    HW134022   3.938   0.118  12.960  0.2409 -0.5478  0.2904
 7520SOL    HW234023   3.833   0.030  13.006  1.4133 -0.5095  0.8369
 7521SOL     OW34024   3.512   4.636   7.145 -0.3951 -0.8582 -0.0568
 7521SOL    HW134025   3.596   4.669   7.177 -0.9463  0.0545  0.4524
 7521SOL    HW234026   3.449   4.648   7.216  2.4581 -1.1219  2.5207
 7522SOL     OW34027   0.576   0.311   8.671 -0.0545 -0.2472 -0.3757
 7522SOL    HW134028   0.594   0.296   8.578  1.4014 -0.2903 -0.0801
 7522SOL    HW234029   0.516   0.239   8.687 -0.7149  0.6525  1.1758
 7523SOL     OW34030   4.556   3.289   5.394 -0.4056 -0.0292  0.2716
 7523SOL    HW134031   4.628   3.312   5.452 -1.2859 -0.2165  1.4532
 7523SOL    HW234032   4.493   3.269   5.463 -1.6062 -0.4081 -0.9293
 7524SOL     OW34033   2.250   1.863   0.337 -0.6884 -0.0283 -0.0065
 7524SOL    HW134034   2.312   1.915   0.287 -1.4421  0.8437 -0.0248
 7524SOL    HW234035   2.306   1.789   0.361 -0.0987  0.8991  1.4544
 7525SOL     OW34036   0.103   2.256   8.116  0.5946 -0.0086  0.2427
 7525SOL    HW134037   0.083   2.190   8.049  0.2192 -1.0785  1.4044
 7525SOL    HW234038   0.144   2.201   8.182 -1.3437 -0.7727  0.8246
 7526SOL     OW34039   3.874   2.852   6.716  0.6980 -0.3529 -0.5215
 7526SOL    HW134040   3.841   2.942   6.711  0.5302 -0.3603  0.4201
 7526SOL    HW234041   3.867   2.842   6.811  1.4470  1.5907 -0.2541
 7527SOL     OW34042   3.846   4.127   2.037 -0.7459 -0.6661  0.0051
 7527SOL    HW134043   3.772   4.085   2.080  0.2155 -0.7375  1.5714
 7527SOL    HW234044   3.804   4.209   2.011 -0.0728 -0.0070  1.0039
 7528SOL     OW34045   2.154   1.244  17.267  0.0920 -0.3730  0.0082
 7528SOL    HW134046   2.221   1.281  17.324 -2.1078  1.0191  1.7053
 7528SOL    HW234047   2.087   1.312  17.263 -0.1483 -0.5538  0.9000
 7529SOL     OW34048   3.954   0.143   8.039 -0.2630  0.0648  0.0071
 7529SOL    HW134049   3.919   0.112   8.122  1.9036 -1.3644  0.3780
 7529SOL    HW234050   4.006   0.068   8.010  0.3730  0.0695  1.1717
 7530SOL     OW34051   3.450   4.683  12.338  0.0997  0.0940  0.3288
 7530SOL    HW134052   3.541   4.663  12.314  0.3879 -0.7451  2.0972
 7530SOL    HW234053   3.463   4.673  12.433  2.1389 -0.8556 -0.0359
 7531SOL     OW34054   3.580   2.589   4.938 -0.7410  0.4796 -0.3291
 7531SOL    HW134055   3.547   2.526   5.002  0.7746 -0.5568 -0.5794
 7531SOL    HW234056   3.532   2.555   4.862 -0.9740  0.1821 -0.0515
 7532SOL     OW34057   3.276   3.872   9.482 -0.4530  0.3406  0.2671
 7532SOL    HW134058   3.318   3.943   9.434  0.3249  1.0825  2.0472
 7532SOL    HW234059   3.303   3.885   9.573 -1.2624 -1.5859  0.7931
 7533SOL     OW34060   3.003   1.715   4.031  0.5558  0.4616 -0.0800
 7533SOL    HW134061   3.080   1.657   4.032  1.0276  1.1150  0.8416
 7533SOL    HW234062   2.936   1.651   4.006  0.5263  1.3999 -2.3933
 7534SOL     OW34063   3.230   3.124  13.685  0.0742 -0.1868  0.0325
 7534SOL    HW134064   3.314   3.156  13.654  0.5566 -0.6692  0.8334
 7534SOL    HW234065   3.181   3.197  13.723  2.1788  2.4595 -2.3646
 7535SOL     OW34066   2.201   1.879   5.390 -0.0775  0.4079  0.3813
 7535SOL    HW134067   2.178   1.971   5.379  0.3159  0.5837  1.0159
 7535SOL    HW234068   2.146   1.852   5.463 -2.1607  1.1327 -0.9297
 7536SOL     OW34069   2.611   4.163   8.838  0.5223 -0.5506  0.6132
 7536SOL    HW134070   2.540   4.226   8.825  0.4572 -0.8615 -0.5117
 7536SOL    HW234071   2.609   4.151   8.933  1.3680 -0.6809  0.6221
 7537SOL     OW34072   2.521   4.236  16.824 -0.4815 -0.7552 -0.3855
 7537SOL    HW134073   2.493   4.243  16.915 -1.1587 -1.7022 -0.5263
 7537SOL    HW234074   2.580   4.312  16.823 -0.6843 -0.5727  2.8169
 7538SOL     OW34075   0.346   4.411   2.093  0.2837 -0.4266 -0.6790
 7538SOL    HW134076   0.278   4.473   2.067  0.1069 -1.1166 -1.8740
 7538SOL    HW234077   0.393   4.396   2.011 -2.0405  2.2556 -2.5371
 7539SOL     OW34078   0.059   2.977   2.682 -0.2017  0.2913 -0.4554
 7539SOL    HW134079   4.700   2.971   2.636 -0.7194 -0.5138  0.5906
 7539SOL    HW234080   0.036   3.016   2.765  1.9489  2.0591 -0.6831
 7540SOL     OW34081   4.619   2.015   2.644 -0.4658  0.0939 -0.3334
 7540SOL    HW134082   4.612   2.105   2.612  0.5762 -1.1607 -4.0791
 7540SOL    HW234083   4.614   1.968   2.561 -2.4313 -3.6513  1.9335
 7541SOL     OW34084   3.406   0.508   0.783 -0.2019 -0.1949  0.1486
 7541SOL    HW134085   3.475   0.441   0.782  0.9144  0.9691 -1.3675
 7541SOL    HW234086   3.444   0.595   0.766 -2.1704  0.8080  0.8427
 7542SOL     OW34087   3.344   4.149   1.396  0.2677 -0.3591  0.4135
 7542SOL    HW134088   3.310   4.102   1.472  2.2046  0.0153  1.5063
 7542SOL    HW234089   3.430   4.174   1.430  0.8429 -0.2002 -1.1503
 7543SOL     OW34090   4.053   2.713   4.700 -0.0777  0.3017 -0.0955
 7543SOL    HW134091   4.058   2.709   4.795 -2.2168  2.3609  0.1086
 7543SOL    HW234092   4.057   2.808   4.694  1.8371  0.3458  2.0120
 7544SOL     OW34093   4.497   2.967   3.706  0.3493 -0.2852 -0.0419
 7544SOL    HW134094   4.567   3.024   3.674  0.6782 -1.0987 -0.7608
 7544SOL    HW234095   4.492   2.896   3.642 -1.0415  0.3464 -0.6264
 7545SOL     OW34096   0.304   2.513  10.353  0.0199  0.3227 -0.1009
 7545SOL    HW134097   0.333   2.543  10.440  0.8980 -0.4510 -0.1311
 7545SOL    HW234098   0.231   2.460  10.383 -0.7156  1.1501 -0.4098
 7546SOL     OW34099   3.314   2.119   9.393  0.1120 -0.5351  0.6103
 7546SOL    HW134100   3.223   2.121   9.361  0.5469  1.5073 -0.5421
 7546SOL    HW234101   3.337   2.212   9.401  2.7099 -1.1875  0.6940
 7547SOL     OW34102   3.934   4.049  15.641 -0.2714  0.2240  0.4039
 7547SOL    HW134103   3.910   3.969  15.595  0.2873  0.3110 -0.0412
 7547SOL    HW234104   3.930   4.113  15.569 -0.7614  0.3611  0.5537
 7548SOL     OW34105   0.334   0.463   7.666 -0.0474 -0.3970  0.0697
 7548SOL    HW134106   0.332   0.383   7.614  0.7849 -0.2786 -0.1559
 7548SOL    HW234107   0.320   0.521   7.590  0.7398  0.5372  0.6259
 7549SOL     OW34108   4.331   2.852   2.036  0.1224  0.1142 -0.1443
 7549SOL    HW134109   4.247   2.806   2.036  0.3906 -0.3762 -0.3403
 7549SOL    HW234110   4.392   2.791   2.076 -0.8934 -0.7579  0.0763
 7550SOL     OW34111   4.712   4.005  10.599  0.3440  0.0284 -0.6645
 7550SOL    HW134112   0.045   3.939  10.638  0.7549  0.3565 -0.7047
 7550SOL    HW234113   4.688   4.065  10.669 -1.7031  0.0109 -1.3624
 7551SOL     OW34114   0.437   1.749   7.531 -0.2571  0.6042  0.7073
 7551SOL    HW134115   0.451   1.682   7.465  0.4494 -0.1355  1.6076
 7551SOL    HW234116   0.514   1.805   7.524 -0.9013  1.7160  2.2988
 7552SOL     OW34117   0.385   3.263   0.485 -0.3219  0.2657 -0.6956
 7552SOL    HW134118   0.366   3.305   0.401 -2.1010  1.8769  0.5157
 7552SOL    HW234119   0.310   3.203   0.488 -0.3717  0.5104  2.5217
 7553SOL     OW34120   4.359   2.036   1.524  0.7031  0.1406  0.4248
 7553SOL    HW134121   4.335   2.128   1.530  1.6764  0.6149 -2.8959
 7553SOL    HW234122   4.298   1.999   1.587 -1.8595  1.0317 -1.5534
 7554SOL     OW34123   2.586   3.176   6.848 -0.1869 -0.0723  0.3141
 7554SOL    HW134124   2.666   3.142   6.887  0.9132  2.3895  0.1803
 7554SOL    HW234125   2.520   3.124   6.895  0.0531  1.7412  2.6280
 7555SOL     OW34126   0.078   0.559   0.898 -0.5774  0.1792  0.4926
 7555SOL    HW134127   0.034   0.498   0.839 -0.9380  0.8186  0.1007
 7555SOL    HW234128   0.089   0.640   0.847  2.2239  0.5099  1.6053
 7556SOL     OW34129   4.352   4.226   8.097  0.1864 -0.3918  0.0937
 7556SOL    HW134130   4.328   4.134   8.086 -2.9892  0.3608  0.6943
 7556SOL    HW234131   4.442   4.215   8.129  1.1918  1.3708 -2.1478
 7557SOL     OW34132   1.668   1.185   9.953  0.0964  0.0077  0.5476
 7557SOL    HW134133   1.604   1.150   9.892  0.0134 -0.7060  1.0471
 7557SOL    HW234134   1.625   1.270   9.966  0.4480  0.2292  0.2415
 7558SOL     OW34135   3.710   0.534   8.512  0.1197  0.1746 -0.0018
 7558SOL    HW134136   3.754   0.503   8.592  1.5462 -0.3924 -1.0010
 7558SOL    HW234137   3.620   0.552   8.540 -0.3275 -0.0079 -1.3551
 7559SOL     OW34138   1.004   3.709   8.504  0.5273  0.0006 -0.3090
 7559SOL    HW134139   1.026   3.801   8.494 -0.3097  0.4549  1.9846
 7559SOL    HW234140   0.924   3.701   8.452  0.5541  2.8835 -0.7747
 7560SOL     OW34141   3.240   1.376  16.719  0.2448  0.4383 -0.5896
 7560SOL    HW134142   3.289   1.328  16.785  0.2162 -0.3655 -1.1477
 7560SOL    HW234143   3.307   1.380  16.650 -1.1595  1.9158 -1.8574
 7561SOL     OW34144   4.467   2.055   8.962 -0.2577  0.4361 -0.3762
 7561SOL    HW134145   4.490   2.142   8.931 -0.1347  0.7318  0.5438
 7561SOL    HW234146   4.410   2.072   9.037  0.4910  1.6848 -0.0877
 7562SOL     OW34147   3.466   3.440   3.440  0.2363 -0.3112 -0.3073
 7562SOL    HW134148   3.411   3.476   3.371 -0.1928  0.3000  0.3507
 7562SOL    HW234149   3.488   3.356   3.399  0.0892  0.0683 -1.1480
 7563SOL     OW34150   4.365   1.271   8.624  0.2760  0.1885 -0.8543
 7563SOL    HW134151   4.273   1.257   8.644  0.7140 -1.1477  0.1913
 7563SOL    HW234152   4.387   1.286   8.716 -1.0717  2.9545 -0.9724
 7564SOL     OW34153   0.125   2.907   7.828  0.1542 -0.8762  0.3322
 7564SOL    HW134154   0.205   2.889   7.877 -0.3329 -0.5808  1.2456
 7564SOL    HW234155   0.142   2.990   7.783  0.2894 -1.0774  0.0195
 7565SOL     OW34156   2.470   3.736   4.065  0.0530 -0.0865 -0.0660
 7565SOL    HW134157   2.436   3.819   4.032 -0.2715 -0.1055  0.2181
 7565SOL    HW234158   2.531   3.713   3.994  0.6039  0.9554  0.0661
 7566SOL     OW34159   4.365   2.970  14.785  0.1298  0.4258 -0.4851
 7566SOL    HW134160   4.453   2.974  14.746  0.4084 -1.4850 -0.0601
 7566SOL    HW234161   4.313   2.963  14.705  1.6658 -1.6522 -1.3178
 7567SOL     OW34162   3.024   4.137   8.114 -0.2954  0.2075 -0.0431
 7567SOL    HW134163   3.044   4.051   8.151  0.3897  1.1009  1.6497
 7567SOL    HW234164   3.105   4.185   8.129 -0.6630  0.6521  0.5045
 7568SOL     OW34165   1.459   0.631   4.804 -0.5078 -0.4783  0.0552
 7568SOL    HW134166   1.528   0.581   4.761  0.0958  1.5530 -1.3159
 7568SOL    HW234167   1.465   0.613   4.898  1.0788  0.8443  0.1954
 7569SOL     OW34168   2.818   3.017  15.411  0.0942  0.5085 -0.1517
 7569SOL    HW134169   2.880   2.980  15.348 -1.1314  0.9646 -1.6211
 7569SOL    HW234170   2.872   3.024  15.490  0.0764  0.8635 -0.1739
 7570SOL     OW34171   0.934   2.571   2.078 -0.1313  0.0023  0.7722
 7570SOL    HW134172   0.948   2.481   2.108  0.0603  0.5671  2.3561
 7570SOL    HW234173   1.026   2.600   2.078 -0.1084 -0.0109 -1.4013
 7571SOL     OW34174   2.097   1.488   8.610 -0.1964  0.1748  0.3927
 7571SOL    HW134175   2.176   1.464   8.562  0.6086  2.6320  0.5326
 7571SOL    HW234176   2.079   1.578   8.582  0.3370  0.6424  1.5455
 7572SOL     OW34177   2.176   2.903  11.803 -0.3261  0.3263 -0.0678
 7572SOL    HW134178   2.239   2.915  11.874 -0.0190 -0.1986 -0.2537
 7572SOL    HW234179   2.175   2.811  11.777 -2.7895  0.4805 -0.5781
 7573SOL     OW34180   0.245   3.492   2.569  0.0675 -0.3364  0.8111
 7573SOL    HW134181   0.191   3.558   2.525  2.1714  2.5624  2.5433
 7573SOL    HW234182   0.241   3.420   2.507 -2.8372 -0.1078  0.7106
 7574SOL     OW34183   0.649   1.292  14.671 -0.4398  0.1342 -0.1854
 7574SOL    HW134184   0.737   1.321  14.651 -0.6267 -0.4982 -1.8809
 7574SOL    HW234185   0.645   1.205  14.632  0.1171  0.5254 -1.0911
 7575SOL     OW34186   2.763   4.244   6.596 -0.4528 -0.1081 -0.5680
 7575SOL    HW134187   2.766   4.323   6.542  2.6253 -0.9989 -1.7262
 7575SOL    HW234188   2.698   4.258   6.666  0.3345  0.3596  0.0699
 7576SOL     OW34189   2.438   3.051   1.559 -0.3748 -0.2742 -0.4562
 7576SOL    HW134190   2.504   3.079   1.622  1.5476  0.2041 -2.6835
 7576SOL    HW234191   2.384   3.129   1.554 -1.9727 -1.3757 -0.4754
 7577SOL     OW34192   1.245   1.417   8.053 -0.0551 -0.0439  0.3337
 7577SOL    HW134193   1.215   1.384   8.138  1.1549  0.6470  1.0321
 7577SOL    HW234194   1.296   1.344   8.016  0.3719 -0.4536  1.7365
 7578SOL     OW34195   2.421   4.463   2.860  0.5545 -0.2387  0.0802
 7578SOL    HW134196   2.345   4.494   2.910  2.0875  2.2005  0.9546
 7578SOL    HW234197   2.393   4.398   2.797 -0.6385  1.6648 -1.3668
 7579SOL     OW34198   0.923   2.980  16.995  0.7425  0.4752  0.0979
 7579SOL    HW134199   0.966   3.058  17.029 -0.3005  1.0710  0.0375
 7579SOL    HW234200   0.837   3.016  16.977  0.7755  1.8317  2.6350
 7580SOL     OW34201   0.585   2.546   1.561 -0.3275 -0.6218  0.1476
 7580SOL    HW134202   0.491   2.535   1.542 -0.1964 -2.3742  0.5547
 7580SOL    HW234203   0.590   2.524   1.654  1.2182 -1.4132 -0.1251
 7581SOL     OW34204   1.071   0.791   7.381  0.1507 -0.0681 -0.1525
 7581SOL    HW134205   1.016   0.835   7.447 -0.8439 -0.2854 -0.8322
 7581SOL    HW234206   0.995   0.767   7.327 -0.5903  0.9350  0.4359
 7582SOL     OW34207   3.544   2.821   2.483 -0.4019  0.1921 -0.4934
 7582SOL    HW134208   3.626   2.787   2.447 -0.0258 -1.1265  1.5631
 7582SOL    HW234209   3.494   2.843   2.405  0.6764 -1.1335 -1.5597
 7583SOL     OW34210   0.539   0.989   5.953  0.1745 -0.2904 -0.1943
 7583SOL    HW134211   0.450   0.963   5.930 -1.0788  3.7374 -0.0141
 7583SOL    HW234212   0.514   1.028   6.037  0.7778  0.6984 -0.4660
 7584SOL     OW34213   4.260   4.603   0.845  0.4175 -0.3697 -0.0804
 7584SOL    HW134214   4.283   4.536   0.909 -1.0039  1.9080  2.7732
 7584SOL    HW234215   4.165   4.608   0.855  0.6961  4.0308  0.4505
 7585SOL     OW34216   3.672   1.547   1.958  0.4405 -0.5875 -0.5779
 7585SOL    HW134217   3.690   1.454   1.945  0.1685 -0.5609 -1.1342
 7585SOL    HW234218   3.631   1.551   2.044  0.8160 -0.1997 -0.4134
 7586SOL     OW34219   3.270   1.968   7.065 -0.1440 -0.1378  0.5565
 7586SOL    HW134220   3.282   2.016   6.983  0.3425  1.1195  1.3503
 7586SOL    HW234221   3.246   2.035   7.129 -1.0334 -0.3850  0.4862
 7587SOL     OW34222   3.418   2.209   6.135  0.3002  0.1818  0.6215
 7587SOL    HW134223   3.345   2.209   6.073  0.3671 -0.2424  0.5408
 7587SOL    HW234224   3.476   2.153   6.084 -0.0815  0.9868 -0.6741
 7588SOL     OW34225   3.078   4.359   6.186  0.6602 -0.5013 -0.4057
 7588SOL    HW134226   3.083   4.272   6.226 -1.4398  0.2624  1.5533
 7588SOL    HW234227   3.169   4.387   6.192 -0.0731  1.0502  3.3962
 7589SOL     OW34228   4.564   0.141   1.573  0.4288 -0.1722 -0.7431
 7589SOL    HW134229   4.500   0.177   1.511 -0.4890 -0.6014 -0.0351
 7589SOL    HW234230   4.601   0.223   1.608 -2.8954  1.1841 -0.3968
 7590SOL     OW34231   1.554   4.609   3.173 -0.3862 -0.2665  0.7337
 7590SOL    HW134232   1.603   4.682   3.137 -0.6399  0.6891  2.3228
 7590SOL    HW234233   1.610   4.541   3.135 -3.1890 -1.0883 -1.9007
 7591SOL     OW34234   1.190   3.811  13.160  0.7436  0.6647 -0.0232
 7591SOL    HW134235   1.100   3.844  13.161  0.7972  0.8011  1.5415
 7591SOL    HW234236   1.173   3.723  13.128  0.3275  0.8612 -0.3411
 7592SOL     OW34237   2.172   2.966   8.072  0.8947 -0.4094  0.0327
 7592SOL    HW134238   2.139   2.885   8.032 -1.8726  0.3774  0.7200
 7592SOL    HW234239   2.126   2.951   8.155 -1.0304 -0.5410 -1.0443
 7593SOL     OW34240   2.773   3.883   6.430 -1.2575  0.3845 -0.4016
 7593SOL    HW134241   2.752   3.806   6.376  1.1364 -0.4140 -0.1655
 7593SOL    HW234242   2.785   3.947   6.360  2.6044  1.0080  0.8507
 7594SOL     OW34243   3.673   0.995   7.038 -0.1414  0.3280 -0.5163
 7594SOL    HW134244   3.697   0.903   7.029  0.7866  0.5585 -0.4209
 7594SOL    HW234245   3.742   1.032   6.984 -1.8584 -0.7606 -3.4385
 7595SOL     OW34246   1.871   3.572  14.155  0.3008  0.4259  0.4364
 7595SOL    HW134247   1.918   3.512  14.213  1.5631  1.4163  0.4410
 7595SOL    HW234248   1.901   3.650  14.200 -0.1924  1.1931 -0.5521
 7596SOL     OW34249   1.588   4.265   7.614 -0.1167  0.2434  0.3280
 7596SOL    HW134250   1.606   4.339   7.557 -0.2209  0.4026  0.4989
 7596SOL    HW234251   1.603   4.199   7.546 -1.6865  0.0479  0.1853
 7597SOL     OW34252   0.826   2.900   5.787  0.2906  0.1269 -0.0817
 7597SOL    HW134253   0.866   2.949   5.859  0.0536 -0.9625  0.7703
 7597SOL    HW234254   0.850   2.811   5.811  0.8989  0.2607 -0.1776
 7598SOL     OW34255   2.046   3.845   3.578 -0.5234 -0.0637 -0.3670
 7598SOL    HW134256   2.033   3.927   3.626  0.3927 -0.5911  0.7933
 7598SOL    HW234257   2.111   3.881   3.518  1.0355 -0.6527  0.9771
 7599SOL     OW34258   0.522   2.365   8.293  0.3453  0.6899  0.1925
 7599SOL    HW134259   0.595   2.354   8.353  1.4377  2.2107 -0.8645
 7599SOL    HW234260   0.510   2.280   8.251 -1.5249  1.2889 -0.4987
 7600SOL     OW34261   0.700   0.738   9.265 -0.6242 -0.6914 -0.4619
 7600SOL    HW134262   0.610   0.708   9.259 -0.7965 -0.3116  0.3568
 7600SOL    HW234263   0.704   0.810   9.201  0.8746 -0.9365 -0.6572
 7601SOL     OW34264   0.581   1.837   0.614 -0.2884  0.1613 -0.3090
 7601SOL    HW134265   0.667   1.823   0.655 -0.4731 -2.1089 -0.6766
 7601SOL    HW234266   0.585   1.779   0.538 -0.9239  0.6543 -0.7150
 7602SOL     OW34267   2.953   3.405   1.825  0.4605 -0.1978  0.1855
 7602SOL    HW134268   2.989   3.461   1.894  4.3539 -1.1288 -1.1250
 7602SOL    HW234269   3.023   3.340   1.826  0.7507  0.0601 -2.5479
 7603SOL     OW34270   4.299   1.939   7.062  0.1843 -0.6930 -0.2314
 7603SOL    HW134271   4.254   1.868   7.108 -1.6877  1.4894  1.3179
 7603SOL    HW234272   4.254   1.941   6.978  0.5592 -0.8812 -0.4346
 7604SOL     OW34273   0.444   0.471   4.020  0.8700 -0.0509 -0.2725
 7604SOL    HW134274   0.459   0.405   3.952  0.8542 -0.0742 -0.2535
 7604SOL    HW234275   0.445   0.551   3.967 -0.0385 -0.4959 -0.9795
 7605SOL     OW34276   3.469   2.003  12.602  0.5274  0.1841  0.2998
 7605SOL    HW134277   3.504   1.915  12.616  0.5861  0.0597 -0.6481
 7605SOL    HW234278   3.389   2.003  12.655  0.9938 -0.8511  1.0016
 7606SOL     OW34279   3.818   3.004   4.103  0.3781 -0.1692 -0.0432
 7606SOL    HW134280   3.860   3.046   4.178  1.1092  0.4013 -0.7776
 7606SOL    HW234281   3.882   3.018   4.033 -0.4159  1.0853 -0.5170
 7607SOL     OW34282   2.968   4.119   5.615  0.3088 -0.0558  0.3389
 7607SOL    HW134283   2.903   4.186   5.635  1.1841  0.2620  2.0832
 7607SOL    HW234284   3.029   4.163   5.555  1.2958  0.0846  1.4630
 7608SOL     OW34285   2.252   3.919   3.390 -0.0925  0.4494  0.2960
 7608SOL    HW134286   2.260   3.838   3.341 -0.1981 -0.0179  1.0494
 7608SOL    HW234287   2.302   3.974   3.330 -0.3763 -0.3135 -0.6319
 7609SOL     OW34288   1.513   4.243   2.771  0.2997  0.2300 -0.0695
 7609SOL    HW134289   1.532   4.336   2.757  1.3646  0.1427  0.7638
 7609SOL    HW234290   1.575   4.210   2.706  0.1384  1.0186 -0.6266
 7610SOL     OW34291   2.113   0.426   5.964  0.8056 -0.0319  0.2430
 7610SOL    HW134292   2.052   0.367   6.008 -0.4181  0.0334 -1.3397
 7610SOL    HW234293   2.103   0.393   5.875  0.1629  1.6907 -0.3257
 7611SOL     OW34294   1.389   3.431  13.506  0.4561  0.1485  0.0745
 7611SOL    HW134295   1.322   3.382  13.555 -0.6130  0.2019 -1.3178
 7611SOL    HW234296   1.345   3.454  13.424 -1.0942 -1.2889  0.4955
 7612SOL     OW34297   3.956   4.236   8.891  0.8095  0.7245  0.4088
 7612SOL    HW134298   3.982   4.312   8.942  0.9576 -0.2922  1.8481
 7612SOL    HW234299   3.864   4.248   8.914  0.0689 -1.2539 -1.4688
 7613SOL     OW34300   0.520   0.326   1.612 -0.6196 -0.2327 -0.0632
 7613SOL    HW134301   0.441   0.337   1.664  0.5459 -1.4005  1.9534
 7613SOL    HW234302   0.581   0.285   1.673  0.2976 -0.6673 -1.2639
 7614SOL     OW34303   4.423   3.902   1.382 -0.1295 -0.2828  0.8484
 7614SOL    HW134304   4.490   3.913   1.314  0.6882  0.6662  1.7851
 7614SOL    HW234305   4.412   3.990   1.419  2.1069  1.5181 -2.7241
 7615SOL     OW34306   2.861   0.763   6.203  0.4003 -0.2479  0.1248
 7615SOL    HW134307   2.907   0.689   6.164 -0.0305  0.9042 -2.6217
 7615SOL    HW234308   2.912   0.779   6.282  1.5632  2.0845 -1.0955
 7616SOL     OW34309   3.237   2.677   5.120 -0.0171 -0.0936  0.5351
 7616SOL    HW134310   3.150   2.636   5.123  0.3620 -0.9914 -0.6661
 7616SOL    HW234311   3.297   2.604   5.133  0.1492  0.1023  0.8611
 7617SOL     OW34312   0.711   3.536   2.969 -0.6848  0.2906 -0.3867
 7617SOL    HW134313   0.771   3.546   2.895  0.9072  0.5425  0.9605
 7617SOL    HW234314   0.667   3.459   2.931  1.2049 -0.9968  0.0379
 7618SOL     OW34315   0.454   2.963  14.668  0.0541  0.0861 -0.0578
 7618SOL    HW134316   0.462   2.914  14.750 -0.9287  1.6244  0.9712
 7618SOL    HW234317   0.487   3.049  14.694  1.1968 -0.5550  0.6478
 7619SOL     OW34318   3.443   3.324   2.314  0.2533  0.7250 -0.0763
 7619SOL    HW134319   3.399   3.242   2.337 -0.9608  1.8192  1.5373
 7619SOL    HW234320   3.529   3.284   2.321 -1.0043 -1.9927 -0.4009
 7620SOL     OW34321   1.410   4.254   7.830 -0.0518 -0.3437  0.5266
 7620SOL    HW134322   1.478   4.244   7.764 -2.7102  0.5397 -2.3205
 7620SOL    HW234323   1.338   4.243   7.768 -1.1941  0.4416  1.7167
 7621SOL     OW34324   1.596   4.473   7.960 -0.2845  0.0045 -0.0064
 7621SOL    HW134325   1.556   4.390   7.933 -1.0394  0.9128 -1.7213
 7621SOL    HW234326   1.599   4.523   7.878  1.2787 -1.4154 -0.8284
 7622SOL     OW34327   0.056   1.445   9.020 -0.2010  0.0339  0.2040
 7622SOL    HW134328   0.083   1.525   8.976 -0.2303  1.5630  2.9755
 7622SOL    HW234329   0.129   1.428   9.081 -0.1924 -0.6854  0.0005
 7623SOL     OW34330   1.613   1.517   8.455 -0.9733  0.7459  0.5450
 7623SOL    HW134331   1.523   1.489   8.473 -0.4362 -1.6226 -0.5322
 7623SOL    HW234332   1.657   1.469   8.524  0.1725  0.0989 -0.6268
 7624SOL     OW34333   0.894   1.545   1.146 -0.5457  0.1985 -0.3792
 7624SOL    HW134334   0.844   1.484   1.200  1.8611 -0.3807  1.1709
 7624SOL    HW234335   0.879   1.628   1.191  2.3817  0.9698 -0.8606
 7625SOL     OW34336   2.047   3.578   7.076 -0.3734  0.5584  0.3327
 7625SOL    HW134337   2.075   3.649   7.134  0.7771  0.5106 -0.1712
 7625SOL    HW234338   1.953   3.569   7.093 -0.3159 -0.1723  0.2580
 7626SOL     OW34339   1.017   0.808  15.130  0.0106  0.0258 -0.3772
 7626SOL    HW134340   0.979   0.766  15.206 -0.8519  2.6803  0.6411
 7626SOL    HW234341   0.939   0.841  15.086  0.5132  0.6222 -0.8300
 7627SOL     OW34342   3.883   3.257   5.624 -0.4722 -0.2233 -0.2496
 7627SOL    HW134343   3.919   3.172   5.600  0.9530  0.4261 -0.3792
 7627SOL    HW234344   3.939   3.285   5.696  0.6518  0.6808 -1.4854
 7628SOL     OW34345   0.976   0.421  13.848  0.1876 -0.3348 -0.5281
 7628SOL    HW134346   0.909   0.426  13.780  0.1328 -1.0010 -0.5273
 7628SOL    HW234347   1.051   0.398  13.794 -0.4332 -0.4450 -1.3304
 7629SOL     OW34348   2.461   3.331  16.550 -0.0856  0.3303  0.2108
 7629SOL    HW134349   2.447   3.306  16.641 -2.7735  1.3364  0.0844
 7629SOL    HW234350   2.406   3.409  16.540 -3.8614 -2.1543  1.3011
 7630SOL     OW34351   2.280   4.647  11.623  0.1661 -0.9367 -0.2228
 7630SOL    HW134352   2.313   0.009  11.596 -3.0322  0.9503  1.9886
 7630SOL    HW234353   2.342   4.585  11.583  1.6318 -0.3191  1.0809
 7631SOL     OW34354   3.546   3.569   7.533 -0.1518  0.5126 -0.2874
 7631SOL    HW134355   3.521   3.591   7.444  1.6957  0.3413 -0.8482
 7631SOL    HW234356   3.605   3.644   7.547 -1.5791  1.1814  2.2391
 7632SOL     OW34357   3.353   2.101   4.032 -0.4060 -0.3483  0.4310
 7632SOL    HW134358   3.259   2.110   4.045  0.0898  1.8455  2.4685
 7632SOL    HW234359   3.361   2.126   3.940 -0.5986  1.9902  1.0252
 7633SOL     OW34360   2.473   0.753   5.579 -0.6220  0.6279  0.4400
 7633SOL    HW134361   2.520   0.764   5.496  0.2392 -0.1157  0.8321
 7633SOL    HW234362   2.440   0.841   5.598  0.6130  1.1211  0.3374
 7634SOL     OW34363   2.951   1.877  16.224  0.1899  0.0208  0.2188
 7634SOL    HW134364   2.961   1.911  16.313 -1.2109  0.6647  0.1424
 7634SOL    HW234365   2.863   1.839  16.219 -0.0959  0.4201  2.5557
 7635SOL     OW34366   2.310   2.477  12.868 -0.2212  0.2617 -0.2136
 7635SOL    HW134367   2.310   2.457  12.774 -1.7759  1.5165 -0.4684
 7635SOL    HW234368   2.315   2.388  12.903  2.3846  0.3287 -0.4190
 7636SOL     OW34369   4.007   2.306   0.082 -0.6383  0.5227 -0.0471
 7636SOL    HW134370   3.958   2.242   0.031  0.5455 -0.0300 -0.4628
 7636SOL    HW234371   4.051   2.349   0.008 -1.4999  0.2842 -0.7049
 7637SOL     OW34372   1.967   3.285   7.416 -0.1607 -0.5947 -0.0509
 7637SOL    HW134373   1.929   3.370   7.437 -1.3974 -1.0433 -0.4520
 7637SOL    HW234374   2.002   3.246   7.496  2.8464 -0.5003 -1.3415
 7638SOL     OW34375   2.638   1.455   6.043 -0.6704  0.0896  0.2970
 7638SOL    HW134376   2.646   1.383   5.980  0.8806  2.0093 -1.7082
 7638SOL    HW234377   2.577   1.509   5.993  0.2373  1.1044  0.2711
 7639SOL     OW34378   2.228   4.561   7.792  0.0200 -0.5468 -0.4196
 7639SOL    HW134379   2.133   4.576   7.796  0.3935  1.6558  0.3822
 7639SOL    HW234380   2.269   4.647   7.806  1.1383 -0.9874 -0.9897
 7640SOL     OW34381   1.598   2.336   7.901 -0.1103 -0.4409  0.4394
 7640SOL    HW134382   1.670   2.273   7.899 -0.4879 -0.8294 -1.2500
 7640SOL    HW234383   1.522   2.279   7.890 -1.0728  0.5991  1.7112
 7641SOL     OW34384   0.917   0.727   3.442 -0.0018  0.2861 -0.2162
 7641SOL    HW134385   0.845   0.758   3.497 -0.4410  2.2091 -1.9022
 7641SOL    HW234386   0.932   0.799   3.382  0.0143 -0.4434 -1.0884
 7642SOL     OW34387   1.305   0.171   2.034  0.5320  0.1397  0.0022
 7642SOL    HW134388   1.393   0.199   2.060  0.4406 -1.2483  1.7439
 7642SOL    HW234389   1.329   0.170   1.941 -5.2854  1.1770 -1.5119
 7643SOL     OW34390   2.818   3.169   1.554 -0.2761 -0.0276 -0.4112
 7643SOL    HW134391   2.778   3.164   1.641 -0.6276  0.4361 -0.5386
 7643SOL    HW234392   2.741   3.214   1.518 -0.3223 -0.5573 -0.9639
 7644SOL     OW34393   2.797   3.122   3.721  0.3219 -0.1821  0.3861
 7644SOL    HW134394   2.788   3.117   3.816 -1.8915 -0.1715  0.1886
 7644SOL    HW234395   2.860   3.191   3.703 -1.3093  1.5767  1.4419
 7645SOL     OW34396   3.938   2.753   3.871  0.4958 -0.4297  0.2036
 7645SOL    HW134397   3.931   2.848   3.879  0.9938 -0.0613 -3.9955
 7645SOL    HW234398   3.873   2.731   3.937  1.2297  2.1801  1.8267
 7646SOL     OW34399   0.474   0.230   5.833 -0.1793 -0.2679  0.2599
 7646SOL    HW134400   0.382   0.255   5.826 -0.0398  0.2983  0.4955
 7646SOL    HW234401   0.508   0.306   5.880  2.7337 -0.8686 -0.8579
 7647SOL     OW34402   2.741   2.505   4.588 -0.1427  0.1693 -0.5747
 7647SOL    HW134403   2.678   2.577   4.577 -1.4052 -1.1890 -2.2747
 7647SOL    HW234404   2.690   2.436   4.630  0.1818  0.8755  0.9847
 7648SOL     OW34405   1.588   2.748   3.707  0.0895 -0.3066  0.3768
 7648SOL    HW134406   1.637   2.746   3.624 -0.6689 -0.0799 -0.0802
 7648SOL    HW234407   1.574   2.655   3.719  0.1595 -0.2261  1.0514
 7649SOL     OW34408   0.789   0.668   4.735  0.2884  0.0204  0.2379
 7649SOL    HW134409   0.780   0.588   4.787 -0.4397  1.9340  3.0613
 7649SOL    HW234410   0.870   0.698   4.776  0.4985  0.4487 -0.4881
 7650SOL     OW34411   1.476   1.260   6.773 -0.2502 -0.1555 -0.3289
 7650SOL    HW134412   1.571   1.269   6.784 -0.4327 -0.7968  1.6752
 7650SOL    HW234413   1.455   1.348   6.742  0.8518  0.4500  0.6415
 7651SOL     OW34414   2.592   3.651  13.635  0.3692 -0.1360  0.4154
 7651SOL    HW134415   2.645   3.659  13.714 -0.0838  2.1129  0.4698
 7651SOL    HW234416   2.601   3.558  13.610  0.9453  0.4104 -1.4484
 7652SOL     OW34417   0.483   1.693   3.860  0.0293  0.5783  0.3923
 7652SOL    HW134418   0.556   1.753   3.846 -0.6221  0.9251 -1.6001
 7652SOL    HW234419   0.410   1.754   3.866 -1.5196 -1.3189  0.5804
 7653SOL     OW34420   0.060   0.714  13.170  0.0580  0.3974 -0.5292
 7653SOL    HW134421   0.063   0.757  13.085  0.0384 -0.4291 -0.9507
 7653SOL    HW234422   0.033   0.785  13.228  0.4902  2.3189 -2.6906
 7654SOL     OW34423   4.393   0.814  10.947  0.2485 -0.4109  0.0262
 7654SOL    HW134424   4.406   0.719  10.948 -2.3975 -0.8029 -1.3774
 7654SOL    HW234425   4.438   0.842  10.867  1.6875 -0.6127  0.7601
 7655SOL     OW34426   4.397   4.600   3.324  0.2166  0.3624  0.1775
 7655SOL    HW134427   4.436   4.523   3.364 -0.4200  0.3314  0.7388
 7655SOL    HW234428   4.396   4.569   3.233 -0.6484  0.7553  0.0453
 7656SOL     OW34429   4.663   3.992   5.508  0.2165 -0.0355  0.2682
 7656SOL    HW134430   4.693   4.069   5.557  2.5326 -0.3879 -0.5864
 7656SOL    HW234431   4.699   3.928   5.569  0.2784 -0.3843 -0.1308
 7657SOL     OW34432   2.697   1.520   7.763 -0.4009 -0.2604 -0.0578
 7657SOL    HW134433   2.744   1.593   7.803 -1.7117  0.6972 -0.2699
 7657SOL    HW234434   2.629   1.499   7.827 -0.6495 -1.5076 -0.7288
 7658SOL     OW34435   0.808   4.614  13.998 -0.3107  0.0743 -0.4461
 7658SOL    HW134436   0.721   4.646  13.977  0.8653  1.3298 -3.4789
 7658SOL    HW234437   0.838   4.586  13.911  2.2798 -0.0609  0.4808
 7659SOL     OW34438   4.621   0.961   6.145  0.7583  0.8617  0.6471
 7659SOL    HW134439   4.625   1.055   6.128 -1.5709  0.5906 -1.4053
 7659SOL    HW234440   4.531   0.953   6.177  0.2849  2.0883 -0.3492
 7660SOL     OW34441   1.835   3.532   4.464 -0.4931 -0.2579 -0.4954
 7660SOL    HW134442   1.795   3.618   4.454  0.9958  0.7459  2.2613
 7660SOL    HW234443   1.791   3.509   4.545  0.9240  1.7761  0.8576
 7661SOL     OW34444   3.916   3.590  13.117  0.3750  0.1587 -0.5034
 7661SOL    HW134445   3.821   3.601  13.109  0.7272  2.2058 -1.9113
 7661SOL    HW234446   3.934   3.530  13.044  1.5745 -0.8030  0.5948
 7662SOL     OW34447   1.881   1.156   3.688  0.0433  0.0463  0.2747
 7662SOL    HW134448   1.948   1.188   3.748  1.8345 -0.5833 -1.3715
 7662SOL    HW234449   1.938   1.115   3.623 -2.0048 -1.9041 -0.2950
 7663SOL     OW34450   2.636   0.275  10.854 -0.1380 -0.5845  0.9731
 7663SOL    HW134451   2.674   0.245  10.936 -0.3925 -0.4902  1.1251
 7663SOL    HW234452   2.570   0.321  10.905  0.3069 -1.0306  1.9401
 7664SOL     OW34453   0.626   3.809   2.709  0.0991 -0.1880 -0.3007
 7664SOL    HW134454   0.673   3.893   2.706 -1.6871  0.8513  1.0873
 7664SOL    HW234455   0.644   3.793   2.801 -1.9911  1.8097  0.4482
 7665SOL     OW34456   3.342   1.496   9.684 -0.3692  0.2168 -0.4604
 7665SOL    HW134457   3.299   1.542   9.756  0.2479 -1.4577  0.9741
 7665SOL    HW234458   3.313   1.548   9.609 -1.0562 -0.0336 -0.3670
 7666SOL     OW34459   1.687   3.770   4.717  0.1176  0.0826  0.5368
 7666SOL    HW134460   1.693   3.675   4.722  1.0424  0.1512  0.6528
 7666SOL    HW234461   1.671   3.789   4.625 -1.2809 -2.4349  0.2377
 7667SOL     OW34462   0.849   3.737   2.506  0.2810  0.2511 -0.0571
 7667SOL    HW134463   0.855   3.675   2.433 -1.3260  1.2670 -1.0534
 7667SOL    HW234464   0.817   3.688   2.583  0.5463  0.6854  0.3293
 7668SOL     OW34465   4.306   2.852   7.539 -0.0523 -0.0944 -0.2948
 7668SOL    HW134466   4.324   2.940   7.572 -0.3047 -0.2979  0.3751
 7668SOL    HW234467   4.252   2.814   7.608  0.9145 -1.4499 -0.2895
 7669SOL     OW34468   1.008   2.602   8.306 -0.8765 -0.4356  0.4852
 7669SOL    HW134469   1.024   2.517   8.348  1.8164 -0.3692 -0.4452
 7669SOL    HW234470   1.080   2.646   8.351  1.0226 -1.4535 -1.5720
 7670SOL     OW34471   3.686   1.627   0.071  0.5453  0.7007  0.4180
 7670SOL    HW134472   3.743   1.682   0.018 -0.5676  2.1306  0.6994
 7670SOL    HW234473   3.687   1.538   0.036  0.8085  1.2167 -0.8941
 7671SOL     OW34474   2.792   2.642   4.062 -0.3638 -0.1181  0.1928
 7671SOL    HW134475   2.727   2.693   4.015 -2.1059 -3.7483 -1.2783
 7671SOL    HW234476   2.856   2.705   4.095  0.7421 -0.4454 -1.3253
 7672SOL     OW34477   4.166   0.437   2.428 -0.5270  0.2243 -0.4786
 7672SOL    HW134478   4.245   0.402   2.469 -0.2002 -1.2193 -2.3639
 7672SOL    HW234479   4.123   0.361   2.389  0.3184 -1.0207  1.0153
 7673SOL     OW34480   0.081   0.113   7.001  0.4518 -0.6947 -0.0606
 7673SOL    HW134481   0.124   0.031   7.023  0.2490 -0.5475  0.9071
 7673SOL    HW234482   4.721   0.094   7.043 -0.1433  1.1538 -0.3856
 7674SOL     OW34483   4.503   3.348  10.489  0.2416 -0.7775  0.2173
 7674SOL    HW134484   4.472   3.412  10.425  2.3503  0.7965  0.7792
 7674SOL    HW234485   4.546   3.405  10.553 -0.3690 -1.1124  0.9267
 7675SOL     OW34486   2.156   2.221   4.471  0.4147  0.1368  0.3392
 7675SOL    HW134487   2.238   2.175   4.456  0.4305  0.3184 -0.1382
 7675SOL    HW234488   2.167   2.227   4.566 -1.7871 -0.9507  0.6722
 7676SOL     OW34489   2.620   0.370  14.147  0.2176  0.1215  0.5569
 7676SOL    HW134490   2.628   0.278  14.121 -1.0403  0.2945 -0.4553
 7676SOL    HW234491   2.615   0.364  14.242  1.3146 -3.0625  0.4148
 7677SOL     OW34492   3.044   3.869   6.496  0.1628 -0.0734  0.8084
 7677SOL    HW134493   3.083   3.810   6.432 -0.9434  0.3390 -0.2576
 7677SOL    HW234494   2.951   3.863   6.474 -0.0213  1.9388  1.0163
 7678SOL     OW34495   2.404   3.294   1.681  0.0594  0.0547  0.2291
 7678SOL    HW134496   2.422   3.358   1.749  1.3595 -2.0828  1.8926
 7678SOL    HW234497   2.378   3.213   1.725 -2.3502  0.7815  0.1374
 7679SOL     OW34498   2.591   1.526  17.376  0.1476  0.0338 -0.4306
 7679SOL    HW134499   2.505   1.561  17.397 -0.4915 -3.0625  2.1746
 7679SOL    HW234500   2.649   1.581  17.429  2.6579 -3.1381  0.1168
 7680SOL     OW34501   1.432   2.189   0.910 -0.2028  0.7904  0.1872
 7680SOL    HW134502   1.361   2.142   0.955  1.6359 -1.8857  0.2939
 7680SOL    HW234503   1.512   2.137   0.924 -0.4558  0.7334  1.3999
 7681SOL     OW34504   2.370   2.428   6.524 -0.0291 -0.1129  0.1873
 7681SOL    HW134505   2.368   2.352   6.581  1.4706  1.1983  1.9876
 7681SOL    HW234506   2.454   2.468   6.547  0.7063 -1.2428 -0.5064
 7682SOL     OW34507   2.330   0.095  16.270  0.7298  0.1357  0.1611
 7682SOL    HW134508   2.245   0.111  16.228  0.2744 -1.3953  0.4896
 7682SOL    HW234509   2.310   0.035  16.342  1.9999 -0.6851 -0.1688
 7683SOL     OW34510   1.192   3.108   5.810  0.3477 -0.2197 -0.0731
 7683SOL    HW134511   1.225   3.037   5.756  0.6870 -0.6082  0.6446
 7683SOL    HW234512   1.275   3.145   5.841 -1.5195  2.1368  2.1247
 7684SOL     OW34513   2.563   1.649   8.777  0.0921  0.3445  0.0567
 7684SOL    HW134514   2.596   1.633   8.865 -0.5945 -4.7597 -0.6197
 7684SOL    HW234515   2.476   1.609   8.772  0.2208  0.2615 -1.8075
 7685SOL     OW34516   1.691   4.313  10.237  0.0654  0.3825  0.5333
 7685SOL    HW134517   1.663   4.312  10.145  0.9237  0.3059  0.2778
 7685SOL    HW234518   1.603   4.312  10.274 -0.7578  0.2547 -1.4041
 7686SOL     OW34519   3.579   0.255  12.597 -0.1066  0.0923 -0.0813
 7686SOL    HW134520   3.608   0.260  12.506  0.6286 -2.0607  0.0299
 7686SOL    HW234521   3.584   0.163  12.622  2.5762  0.4449  0.7347
 7687SOL     OW34522   4.055   3.703   4.577  0.2370  0.1715 -0.0556
 7687SOL    HW134523   4.103   3.768   4.525  2.1166  0.8867  2.5823
 7687SOL    HW234524   3.990   3.765   4.611  0.8213  0.3010  0.8139
 7688SOL     OW34525   0.554   0.363  17.532 -0.0164 -0.0801  0.0484
 7688SOL    HW134526   0.601   0.438  17.567 -0.0167 -0.0117 -0.0959
 7688SOL    HW234527   0.582   0.367  17.441 -1.3995  1.7854 -0.2781
 7689SOL     OW34528   0.087   0.252   0.315 -0.5902 -0.0410 -0.2886
 7689SOL    HW134529   0.045   0.213   0.238  1.1450  0.7032 -1.6213
 7689SOL    HW234530   0.118   0.335   0.278 -1.7258  1.2387  1.6142
 7690SOL     OW34531   2.809   4.241   4.917 -0.0216 -0.6444  0.5633
 7690SOL    HW134532   2.730   4.188   4.926 -1.0647  0.8578  0.0592
 7690SOL    HW234533   2.806   4.302   4.990  0.9140 -1.3373  1.1860
 7691SOL     OW34534   0.369   3.909   2.785 -0.3127  0.5607 -0.0248
 7691SOL    HW134535   0.361   3.940   2.875  1.4778  1.0353 -0.0197
 7691SOL    HW234536   0.461   3.916   2.759 -0.0629 -2.5772 -0.0006
 7692SOL     OW34537   1.433   3.828   2.493  0.0724  0.3055  0.4564
 7692SOL    HW134538   1.390   3.754   2.450  0.0347  0.5635  0.0567
 7692SOL    HW234539   1.379   3.847   2.570  1.1049 -1.0009  1.5156
 7693SOL     OW34540   2.632   2.492   9.118 -0.0849 -0.1890 -0.1098
 7693SOL    HW134541   2.549   2.510   9.075  0.0246 -0.9804 -0.6579
 7693SOL    HW234542   2.652   2.576   9.160  1.1305  0.2224 -1.5347
 7694SOL     OW34543   4.629   0.070   8.276  0.1777  0.5674  0.3223
 7694SOL    HW134544   4.630   4.698   8.278 -2.7883  0.5041 -1.7996
 7694SOL    HW234545   0.001   0.077   8.278  0.0536  2.4029 -1.0173
 7695SOL     OW34546   3.265   0.816   9.075  0.0929 -0.0072 -0.1316
 7695SOL    HW134547   3.242   0.746   9.014  0.8609  2.5734 -3.3585
 7695SOL    HW234548   3.358   0.793   9.081  0.1276 -0.3189 -1.8184
 7696SOL     OW34549   1.366   2.319  16.143  0.1504  0.6538  0.5726
 7696SOL    HW134550   1.361   2.401  16.094 -1.5923  0.3603  0.2614
 7696SOL    HW234551   1.349   2.253  16.077  1.5123  1.0301 -0.1510
 7697SOL     OW34552   3.642   2.007  10.734  0.7189 -0.0630 -0.0876
 7697SOL    HW134553   3.634   2.097  10.766  1.5105 -0.6728  1.8317
 7697SOL    HW234554   3.736   1.990  10.725  0.8481  0.5732  0.0646
 7698SOL     OW34555   0.960   0.504  14.852 -0.1668  0.2461  0.1044
 7698SOL    HW134556   0.868   0.479  14.845 -0.9561  3.4279 -0.7736
 7698SOL    HW234557   1.005   0.427  14.818 -1.6303 -0.9035  0.8077
 7699SOL     OW34558   4.227   3.937  16.081 -0.4651  0.3481  0.1043
 7699SOL    HW134559   4.185   3.914  15.999  1.0275 -0.0755 -0.5408
 7699SOL    HW234560   4.320   3.933  16.059 -0.3557  0.5597  0.5180
 7700SOL     OW34561   1.730   0.414  16.168 -0.3462 -0.3623  0.0276
 7700SOL    HW134562   1.650   0.363  16.179  0.3183 -1.6273 -1.0153
 7700SOL    HW234563   1.727   0.455  16.082 -0.2436  0.2174  0.3005
 7701SOL     OW34564   1.284   2.695   3.835  0.4063 -0.2403  0.0296
 7701SOL    HW134565   1.360   2.669   3.784  1.6985  3.7368 -0.0891
 7701SOL    HW234566   1.209   2.650   3.795  1.8357 -1.5988 -1.0781
 7702SOL     OW34567   2.183   0.252  14.027  0.0037  0.0324 -0.8755
 7702SOL    HW134568   2.094   0.217  14.019 -0.6009  0.8022  2.7832
 7702SOL    HW234569   2.154   0.342  14.011  1.2263  0.4773 -0.5683
 7703SOL     OW34570   2.788   4.523   3.768  0.4636  0.2022 -0.6385
 7703SOL    HW134571   2.730   4.460   3.809  1.7388 -0.7341 -0.2733
 7703SOL    HW234572   2.862   4.500   3.824  0.1403  0.7724  0.0228
 7704SOL     OW34573   0.483   4.661  16.407 -0.3800  0.1940 -0.2529
 7704SOL    HW134574   0.416   0.003  16.425 -1.0458 -0.9118  1.2555
 7704SOL    HW234575   0.481   4.668  16.311 -0.9115  2.8009 -0.0486
 7705SOL     OW34576   4.372   3.657  11.048 -0.3489  0.8614  0.1153
 7705SOL    HW134577   4.426   3.585  11.081 -1.3095 -0.7564 -1.7745
 7705SOL    HW234578   4.290   3.649  11.096  0.4495 -2.1785  0.9991
 7706SOL     OW34579   2.713   3.736   5.334  0.0319 -0.6006 -0.3168
 7706SOL    HW134580   2.718   3.759   5.242 -1.4448  0.2470 -0.1838
 7706SOL    HW234581   2.753   3.813   5.375  1.3822 -1.8033  0.6156
 7707SOL     OW34582   0.847   1.715   6.187 -0.7480 -0.2858 -0.0991
 7707SOL    HW134583   0.840   1.805   6.153 -0.5850 -0.4158 -0.4758
 7707SOL    HW234584   0.762   1.713   6.232 -0.0941 -0.1082  1.1235
 7708SOL     OW34585   1.317   3.456   9.987  0.8011  0.0944  0.5010
 7708SOL    HW134586   1.357   3.371   9.969 -0.0799 -0.4829  1.2785
 7708SOL    HW234587   1.320   3.499   9.901  0.3492 -1.3540 -0.2446
 7709SOL     OW34588   0.147   2.603  16.211  0.3409  0.4664 -0.0576
 7709SOL    HW134589   0.059   2.601  16.249  0.6313 -0.8591  0.5618
 7709SOL    HW234590   0.200   2.624  16.288  2.4934 -4.0795 -0.2665
 7710SOL     OW34591   3.180   1.373   7.679  0.3808  0.2734  0.0780
 7710SOL    HW134592   3.157   1.402   7.590  0.1229  2.5137  0.8790
 7710SOL    HW234593   3.239   1.299   7.664 -0.7101 -1.0836  2.4592
 7711SOL     OW34594   4.355   1.800   1.058 -0.1985 -0.0517 -0.1593
 7711SOL    HW134595   4.443   1.799   1.097 -0.2623 -1.5410 -0.0238
 7711SOL    HW234596   4.312   1.860   1.119  1.0906  1.0691 -0.3500
 7712SOL     OW34597   1.343   2.958   6.894 -0.5080 -0.2279 -0.2265
 7712SOL    HW134598   1.421   2.939   6.948 -0.6658 -0.2672 -0.0116
 7712SOL    HW234599   1.287   2.882   6.911  0.0881 -0.8027 -0.8102
 7713SOL     OW34600   2.848   4.556   5.399 -0.3281 -0.0915 -0.4788
 7713SOL    HW134601   2.754   4.538   5.401  0.3092 -3.2008  0.1402
 7713SOL    HW234602   2.882   4.495   5.465  2.2795  0.3374 -1.4356
 7714SOL     OW34603   0.373   3.260   2.346 -0.0923 -0.3058  0.6235
 7714SOL    HW134604   0.377   3.165   2.340  0.0678 -0.2558 -0.0164
 7714SOL    HW234605   0.460   3.286   2.378  0.5427 -0.0207 -1.3359
 7715SOL     OW34606   0.272   1.244  15.866 -0.2706 -0.6187 -0.1215
 7715SOL    HW134607   0.262   1.336  15.892 -1.1398 -0.1148 -2.2422
 7715SOL    HW234608   0.183   1.211  15.860 -0.1125 -1.0932  0.1543
 7716SOL     OW34609   2.516   2.839  12.590 -0.0944 -0.9048  0.4247
 7716SOL    HW134610   2.493   2.932  12.586 -2.7721 -1.5344  1.1651
 7716SOL    HW234611   2.527   2.823  12.684 -0.5881 -0.3789  0.5752
 7717SOL     OW34612   0.044   4.666   3.008  0.7097 -0.3767  0.3949
 7717SOL    HW134613   0.112   4.720   2.968  0.8655 -0.3291  0.7285
 7717SOL    HW234614   0.083   4.579   3.022  0.5339 -0.4918  0.1847
 7718SOL     OW34615   3.444   1.233   9.970 -0.1479 -0.1570 -0.1017
 7718SOL    HW134616   3.370   1.215   9.912 -1.0613  0.7230  0.7763
 7718SOL    HW234617   3.403   1.246  10.055 -0.7325 -1.7059 -0.1535
 7719SOL     OW34618   2.461   3.227   2.677  0.0758  0.3937  0.1802
 7719SOL    HW134619   2.490   3.154   2.623 -0.9456 -1.6775  2.4258
 7719SOL    HW234620   2.371   3.199   2.689  0.7410 -0.9674  2.0117
 7720SOL     OW34621   4.203   3.714   2.578  0.2702  0.2321  0.3684
 7720SOL    HW134622   4.185   3.620   2.585  1.0465  0.0180 -0.5400
 7720SOL    HW234623   4.128   3.744   2.527 -0.8757 -0.3233  1.7237
 7721SOL     OW34624   1.140   1.241   6.273 -0.5779  0.0517  0.2249
 7721SOL    HW134625   1.047   1.240   6.295 -0.7307 -2.5671 -0.5058
 7721SOL    HW234626   1.138   1.309   6.206  3.2894 -1.9635 -1.8964
 7722SOL     OW34627   3.983   2.481  14.173  0.2734  0.2609  0.4001
 7722SOL    HW134628   3.962   2.492  14.266 -1.6657  0.1583 -0.0197
 7722SOL    HW234629   4.021   2.394  14.179  0.7787  0.4113 -0.5959
 7723SOL     OW34630   3.167   1.011  11.077  0.2845 -0.3280  0.6455
 7723SOL    HW134631   3.093   0.978  11.129 -1.8372 -0.0715 -2.2023
 7723SOL    HW234632   3.219   1.050  11.147  1.2390 -2.1506  0.9591
 7724SOL     OW34633   2.101   1.834   8.370 -0.2643 -0.3955  0.6965
 7724SOL    HW134634   2.075   1.924   8.392  2.7566  0.1620  1.9202
 7724SOL    HW234635   2.075   1.796   8.454  0.9552  0.2235  1.3492
 7725SOL     OW34636   2.935   0.678   6.943 -0.3374  0.7315  0.3511
 7725SOL    HW134637   2.867   0.742   6.923 -1.2495  0.0922  1.3875
 7725SOL    HW234638   3.014   0.711   6.900 -0.8844 -1.7134 -2.6314
 7726SOL     OW34639   0.328   4.073   9.726  0.3540 -0.3057 -0.7268
 7726SOL    HW134640   0.380   4.038   9.798 -0.0893  0.5074 -0.0129
 7726SOL    HW234641   0.313   3.998   9.669 -1.3360  1.7646 -3.0221
 7727SOL     OW34642   4.363   2.986   5.705 -0.2964  0.1159  0.1730
 7727SOL    HW134643   4.359   2.936   5.624  0.3365  1.7377 -0.8567
 7727SOL    HW234644   4.399   2.924   5.769 -0.5671  0.5866  0.7812
 7728SOL     OW34645   4.453   4.297   8.445  0.2090  0.3463  0.0478
 7728SOL    HW134646   4.489   4.244   8.374 -1.4230  2.1900 -2.1723
 7728SOL    HW234647   4.368   4.325   8.410  0.4844  1.9314  0.6965
 7729SOL     OW34648   4.173   2.164   2.199  0.2349 -0.5546  0.0712
 7729SOL    HW134649   4.199   2.255   2.185 -0.9973 -0.6212 -2.5605
 7729SOL    HW234650   4.257   2.126   2.225  1.1855  1.2525 -0.3678
 7730SOL     OW34651   0.131   1.603  14.370 -0.0215 -0.0007  0.0886
 7730SOL    HW134652   0.125   1.662  14.295 -0.0478  0.6322  0.5806
 7730SOL    HW234653   0.156   1.666  14.438 -0.6174  1.2554 -0.8420
 7731SOL     OW34654   1.207   4.301   8.184  0.0570  0.5838  0.1318
 7731SOL    HW134655   1.117   4.286   8.211  0.1312 -0.4574 -0.1711
 7731SOL    HW234656   1.227   4.208   8.171 -1.2076  0.1656  1.2526
 7732SOL     OW34657   2.167   0.759   1.485  0.4155 -0.0637 -0.1362
 7732SOL    HW134658   2.206   0.731   1.568  1.9551 -0.9352 -1.1500
 7732SOL    HW234659   2.075   0.748   1.511  0.5680  1.9280  1.2453
 7733SOL     OW34660   1.993   0.726   0.760  0.2248  0.8040  0.3966
 7733SOL    HW134661   2.030   0.763   0.679  1.8043  0.3875  0.9351
 7733SOL    HW234662   1.902   0.756   0.758  0.0799  0.0665 -3.7318
 7734SOL     OW34663   2.610   0.661  16.767  0.0852  0.0566  0.5455
 7734SOL    HW134664   2.623   0.657  16.673  1.1579 -0.5876  0.7207
 7734SOL    HW234665   2.515   0.649  16.771 -0.0192  0.1722 -2.1772
 7735SOL     OW34666   4.027   4.517  11.947  0.3731 -0.5342  0.2639
 7735SOL    HW134667   4.084   4.592  11.962 -0.7024  0.1914  0.7489
 7735SOL    HW234668   4.024   4.473  12.032 -2.7523  0.1097  0.4880
 7736SOL     OW34669   3.280   2.022  12.388  0.0541  0.3380  0.5397
 7736SOL    HW134670   3.362   2.027  12.436  0.1901 -1.3767  0.4838
 7736SOL    HW234671   3.309   1.987  12.304 -1.3315 -3.4084  1.5859
 7737SOL     OW34672   1.466   4.398   4.032  0.6115  0.5368  0.0147
 7737SOL    HW134673   1.509   4.383   4.117 -0.4383 -0.4522  0.3668
 7737SOL    HW234674   1.534   4.368   3.972 -0.6039 -1.5442 -0.3089
 7738SOL     OW34675   0.461   2.550   4.337  0.5450  0.6884 -0.2932
 7738SOL    HW134676   0.485   2.503   4.257 -0.8288 -0.7643  0.1517
 7738SOL    HW234677   0.407   2.485   4.381  0.1184  0.8891 -0.5238
 7739SOL     OW34678   3.246   1.990   5.967  0.4907 -0.1972  0.6969
 7739SOL    HW134679   3.296   1.925   5.918 -0.2254  1.3484 -2.0407
 7739SOL    HW234680   3.185   2.034   5.907 -1.9201 -3.3491  0.8192
 7740SOL     OW34681   1.534   2.246   8.618  0.6830 -0.1645 -0.7093
 7740SOL    HW134682   1.625   2.225   8.640  0.8689 -0.3061 -1.6299
 7740SOL    HW234683   1.545   2.337   8.591 -2.9024  0.9874  1.6847
 7741SOL     OW34684   2.956   3.951   1.328 -0.1791 -0.3431 -0.0208
 7741SOL    HW134685   3.010   4.018   1.285 -0.1289 -0.2996  0.1084
 7741SOL    HW234686   2.908   4.013   1.383 -1.3004  1.0641 -2.6098
 7742SOL     OW34687   3.109   3.657  13.047 -0.3812  0.2167  0.4525
 7742SOL    HW134688   3.184   3.638  13.103 -1.0784 -2.8902  0.3258
 7742SOL    HW234689   3.131   3.748  13.028 -0.3767  0.0497 -0.3260
 7743SOL     OW34690   0.369   3.098  14.210  0.1600 -0.3724  0.6456
 7743SOL    HW134691   0.348   3.187  14.182 -0.4734 -0.3752  1.1307
 7743SOL    HW234692   0.465   3.102  14.204  0.0504 -0.5918 -1.5654
 7744SOL     OW34693   1.134   4.608   0.941 -0.7456 -0.0638  0.0857
 7744SOL    HW134694   1.091   4.558   1.010 -0.9585  0.1965  0.1400
 7744SOL    HW234695   1.180   4.540   0.892  0.5081  1.3332 -0.6902
 7745SOL     OW34696   1.962   0.297   9.779 -0.7370 -0.5576  0.8234
 7745SOL    HW134697   1.988   0.327   9.692  0.1586 -0.1282  1.2460
 7745SOL    HW234698   2.040   0.330   9.825  1.6454 -1.7713 -2.3603
 7746SOL     OW34699   4.552   0.191   7.240  0.4886 -0.0934 -0.4761
 7746SOL    HW134700   4.484   0.143   7.191 -1.0462  2.4666 -0.8589
 7746SOL    HW234701   4.538   0.176   7.333  0.4823  0.0217 -0.4593
 7747SOL     OW34702   3.463   1.618   0.622 -0.2974 -0.2075 -0.5111
 7747SOL    HW134703   3.516   1.572   0.686  0.1160  0.8788 -0.0726
 7747SOL    HW234704   3.469   1.567   0.541  0.9585 -0.6524 -0.1397
 7748SOL     OW34705   1.511   3.180   8.345 -0.4695 -0.0670 -1.0004
 7748SOL    HW134706   1.576   3.185   8.275  0.8121 -0.3554  0.1592
 7748SOL    HW234707   1.460   3.103   8.321  0.3481 -0.8078 -0.3682
 7749SOL     OW34708   2.931   0.255   2.326  0.0298 -0.3806 -0.2598
 7749SOL    HW134709   2.995   0.310   2.372 -0.0235 -0.0587 -0.5696
 7749SOL    HW234710   2.866   0.320   2.301 -0.3236 -0.1683  1.1944
 7750SOL     OW34711   4.533   2.805  13.563  0.2515 -0.5025 -0.6979
 7750SOL    HW134712   4.625   2.784  13.548  0.8064 -0.4213  2.4686
 7750SOL    HW234713   4.511   2.873  13.500 -3.0471  0.5871  1.6177
 7751SOL     OW34714   4.276   2.499   4.148  0.6638  0.2295 -0.7257
 7751SOL    HW134715   4.225   2.456   4.217 -0.0072  1.7032 -0.3075
 7751SOL    HW234716   4.294   2.425   4.090  1.3904  0.5282 -0.8859
 7752SOL     OW34717   2.956   2.904  15.184 -0.3820  0.5027 -0.2011
 7752SOL    HW134718   2.955   2.906  15.088  0.9998  2.6377 -0.1513
 7752SOL    HW234719   2.919   2.816  15.192  1.8989 -0.5012 -0.6969
 7753SOL     OW34720   0.286   1.139   4.404 -0.2329  0.1755  0.1150
 7753SOL    HW134721   0.301   1.108   4.314 -0.9723  0.2762 -0.0450
 7753SOL    HW234722   0.380   1.139   4.418 -0.2600  0.2212  0.2944
 7754SOL     OW34723   3.125   3.520   9.377  0.6110 -0.9505  0.1395
 7754SOL    HW134724   3.097   3.577   9.450  0.3460  0.6352 -1.1981
 7754SOL    HW234725   3.160   3.445   9.425  0.2337 -0.8050  0.6507
 7755SOL     OW34726   4.108   1.163   8.718 -0.7635  0.2043 -0.5934
 7755SOL    HW134727   4.144   1.079   8.744 -0.4070  0.4892 -0.1697
 7755SOL    HW234728   4.027   1.168   8.769  0.1056 -0.5800  0.8255
 7756SOL     OW34729   4.368   1.956   3.151  0.0770 -0.5320  0.2008
 7756SOL    HW134730   4.422   1.973   3.074 -0.6874  1.4047  0.1029
 7756SOL    HW234731   4.414   1.891   3.204  0.9579 -0.8863 -0.9921
 7757SOL     OW34732   0.962   3.493   9.980 -0.5445  0.3671  0.5774
 7757SOL    HW134733   0.933   3.412  10.022 -1.0308 -0.0596 -0.5649
 7757SOL    HW234734   1.052   3.475   9.952 -1.1901 -0.4203 -0.9742
 7758SOL     OW34735   2.256   0.346   8.503  0.4904  0.4173 -0.4484
 7758SOL    HW134736   2.306   0.375   8.579 -0.6529  4.2598 -1.1402
 7758SOL    HW234737   2.331   0.327   8.446  1.2872  0.7429  0.5001
 7759SOL     OW34738   0.846   1.722   6.949  0.0122 -0.8128 -0.9266
 7759SOL    HW134739   0.912   1.681   6.893  1.9501  0.9306  0.0588
 7759SOL    HW234740   0.772   1.730   6.889 -0.4770 -1.1566 -0.3718
 7760SOL     OW34741   3.903   0.117   5.761  0.1986  0.2325 -0.3598
 7760SOL    HW134742   3.889   0.208   5.787  0.4033  0.0524  0.3775
 7760SOL    HW234743   3.945   0.079   5.838 -1.4517  3.5208  2.1993
 7761SOL     OW34744   3.874   3.534   6.463 -0.1224  0.3986 -0.3095
 7761SOL    HW134745   3.799   3.587   6.490  1.7847  1.8964  2.0761
 7761SOL    HW234746   3.832   3.457   6.425 -2.9026  0.3758  2.8094
 7762SOL     OW34747   1.964   4.284   7.061 -0.6076 -0.7251  0.1449
 7762SOL    HW134748   2.054   4.270   7.032 -0.3999 -1.0682  0.9228
 7762SOL    HW234749   1.960   4.205   7.116  1.3926 -1.1128 -0.2864
 7763SOL     OW34750   0.577   3.040   2.355  0.0790  0.8165  0.1532
 7763SOL    HW134751   0.549   2.951   2.334  2.0734  0.6161 -1.6658
 7763SOL    HW234752   0.626   3.070   2.278  0.1276  2.4691  0.8220
 7764SOL     OW34753   2.004   4.291  16.260 -0.5320 -0.3398  0.5556
 7764SOL    HW134754   1.965   4.373  16.231  3.3189  1.0392 -0.7704
 7764SOL    HW234755   2.092   4.329  16.260  0.1102 -1.8359 -0.6643
 7765SOL     OW34756   1.448   1.958  10.287 -0.2335 -0.2770 -0.0100
 7765SOL    HW134757   1.430   1.924  10.375  1.4487  0.0163  0.4403
 7765SOL    HW234758   1.508   2.030  10.308 -0.2631 -0.4443  0.6660
 7766SOL     OW34759   0.744   1.663  10.757 -0.1179  0.3291 -0.1550
 7766SOL    HW134760   0.777   1.748  10.726  1.1345  0.2799  1.0461
 7766SOL    HW234761   0.705   1.627  10.678  0.2313  0.0937 -0.2198
 7767SOL     OW34762   4.171   3.101   5.976  0.2823 -0.6676 -1.0100
 7767SOL    HW134763   4.136   3.051   5.903 -3.2925  1.6429 -0.9083
 7767SOL    HW234764   4.158   3.189   5.940 -1.4326 -0.4102  0.2065
 7768SOL     OW34765   3.782   3.697   5.201  0.1233 -0.4802 -0.1075
 7768SOL    HW134766   3.736   3.760   5.146  0.7746  1.4101  1.4943
 7768SOL    HW234767   3.856   3.681   5.143  1.3074  1.1705  0.9266
 7769SOL     OW34768   2.644   2.526   1.384  0.2532 -0.3849 -0.3869
 7769SOL    HW134769   2.700   2.554   1.456 -0.8744  0.7763  0.0321
 7769SOL    HW234770   2.703   2.488   1.319  0.8842 -0.3631  0.1817
 7770SOL     OW34771   4.552   1.113   3.856  0.3468  0.3699 -0.0580
 7770SOL    HW134772   4.606   1.139   3.930  1.3340  3.9496 -2.0147
 7770SOL    HW234773   4.469   1.158   3.871  0.4208 -0.2956  2.2679
 7771SOL     OW34774   4.636   1.014   3.624 -0.3109  0.4454 -0.6710
 7771SOL    HW134775   4.663   0.934   3.669 -0.8446  0.5579 -0.1573
 7771SOL    HW234776   4.595   1.065   3.693 -2.3968  0.0496 -1.6214
 7772SOL     OW34777   0.739   2.697  12.153 -0.1002 -0.0208 -0.2672
 7772SOL    HW134778   0.706   2.703  12.242 -0.3461  0.0933 -0.3656
 7772SOL    HW234779   0.778   2.782  12.135 -1.4634  0.9680  1.4609
 7773SOL     OW34780   2.453   3.741   6.178 -0.0545  0.2637 -0.2659
 7773SOL    HW134781   2.443   3.799   6.254 -0.8546  0.5287 -0.5706
 7773SOL    HW234782   2.504   3.671   6.218 -0.1007  0.6411  0.4630
 7774SOL     OW34783   0.607   1.970   2.667  0.3308 -0.1791  0.1142
 7774SOL    HW134784   0.520   1.934   2.651  0.2960  0.6512 -1.5753
 7774SOL    HW234785   0.612   1.984   2.762 -0.7408  1.0946 -0.0148
 7775SOL     OW34786   3.615   1.086  10.722 -0.6110 -0.5394  0.0728
 7775SOL    HW134787   3.616   1.182  10.721  2.8519 -0.5822  0.6665
 7775SOL    HW234788   3.693   1.068  10.670  0.9685  1.5929  1.6756
 7776SOL     OW34789   2.782   3.498   7.700  0.2269 -0.1327 -0.3276
 7776SOL    HW134790   2.860   3.500   7.756  0.5393  0.0776 -0.7778
 7776SOL    HW234791   2.822   3.473   7.617  1.1884 -1.4826  0.5303
 7777SOL     OW34792   1.274   0.740   3.431 -0.0807  0.0638  0.1496
 7777SOL    HW134793   1.363   0.764   3.456  1.1830 -2.9011 -1.5007
 7777SOL    HW234794   1.222   0.814   3.465 -0.6491 -0.5992  0.7359
 7778SOL     OW34795   2.353   4.074   9.215 -0.7897  1.0209  0.3642
 7778SOL    HW134796   2.337   4.002   9.154 -0.0151  0.6646  0.5754
 7778SOL    HW234797   2.317   4.046   9.299  0.7525 -0.2902  0.5898
 7779SOL     OW34798   3.014   2.409   4.219 -0.0173 -0.5273  0.4452
 7779SOL    HW134799   3.039   2.501   4.228  0.9785 -0.5557 -2.1353
 7779SOL    HW234800   2.979   2.393   4.307 -2.6621 -1.3691 -0.7662
 7780SOL     OW34801   0.839   1.810   7.920  0.2721 -0.4702  0.4199
 7780SOL    HW134802   0.918   1.853   7.951 -1.2410  1.8583  1.0150
 7780SOL    HW234803   0.786   1.816   8.000 -1.9707  0.9553 -1.1794
 7781SOL     OW34804   3.144   1.229  13.468  0.1782  0.3447 -0.8225
 7781SOL    HW134805   3.116   1.287  13.538  1.9470 -0.1728  0.3015
 7781SOL    HW234806   3.078   1.162  13.489  1.0714  0.1568  1.3532
 7782SOL     OW34807   2.417   2.034  16.856  0.8794 -0.3638 -0.3837
 7782SOL    HW134808   2.349   2.055  16.792 -0.0066  0.8266  0.9520
 7782SOL    HW234809   2.472   2.111  16.837  1.7373 -1.4953 -2.4530
 7783SOL     OW34810   2.972   0.529   6.125 -0.3201 -0.0729  0.1480
 7783SOL    HW134811   3.002   0.448   6.166  2.3557  0.6802 -0.2734
 7783SOL    HW234812   2.973   0.505   6.032 -0.8687  0.1904  0.0761
 7784SOL     OW34813   2.657   0.910   4.442  0.0797 -0.0857 -0.0637
 7784SOL    HW134814   2.650   0.816   4.424 -1.8669  0.3728 -1.6794
 7784SOL    HW234815   2.666   0.952   4.357  2.3578 -2.0820 -0.8206
 7785SOL     OW34816   2.080   2.612   8.736 -0.1723 -0.0367  0.4109
 7785SOL    HW134817   2.135   2.682   8.771  0.1134 -0.5994  1.0989
 7785SOL    HW234818   2.125   2.592   8.653  0.2388  1.7256  0.2139
 7786SOL     OW34819   0.962   4.274   2.651  0.3963 -0.0533 -0.4781
 7786SOL    HW134820   0.980   4.366   2.631  0.6090  0.3889  1.8478
 7786SOL    HW234821   0.994   4.233   2.570 -1.1878  0.0208 -1.1425
 7787SOL     OW34822   0.054   3.030   6.568 -0.3240 -0.3663 -0.1667
 7787SOL    HW134823   0.140   3.071   6.568  0.2594 -1.6008 -2.1090
 7787SOL    HW234824   4.721   3.107   6.569  1.1439  0.6614  2.9196
 7788SOL     OW34825   4.308   3.440   9.478  0.3292 -0.3289  0.4015
 7788SOL    HW134826   4.341   3.360   9.520 -1.8862 -0.7434  1.3427
 7788SOL    HW234827   4.354   3.514   9.518 -2.6241  2.4170 -1.2881
 7789SOL     OW34828   0.444   1.314   9.663 -0.3799 -0.4757 -0.3619
 7789SOL    HW134829   0.520   1.353   9.705 -0.3966  0.8397 -1.5668
 7789SOL    HW234830   0.380   1.284   9.728  0.8117 -1.1106  0.5232
 7790SOL     OW34831   4.335   2.396   6.151 -0.0007 -0.4095 -0.0811
 7790SOL    HW134832   4.385   2.321   6.121 -0.8116  0.1818 -2.8605
 7790SOL    HW234833   4.316   2.362   6.239 -0.3400 -0.5103 -0.1917
 7791SOL     OW34834   3.927   1.522  17.440  0.0736  0.3361  0.6150
 7791SOL    HW134835   3.994   1.569  17.490  0.4380  1.3702 -0.8247
 7791SOL    HW234836   3.846   1.568  17.462  1.1845  2.0735  1.1258
 7792SOL     OW34837   4.157   2.350   6.515  0.1264  0.2674 -0.0111
 7792SOL    HW134838   4.107   2.370   6.594 -1.2817 -1.0815 -0.5725
 7792SOL    HW234839   4.223   2.299   6.562 -0.8819  1.2961  2.5083
 7793SOL     OW34840   1.554   2.359   8.323 -0.2748  0.4110  0.0677
 7793SOL    HW134841   1.474   2.400   8.356 -0.0447  2.2192 -1.6194
 7793SOL    HW234842   1.546   2.273   8.364 -1.4796  0.3184 -0.3541
 7794SOL     OW34843   0.020   0.414  17.457  0.1257  0.0100  0.0703
 7794SOL    HW134844   0.015   0.484  17.522  1.2967  1.5890 -1.5535
 7794SOL    HW234845   0.081   0.352  17.498  0.1312  0.7275  1.1474
 7795SOL     OW34846   3.194   4.089   6.238  0.1709  0.2083 -0.2096
 7795SOL    HW134847   3.221   4.025   6.172 -0.1319  1.3410 -1.4344
 7795SOL    HW234848   3.120   4.046   6.282  2.0338 -1.1102  1.6402
 7796SOL     OW34849   0.234   1.597   4.838 -0.0432 -0.0990  0.2746
 7796SOL    HW134850   0.266   1.588   4.749  1.5747 -3.4591  1.1927
 7796SOL    HW234851   0.215   1.508   4.869  2.1191 -0.5060  0.4483
 7797SOL     OW34852   3.322   4.145   2.969 -0.5679  0.2455  0.4396
 7797SOL    HW134853   3.331   4.203   3.045  2.5687 -1.3760  1.3348
 7797SOL    HW234854   3.259   4.079   2.996 -0.7423 -0.8329 -2.6347
 7798SOL     OW34855   1.739   2.351   0.846 -0.7220 -0.0229 -0.8592
 7798SOL    HW134856   1.786   2.395   0.776 -2.7168 -0.2260 -2.3089
 7798SOL    HW234857   1.803   2.294   0.888 -0.3833  0.7105 -0.3871
 7799SOL     OW34858   1.464   0.235   5.639  0.1454  0.3612 -0.2040
 7799SOL    HW134859   1.474   0.144   5.666  0.2673  0.7676  1.1106
 7799SOL    HW234860   1.471   0.278   5.724 -1.6858  1.2208 -0.4863
 7800SOL     OW34861   0.006   3.142   8.106 -0.7319 -0.1099  0.3100
 7800SOL    HW134862   0.075   3.104   8.160  1.1022  0.7004 -1.5009
 7800SOL    HW234863   4.686   3.192   8.175 -1.3458 -0.2660  0.0277
 7801SOL     OW34864   4.121   3.171   2.683  0.2130  0.0688 -0.1041
 7801SOL    HW134865   4.067   3.150   2.759 -1.4377 -1.7379 -1.7910
 7801SOL    HW234866   4.131   3.266   2.687 -1.6359  0.1639  2.0736
 7802SOL     OW34867   0.072   0.539  16.700  0.2110  0.1224  0.2038
 7802SOL    HW134868   0.083   0.549  16.605 -1.4605  0.9726  0.1052
 7802SOL    HW234869   0.033   0.619  16.736  1.2835  0.8851 -0.3162
 7803SOL     OW34870   2.498   1.775   4.582 -0.3613 -0.4147 -0.2073
 7803SOL    HW134871   2.519   1.724   4.503 -1.3434 -0.3370 -0.5197
 7803SOL    HW234872   2.408   1.745   4.595 -1.0576  1.9173  0.2348
 7804SOL     OW34873   2.983   0.801   3.573  0.4768  0.0341 -0.3183
 7804SOL    HW134874   3.050   0.769   3.513 -1.1806  0.3944 -2.3199
 7804SOL    HW234875   3.025   0.812   3.659 -0.6481 -0.9108  0.3547
 7805SOL     OW34876   1.123   3.971  13.701 -0.0686  0.3367 -0.3600
 7805SOL    HW134877   1.075   3.962  13.619  0.9072 -0.9149 -0.7953
 7805SOL    HW234878   1.058   4.021  13.750 -1.5770 -0.6602 -1.3755
 7806SOL     OW34879   4.442   0.779   4.683 -0.1994  0.0265  0.5677
 7806SOL    HW134880   4.525   0.758   4.639  0.1869  1.8691  0.3969
 7806SOL    HW234881   4.455   0.723   4.759  1.8852 -0.1916  0.0618
 7807SOL     OW34882   4.412   1.791   5.689  0.2420 -0.1273  0.0194
 7807SOL    HW134883   4.461   1.712   5.709 -0.3555 -0.3650  0.5250
 7807SOL    HW234884   4.488   1.848   5.685  0.6838 -0.8439 -1.7049
 7808SOL     OW34885   2.134   3.018   6.411 -0.4413 -0.0016  0.3303
 7808SOL    HW134886   2.039   3.014   6.401 -0.1698  1.6762 -2.8838
 7808SOL    HW234887   2.140   3.036   6.505 -2.5422  0.8109  0.3083
 7809SOL     OW34888   0.637   4.423   6.991 -0.3735  0.4507 -0.4479
 7809SOL    HW134889   0.701   4.352   6.980  1.1092  2.3590 -3.9363
 7809SOL    HW234890   0.688   4.483   7.046 -1.1922  1.2518 -0.5592
 7810SOL     OW34891   3.281   3.850   3.979  0.0984  0.3468  0.3915
 7810SOL    HW134892   3.274   3.945   3.967 -0.5458  0.1444 -0.8688
 7810SOL    HW234893   3.190   3.822   3.986 -0.4360  1.1553 -3.0517
 7811SOL     OW34894   4.001   1.228   4.392 -0.1157  0.2707  0.5954
 7811SOL    HW134895   3.920   1.260   4.352  0.0787  2.3296  1.8229
 7811SOL    HW234896   4.062   1.293   4.357  0.4115 -0.0225  0.9656
 7812SOL     OW34897   0.058   2.679   6.995 -0.4179 -0.1694 -0.6242
 7812SOL    HW134898   4.699   2.634   6.984 -1.7340  2.1966 -0.2306
 7812SOL    HW234899   0.073   2.702   6.904  0.6104 -0.5721 -0.5588
 7813SOL     OW34900   0.230   2.362   8.496  0.4678  0.6340  0.6856
 7813SOL    HW134901   0.293   2.336   8.429  0.6477 -0.3700  1.2519
 7813SOL    HW234902   0.268   2.312   8.568  0.1148 -1.4128 -0.5347
 7814SOL     OW34903   0.583   3.527  13.815  0.1460  0.2132 -0.2990
 7814SOL    HW134904   0.666   3.479  13.812  0.2033  0.1138  3.0721
 7814SOL    HW234905   0.563   3.555  13.725  1.1827 -0.3616 -0.7150
 7815SOL     OW34906   1.656   4.181   1.718 -0.2043 -0.0649  0.8834
 7815SOL    HW134907   1.642   4.231   1.799 -1.9568  1.2780 -0.2483
 7815SOL    HW234908   1.642   4.255   1.659 -1.4512 -0.0567  1.1762
 7816SOL     OW34909   0.184   4.636  15.266  0.0386 -0.0904  0.4027
 7816SOL    HW134910   0.116   4.622  15.200  0.6945  1.4947 -0.5898
 7816SOL    HW234911   0.185   4.550  15.308 -0.8979 -1.1141 -1.6915
 7817SOL     OW34912   3.705   2.024   9.185 -0.2694  0.2181  0.4133
 7817SOL    HW134913   3.614   2.003   9.206  0.0321 -0.4681  1.0762
 7817SOL    HW234914   3.706   2.053   9.094 -0.0542 -1.4569 -0.1104
 7818SOL     OW34915   0.837   4.552  15.701 -0.1777 -0.6627  0.4508
 7818SOL    HW134916   0.899   4.617  15.736  0.1822  0.0698 -1.5408
 7818SOL    HW234917   0.788   4.607  15.639 -0.3667 -1.0026  0.3022
 7819SOL     OW34918   4.254   3.087   4.607 -0.1289 -0.1017 -0.6663
 7819SOL    HW134919   4.168   3.048   4.617 -0.1841  0.6584  1.9271
 7819SOL    HW234920   4.228   3.162   4.555  3.0801  1.2846 -0.3114
 7820SOL     OW34921   0.896   1.388  15.865  0.2532  0.0573  0.0006
 7820SOL    HW134922   0.897   1.484  15.859 -3.4099  0.0770 -0.2478
 7820SOL    HW234923   0.810   1.380  15.907  0.4157  0.9793  0.5129
 7821SOL     OW34924   3.755   3.303   7.879  0.4868  0.4956  0.0446
 7821SOL    HW134925   3.769   3.370   7.812 -0.5914  0.3453 -0.3358
 7821SOL    HW234926   3.836   3.311   7.929 -0.5208 -2.0469  2.0797
 7822SOL     OW34927   3.738   4.668   8.017  0.0044 -0.1953  0.4309
 7822SOL    HW134928   3.766   0.036   8.022 -0.6967  0.1860 -3.1730
 7822SOL    HW234929   3.678   4.655   8.090 -0.8834  1.5022 -0.0048
 7823SOL     OW34930   4.165   4.587   8.757  0.5288  0.4379  0.2548
 7823SOL    HW134931   4.139   4.679   8.755  0.6648  0.4956  1.5287
 7823SOL    HW234932   4.205   4.581   8.843  0.6195  0.1325  0.1927
 7824SOL     OW34933   3.041   2.572  13.095 -0.3097 -0.0451 -0.4195
 7824SOL    HW134934   2.979   2.504  13.124  0.5223 -0.8515 -0.5196
 7824SOL    HW234935   3.079   2.600  13.178 -2.5592  1.5670  0.0783
 7825SOL     OW34936   2.072   1.062   7.629 -0.6646 -0.6084  0.0295
 7825SOL    HW134937   2.151   1.109   7.657  1.7120 -1.6341 -4.8977
 7825SOL    HW234938   2.005   1.128   7.646  0.4689  0.4958  0.1690
 7826SOL     OW34939   1.101   2.111   4.421  0.4284  0.0563  0.6026
 7826SOL    HW134940   1.089   2.137   4.512  0.7325  0.6032  0.4892
 7826SOL    HW234941   1.139   2.023   4.426  0.9847  0.2823  0.3665
 7827SOL     OW34942   0.715   1.253   2.653  0.6222  0.2978  0.5357
 7827SOL    HW134943   0.741   1.168   2.617 -1.4770 -0.4574  0.7985
 7827SOL    HW234944   0.745   1.237   2.742  0.9229  0.6043  0.4881
 7828SOL     OW34945   2.294   1.383   4.732  0.0296  0.3941 -0.1362
 7828SOL    HW134946   2.252   1.309   4.688 -0.2658  0.8699 -0.6442
 7828SOL    HW234947   2.228   1.451   4.735 -0.8855 -0.6069  2.3074
 7829SOL     OW34948   2.232   0.794   3.439 -0.2465  0.4048 -0.1365
 7829SOL    HW134949   2.323   0.782   3.465 -0.8156 -1.2846  1.0889
 7829SOL    HW234950   2.215   0.701   3.423  1.2424 -0.2422  2.0048
 7830SOL     OW34951   3.084   3.453   9.753  0.3958 -0.0084 -0.2694
 7830SOL    HW134952   3.177   3.438   9.738 -0.0633 -1.1855 -1.9425
 7830SOL    HW234953   3.099   3.528   9.810 -1.9984 -0.0743  0.4529
 7831SOL     OW34954   3.547   1.467   0.333 -0.1970 -0.1443  0.5875
 7831SOL    HW134955   3.495   1.405   0.384  1.3910 -1.5286  0.4978
 7831SOL    HW234956   3.617   1.413   0.297  0.8935 -0.5176  3.3028
 7832SOL     OW34957   1.219   3.610   7.466 -0.5429  0.6123  0.0473
 7832SOL    HW134958   1.305   3.635   7.432 -0.0513 -2.7082 -1.1642
 7832SOL    HW234959   1.228   3.621   7.560  2.0629 -0.7558 -0.0531
 7833SOL     OW34960   3.145   0.668   5.873  0.3038 -0.8299 -0.1573
 7833SOL    HW134961   3.166   0.612   5.798 -0.0210  1.7795 -2.2099
 7833SOL    HW234962   3.073   0.717   5.832  0.0406 -0.6677  0.5039
 7834SOL     OW34963   2.153   3.667   7.431 -0.2825 -0.2573  0.0586
 7834SOL    HW134964   2.198   3.628   7.506 -0.5102 -1.9665 -0.6762
 7834SOL    HW234965   2.224   3.714   7.388 -0.2625  0.2477  0.6406
 7835SOL     OW34966   3.382   3.926   9.750  0.1171 -0.2058 -0.6041
 7835SOL    HW134967   3.341   3.892   9.830  3.0628 -0.2594  0.8727
 7835SOL    HW234968   3.422   4.007   9.779  0.0972 -0.3351 -0.2186
 7836SOL     OW34969   0.650   2.920   9.062 -0.0661 -0.0111 -0.1747
 7836SOL    HW134970   0.559   2.933   9.034 -0.6864 -0.0355  1.8328
 7836SOL    HW234971   0.676   2.834   9.029  0.8590  0.3243 -0.3144
 7837SOL     OW34972   3.452   4.339  17.627  0.6686  0.4480 -0.3247
 7837SOL    HW134973   3.473   4.342   0.023 -1.2059  0.9491  0.0655
 7837SOL    HW234974   3.527   4.392  17.599 -0.1291  1.1241 -1.1653
 7838SOL     OW34975   2.480   2.845   9.002 -0.2121 -0.5501 -0.2125
 7838SOL    HW134976   2.547   2.861   8.935  0.2150  1.5904  0.7146
 7838SOL    HW234977   2.533   2.803   9.069  2.3236 -0.7265 -2.2991
 7839SOL     OW34978   3.976   4.429  10.420  0.0738  0.2136 -0.3837
 7839SOL    HW134979   3.945   4.341  10.439  1.7493 -0.6201 -1.5950
 7839SOL    HW234980   3.998   4.471  10.504  0.1315  1.0049 -0.7888
 7840SOL     OW34981   4.529   2.629   2.579 -0.6303 -0.0687 -0.0394
 7840SOL    HW134982   4.624   2.634   2.580 -0.7105  1.1262  1.4130
 7840SOL    HW234983   4.520   2.560   2.514 -2.6496 -0.6035  0.7734
 7841SOL     OW34984   2.267   0.462  15.869 -0.3555  0.1643  0.0214
 7841SOL    HW134985   2.282   0.550  15.834 -1.1678  0.6244  0.8547
 7841SOL    HW234986   2.361   0.446  15.868 -0.2756  0.6364 -0.1519
 7842SOL     OW34987   3.730   1.204   5.208  0.0343 -0.7438  0.4881
 7842SOL    HW134988   3.688   1.192   5.293  0.5546 -0.9887  0.7146
 7842SOL    HW234989   3.818   1.239   5.223  0.1187 -0.3297 -1.0584
 7843SOL     OW34990   1.034   1.118   1.677  0.1139  0.2565  0.2783
 7843SOL    HW134991   0.992   1.135   1.761 -0.9887  2.3048 -0.6700
 7843SOL    HW234992   1.118   1.085   1.708 -0.2573 -1.0522 -0.1252
 7844SOL     OW34993   4.013   4.376  15.789  0.6766  0.3197 -0.1912
 7844SOL    HW134994   3.939   4.435  15.780 -0.5604 -1.6117 -2.5940
 7844SOL    HW234995   3.963   4.298  15.814  0.9955 -0.3168 -1.5341
 7845SOL     OW34996   0.164   1.101   4.810  0.0535  0.4311  0.5041
 7845SOL    HW134997   0.072   1.090   4.787 -0.4752  0.9109  2.4210
 7845SOL    HW234998   0.210   1.031   4.763  0.8062  2.1390 -1.2883
 7846SOL     OW34999   2.743   2.842   3.677  0.2708 -0.6451  0.4297
 7846SOL    HW135000   2.746   2.803   3.590  0.7433 -0.1168  0.2093
 7846SOL    HW235001   2.734   2.935   3.659 -0.5563 -0.3600  2.2323
 7847SOL     OW35002   0.799   0.287   1.989 -0.5079 -0.0976  0.3451
 7847SOL    HW135003   0.886   0.317   2.015 -0.9829 -0.1828  2.0165
 7847SOL    HW235004   0.812   0.226   1.917 -0.5870  1.1493 -0.7266
 7848SOL     OW35005   4.203   1.745   4.087 -0.3099 -0.9153  0.2623
 7848SOL    HW135006   4.159   1.823   4.121  1.7444  0.4303 -0.2112
 7848SOL    HW235007   4.135   1.717   4.025 -1.3372 -0.7794  1.3145
 7849SOL     OW35008   4.149   3.258   4.449  0.4232  0.1977  0.0729
 7849SOL    HW135009   4.123   3.205   4.374  0.0088 -1.2196  1.2221
 7849SOL    HW235010   4.090   3.333   4.457  2.4952  1.6711  1.6293
 7850SOL     OW35011   0.317   1.353  15.578 -0.0637 -0.0166 -0.1725
 7850SOL    HW135012   0.279   1.437  15.605  0.4737 -0.4738  2.0171
 7850SOL    HW235013   0.311   1.303  15.660 -1.1199  0.2537 -0.0830
 7851SOL     OW35014   1.421   2.019   8.685 -0.4133 -0.0576 -0.2636
 7851SOL    HW135015   1.457   2.107   8.672 -1.9257  0.5950  0.0662
 7851SOL    HW235016   1.352   2.031   8.749 -0.8473  0.7388 -0.8878
 7852SOL     OW35017   1.414   1.130   8.430 -0.0737 -0.9697  0.7754
 7852SOL    HW135018   1.497   1.083   8.437  0.5648 -0.0335 -0.4379
 7852SOL    HW235019   1.374   1.074   8.496 -0.9362 -0.2877  0.8256
 7853SOL     OW35020   1.723   0.033   9.457 -0.1031 -0.2964 -0.0850
 7853SOL    HW135021   1.777   0.096   9.410 -0.3934  0.2338  0.3030
 7853SOL    HW235022   1.782   0.022   9.532 -0.5085 -0.9967  0.1397
 7854SOL     OW35023   3.876   4.533   7.205  0.6050 -0.0775  0.1864
 7854SOL    HW135024   3.863   4.585   7.284  0.8326 -0.4901  0.5012
 7854SOL    HW235025   3.912   4.590   7.138  0.2861 -1.5434 -1.2366
 7855SOL     OW35026   4.119   1.123   1.253 -0.3765  0.2286  0.2933
 7855SOL    HW135027   4.192   1.081   1.299 -0.3450 -0.5920 -0.5106
 7855SOL    HW235028   4.143   1.092   1.166 -1.2052  4.8068 -1.5977
 7856SOL     OW35029   2.244   3.389  14.620 -0.3936  0.2827  0.4962
 7856SOL    HW135030   2.160   3.434  14.606  0.1263  0.5558 -1.8714
 7856SOL    HW235031   2.285   3.401  14.534  0.4714  3.2613  1.2938
 7857SOL     OW35032   2.404   2.833   6.371 -0.7221  0.1099  1.0746
 7857SOL    HW135033   2.336   2.858   6.434 -1.1764 -0.9662  1.0108
 7857SOL    HW235034   2.479   2.817   6.428  1.5900  3.5932 -0.9961
 7858SOL     OW35035   2.329   1.830   3.949  0.5772 -0.7765 -0.2505
 7858SOL    HW135036   2.310   1.776   4.026 -1.0306  0.5278  0.2797
 7858SOL    HW235037   2.316   1.918   3.983 -0.5009 -0.6521 -1.0003
 7859SOL     OW35038   0.187   4.688   6.713 -0.0627 -0.7288  0.1342
 7859SOL    HW135039   0.124   4.617   6.701 -1.0971 -0.1476  2.2432
 7859SOL    HW235040   0.122   0.035   6.707  2.9391  2.0496  0.3789
 7860SOL     OW35041   2.043   3.492   3.240  0.0712 -0.7200  0.1560
 7860SOL    HW135042   2.017   3.569   3.290  2.5350 -0.1158  0.4933
 7860SOL    HW235043   1.996   3.518   3.160  0.8743  3.1528  0.9477
 7861SOL     OW35044   4.027   2.729  13.460  0.6288  0.1324 -0.1733
 7861SOL    HW135045   4.100   2.686  13.504  1.2590  1.6428  0.2605
 7861SOL    HW235046   3.970   2.752  13.534  2.4709  0.6487  1.0639
 7862SOL     OW35047   4.105   2.500   5.783  0.3781 -0.3061 -0.0475
 7862SOL    HW135048   4.146   2.490   5.697 -0.8012  0.3787 -0.6925
 7862SOL    HW235049   4.028   2.556   5.771  1.8506  1.9077  0.7049
 7863SOL     OW35050   3.332   4.106   6.822 -0.0292  0.8550  0.0713
 7863SOL    HW135051   3.343   4.012   6.837  0.3172  0.5387 -2.2551
 7863SOL    HW235052   3.312   4.117   6.730 -1.1562  0.0657  0.2296
 7864SOL     OW35053   1.253   0.786  12.940 -0.0253  0.1647 -0.1913
 7864SOL    HW135054   1.254   0.720  13.009  0.5180  0.1282 -0.2322
 7864SOL    HW235055   1.333   0.836  12.958  0.2054  0.1778 -1.2883
 7865SOL     OW35056   0.891   2.195  16.872 -0.4459 -0.1223 -0.4548
 7865SOL    HW135057   0.820   2.235  16.824 -1.1181 -0.4944  0.2277
 7865SOL    HW235058   0.951   2.171  16.802  1.7297 -1.1440  1.7314
 7866SOL     OW35059   1.533   0.814   6.033 -0.0593  0.0676 -0.0590
 7866SOL    HW135060   1.464   0.877   6.012 -1.7407 -2.1095 -1.1494
 7866SOL    HW235061   1.482   0.733   6.027  1.0119 -0.8976  3.5793
 7867SOL     OW35062   2.477   3.216  12.313 -0.3186  0.0720 -0.2350
 7867SOL    HW135063   2.460   3.123  12.328  0.8397 -0.4415 -2.0639
 7867SOL    HW235064   2.559   3.226  12.362 -0.2782  0.2743 -0.3437
 7868SOL     OW35065   3.514   3.224   1.828 -0.1777  0.1204 -0.2544
 7868SOL    HW135066   3.603   3.238   1.859  0.4837 -0.2301 -1.9610
 7868SOL    HW235067   3.475   3.263   1.906 -2.7177 -0.1889 -1.3525
 7869SOL     OW35068   2.483   2.959  12.358  0.4114  0.0413 -0.0545
 7869SOL    HW135069   2.507   2.897  12.427 -0.6409  1.5590  1.6587
 7869SOL    HW235070   2.396   2.935  12.325  1.1700 -3.6012  0.6290
 7870SOL     OW35071   3.897   0.015   0.547  0.5650  0.7950 -0.0877
 7870SOL    HW135072   3.835   0.062   0.603  0.4024  0.7720 -0.2472
 7870SOL    HW235073   3.939   4.691   0.619  0.2590  1.5264  0.5785
 7871SOL     OW35074   0.305   2.965   7.078  0.3248  0.0860  0.2403
 7871SOL    HW135075   0.284   3.032   7.144 -0.7899 -0.1894  0.1784
 7871SOL    HW235076   0.258   2.994   6.999  2.6920  2.3275 -0.3228
 7872SOL     OW35077   2.427   0.351   4.995  0.2429 -0.6620 -0.3142
 7872SOL    HW135078   2.482   0.426   5.018 -1.1383  0.7205 -1.4782
 7872SOL    HW235079   2.489   0.278   4.989 -0.1965 -1.1995  1.7008
 7873SOL     OW35080   3.211   2.773   5.586 -0.5976  0.3189  0.5349
 7873SOL    HW135081   3.171   2.782   5.673 -0.4013  0.2816  0.6287
 7873SOL    HW235082   3.212   2.678   5.575  0.3668  0.3819  0.1005
 7874SOL     OW35083   4.390   2.733   4.061 -0.0765  0.2132 -0.1379
 7874SOL    HW135084   4.368   2.708   3.971 -1.1525  1.0895 -0.1109
 7874SOL    HW235085   4.345   2.657   4.099 -3.4898  3.2845  1.8989
 7875SOL     OW35086   2.313   1.674   5.711 -0.0368  0.1971  0.7807
 7875SOL    HW135087   2.396   1.663   5.757 -0.4531 -0.9783  1.2498
 7875SOL    HW235088   2.311   1.770   5.709 -2.0248  0.1244 -0.7328
 7876SOL     OW35089   4.552   3.866   8.329  0.0617  0.0261  0.0162
 7876SOL    HW135090   4.553   3.811   8.251  1.1242  0.3153 -0.1708
 7876SOL    HW235091   4.460   3.887   8.342  0.2790  1.0163 -0.0481
 7877SOL     OW35092   2.002   4.208  13.793  0.3682  0.2418  0.6417
 7877SOL    HW135093   2.019   4.114  13.798  0.4229  0.1250 -1.4901
 7877SOL    HW235094   1.909   4.187  13.784  0.9332 -0.9936 -2.4515
 7878SOL     OW35095   4.223   3.252  10.468  0.2306 -0.1665  0.0128
 7878SOL    HW135096   4.172   3.323  10.508  0.8162  0.1025  0.2781
 7878SOL    HW235097   4.303   3.292  10.501  0.2949  0.0284 -0.3749
 7879SOL     OW35098   0.329   0.334   2.094 -0.1151 -0.2599  0.0227
 7879SOL    HW135099   0.264   0.348   2.163 -0.2701 -1.9872  0.2245
 7879SOL    HW235100   0.314   0.241   2.077 -1.7561 -0.1547  1.0255
 7880SOL     OW35101   0.222   0.679   2.022 -0.5143 -0.1135  1.1196
 7880SOL    HW135102   0.259   0.731   2.093 -0.0644  0.4935  0.4343
 7880SOL    HW235103   0.127   0.675   2.037 -0.9079  3.0207 -0.6192
 7881SOL     OW35104   3.936   1.168   8.955  0.5105  0.4767  0.2848
 7881SOL    HW135105   3.922   1.092   9.011 -0.9305  0.3233 -0.2956
 7881SOL    HW235106   3.923   1.226   9.030 -2.2445  0.0422  0.1466
 7882SOL     OW35107   4.125   2.397  15.877 -0.2006  0.1397 -0.2796
 7882SOL    HW135108   4.186   2.470  15.886 -1.0830  0.6930  1.1454
 7882SOL    HW235109   4.067   2.431  15.809  0.4177 -2.3291 -2.0486
 7883SOL     OW35110   1.554   3.654  14.914  0.2387 -0.1750  0.4110
 7883SOL    HW135111   1.619   3.711  14.872 -1.2397  0.3903 -1.1364
 7883SOL    HW235112   1.535   3.705  14.993  1.5408  0.1395  0.5308
 7884SOL     OW35113   3.338   0.694   1.944 -0.2367 -0.3506  0.9063
 7884SOL    HW135114   3.412   0.659   1.995  1.0443  2.4938  0.9766
 7884SOL    HW235115   3.300   0.626   1.889  1.0818 -0.2234 -0.1348
 7885SOL     OW35116   2.407   4.302   3.166  0.1093  0.2860  0.8088
 7885SOL    HW135117   2.487   4.353   3.174  0.5078 -0.5619  2.3065
 7885SOL    HW235118   2.348   4.358   3.115 -1.0861 -1.7549 -0.0540
 7886SOL     OW35119   0.291   1.118  13.403  0.8017 -0.5281  0.0548
 7886SOL    HW135120   0.196   1.128  13.412  0.6396  0.1910 -2.4562
 7886SOL    HW235121   0.309   1.072  13.485 -1.3478 -0.3197  0.6408
 7887SOL     OW35122   0.652   3.674   5.486 -0.3946 -0.5440 -0.6243
 7887SOL    HW135123   0.624   3.682   5.395  0.3646  1.6764 -0.6543
 7887SOL    HW235124   0.705   3.754   5.486 -1.4125  0.1289 -1.5743
 7888SOL     OW35125   0.670   4.473  13.379 -0.0808  0.0016  0.2535
 7888SOL    HW135126   0.703   4.470  13.468  3.4848  2.1856 -0.9967
 7888SOL    HW235127   0.579   4.446  13.391 -1.0026  2.7265 -0.6019
 7889SOL     OW35128   4.072   1.967  10.468 -0.4259  0.5177  0.0309
 7889SOL    HW135129   4.066   2.023  10.390 -1.9010  0.7427  0.3101
 7889SOL    HW235130   4.155   1.924  10.446  0.2501  1.7971  0.0324
 7890SOL     OW35131   4.055   0.141   0.112 -0.2697 -0.4631  0.3450
 7890SOL    HW135132   4.105   0.118   0.190 -2.0616  0.8670  1.9108
 7890SOL    HW235133   3.974   0.094   0.130 -1.1040  1.0006  0.4469
 7891SOL     OW35134   4.237   2.412   2.115 -0.3541 -0.3050  0.5811
 7891SOL    HW135135   4.298   2.458   2.172  1.8769  0.3603 -2.3682
 7891SOL    HW235136   4.252   2.448   2.027  0.8646  0.9247  1.2944
 7892SOL     OW35137   2.186   1.053   3.134 -0.0661  0.3227  0.3399
 7892SOL    HW135138   2.258   0.993   3.112  1.1527  2.4502 -1.4759
 7892SOL    HW235139   2.173   1.103   3.053 -1.8396  0.0245  0.4200
 7893SOL     OW35140   2.592   2.916  13.205 -0.0328  0.5086 -0.0295
 7893SOL    HW135141   2.684   2.922  13.177 -0.2378 -0.1520 -0.8244
 7893SOL    HW235142   2.558   2.984  13.147 -1.7100 -0.1080  0.2468
 7894SOL     OW35143   1.708   2.224   3.677 -0.2315  0.2645  0.2556
 7894SOL    HW135144   1.685   2.284   3.605 -1.4237 -0.1857  0.2715
 7894SOL    HW235145   1.710   2.277   3.756 -2.5457  1.7097 -0.6268
 7895SOL     OW35146   2.461   0.344  16.878  0.4308  0.7313  0.2631
 7895SOL    HW135147   2.433   0.255  16.895  0.9432  0.6679  0.7679
 7895SOL    HW235148   2.423   0.354  16.791  1.1486 -1.1147 -0.2523
 7896SOL     OW35149   3.995   0.215   0.845  0.6498  0.2847  0.4858
 7896SOL    HW135150   3.991   0.126   0.879  0.5931 -1.1163 -3.1754
 7896SOL    HW235151   4.043   0.210   0.762  0.5149 -2.6242  0.6002
 7897SOL     OW35152   1.716   2.911  13.487  0.5626 -1.0282  0.1591
 7897SOL    HW135153   1.693   2.967  13.561 -0.4510 -0.1513 -0.8309
 7897SOL    HW235154   1.770   2.967  13.431 -1.7306  2.3235  1.3187
 7898SOL     OW35155   0.448   0.927   3.266  0.1074 -0.0339  0.2717
 7898SOL    HW135156   0.471   1.020   3.263  0.1794 -0.0647 -0.1902
 7898SOL    HW235157   0.446   0.913   3.361 -0.7901  0.4723  0.3360
 7899SOL     OW35158   0.250   0.167  13.314  0.7304 -0.6051  0.2916
 7899SOL    HW135159   0.166   0.214  13.317 -0.6439 -3.1561  1.7622
 7899SOL    HW235160   0.292   0.205  13.391  0.1339  0.5597  0.0372
 7900SOL     OW35161   4.589   0.546  12.016 -0.2499  0.1529  0.0706
 7900SOL    HW135162   4.634   0.514  11.937  0.5099  1.5125 -0.0401
 7900SOL    HW235163   4.652   0.532  12.087  0.5187  0.4272 -0.5472
 7901SOL     OW35164   2.657   2.604   0.576  0.3430 -0.2441 -0.0482
 7901SOL    HW135165   2.711   2.559   0.641 -1.3163 -1.5653  0.4133
 7901SOL    HW235166   2.707   2.600   0.494  1.8032  1.6425  0.7432
 7902SOL     OW35167   2.306   0.673  16.737  0.2980  0.3473  0.2115
 7902SOL    HW135168   2.249   0.698  16.810  0.3184  0.0778  0.3181
 7902SOL    HW235169   2.241   0.687  16.669 -1.6094 -1.5513  1.6121
 7903SOL     OW35170   4.529   4.292  14.702  0.2435  0.1274 -0.2243
 7903SOL    HW135171   4.589   4.365  14.708  1.2890 -0.6818 -0.8554
 7903SOL    HW235172   4.477   4.317  14.625  0.8289 -1.0685 -1.0155
 7904SOL     OW35173   1.145   2.540   5.230 -0.1004  0.1166  0.7155
 7904SOL    HW135174   1.128   2.624   5.187 -0.8977  0.2476  1.2873
 7904SOL    HW235175   1.225   2.555   5.282  0.2953  0.9942 -0.1473
 7905SOL     OW35176   1.649   0.175   3.292  0.2249 -0.3720  0.2251
 7905SOL    HW135177   1.657   0.227   3.373 -0.5951 -3.6717  2.4102
 7905SOL    HW235178   1.556   0.152   3.293  0.2647 -0.5348  0.1912
 7906SOL     OW35179   1.467   4.503  16.311 -0.5674 -0.6742  0.5307
 7906SOL    HW135180   1.440   4.537  16.226  0.4947  1.3209  0.9944
 7906SOL    HW235181   1.503   4.586  16.340  1.8438 -0.8971 -1.8181
 7907SOL     OW35182   4.029   3.909  16.310  0.4892 -0.2919  0.3234
 7907SOL    HW135183   4.083   3.952  16.376 -0.7109  1.3607  0.2372
 7907SOL    HW235184   4.020   3.979  16.246  0.7583 -1.2755 -0.7913
 7908SOL     OW35185   0.853   3.647   1.287  0.1970  0.2745  0.7593
 7908SOL    HW135186   0.776   3.675   1.238  0.6345 -1.6743 -1.0757
 7908SOL    HW235187   0.823   3.614   1.372  0.1595  0.7815  0.9418
 7909SOL     OW35188   4.661   3.475   1.241  0.6847 -0.2685  0.6902
 7909SOL    HW135189   4.717   3.500   1.315  0.5074 -0.0762  0.7607
 7909SOL    HW235190   4.571   3.500   1.264  0.8856 -0.4667  1.6873
 7910SOL     OW35191   1.172   3.657   3.428  0.5754  0.1693 -0.3496
 7910SOL    HW135192   1.169   3.659   3.332  0.9639 -2.4406 -0.3957
 7910SOL    HW235193   1.201   3.748   3.437 -0.9459  0.7240 -1.0490
 7911SOL     OW35194   3.750   2.597  10.669  0.3460  0.1404  0.6482
 7911SOL    HW135195   3.793   2.604  10.755  2.6211  1.7457 -0.6352
 7911SOL    HW235196   3.713   2.509  10.672 -3.6048  1.7534 -0.5523
 7912SOL     OW35197   3.339   4.722   7.350  0.6137 -0.4599  0.1354
 7912SOL    HW135198   3.318   4.669   7.427 -2.6093  1.3397  0.5025
 7912SOL    HW235199   3.252   0.037   7.338  1.1687  0.6318 -0.3832
 7913SOL     OW35200   3.585   3.220  13.940  0.1917 -0.0894  0.4582
 7913SOL    HW135201   3.584   3.146  13.878  0.2419  0.0735  0.2639
 7913SOL    HW235202   3.496   3.253  13.931  1.7582  3.1957 -2.9016
 7914SOL     OW35203   0.706   1.281   3.614  0.3415 -0.1639  0.4801
 7914SOL    HW135204   0.680   1.356   3.561 -1.7292 -0.3196  1.2620
 7914SOL    HW235205   0.619   1.261   3.651  0.9426 -0.7516  1.5938
 7915SOL     OW35206   2.624   2.734   6.122 -0.5611  0.7785 -0.3620
 7915SOL    HW135207   2.532   2.755   6.141 -0.1263  3.1689 -0.8877
 7915SOL    HW235208   2.671   2.805   6.166 -0.6382  0.0974  0.8238
 7916SOL     OW35209   0.376   3.747  16.932  0.5212 -0.2379  0.9320
 7916SOL    HW135210   0.362   3.653  16.922  0.8254 -0.2178  0.2796
 7916SOL    HW235211   0.317   3.759  17.006  1.2418  1.5273  1.2132
 7917SOL     OW35212   3.754   3.939   4.838 -0.0717 -0.3526  0.2156
 7917SOL    HW135213   3.678   3.979   4.795 -0.7556  1.6436  3.2750
 7917SOL    HW235214   3.738   3.969   4.928 -3.0031  1.8309 -1.0177
 7918SOL     OW35215   3.520   3.861  13.222  0.0828 -1.0069  0.1123
 7918SOL    HW135216   3.497   3.921  13.151  1.4223  1.5100  1.8182
 7918SOL    HW235217   3.531   3.925  13.292  0.6417 -1.0186  0.0370
 7919SOL     OW35218   1.707   2.267   8.940  0.1504  0.1508 -0.1202
 7919SOL    HW135219   1.784   2.324   8.937 -0.8403  1.5469  1.5609
 7919SOL    HW235220   1.734   2.206   8.871  0.0308  1.2348 -1.1343
 7920SOL     OW35221   3.143   0.801   5.427 -0.0278 -0.1117 -0.1190
 7920SOL    HW135222   3.071   0.856   5.396  0.4147 -0.0850 -1.1039
 7920SOL    HW235223   3.173   0.762   5.345  1.1726 -0.0687  0.2956
 7921SOL     OW35224   0.762   1.655   4.623 -0.1587  0.8935 -0.4411
 7921SOL    HW135225   0.678   1.687   4.591 -0.7223  1.1527  1.2812
 7921SOL    HW235226   0.797   1.737   4.659  0.6657  0.4448 -0.2204
 7922SOL     OW35227   0.900   3.254  10.082  0.4008 -0.5386  0.1956
 7922SOL    HW135228   0.896   3.159  10.077  0.6306 -0.5909  1.1183
 7922SOL    HW235229   0.821   3.264  10.135  0.0972 -1.4328 -0.0894
 7923SOL     OW35230   2.933   2.129   2.676  0.3427 -0.0595  0.1270
 7923SOL    HW135231   2.858   2.126   2.736 -0.2130  2.3024 -0.4644
 7923SOL    HW235232   2.896   2.069   2.611  0.6047 -0.9055  0.7491
 7924SOL     OW35233   3.674   4.381   5.599  0.1513  0.0334  0.2639
 7924SOL    HW135234   3.722   4.304   5.629 -1.4399 -0.0262  2.6718
 7924SOL    HW235235   3.725   4.457   5.626  1.4585 -0.9047  0.3912
 7925SOL     OW35236   1.192   4.606   3.446  0.1022 -0.3997 -0.1618
 7925SOL    HW135237   1.171   4.513   3.449  1.2061 -0.6053  0.9866
 7925SOL    HW235238   1.104   4.643   3.451  0.7345  1.0809  0.0221
 7926SOL     OW35239   2.298   1.054  12.795  0.1250  0.5252  0.1477
 7926SOL    HW135240   2.379   1.016  12.760 -0.7142 -2.2028  1.1144
 7926SOL    HW235241   2.265   0.977  12.843 -0.6096  0.5174 -0.3669
 7927SOL     OW35242   1.056   3.358   3.151 -0.3249  0.6247  0.4796
 7927SOL    HW135243   1.011   3.441   3.163  0.4427  1.2546 -0.8708
 7927SOL    HW235244   1.146   3.387   3.166  0.9440 -2.8095 -0.5061
 7928SOL     OW35245   3.522   4.430   3.567 -0.5283 -0.1661 -0.1623
 7928SOL    HW135246   3.515   4.336   3.585  0.6668 -0.4616 -1.2376
 7928SOL    HW235247   3.549   4.426   3.476  0.9998  0.4288  0.2603
 7929SOL     OW35248   1.495   2.571   7.776 -0.3280 -0.0782  0.3670
 7929SOL    HW135249   1.536   2.500   7.826  0.8606  1.7265  1.9391
 7929SOL    HW235250   1.568   2.609   7.728 -0.6587 -1.0930 -0.9426
 7930SOL     OW35251   1.615   3.469  16.773 -0.2606  0.3290  0.2309
 7930SOL    HW135252   1.592   3.441  16.862 -0.7031  1.2683  0.4130
 7930SOL    HW235253   1.564   3.409  16.720  1.0430 -2.9211  2.6655
 7931SOL     OW35254   1.061   1.595  17.580  0.1184 -0.3167 -0.5192
 7931SOL    HW135255   1.076   1.508  17.618 -1.9006  0.2523  1.5478
 7931SOL    HW235256   1.125   1.588  17.509  0.6386 -1.0637  0.0254
 7932SOL     OW35257   2.116   0.925  13.893  0.0882  0.4842 -0.0212
 7932SOL    HW135258   2.179   0.860  13.860  0.6726  1.6206 -1.1314
 7932SOL    HW235259   2.154   1.001  13.849  1.2947 -0.6610 -0.9568
 7933SOL     OW35260   0.906   3.730  13.827 -0.1292  0.2799  0.1793
 7933SOL    HW135261   0.842   3.775  13.882 -0.5118  0.4399 -0.4075
 7933SOL    HW235262   0.975   3.794  13.809 -1.4934  1.3704 -1.0869
 7934SOL     OW35263   4.351   4.175  14.901 -0.0232 -0.1467 -0.4208
 7934SOL    HW135264   4.372   4.227  14.823  1.8228  0.6735  0.6236
 7934SOL    HW235265   4.386   4.228  14.973 -1.7735 -1.0849  1.1449
 7935SOL     OW35266   3.425   0.342   8.677 -0.2966  0.2818 -0.2887
 7935SOL    HW135267   3.491   0.273   8.673 -0.0303  0.6100 -1.5208
 7935SOL    HW235268   3.400   0.355   8.585 -1.9606  1.8326  0.3700
 7936SOL     OW35269   1.209   0.577   7.432 -0.1237  0.1536 -0.0088
 7936SOL    HW135270   1.152   0.654   7.428  0.4326  0.5486 -0.2249
 7936SOL    HW235271   1.271   0.617   7.492  0.3568 -1.1024  0.3260
 7937SOL     OW35272   3.001   4.013   0.617  0.0291 -0.8248  0.0689
 7937SOL    HW135273   2.946   3.970   0.552  1.0702  1.5767 -2.4304
 7937SOL    HW235274   2.944   4.008   0.694 -0.7525  0.7196 -0.4075
 7938SOL     OW35275   1.054   3.956   7.950 -0.0250 -0.0376 -0.4951
 7938SOL    HW135276   0.975   3.978   8.000 -0.1112 -1.9498  0.2201
 7938SOL    HW235277   1.081   4.043   7.920 -1.1424  0.6584  0.4848
 7939SOL     OW35278   1.095   2.468   4.483 -0.0955  0.2975  0.2811
 7939SOL    HW135279   1.045   2.405   4.536 -1.0434 -0.3030 -1.3423
 7939SOL    HW235280   1.049   2.457   4.400  2.0714  1.0463 -1.0294
 7940SOL     OW35281   2.867   2.168   8.584 -0.7687  0.9148  0.8363
 7940SOL    HW135282   2.906   2.103   8.526 -0.1254  0.8369  1.3440
 7940SOL    HW235283   2.946   2.194   8.632  0.0084  0.8923 -0.4257
 7941SOL     OW35284   0.973   1.110  12.761  0.7802 -0.0359  0.2160
 7941SOL    HW135285   1.024   1.189  12.775  0.3938  0.2345  0.0929
 7941SOL    HW235286   0.994   1.048  12.831 -1.9468 -1.8482 -0.5701
 7942SOL     OW35287   3.226   0.268  13.352  0.2161 -0.1561  0.1848
 7942SOL    HW135288   3.285   0.193  13.349  0.7832  0.2566  1.1986
 7942SOL    HW235289   3.272   0.319  13.285  1.2169 -1.2927  0.0124
 7943SOL     OW35290   1.330   2.112   6.573 -0.6208  0.0847 -0.2754
 7943SOL    HW135291   1.354   2.105   6.480  2.4523 -0.7764  0.5835
 7943SOL    HW235292   1.269   2.184   6.558  0.4151  1.0979  0.3850
 7944SOL     OW35293   3.259   2.193   2.322 -0.0083  0.4819  0.3019
 7944SOL    HW135294   3.220   2.139   2.253  0.5345  0.1612  0.2447
 7944SOL    HW235295   3.306   2.124   2.369 -0.4568  0.6763  1.0228
 7945SOL     OW35296   2.450   4.266   6.826 -0.0089 -0.1820 -0.0964
 7945SOL    HW135297   2.464   4.189   6.882  0.1646 -0.0779  0.0054
 7945SOL    HW235298   2.374   4.228   6.783  0.0249 -0.6400  0.2460
 7946SOL     OW35299   1.065   2.335  13.823  0.4562 -0.1192 -0.1625
 7946SOL    HW135300   1.122   2.396  13.776 -0.2805  1.6113  1.1718
 7946SOL    HW235301   1.070   2.253  13.774 -1.1283 -1.7426  2.3714
 7947SOL     OW35302   0.304   0.792   3.067 -0.2639  0.4131  0.7921
 7947SOL    HW135303   0.322   0.828   3.154  0.2091  0.3138  0.7390
 7947SOL    HW235304   0.388   0.818   3.030 -0.2619 -2.0129 -0.9312
 7948SOL     OW35305   0.724   3.340   6.739  0.5367 -0.1043 -0.4937
 7948SOL    HW135306   0.688   3.359   6.825 -0.3418 -1.8610 -0.4804
 7948SOL    HW235307   0.817   3.356   6.752  1.1310 -2.4676 -1.8458
 7949SOL     OW35308   4.554   0.325   8.300  0.4979  0.4592  0.2290
 7949SOL    HW135309   4.643   0.347   8.276  1.1901 -1.9226  0.6366
 7949SOL    HW235310   4.563   0.236   8.333  0.4057 -0.3377 -1.9215
 7950SOL     OW35311   1.437   3.310   3.152 -0.1205 -0.1084 -0.3980
 7950SOL    HW135312   1.477   3.263   3.225 -0.6610 -0.0752 -0.0778
 7950SOL    HW235313   1.488   3.276   3.079  1.2018 -0.3626  0.6496
 7951SOL     OW35314   2.923   4.719  11.159  0.0137  0.1410 -0.3500
 7951SOL    HW135315   2.998   0.016  11.102 -0.8299  0.6032 -1.2950
 7951SOL    HW235316   2.899   4.630  11.133  0.4474 -0.5474  1.6336
 7952SOL     OW35317   3.240   3.672   9.838 -0.0972  0.1733 -0.4753
 7952SOL    HW135318   3.274   3.722   9.913  1.4920 -1.9127  0.2283
 7952SOL    HW235319   3.312   3.666   9.775  1.8995 -0.7741  1.8442
 7953SOL     OW35320   0.898   4.042  13.836  0.3872 -0.6051  0.3084
 7953SOL    HW135321   0.827   4.064  13.776 -0.3371 -0.6858  1.1297
 7953SOL    HW235322   0.855   4.024  13.920 -0.4022 -4.4774 -0.9236
 7954SOL     OW35323   3.652   3.909   1.854 -0.3218  0.4439 -0.6253
 7954SOL    HW135324   3.652   3.945   1.766  2.7819  2.2982  0.1442
 7954SOL    HW235325   3.605   3.979   1.901 -2.0607 -1.1919  0.0774
 7955SOL     OW35326   0.802   0.608   9.954 -0.4439  0.0417 -0.2877
 7955SOL    HW135327   0.741   0.666   9.907 -1.3590 -0.3065  0.4585
 7955SOL    HW235328   0.761   0.525   9.930  2.0089 -1.8235  2.0197
 7956SOL     OW35329   3.698   2.944   2.770 -0.5574 -0.1474 -0.2158
 7956SOL    HW135330   3.731   3.001   2.700 -1.1064 -1.5922 -1.6569
 7956SOL    HW235331   3.785   2.909   2.790 -0.4502 -0.5272 -1.3133
 7957SOL     OW35332   3.127   2.405   0.910  0.7531 -0.1298 -0.2115
 7957SOL    HW135333   3.188   2.364   0.848  0.2442  0.9724 -1.4511
 7957SOL    HW235334   3.049   2.378   0.862 -0.9489  1.5250  1.6386
 7958SOL     OW35335   1.756   1.355  17.354 -0.0066 -0.3126  0.4725
 7958SOL    HW135336   1.779   1.271  17.315  0.4652  0.0221  0.0215
 7958SOL    HW235337   1.836   1.405  17.337 -0.0012 -0.6830 -0.5783
 7959SOL     OW35338   3.084   4.453   9.071 -0.1284  0.3216  0.0112
 7959SOL    HW135339   3.046   4.493   8.992 -0.8966 -0.8472 -0.2095
 7959SOL    HW235340   3.016   4.388   9.090 -2.3798  2.2567 -1.3645
 7960SOL     OW35341   1.060   1.132   3.189  0.1650 -0.1007  0.0794
 7960SOL    HW135342   1.057   1.197   3.119 -0.5303  1.5891  1.6713
 7960SOL    HW235343   1.126   1.074   3.151 -0.6975 -0.9560 -0.1062
 7961SOL     OW35344   2.774   0.296   8.031  0.0569  0.1782 -0.0812
 7961SOL    HW135345   2.784   0.391   8.042 -0.7450  0.3295 -0.7057
 7961SOL    HW235346   2.691   0.276   8.074 -0.1052 -0.5533 -0.7476
 7962SOL     OW35347   4.376   2.640   4.979 -0.3552  0.0954 -0.0615
 7962SOL    HW135348   4.355   2.565   4.924  1.5048 -0.4982  0.0537
 7962SOL    HW235349   4.310   2.699   4.942  0.6817  1.1452 -0.2191
 7963SOL     OW35350   0.343   1.527  13.701 -0.0617  0.0843  0.1712
 7963SOL    HW135351   0.404   1.591  13.665  0.1763 -0.4085 -0.3083
 7963SOL    HW235352   0.358   1.547  13.794 -1.0973 -0.7829  0.5273
 7964SOL     OW35353   1.127   3.041  13.872 -0.4396 -0.2335  0.2114
 7964SOL    HW135354   1.099   3.118  13.822 -0.9409  0.2594  1.2471
 7964SOL    HW235355   1.086   3.058  13.957 -0.9863  0.1171 -0.1207
 7965SOL     OW35356   3.109   4.349   9.407 -0.1230 -0.4635 -0.0322
 7965SOL    HW135357   3.028   4.344   9.458 -0.1631  1.6101  0.1098
 7965SOL    HW235358   3.105   4.261   9.371 -1.4173 -1.0984  1.6446
 7966SOL     OW35359   1.448   1.007   2.355 -0.4319  0.5561 -0.0488
 7966SOL    HW135360   1.384   1.066   2.314 -0.4697  0.2884 -0.3783
 7966SOL    HW235361   1.503   1.075   2.391  1.0292  0.1946 -1.5894
 7967SOL     OW35362   0.912   4.358   3.044  0.0307 -0.1132  0.1631
 7967SOL    HW135363   0.872   4.444   3.036  0.7135  0.3623  1.8746
 7967SOL    HW235364   0.834   4.304   3.027 -0.3889  1.1567 -1.9218
 7968SOL     OW35365   0.719   4.224   4.406  0.2935 -0.5341 -0.3864
 7968SOL    HW135366   0.624   4.229   4.395  0.2728 -2.0337 -0.8340
 7968SOL    HW235367   0.734   4.201   4.497 -0.3429  0.8612  0.0700
 7969SOL     OW35368   4.469   3.141   3.942 -0.0650 -0.2898  0.4504
 7969SOL    HW135369   4.499   3.218   3.894 -1.0639  0.8976  1.7568
 7969SOL    HW235370   4.451   3.079   3.871 -2.4618  0.8589  0.0643
 7970SOL     OW35371   4.172   2.254   1.788 -0.0369 -0.4184 -0.0555
 7970SOL    HW135372   4.227   2.328   1.812  2.2382 -2.2524  0.4239
 7970SOL    HW235373   4.096   2.295   1.747 -0.0592 -0.0607  0.3347
 7971SOL     OW35374   2.981   1.866   6.444 -0.7610  0.0285  0.4162
 7971SOL    HW135375   3.006   1.942   6.497  3.4097 -0.6867 -0.5579
 7971SOL    HW235376   3.018   1.904   6.364 -0.2774 -0.6005  0.3484
 7972SOL     OW35377   2.398   0.405   1.355 -0.1093 -0.9612 -0.0873
 7972SOL    HW135378   2.460   0.478   1.357 -2.3838  1.0210 -1.1144
 7972SOL    HW235379   2.418   0.369   1.269 -1.9798 -1.2736 -0.3962
 7973SOL     OW35380   3.372   0.107   6.979  0.3807 -0.4057 -0.3185
 7973SOL    HW135381   3.406   0.021   7.005 -0.9379 -1.2041 -1.2677
 7973SOL    HW235382   3.445   0.136   6.923 -0.2653  0.4626 -0.7145
 7974SOL     OW35383   1.467   2.760   9.821  0.6552  0.0101 -0.4718
 7974SOL    HW135384   1.555   2.785   9.849  1.6280 -1.8604 -1.8612
 7974SOL    HW235385   1.454   2.683   9.876  0.2399  0.2925 -0.1795
 7975SOL     OW35386   0.258   0.372  14.654 -0.0429 -0.1296  0.5152
 7975SOL    HW135387   0.281   0.462  14.677  1.6818 -0.4220 -0.1111
 7975SOL    HW235388   0.245   0.325  14.737  3.5291 -0.7950  0.7132
 7976SOL     OW35389   4.419   2.168   0.920  0.8756 -0.1245  0.3146
 7976SOL    HW135390   4.330   2.187   0.891  0.5541 -3.4194 -0.8090
 7976SOL    HW235391   4.412   2.161   1.015  1.5567  1.0264  0.4599
 7977SOL     OW35392   2.800   4.061   7.901  0.4173 -0.2512  0.0635
 7977SOL    HW135393   2.780   3.972   7.928  1.2650 -0.8564 -1.2927
 7977SOL    HW235394   2.894   4.046   7.904  0.6305  1.4254  1.4890
 7978SOL     OW35395   3.694   1.330  16.131 -0.6317 -0.2990  0.2214
 7978SOL    HW135396   3.746   1.391  16.079 -0.9967  0.6073  0.9178
 7978SOL    HW235397   3.622   1.326  16.068  0.1080 -0.8470 -0.5855
 7979SOL     OW35398   2.770   0.163   3.408  0.7843  0.0760 -0.3446
 7979SOL    HW135399   2.836   0.102   3.375  1.2456  0.6679 -0.5137
 7979SOL    HW235400   2.779   0.149   3.502  0.1246  0.9023 -0.1525
 7980SOL     OW35401   4.231   4.300  10.204 -0.3424 -0.4334  0.0018
 7980SOL    HW135402   4.272   4.222  10.240  0.0090 -0.8563 -1.3042
 7980SOL    HW235403   4.307   4.358  10.209  0.4480 -1.3984 -0.7482
 7981SOL     OW35404   3.840   4.370  12.214  0.0138  0.1105  0.2195
 7981SOL    HW135405   3.825   4.390  12.307  0.9850 -1.3388  0.6991
 7981SOL    HW235406   3.873   4.280  12.225  0.6445  0.4706  1.3601
 7982SOL     OW35407   3.802   0.944  12.261  0.0420 -0.1724 -0.5037
 7982SOL    HW135408   3.798   1.032  12.223  1.1843  0.3549  0.6106
 7982SOL    HW235409   3.838   0.946  12.350  0.0046 -0.5377 -0.4791
 7983SOL     OW35410   1.468   4.413   4.351 -0.1470  0.3384 -0.7298
 7983SOL    HW135411   1.544   4.467   4.373 -1.2000  1.6771 -0.3357
 7983SOL    HW235412   1.400   4.474   4.383  0.4300  1.4953 -1.7269
 7984SOL     OW35413   2.953   3.378   3.762  0.4665 -0.8331 -0.2314
 7984SOL    HW135414   2.995   3.429   3.831 -0.6910  0.1839 -0.2783
 7984SOL    HW235415   2.861   3.398   3.780  0.3079 -1.2183 -0.5995
 7985SOL     OW35416   0.668   4.607   8.249  0.0526  0.1504 -0.2807
 7985SOL    HW135417   0.613   4.529   8.240  0.3917 -0.2931  1.6209
 7985SOL    HW235418   0.673   4.631   8.156  1.7487 -0.2816 -0.2967
 7986SOL     OW35419   3.360   2.491  13.194 -1.1053 -0.3733  0.0090
 7986SOL    HW135420   3.352   2.576  13.151  2.7894  0.0133  0.0688
 7986SOL    HW235421   3.368   2.522  13.284  1.9829 -1.3677  0.0751
 7987SOL     OW35422   3.564   0.589   4.290  0.0280  0.6602  0.4055
 7987SOL    HW135423   3.633   0.542   4.244 -1.6327 -1.0763 -0.2902
 7987SOL    HW235424   3.589   0.605   4.381  1.5976 -1.8216  0.4163
 7988SOL     OW35425   3.618   1.573  14.419  0.1459  0.0980 -0.2905
 7988SOL    HW135426   3.664   1.608  14.495 -0.5631 -1.3200  0.7901
 7988SOL    HW235427   3.530   1.561  14.455 -0.3073  2.3804 -0.6642
 7989SOL     OW35428   2.895   0.327   1.043 -0.3174 -0.3969  0.0324
 7989SOL    HW135429   2.847   0.357   0.965  1.9041 -1.0029 -1.5458
 7989SOL    HW235430   2.842   0.255   1.078  0.2285 -1.0815 -0.5469
 7990SOL     OW35431   1.225   4.630  11.446  0.0705 -0.2467 -0.1846
 7990SOL    HW135432   1.200   4.625  11.538 -0.7634 -1.5931 -0.4766
 7990SOL    HW235433   1.260   4.718  11.432 -0.9827  0.4418  1.5901
 7991SOL     OW35434   2.613   3.498   4.584  0.0445 -0.0497  0.3069
 7991SOL    HW135435   2.671   3.471   4.513 -1.9912  0.7105 -1.6227
 7991SOL    HW235436   2.564   3.416   4.592 -1.4451  0.8073 -0.0028
 7992SOL     OW35437   0.921   4.123   1.909  0.0179  0.3615  0.5698
 7992SOL    HW135438   0.989   4.161   1.965  1.8041 -0.7215 -0.8449
 7992SOL    HW235439   0.971   4.079   1.839 -1.5565  0.7036 -0.7764
 7993SOL     OW35440   0.777   2.980  10.004  0.6508  0.2266  0.3980
 7993SOL    HW135441   0.788   2.885  10.002 -0.1083  0.1931 -1.6156
 7993SOL    HW235442   0.714   2.989   9.933  0.6298  0.1620  0.4086
 7994SOL     OW35443   0.670   1.983   3.358 -0.4219 -0.3061  0.0864
 7994SOL    HW135444   0.703   1.996   3.269 -1.0022 -1.0235 -0.2338
 7994SOL    HW235445   0.746   2.014   3.407 -0.5072 -0.9642  0.6325
 7995SOL     OW35446   3.922   2.086   2.579  0.3214  0.1043  0.0947
 7995SOL    HW135447   3.914   2.181   2.576  0.2887  0.0737 -0.6315
 7995SOL    HW235448   3.828   2.073   2.567  0.4937  1.0410 -2.1771
 7996SOL     OW35449   0.451   0.438   0.236 -0.0606  0.2758 -1.0422
 7996SOL    HW135450   0.535   0.430   0.281 -0.1733 -0.1449 -0.9069
 7996SOL    HW235451   0.437   0.346   0.214  1.8456  0.0805 -1.4687
 7997SOL     OW35452   0.535   1.705   7.879  0.0596 -0.3457  0.3053
 7997SOL    HW135453   0.624   1.740   7.877 -0.0183 -0.2315 -0.9631
 7997SOL    HW235454   0.538   1.635   7.814 -2.3481  1.2922 -1.5640
 7998SOL     OW35455   3.654   3.943   4.081  0.1228 -0.1548  0.0054
 7998SOL    HW135456   3.691   3.868   4.034  1.3501  1.0561 -0.9197
 7998SOL    HW235457   3.659   4.010   4.013  0.4388 -0.0185  0.1630
 7999SOL     OW35458   3.159   3.496   7.000  0.7008 -0.5375  0.3591
 7999SOL    HW135459   3.182   3.539   7.082  2.5371 -0.1563 -0.3543
 7999SOL    HW235460   3.118   3.561   6.943 -3.4874 -2.8845  0.6734
 8000SOL     OW35461   0.581   0.131   6.585  0.5495  0.0749 -0.5760
 8000SOL    HW135462   0.538   0.168   6.507  1.8269  0.1006 -1.2803
 8000SOL    HW235463   0.519   0.155   6.653  1.1919 -0.5307  0.2186
 8001SOL     OW35464   2.140   0.695   1.209 -0.0247 -0.2164 -0.5424
 8001SOL    HW135465   2.170   0.735   1.290  1.1757 -0.3313 -0.9194
 8001SOL    HW235466   2.049   0.724   1.213 -0.1364 -0.4289 -1.4291
 8002SOL     OW35467   4.291   4.108   6.296 -0.4306 -0.2006 -0.3502
 8002SOL    HW135468   4.257   4.031   6.251 -0.0819 -1.2389  1.1634
 8002SOL    HW235469   4.374   4.126   6.252 -0.4394  0.6385 -0.0207
 8003SOL     OW35470   2.619   0.155  13.531  0.0774 -0.1239  0.5119
 8003SOL    HW135471   2.697   0.101  13.519  2.9806  4.1385  0.1657
 8003SOL    HW235472   2.635   0.189  13.619 -0.6810  0.3396  0.4722
 8004SOL     OW35473   2.368   3.875   7.406 -0.0468  0.3886 -0.1114
 8004SOL    HW135474   2.392   3.958   7.365  0.1802 -0.4000 -1.5469
 8004SOL    HW235475   2.302   3.900   7.471  0.4426 -1.6589  1.1814
 8005SOL     OW35476   1.520   1.787  13.596  0.3397  0.0388  0.1018
 8005SOL    HW135477   1.613   1.811  13.603  0.1987 -0.1252  2.4458
 8005SOL    HW235478   1.524   1.765  13.503  0.2455 -3.9322  1.0458
 8006SOL     OW35479   0.676   3.377  14.260 -0.6065 -0.1496 -0.7641
 8006SOL    HW135480   0.663   3.471  14.260 -2.6557 -0.4374  0.0089
 8006SOL    HW235481   0.771   3.372  14.251 -0.4274  0.0365  1.0703
 8007SOL     OW35482   4.632   4.119  10.832 -0.4870  0.1490 -0.5798
 8007SOL    HW135483   4.646   4.208  10.863  0.8718 -0.9369  1.9038
 8007SOL    HW235484   4.704   4.072  10.874 -1.8759 -1.3987  0.0975
 8008SOL     OW35485   3.457   3.078   9.389 -0.2104 -0.4871  0.9523
 8008SOL    HW135486   3.488   3.139   9.456 -2.9742  2.3607 -0.3516
 8008SOL    HW235487   3.538   3.055   9.343 -0.0223  0.0759  1.0001
 8009SOL     OW35488   3.432   1.529   7.758  0.3319 -0.5005 -0.0515
 8009SOL    HW135489   3.439   1.563   7.669  0.2259  1.6022  0.7312
 8009SOL    HW235490   3.464   1.443   7.732 -2.7527 -0.6562 -3.2700
 8010SOL     OW35491   3.662   2.267  16.209  0.3049  0.0028 -0.1075
 8010SOL    HW135492   3.690   2.180  16.181  0.8981  0.8996 -2.3133
 8010SOL    HW235493   3.617   2.292  16.128  0.7978 -0.2064 -0.4449
 8011SOL     OW35494   3.798   1.116   4.783  0.1460  0.0685 -0.1817
 8011SOL    HW135495   3.869   1.153   4.731 -0.2629  0.0565 -0.7490
 8011SOL    HW235496   3.726   1.167   4.745 -1.1193 -0.0756  2.0317
 8012SOL     OW35497   1.810   0.699   8.111 -0.7847  0.3716 -0.0070
 8012SOL    HW135498   1.757   0.620   8.101  0.6306 -0.6366  0.4640
 8012SOL    HW235499   1.839   0.681   8.200  2.8001  0.5038 -1.1462
 8013SOL     OW35500   0.272   3.225   4.548 -0.3941  0.4469  0.3002
 8013SOL    HW135501   0.236   3.301   4.592 -0.5027  1.5541 -1.7173
 8013SOL    HW235502   0.232   3.155   4.600 -1.3890 -0.0864 -1.1945
 8014SOL     OW35503   0.383   3.954   7.459 -0.2532  0.1081  0.0956
 8014SOL    HW135504   0.361   4.015   7.530  0.0030  1.5707 -1.0780
 8014SOL    HW235505   0.472   3.981   7.434 -0.7528  2.7575  1.1158
 8015SOL     OW35506   1.892   0.619  12.452 -0.9170  0.0231 -0.3703
 8015SOL    HW135507   1.855   0.573  12.528  0.2754 -0.8960 -0.3454
 8015SOL    HW235508   1.887   0.552  12.383 -0.6586  0.2627 -0.6207
 8016SOL     OW35509   1.830   2.006   9.460 -0.1408 -0.0748  0.1617
 8016SOL    HW135510   1.906   2.035   9.409  1.2565 -0.3218  2.1016
 8016SOL    HW235511   1.876   1.944   9.516  1.3363 -1.8545 -3.0429
 8017SOL     OW35512   2.181   2.921  15.404 -0.5146 -0.4241 -0.1701
 8017SOL    HW135513   2.124   2.854  15.441 -1.0094  0.1631  0.1183
 8017SOL    HW235514   2.263   2.876  15.384  1.4130  2.8319  0.3502
 8018SOL     OW35515   2.797   0.930   8.361  0.3378 -0.8585 -0.3079
 8018SOL    HW135516   2.715   0.940   8.409  0.3562 -0.5375 -0.3454
 8018SOL    HW235517   2.837   1.014   8.385 -1.0512 -0.9732  2.4535
 8019SOL     OW35518   1.067   4.615   7.346  0.1724  0.1270  0.0618
 8019SOL    HW135519   1.034   4.686   7.401  2.0562  0.3593  0.8501
 8019SOL    HW235520   1.138   4.660   7.300  0.3946 -0.2801  0.0092
 8020SOL     OW35521   0.396   4.328   6.351  0.0369  0.2817 -0.5214
 8020SOL    HW135522   0.389   4.394   6.282 -2.7330 -0.6010 -1.0835
 8020SOL    HW235523   0.488   4.305   6.340 -0.5676 -2.1866 -0.5141
 8021SOL     OW35524   3.667   0.899   8.136 -0.3995 -0.1566 -0.4714
 8021SOL    HW135525   3.716   0.926   8.058 -0.0276 -2.2222 -0.9430
 8021SOL    HW235526   3.628   0.822   8.096 -1.1641 -0.6880  1.2930
 8022SOL     OW35527   3.393   2.855   2.245  0.7119 -0.2468  0.0692
 8022SOL    HW135528   3.406   2.763   2.220  0.2427  0.2408 -1.9422
 8022SOL    HW235529   3.440   2.898   2.174  1.7897 -0.1894  0.8273
 8023SOL     OW35530   0.088   0.610  17.608  0.2776 -0.2759  0.3125
 8023SOL    HW135531   0.150   0.671  17.568 -0.3072 -0.2682 -0.5748
 8023SOL    HW235532   0.038   0.665  17.669  1.7529  1.6877 -0.2444
 8024SOL     OW35533   0.398   1.537  10.460  0.1674 -0.1009 -0.5227
 8024SOL    HW135534   0.412   1.577  10.374  2.7768 -0.2794 -0.1693
 8024SOL    HW235535   0.381   1.614  10.515  2.3729  0.0972 -0.1391
 8025SOL     OW35536   1.110   0.537   3.518 -0.2909  0.2129  0.5169
 8025SOL    HW135537   1.039   0.596   3.495  0.5905  0.9651 -0.2950
 8025SOL    HW235538   1.188   0.591   3.508  0.7592 -1.3799  0.0876
 8026SOL     OW35539   3.938   1.985   5.916  0.4078  0.3132 -0.2468
 8026SOL    HW135540   3.889   2.055   5.959 -1.4315 -0.4221 -1.1613
 8026SOL    HW235541   3.869   1.920   5.906  0.6926 -0.3284  1.8595
 8027SOL     OW35542   2.093   0.418   8.865 -0.1757 -0.2219 -0.6682
 8027SOL    HW135543   2.071   0.497   8.817  0.0524  0.6256  0.6080
 8027SOL    HW235544   2.165   0.380   8.815 -0.3966 -3.6138  1.5655
 8028SOL     OW35545   1.771   0.701   4.252 -0.0631  0.0842 -0.4887
 8028SOL    HW135546   1.774   0.774   4.190  0.9954 -0.9997 -1.7192
 8028SOL    HW235547   1.679   0.680   4.239 -0.4751  2.3621 -1.2791
 8029SOL     OW35548   3.738   3.808   8.874  0.1280  0.3098  0.0312
 8029SOL    HW135549   3.832   3.795   8.886  0.4310  1.1334 -1.4785
 8029SOL    HW235550   3.692   3.737   8.918  0.5107 -0.1134 -0.2588
 8030SOL     OW35551   1.580   0.589   6.294  0.5116  0.5437 -0.1677
 8030SOL    HW135552   1.584   0.552   6.382 -3.0185  0.7783  0.0933
 8030SOL    HW235553   1.490   0.615   6.270  0.0377  0.7668  1.8337
 8031SOL     OW35554   0.831   0.446   5.485  0.5849 -0.1392  0.6619
 8031SOL    HW135555   0.915   0.457   5.441 -0.3655  0.7143 -0.9449
 8031SOL    HW235556   0.769   0.493   5.429  0.6714  0.2411  0.8836
 8032SOL     OW35557   2.850   1.455   1.689  0.1215 -0.7469  0.2764
 8032SOL    HW135558   2.848   1.421   1.778 -3.1532 -1.4951 -0.0753
 8032SOL    HW235559   2.782   1.398   1.653 -0.3153 -0.4652  0.6584
 8033SOL     OW35560   2.335   2.496   5.070  0.5943  0.0125 -0.1768
 8033SOL    HW135561   2.312   2.405   5.051  0.7523  0.1601 -1.0488
 8033SOL    HW235562   2.405   2.515   5.009  2.0316 -0.7514  1.2263
 8034SOL     OW35563   4.328   1.956   8.721  0.1305 -0.1435  0.5901
 8034SOL    HW135564   4.299   1.878   8.769  1.9033 -1.2022 -0.0457
 8034SOL    HW235565   4.373   2.002   8.793  0.4132 -0.0965  0.3851
 8035SOL     OW35566   4.606   1.519  16.376 -0.0536  0.0867 -0.5190
 8035SOL    HW135567   4.551   1.521  16.298  0.1491 -0.6329 -0.6838
 8035SOL    HW235568   4.595   1.432  16.413 -1.3606  0.5710  0.2166
 8036SOL     OW35569   4.380   1.438  11.978  0.3012  0.2646 -0.0742
 8036SOL    HW135570   4.469   1.464  12.004  0.0502  0.8595  0.2094
 8036SOL    HW235571   4.401   1.346  11.964 -2.4806 -0.5401  1.1504
 8037SOL     OW35572   3.374   3.200   4.886  0.2919 -0.3883 -0.7919
 8037SOL    HW135573   3.354   3.177   4.796 -0.5037 -1.3062 -0.3713
 8037SOL    HW235574   3.314   3.141   4.932 -1.5430  2.8243  0.8897
 8038SOL     OW35575   2.013   2.236   7.574 -0.0073 -0.1395 -0.2846
 8038SOL    HW135576   2.068   2.268   7.502 -0.2124 -1.6791 -1.1317
 8038SOL    HW235577   1.936   2.293   7.565  1.0663  1.5499  1.2409
 8039SOL     OW35578   4.023   1.414   8.301  0.0586  0.0428  0.1778
 8039SOL    HW135579   3.966   1.489   8.286 -0.6434 -0.7706 -1.1848
 8039SOL    HW235580   4.097   1.441   8.356 -1.2003 -1.3302  2.5150
 8040SOL     OW35581   4.193   0.442  16.797 -0.0871 -0.2859 -0.3091
 8040SOL    HW135582   4.125   0.499  16.762 -0.2751  1.4685  2.8598
 8040SOL    HW235583   4.172   0.435  16.891  0.2093 -2.2155 -0.3837
 8041SOL     OW35584   4.356   0.033   7.097  0.3826 -0.4743  0.4540
 8041SOL    HW135585   4.362   4.663   7.079  0.8634 -0.2592 -0.5286
 8041SOL    HW235586   4.305   0.012   7.175  0.6475 -1.7378  0.2957
 8042SOL     OW35587   4.206   2.630   7.127  0.0743 -0.2686 -0.1250
 8042SOL    HW135588   4.156   2.562   7.083  0.2147  1.1612 -2.5037
 8042SOL    HW235589   4.239   2.578   7.200  1.4822  1.0628  0.1997
 8043SOL     OW35590   4.430   1.611   4.116  0.5487 -0.2236  0.1615
 8043SOL    HW135591   4.485   1.689   4.120  0.6735 -0.4296  2.0951
 8043SOL    HW235592   4.342   1.648   4.112  1.4266  1.6664 -1.6172
 8044SOL     OW35593   2.036   2.964   3.228  0.7736  0.0740  0.0325
 8044SOL    HW135594   2.123   2.926   3.244  1.2093  0.5383 -1.2588
 8044SOL    HW235595   2.025   2.946   3.135 -0.1862  0.9421 -0.0148
 8045SOL     OW35596   4.063   0.283   7.630  0.4176 -0.1400 -0.1426
 8045SOL    HW135597   4.104   0.198   7.613  1.5947  0.5533 -0.7537
 8045SOL    HW235598   4.056   0.288   7.726  0.1831  0.1576 -0.1750
 8046SOL     OW35599   1.127   0.745  11.027  0.3939  0.3291 -0.0695
 8046SOL    HW135600   1.139   0.792  11.110  2.0851  0.3102 -0.2910
 8046SOL    HW235601   1.213   0.768  10.992 -0.8286  0.4726 -2.9473
 8047SOL     OW35602   1.640   1.075   3.805  0.3387  0.4296  0.0433
 8047SOL    HW135603   1.695   1.026   3.866 -0.9359 -1.2100 -0.1274
 8047SOL    HW235604   1.711   1.122   3.762  0.3026  0.4817  0.0402
 8048SOL     OW35605   3.918   4.340  10.707  0.3990  0.2571  0.2964
 8048SOL    HW135606   3.947   4.431  10.710  1.0770  0.1048 -1.2651
 8048SOL    HW235607   3.925   4.315  10.799 -0.8017  0.9752  0.5746
 8049SOL     OW35608   0.533   0.107   6.955 -0.3693 -0.0651 -0.6279
 8049SOL    HW135609   0.471   0.166   6.913 -1.9811 -0.7165  0.8413
 8049SOL    HW235610   0.472   0.035   6.967 -1.0315  0.9208  1.7458
 8050SOL     OW35611   4.004   3.956   6.946  0.0072 -0.0020  0.2419
 8050SOL    HW135612   4.004   4.044   6.982  0.4790  0.3449 -0.5844
 8050SOL    HW235613   3.912   3.931   6.956 -0.4604  1.7890  0.3890
 8051SOL     OW35614   0.719   4.135   8.312  0.9287 -0.3082  0.3462
 8051SOL    HW135615   0.688   4.102   8.228  0.2724 -0.8814  0.8199
 8051SOL    HW235616   0.642   4.110   8.363  2.1755  0.1108  2.4303
 8052SOL     OW35617   3.449   2.056  11.937 -0.4512 -0.2720 -0.3498
 8052SOL    HW135618   3.383   2.110  11.981  1.1302  2.7187 -1.5771
 8052SOL    HW235619   3.451   1.974  11.985 -3.0078  0.0879  0.3685
 8053SOL     OW35620   1.942   2.153  14.079  0.1153  0.2309  0.0770
 8053SOL    HW135621   1.917   2.110  13.997 -1.3519 -0.0604  0.6770
 8053SOL    HW235622   1.862   2.158  14.132  0.8659  1.0432  1.1326
 8054SOL     OW35623   2.443   0.115   6.042  0.4468 -0.7691  0.2157
 8054SOL    HW135624   2.461   0.030   6.082  2.6281 -0.1341  0.5909
 8054SOL    HW235625   2.499   0.170   6.096 -0.5851  1.6210 -1.1614
 8055SOL     OW35626   2.156   3.855   1.637 -0.3187 -0.2467 -0.2414
 8055SOL    HW135627   2.239   3.817   1.608 -1.0893 -0.5383 -2.0698
 8055SOL    HW235628   2.175   3.860   1.731 -1.0926 -1.3244 -0.0310
 8056SOL     OW35629   1.675   3.997   3.452  0.2501 -0.2545 -0.4967
 8056SOL    HW135630   1.743   4.058   3.480 -2.5129  2.1463  0.9529
 8056SOL    HW235631   1.725   3.934   3.400 -0.3892 -4.6364  4.2439
 8057SOL     OW35632   2.204   2.447   0.255 -0.0268  0.3156 -0.1332
 8057SOL    HW135633   2.271   2.466   0.189  1.4502 -2.5489  0.5516
 8057SOL    HW235634   2.134   2.414   0.198 -1.7386 -0.4063  2.3744
 8058SOL     OW35635   1.573   4.632   5.549  0.3100 -0.4716 -0.3423
 8058SOL    HW135636   1.633   4.579   5.497 -0.3032  0.4512 -1.9707
 8058SOL    HW235637   1.636   4.649   5.619  0.8142 -1.2214 -0.6057
 8059SOL     OW35638   0.394   0.621   2.743 -0.0514  0.1144  0.1649
 8059SOL    HW135639   0.473   0.579   2.708 -0.7975 -0.7856 -0.4262
 8059SOL    HW235640   0.373   0.672   2.665  3.7557 -0.2008 -1.0810
 8060SOL     OW35641   2.686   2.670   2.881  0.0769 -0.0669  0.4489
 8060SOL    HW135642   2.733   2.601   2.929 -0.2672 -1.5008 -1.2629
 8060SOL    HW235643   2.754   2.736   2.868  0.8143 -0.8726  0.1706
 8061SOL     OW35644   2.460   4.174   7.701 -0.0160  0.1833 -0.0282
 8061SOL    HW135645   2.469   4.090   7.746  1.1784 -0.4003 -1.3739
 8061SOL    HW235646   2.471   4.218   7.785 -2.2399  0.6594  0.0217
 8062SOL     OW35647   1.967   2.622   5.497  0.0497  0.0233  0.0565
 8062SOL    HW135648   2.006   2.537   5.475  0.4053 -0.0566  1.0179
 8062SOL    HW235649   2.037   2.683   5.473 -0.6757  0.1807 -1.6831
 8063SOL     OW35650   3.378   3.753   0.722 -0.4574  0.1919 -0.2448
 8063SOL    HW135651   3.312   3.694   0.759  0.9192 -2.1311 -1.4673
 8063SOL    HW235652   3.324   3.794   0.655 -0.3878 -0.5606 -0.7567
 8064SOL     OW35653   1.981   4.479  11.223  0.6418  0.2167 -0.9277
 8064SOL    HW135654   1.958   4.565  11.187 -1.8868  0.5182  1.4662
 8064SOL    HW235655   2.075   4.493  11.229  0.1690  1.8300  2.7795
 8065SOL     OW35656   0.439   2.188   7.531  0.5327 -0.0784 -0.0898
 8065SOL    HW135657   0.424   2.276   7.497 -1.4853  0.2710  1.6954
 8065SOL    HW235658   0.534   2.182   7.539  0.6140 -0.1766 -1.1256
 8066SOL     OW35659   2.359   2.640  14.026  0.2593 -0.3088  0.0328
 8066SOL    HW135660   2.352   2.686  14.110 -0.0545 -0.0841 -0.1154
 8066SOL    HW235661   2.278   2.591  14.033  0.2383 -0.6490 -2.6980
 8067SOL     OW35662   0.157   2.587  16.943 -0.1734  0.0299 -0.3532
 8067SOL    HW135663   0.173   2.681  16.949  2.2411 -0.4453  0.7165
 8067SOL    HW235664   0.221   2.558  17.009 -0.2021  0.1348 -0.2794
 8068SOL     OW35665   1.179   4.053  10.384  0.1955  0.2507  0.3899
 8068SOL    HW135666   1.151   3.978  10.331 -0.0984  1.3568 -1.0201
 8068SOL    HW235667   1.208   4.012  10.465  1.4163  0.3658  0.0035
 8069SOL     OW35668   2.506   1.034   1.691  0.5162 -0.3725 -0.0045
 8069SOL    HW135669   2.456   1.026   1.610  1.1987  0.1327 -0.4826
 8069SOL    HW235670   2.502   0.950   1.736  1.2255  0.1660  1.0632
 8070SOL     OW35671   0.525   2.239   7.909 -0.8093  0.2851 -0.0995
 8070SOL    HW135672   0.545   2.321   7.862  0.4383 -0.6179 -1.1416
 8070SOL    HW235673   0.438   2.218   7.875  0.0142 -0.9964 -1.4387
 8071SOL     OW35674   1.154   0.096   4.452 -0.0781  0.3782 -0.0879
 8071SOL    HW135675   1.219   0.105   4.383 -1.7224  1.1821 -1.5261
 8071SOL    HW235676   1.214   0.084   4.526 -0.2251 -0.3337 -0.0855
 8072SOL     OW35677   0.969   1.740  13.744  0.7075  0.7932 -0.2939
 8072SOL    HW135678   1.047   1.687  13.755 -0.3899 -0.4304  1.6324
 8072SOL    HW235679   0.989   1.778  13.658  1.6047  1.9995  0.4399
 8073SOL     OW35680   2.756   2.254  13.924  0.1961  1.0825  0.2587
 8073SOL    HW135681   2.678   2.290  13.966 -1.8984  0.5438 -3.2615
 8073SOL    HW235682   2.724   2.267  13.835  0.3771 -3.4517 -0.4613
 8074SOL     OW35683   2.073   2.347  13.914  0.2131 -0.2179 -0.1235
 8074SOL    HW135684   2.071   2.404  13.992 -1.3115 -0.7141  0.2030
 8074SOL    HW235685   2.042   2.261  13.943 -1.5307  0.4845  0.1060
 8075SOL     OW35686   0.799   1.803  11.088  0.2452 -0.2651 -0.4013
 8075SOL    HW135687   0.811   1.870  11.021 -0.2315 -0.8195 -1.0511
 8075SOL    HW235688   0.855   1.838  11.157  0.2663 -1.0395 -0.0240
 8076SOL     OW35689   3.496   3.554   2.611  0.4112 -0.1397 -0.3542
 8076SOL    HW135690   3.425   3.508   2.656  1.7429 -1.7955  0.0367
 8076SOL    HW235691   3.471   3.583   2.523  0.1229  0.7413  0.0161
 8077SOL     OW35692   1.192   2.692   5.963  0.1388 -0.4067  0.2314
 8077SOL    HW135693   1.133   2.763   5.988  1.5591 -0.0123  2.4581
 8077SOL    HW235694   1.165   2.617   6.016 -2.0312  0.2668  0.0678
 8078SOL     OW35695   1.285   2.791  14.894 -0.1699 -0.5163 -0.2338
 8078SOL    HW135696   1.299   2.885  14.878  1.8412 -1.2070 -2.6117
 8078SOL    HW235697   1.310   2.753  14.809  0.0407  1.9554 -1.2936
 8079SOL     OW35698   0.857   3.993   3.104  0.5207  0.1754 -0.1349
 8079SOL    HW135699   0.906   4.054   3.050  0.2953 -0.9417 -1.6008
 8079SOL    HW235700   0.858   3.920   3.042  2.1494 -0.9109  1.1837
 8080SOL     OW35701   1.952   3.891   9.301 -0.0033 -0.2336  0.3238
 8080SOL    HW135702   1.922   3.806   9.270 -0.7496  0.5533 -1.1542
 8080SOL    HW235703   2.042   3.893   9.269 -0.5824  1.1387 -1.2278
 8081SOL     OW35704   3.175   2.175   4.517 -0.5560 -0.7757  0.1181
 8081SOL    HW135705   3.188   2.126   4.599 -0.7502 -3.4789 -1.4641
 8081SOL    HW235706   3.181   2.113   4.444 -2.1522  0.6872 -1.2470
 8082SOL     OW35707   2.999   1.255  16.657  0.2320  0.5049  0.2336
 8082SOL    HW135708   2.992   1.316  16.583 -0.7303  1.5618  1.1858
 8082SOL    HW235709   3.066   1.303  16.707 -2.2997  1.2401  2.9422
 8083SOL     OW35710   0.646   1.179   3.338 -0.1889 -0.5264  0.5431
 8083SOL    HW135711   0.733   1.140   3.325 -0.0808  0.0740 -0.5466
 8083SOL    HW235712   0.663   1.233   3.416 -1.6800 -0.5418  0.8700
 8084SOL     OW35713   2.415   4.401   8.497  0.0291 -0.3285  0.4050
 8084SOL    HW135714   2.426   4.411   8.592  1.1160 -0.9505  0.3383
 8084SOL    HW235715   2.498   4.426   8.457 -0.3356 -0.4540 -0.4220
 8085SOL     OW35716   2.088   0.569   6.898 -0.4156  0.5249 -0.3968
 8085SOL    HW135717   2.087   0.565   6.993  0.3566  0.0877 -0.4044
 8085SOL    HW235718   2.156   0.507   6.871 -1.6837 -0.0271 -2.3357
 8086SOL     OW35719   3.134   0.660   8.330 -0.5902 -0.2444 -0.4837
 8086SOL    HW135720   3.052   0.635   8.287 -0.5339 -1.0447 -0.1174
 8086SOL    HW235721   3.193   0.673   8.255 -0.5735 -0.0350 -0.4346
 8087SOL     OW35722   4.024   3.698   6.811 -0.4189 -0.3317  0.0908
 8087SOL    HW135723   4.114   3.684   6.779 -0.5548 -1.8546  0.3694
 8087SOL    HW235724   4.033   3.793   6.818 -2.0543 -0.1746  0.0255
 8088SOL     OW35725   4.116   1.125   2.361  0.4532 -0.1118  0.2323
 8088SOL    HW135726   4.156   1.175   2.432 -0.5537  1.6976 -0.4764
 8088SOL    HW235727   4.055   1.189   2.323  0.5948 -0.9854 -1.4804
 8089SOL     OW35728   1.229   0.764  10.470  0.1636  0.5816  0.2978
 8089SOL    HW135729   1.203   0.707  10.542  0.7720  1.8651  1.5197
 8089SOL    HW235730   1.168   0.729  10.404 -1.7366  1.9776  1.3280
 8090SOL     OW35731   1.219   3.577   4.652  0.1443 -0.2648 -0.3222
 8090SOL    HW135732   1.269   3.622   4.720 -0.3019 -0.8576  0.3985
 8090SOL    HW235733   1.280   3.576   4.579 -0.6379  0.8214 -1.0010
 8091SOL     OW35734   3.186   0.002   0.813  0.1732  0.3539 -0.3919
 8091SOL    HW135735   3.279   4.722   0.835 -0.5135  2.1226  2.7081
 8091SOL    HW235736   3.167   0.079   0.866 -0.0722 -0.5841  0.8649
 8092SOL     OW35737   4.550   3.085   1.507  0.1235  0.8880 -0.0296
 8092SOL    HW135738   4.557   3.129   1.422 -0.9557  1.5547  0.2309
 8092SOL    HW235739   4.522   3.154   1.567 -0.6437  0.9852 -0.4944
 8093SOL     OW35740   3.467   2.202  10.584  0.0482 -0.2792 -0.1512
 8093SOL    HW135741   3.483   2.110  10.560 -0.3923 -0.9721  2.1614
 8093SOL    HW235742   3.387   2.192  10.637 -0.0166  0.3606 -0.1294
 8094SOL     OW35743   4.107   1.218   3.747 -0.9252  0.3997 -0.4751
 8094SOL    HW135744   4.201   1.201   3.750 -1.2877 -1.2507  1.8176
 8094SOL    HW235745   4.074   1.134   3.778  0.6299 -0.7938 -2.0109
 8095SOL     OW35746   2.027   2.785   3.795 -0.2333 -0.2967  0.2500
 8095SOL    HW135747   2.013   2.702   3.748  0.2101  0.9015 -2.0057
 8095SOL    HW235748   1.992   2.847   3.731  0.4180  0.6292  0.8028
 8096SOL     OW35749   4.543   3.672   4.806 -0.1606  0.0846 -0.1124
 8096SOL    HW135750   4.448   3.662   4.818 -0.1415  0.9005  0.6859
 8096SOL    HW235751   4.544   3.663   4.710  2.2586  3.8608 -0.4272
 8097SOL     OW35752   2.867   3.843  12.658 -0.3093 -0.2138 -0.0850
 8097SOL    HW135753   2.879   3.935  12.635  1.0636 -0.1875  0.7096
 8097SOL    HW235754   2.912   3.842  12.742 -0.5296  1.2687  0.0499
 8098SOL     OW35755   2.257   2.843   8.838  0.3040  0.5728 -0.1297
 8098SOL    HW135756   2.198   2.917   8.851  1.8099  1.7083  0.2850
 8098SOL    HW235757   2.307   2.842   8.920 -0.6895 -0.4618  0.4703
 8099SOL     OW35758   0.849   1.063   7.022  0.4111  0.1017  0.1100
 8099SOL    HW135759   0.756   1.066   7.002  0.3186  0.4114  0.5760
 8099SOL    HW235760   0.842   1.052   7.117  0.2947 -1.5048 -0.0886
 8100SOL     OW35761   0.001   0.951  13.279 -0.4242  0.0111 -0.1625
 8100SOL    HW135762   4.706   0.977  13.369  0.8147  0.7728 -0.1163
 8100SOL    HW235763   4.652   0.992  13.232 -1.1719  0.7190  1.6218
 8101SOL     OW35764   4.141   2.262  14.082  0.2527  0.2059  0.5516
 8101SOL    HW135765   4.165   2.190  14.140 -0.9027 -0.9582 -0.4232
 8101SOL    HW235766   4.216   2.321  14.081 -0.5690  1.2503 -0.8513
 8102SOL     OW35767   0.402   0.982  14.091 -0.0670  0.5822 -0.1044
 8102SOL    HW135768   0.476   0.938  14.049  0.4384  1.5982 -0.2756
 8102SOL    HW235769   0.329   0.946  14.041  0.5610  1.2683 -1.4894
 8103SOL     OW35770   0.504   4.639   9.792 -0.2154  0.0850 -0.4718
 8103SOL    HW135771   0.579   4.582   9.810  1.0185  1.6145 -0.7995
 8103SOL    HW235772   0.430   4.592   9.830  0.0718  2.0029  2.4381
 8104SOL     OW35773   4.636   3.720   4.376 -0.1118 -0.6825  0.3675
 8104SOL    HW135774   4.724   3.687   4.356  0.2769  1.1498 -0.9832
 8104SOL    HW235775   4.635   3.801   4.326 -2.0698 -0.8846  0.0924
 8105SOL     OW35776   4.543   2.884   8.204 -0.1214 -0.3072 -0.0438
 8105SOL    HW135777   4.611   2.836   8.251 -0.0936  1.5982  1.8865
 8105SOL    HW235778   4.531   2.825   8.130 -2.5979  1.9453 -1.4591
 8106SOL     OW35779   2.837   2.376   4.021  0.3116  0.4188 -0.2912
 8106SOL    HW135780   2.824   2.471   4.027 -0.7851  0.2800 -0.4039
 8106SOL    HW235781   2.879   2.369   4.107  1.4717 -0.9148 -0.9887
 8107SOL     OW35782   3.543   4.222  16.412  0.0920 -0.6185 -0.2923
 8107SOL    HW135783   3.531   4.234  16.318 -2.6280 -0.3572  0.0772
 8107SOL    HW235784   3.638   4.211  16.406 -0.0059 -2.4226  1.3991
 8108SOL     OW35785   0.517   4.474   4.187 -0.2232  0.3088 -0.4241
 8108SOL    HW135786   0.594   4.530   4.176 -0.0992  0.7490  2.6259
 8108SOL    HW235787   0.450   4.537   4.214 -0.9217 -1.1805  1.3293
 8109SOL     OW35788   3.483   4.511   8.461 -0.0802 -0.2721  0.5728
 8109SOL    HW135789   3.527   4.479   8.540  0.7687 -2.7871 -0.9369
 8109SOL    HW235790   3.457   4.595   8.498 -1.1809  0.4665 -1.8831
 8110SOL     OW35791   4.016   3.173  12.790 -0.9345  0.1991  0.2711
 8110SOL    HW135792   4.049   3.120  12.862 -2.6192 -1.5225 -0.2433
 8110SOL    HW235793   4.066   3.143  12.714  2.4267  1.0265  2.1665
 8111SOL     OW35794   1.104   0.750  13.940  0.4238  0.2053 -0.0983
 8111SOL    HW135795   1.013   0.741  13.969  1.0110 -3.8644  0.6119
 8111SOL    HW235796   1.084   0.776  13.851 -0.1635  0.0414 -0.0128
 8112SOL     OW35797   1.478   1.053  17.093  0.8473  0.1579  0.2593
 8112SOL    HW135798   1.420   0.977  17.083  0.1306  0.6762  0.4480
 8112SOL    HW235799   1.414   1.116  17.126  1.6035  0.5389  0.9898
 8113SOL     OW35800   0.050   4.346   3.603 -0.1901  0.4061 -0.4049
 8113SOL    HW135801   0.085   4.261   3.575  1.7271  1.4475 -1.1688
 8113SOL    HW235802   0.020   4.327   3.692  1.0483 -0.6061 -0.2042
 8114SOL     OW35803   4.016   3.603   4.200  0.2258  0.0202 -0.2239
 8114SOL    HW135804   4.033   3.514   4.168 -0.0936  0.0527 -0.4795
 8114SOL    HW235805   3.927   3.589   4.231  0.2430  0.6590  0.1053
 8115SOL     OW35806   2.732   1.825  10.626  0.1959 -0.2823  0.2164
 8115SOL    HW135807   2.742   1.847  10.533 -1.2206  1.8098  0.5664
 8115SOL    HW235808   2.638   1.823  10.644  0.2212  0.2044  0.4002
 8116SOL     OW35809   1.740   1.694   9.506  0.2683  0.5548  0.5786
 8116SOL    HW135810   1.831   1.722   9.508  0.9694 -1.8584  2.0027
 8116SOL    HW235811   1.742   1.647   9.589  0.7716 -1.4053 -0.5488
 8117SOL     OW35812   4.417   0.992   5.419  0.0510 -0.4443  0.4287
 8117SOL    HW135813   4.469   0.922   5.381  0.5674  0.3397 -0.3097
 8117SOL    HW235814   4.451   1.068   5.372  1.9405  0.1828  2.8333
 8118SOL     OW35815   1.062   3.086   4.256 -0.2281  0.1076  0.1895
 8118SOL    HW135816   1.114   3.026   4.203  0.0608 -0.1821  0.7950
 8118SOL    HW235817   0.980   3.090   4.206  0.0387 -2.7214 -0.5161
 8119SOL     OW35818   4.381   0.322   7.802 -0.0820  0.2469  0.5679
 8119SOL    HW135819   4.321   0.281   7.865 -2.4641  0.5093 -1.5435
 8119SOL    HW235820   4.441   0.248   7.789  1.2128  1.2643  0.7452
 8120SOL     OW35821   1.115   2.180  12.132 -0.3533  0.8889 -0.1129
 8120SOL    HW135822   1.148   2.269  12.117  2.5975 -0.0848  0.5273
 8120SOL    HW235823   1.134   2.146  12.044  1.1436 -0.2503  0.6549
 8121SOL     OW35824   4.671   4.587   6.507  0.1686  0.3714 -0.1317
 8121SOL    HW135825   4.667   4.500   6.467  1.5641  0.9910 -1.6290
 8121SOL    HW235826   4.644   4.565   6.596  0.9809  0.0509  0.0380
 8122SOL     OW35827   3.236   1.674   8.989 -0.6416  0.1004 -0.2730
 8122SOL    HW135828   3.281   1.628   8.919  2.2333  0.1810  1.5166
 8122SOL    HW235829   3.302   1.739   9.011 -0.9424  0.7073 -1.1548
 8123SOL     OW35830   2.987   4.027   5.868 -0.1977  0.0864  0.1370
 8123SOL    HW135831   2.918   3.966   5.895 -0.1648 -0.8642 -1.9376
 8123SOL    HW235832   2.971   4.041   5.774 -0.9100 -0.5296  0.1634
 8124SOL     OW35833   2.998   1.886   9.250  0.9971  0.1528  0.1776
 8124SOL    HW135834   3.043   1.852   9.327 -2.0046  0.5651  2.1055
 8124SOL    HW235835   2.957   1.808   9.214 -1.2039  1.3577  0.0575
 8125SOL     OW35836   0.240   1.762  14.585 -0.4557 -0.3048  0.1047
 8125SOL    HW135837   0.327   1.802  14.578  0.0473 -1.3699  0.2970
 8125SOL    HW235838   0.219   1.774  14.677 -0.9799 -1.0460  0.0791
 8126SOL     OW35839   2.973   3.818   4.829  0.1100  0.0856 -0.5342
 8126SOL    HW135840   2.902   3.845   4.770 -1.4340 -0.6244  0.9834
 8126SOL    HW235841   2.985   3.902   4.874  3.2528 -1.2197  1.0184
 8127SOL     OW35842   3.107   4.149   7.525 -0.1830  0.0717 -0.1108
 8127SOL    HW135843   3.069   4.067   7.555  2.4215 -1.1948 -0.2990
 8127SOL    HW235844   3.031   4.200   7.496 -0.5897  0.0533  0.9232
 8128SOL     OW35845   3.503   2.213   3.277 -0.2484 -0.2968 -0.1269
 8128SOL    HW135846   3.598   2.199   3.279 -0.0143  1.2343 -0.3798
 8128SOL    HW235847   3.483   2.133   3.325  2.3097 -1.1005 -0.3934
 8129SOL     OW35848   1.768   4.222  10.474 -0.4695 -0.3684 -0.3313
 8129SOL    HW135849   1.825   4.299  10.476 -1.5282  0.3959  0.2974
 8129SOL    HW235850   1.737   4.250  10.388 -2.5943 -0.9655  0.2500
 8130SOL     OW35851   1.395   1.195   6.197 -0.0154 -0.4052 -0.1214
 8130SOL    HW135852   1.302   1.200   6.218 -0.5981  2.4775 -3.4480
 8130SOL    HW235853   1.419   1.277   6.241  0.8313 -0.4890 -0.4328
 8131SOL     OW35854   0.608   2.507   6.642  0.5770  0.0650  0.0831
 8131SOL    HW135855   0.663   2.429   6.651  1.2912  0.4550 -1.0919
 8131SOL    HW235856   0.532   2.486   6.698  0.1780 -0.3106 -0.5992
 8132SOL     OW35857   2.588   2.238   4.866  0.0522  0.4495 -0.0133
 8132SOL    HW135858   2.580   2.181   4.789  1.0660 -0.6497  0.6837
 8132SOL    HW235859   2.578   2.179   4.941 -0.0800  1.2751  0.6085
 8133SOL     OW35860   3.871   0.667   0.768 -0.1003 -0.6683 -0.3108
 8133SOL    HW135861   3.796   0.617   0.799  0.2240 -1.3574 -0.6436
 8133SOL    HW235862   3.919   0.666   0.850  1.1124 -0.4828 -1.0181
 8134SOL     OW35863   0.920   0.614   6.121 -0.0439  0.4616 -0.1380
 8134SOL    HW135864   0.905   0.646   6.210 -0.8124  0.0292 -0.1088
 8134SOL    HW235865   0.832   0.591   6.094  0.0803  0.4719 -0.5503
 8135SOL     OW35866   0.162   0.897  16.595  0.0206  0.1667  0.2233
 8135SOL    HW135867   0.085   0.899  16.652 -1.3393 -0.1415 -1.5879
 8135SOL    HW235868   0.164   0.805  16.570 -0.3757 -0.6665  3.3170
 8136SOL     OW35869   2.446   0.446   2.608 -0.0192  0.4068 -0.0882
 8136SOL    HW135870   2.355   0.424   2.630  0.0038  0.2510 -0.1484
 8136SOL    HW235871   2.433   0.495   2.527 -1.0274  2.0366  1.0546
 8137SOL     OW35872   0.180   1.447   4.095 -0.0784  0.5678  0.2424
 8137SOL    HW135873   0.126   1.507   4.147 -0.2920  0.7932 -0.2433
 8137SOL    HW235874   0.267   1.481   4.114  0.3142 -0.5829  0.5376
 8138SOL     OW35875   3.975   2.168  11.381 -0.3493  0.4222  1.3422
 8138SOL    HW135876   3.885   2.159  11.413 -0.7202 -2.3843 -0.5565
 8138SOL    HW235877   3.972   2.135  11.292  0.2676  0.8868  1.1480
 8139SOL     OW35878   1.902   0.889   5.741 -0.7991  0.5433  0.1347
 8139SOL    HW135879   1.961   0.857   5.809  0.4185 -1.5704 -1.9364
 8139SOL    HW235880   1.881   0.809   5.694 -1.1413  0.4961  0.3730
 8140SOL     OW35881   0.817   0.656  16.661 -0.1293  0.6154  0.2603
 8140SOL    HW135882   0.750   0.640  16.727 -1.2189  1.0829 -0.7206
 8140SOL    HW235883   0.793   0.746  16.640 -0.0947  0.1195 -1.9641
 8141SOL     OW35884   2.674   1.887  10.366  0.1235  0.0454 -0.8476
 8141SOL    HW135885   2.585   1.852  10.362  0.1950  0.0819 -2.5892
 8141SOL    HW235886   2.663   1.981  10.353  0.2058  0.3721  1.3490
 8142SOL     OW35887   4.717   4.338   6.314 -0.3319 -0.1208  0.0106
 8142SOL    HW135888   0.024   4.414   6.266  1.9273  1.2635  3.7747
 8142SOL    HW235889   0.063   4.280   6.284 -1.2662 -1.0528 -0.3978
 8143SOL     OW35890   1.956   0.824   6.376  0.5221  0.1340 -0.1123
 8143SOL    HW135891   1.916   0.776   6.448  1.6138  0.8261  0.9664
 8143SOL    HW235892   1.951   0.760   6.305  1.1076 -0.1798  0.1288
 8144SOL     OW35893   2.351   1.926   2.287 -0.1427 -0.0382 -0.2358
 8144SOL    HW135894   2.263   1.961   2.292  0.1335  0.4004  1.5463
 8144SOL    HW235895   2.359   1.894   2.377 -0.4113  1.8148  0.4511
 8145SOL     OW35896   0.011   3.949   2.783 -0.2664  0.2241  0.7816
 8145SOL    HW135897   0.066   3.960   2.705 -2.2494  0.3622 -0.6002
 8145SOL    HW235898   4.666   4.013   2.769  0.5634  0.9479  0.0154
 8146SOL     OW35899   3.188   1.491   4.851  0.4909 -0.1894 -0.3905
 8146SOL    HW135900   3.174   1.514   4.759  1.0182  0.1435 -0.3905
 8146SOL    HW235901   3.226   1.572   4.886  0.7780 -0.4641 -0.0738
 8147SOL     OW35902   2.039   4.035  12.679  0.5440  0.2703  0.0777
 8147SOL    HW135903   2.038   3.976  12.603  1.9135  0.0167  0.2516
 8147SOL    HW235904   1.951   4.063  12.703  0.3673 -0.6589  0.5247
 8148SOL     OW35905   0.648   1.736   5.502 -0.5766  0.1935  0.4824
 8148SOL    HW135906   0.591   1.670   5.462 -0.1486 -0.4932  1.0036
 8148SOL    HW235907   0.599   1.817   5.510  0.1627  0.5921  0.9520
 8149SOL     OW35908   3.201   2.851   6.953 -0.3664 -0.8510  0.0095
 8149SOL    HW135909   3.124   2.805   6.920 -1.5048  0.3464  1.0690
 8149SOL    HW235910   3.269   2.785   6.972  0.4109  0.0348  0.2926
 8150SOL     OW35911   0.621   3.519   3.690 -0.9899 -0.5003 -0.1615
 8150SOL    HW135912   0.690   3.515   3.624  1.1954 -2.5623  2.2557
 8150SOL    HW235913   0.564   3.453   3.652 -2.7390  0.6890  0.3985
 8151SOL     OW35914   2.695   2.635   9.532 -0.6280  0.4465  0.3576
 8151SOL    HW135915   2.735   2.665   9.614  0.2218  1.0386 -0.2734
 8151SOL    HW235916   2.605   2.635   9.565 -1.2380 -0.3771 -1.3160
 8152SOL     OW35917   3.939   4.120   6.209  0.3814  0.0678 -0.3078
 8152SOL    HW135918   3.975   4.190   6.264 -0.4767  0.5957 -0.4280
 8152SOL    HW235919   3.911   4.175   6.135 -1.7148 -0.7537 -0.1295
 8153SOL     OW35920   0.626   4.719   4.076 -0.1818  0.2108 -0.4811
 8153SOL    HW135921   0.599   4.684   3.991  2.7329  1.3443 -1.8779
 8153SOL    HW235922   0.556   0.057   4.094 -3.1000 -3.4029  0.6233
 8154SOL     OW35923   0.742   0.417   8.200  0.0203 -0.4957 -0.8949
 8154SOL    HW135924   0.754   0.433   8.107  1.0265  0.9556 -0.5134
 8154SOL    HW235925   0.652   0.448   8.209  1.2467  2.7392  0.1755
 8155SOL     OW35926   0.186   0.405   3.482 -0.0014 -0.5852  0.9051
 8155SOL    HW135927   0.254   0.340   3.496  1.4168  0.8580  0.7241
 8155SOL    HW235928   0.184   0.403   3.387  1.9408  0.4518  0.8400
 8156SOL     OW35929   0.808   4.503   5.211 -0.4543 -0.3581  0.7453
 8156SOL    HW135930   0.841   4.413   5.201 -0.2314  0.0454 -2.1666
 8156SOL    HW235931   0.772   4.507   5.300  0.4753  3.8434  0.9103
 8157SOL     OW35932   0.542   3.419  12.462  0.2953 -0.1928  0.4169
 8157SOL    HW135933   0.483   3.490  12.488  1.5952  0.8037  0.5915
 8157SOL    HW235934   0.612   3.422  12.527 -0.3343  1.0420  1.0301
 8158SOL     OW35935   0.931   3.732  12.276 -0.1247 -0.2186 -0.4031
 8158SOL    HW135936   0.926   3.823  12.307 -0.0841 -0.3860  0.0942
 8158SOL    HW235937   1.004   3.693  12.325  0.3853  0.5668 -0.5223
 8159SOL     OW35938   0.401   3.861   9.360 -0.0655 -0.3046  0.0874
 8159SOL    HW135939   0.308   3.866   9.341  0.1118 -1.6808 -1.1274
 8159SOL    HW235940   0.422   3.953   9.377 -0.1034 -0.0916 -1.0395
 8160SOL     OW35941   3.190   0.418   7.984  0.5600 -0.0582 -0.2268
 8160SOL    HW135942   3.125   0.348   7.981 -1.2516  1.6607 -1.2200
 8160SOL    HW235943   3.187   0.456   8.072 -0.6357  1.7193 -1.0319
 8161SOL     OW35944   3.194   2.681   7.241 -0.2242  0.1064 -0.7885
 8161SOL    HW135945   3.226   2.747   7.302 -1.9798  0.2848 -0.0660
 8161SOL    HW235946   3.267   2.666   7.180  0.9320 -1.0352  0.8687
 8162SOL     OW35947   1.395   2.536   9.951  0.4126 -0.3968 -0.1960
 8162SOL    HW135948   1.406   2.441   9.960 -0.1483 -0.3790  0.7470
 8162SOL    HW235949   1.300   2.548   9.941  0.5070  0.4862 -0.0284
 8163SOL     OW35950   4.129   0.397   1.000  0.0452  0.1753  0.3814
 8163SOL    HW135951   4.109   0.321   0.945 -0.4638  0.9025 -0.4536
 8163SOL    HW235952   4.204   0.439   0.958 -0.5876  0.6620 -0.2723
 8164SOL     OW35953   4.106   1.568  17.656 -0.1116 -0.1141 -0.0842
 8164SOL    HW135954   4.070   1.610   0.037 -1.6345  0.6500 -1.1901
 8164SOL    HW235955   4.123   1.633  17.588  0.0756 -0.6847 -0.5845
 8165SOL     OW35956   1.669   1.830   3.959  0.0414  0.0487 -0.0998
 8165SOL    HW135957   1.579   1.799   3.968  0.8555 -1.7088  1.7813
 8165SOL    HW235958   1.654   1.924   3.974 -0.8918  0.0546 -1.0911
 8166SOL     OW35959   3.312   0.201   4.795 -0.7564  0.0671 -0.6539
 8166SOL    HW135960   3.223   0.236   4.800 -1.5187 -1.9680  0.0180
 8166SOL    HW235961   3.322   0.157   4.880  0.1019  1.2487 -0.1376
 8167SOL     OW35962   4.206   0.875  12.839  0.1270 -0.6839 -0.2220
 8167SOL    HW135963   4.284   0.864  12.785  0.0252 -1.0455 -0.2970
 8167SOL    HW235964   4.235   0.876  12.930 -1.0942 -0.2863  0.1630
 8168SOL     OW35965   4.565   1.978   1.709  0.3759 -0.2968  0.1569
 8168SOL    HW135966   4.555   1.885   1.688 -2.2559  0.4138 -1.7014
 8168SOL    HW235967   4.507   2.013   1.642 -1.8838  0.8797  2.7341
 8169SOL     OW35968   3.997   2.346   3.366  0.4977 -0.1035 -0.0243
 8169SOL    HW135969   4.092   2.339   3.380  0.7611 -0.5178 -1.9711
 8169SOL    HW235970   3.980   2.254   3.389  0.7816  0.1739  1.2977
 8170SOL     OW35971   1.627   4.244   4.588  0.1057 -0.0794  0.0971
 8170SOL    HW135972   1.598   4.305   4.521  0.9499  0.4822  0.2444
 8170SOL    HW235973   1.576   4.276   4.663 -1.5604  0.5045 -1.3007
 8171SOL     OW35974   3.326   3.680  13.238  0.1858  0.0874  0.1870
 8171SOL    HW135975   3.394   3.748  13.230  0.4630 -0.3326 -1.0680
 8171SOL    HW235976   3.369   3.607  13.193 -0.7069 -0.4892  0.2728
 8172SOL     OW35977   0.798   1.864   8.613  0.5876 -0.0405 -0.1484
 8172SOL    HW135978   0.774   1.789   8.668  0.4494  1.4611  1.8262
 8172SOL    HW235979   0.719   1.916   8.629 -0.4000 -2.0079  1.4743
 8173SOL     OW35980   4.023   1.457   3.612  0.1291 -0.6603 -0.3672
 8173SOL    HW135981   4.083   1.480   3.541 -1.0575  2.2718 -0.4209
 8173SOL    HW235982   4.049   1.367   3.629  0.2521 -0.5835 -0.1430
 8174SOL     OW35983   4.661   2.196   4.076 -0.2682  0.8560  0.0013
 8174SOL    HW135984   0.015   2.170   4.027 -0.7535 -1.7546  0.6066
 8174SOL    HW235985   4.683   2.277   4.122 -0.9275  1.4776 -0.7771
 8175SOL     OW35986   4.679   0.985   8.321  0.3122 -0.2714 -0.0332
 8175SOL    HW135987   4.667   0.890   8.321  1.2874 -0.3923  1.6589
 8175SOL    HW235988   4.597   1.012   8.363 -0.3865 -2.9623  0.2915
 8176SOL     OW35989   2.512   1.933   9.271  0.5588 -0.0199 -0.3850
 8176SOL    HW135990   2.451   2.003   9.295  1.8864  0.7223  0.8081
 8176SOL    HW235991   2.452   1.859   9.263  1.3340 -0.5305 -1.5106
 8177SOL     OW35992   0.299   3.855   5.438 -0.6649 -0.0444  0.0040
 8177SOL    HW135993   0.279   3.945   5.463 -0.0233  0.0461  0.1841
 8177SOL    HW235994   0.380   3.881   5.395 -1.0719  2.8779  1.0462
 8178SOL     OW35995   2.010   4.350  11.673  0.0485 -0.0473  0.5159
 8178SOL    HW135996   1.987   4.324  11.762  0.4177  0.2078  0.6888
 8178SOL    HW235997   1.979   4.274  11.624  1.7865 -2.2180  2.7783
 8179SOL     OW35998   4.080   3.075  15.844  0.1112  0.5162 -0.3577
 8179SOL    HW135999   4.172   3.049  15.854 -0.1195 -0.3037 -0.4015
 8179SOL    HW236000   4.085   3.130  15.766  1.9364  3.5676  1.8973
 8180SOL     OW36001   2.291   2.746  12.820  0.0226 -0.2147 -0.4227
 8180SOL    HW136002   2.295   2.653  12.843  0.4580  0.6962  3.2644
 8180SOL    HW236003   2.373   2.784  12.853  0.1988  0.0966 -1.2432
 8181SOL     OW36004   3.847   0.160  14.220  0.2858 -0.2900  0.4320
 8181SOL    HW136005   3.811   0.228  14.277  1.7107 -0.8509  1.9949
 8181SOL    HW236006   3.875   0.218  14.150  0.4300 -1.9978 -0.9133
 8182SOL     OW36007   4.048   3.645  11.480 -0.2444  0.5404 -0.3332
 8182SOL    HW136008   4.009   3.694  11.553 -1.0128  0.6901 -0.8495
 8182SOL    HW236009   3.968   3.611  11.439 -0.1288  0.3676 -0.4142
 8183SOL     OW36010   2.681   3.599  13.236 -0.1825  0.5081  0.1379
 8183SOL    HW136011   2.691   3.694  13.228 -0.3685  0.5734  0.6979
 8183SOL    HW236012   2.608   3.585  13.176 -0.4884 -0.7547  0.8105
 8184SOL     OW36013   4.614   1.536   8.291  0.1492 -0.2069  0.4943
 8184SOL    HW136014   4.650   1.498   8.371 -0.0232  0.2374  0.7859
 8184SOL    HW236015   4.631   1.464   8.230  0.4812 -0.6150  1.0673
 8185SOL     OW36016   3.792   1.753   8.605  0.0954  0.1611  0.1244
 8185SOL    HW136017   3.789   1.849   8.615 -1.6076 -0.0861  1.9160
 8185SOL    HW236018   3.876   1.745   8.649  0.5067  1.3559 -0.4364
 8186SOL     OW36019   0.795   2.611  10.116  0.1224 -0.3662  0.2220
 8186SOL    HW136020   0.837   2.528  10.141  0.3047 -0.2230  0.3905
 8186SOL    HW236021   0.868   2.670  10.098  0.8784 -1.3826 -0.0572
 8187SOL     OW36022   1.012   1.353   2.229  0.2957  0.3806 -0.1763
 8187SOL    HW136023   0.926   1.391   2.211  0.1125 -0.4400 -1.0285
 8187SOL    HW236024   1.068   1.423   2.194 -1.4532  1.3165 -1.0947
 8188SOL     OW36025   4.035   2.134   9.005  0.6359  0.0829  0.8034
 8188SOL    HW136026   4.016   2.041   8.992 -2.9353  1.0521 -0.9764
 8188SOL    HW236027   4.130   2.135   9.018  0.4852  1.1821  1.8094
 8189SOL     OW36028   4.716   1.527   3.354 -0.3396 -0.3260 -0.3375
 8189SOL    HW136029   4.656   1.456   3.330 -1.6990  1.0765 -1.0804
 8189SOL    HW236030   0.079   1.509   3.319  0.4379 -0.5896  1.6790
 8190SOL     OW36031   3.787   1.009   3.919 -0.2945  0.0969 -0.3397
 8190SOL    HW136032   3.869   0.959   3.926  0.0943  0.7659 -0.1598
 8190SOL    HW236033   3.727   0.962   3.861  1.5805 -0.0300 -2.1610
 8191SOL     OW36034   0.366   1.217   0.381 -0.4433  0.0947  0.4757
 8191SOL    HW136035   0.306   1.158   0.334  0.3605 -1.6151  1.6160
 8191SOL    HW236036   0.342   1.200   0.472 -0.7816 -0.6888  0.2445
 8192SOL     OW36037   1.969   0.180   3.983 -0.3016  0.3461  0.7684
 8192SOL    HW136038   1.918   0.240   4.036 -3.8347  0.1213 -2.3548
 8192SOL    HW236039   1.951   0.099   4.031  0.1658 -0.1278  0.1474
 8193SOL     OW36040   0.979   4.427   8.544  0.0385  0.1401 -0.1757
 8193SOL    HW136041   0.894   4.443   8.583 -0.5340  1.3155 -1.8911
 8193SOL    HW236042   1.037   4.404   8.616  0.8136  2.4611 -0.0402
 8194SOL     OW36043   1.781   0.004   0.198  0.0581 -0.4128  0.1491
 8194SOL    HW136044   1.826   0.044   0.123 -0.6017  0.6990  0.3449
 8194SOL    HW236045   1.702   4.695   0.156 -0.3543  1.1124 -0.2793
 8195SOL     OW36046   3.528   2.809   3.545 -0.7202 -0.0266 -0.2710
 8195SOL    HW136047   3.472   2.863   3.490  2.2306  2.3447 -0.9398
 8195SOL    HW236048   3.460   2.744   3.562  1.9604 -1.9410  3.0841
 8196SOL     OW36049   4.576   1.864  15.016 -0.1019 -0.0375  0.4645
 8196SOL    HW136050   4.491   1.821  15.010  0.8707 -2.1427  1.8285
 8196SOL    HW236051   4.611   1.797  15.075 -0.6292 -0.0031  0.8148
 8197SOL     OW36052   1.360   0.869   9.595 -0.1930 -0.2711 -0.3816
 8197SOL    HW136053   1.378   0.795   9.537 -2.3079  0.3259 -1.8239
 8197SOL    HW236054   1.264   0.868   9.600 -0.3917  0.4739 -4.0996
 8198SOL     OW36055   2.568   3.917  15.321 -0.0537  0.2115  0.2403
 8198SOL    HW136056   2.572   3.825  15.293  2.8998  0.9545 -1.7983
 8198SOL    HW236057   2.591   3.969  15.244 -0.1490 -0.4099 -0.2111
 8199SOL     OW36058   2.866   2.807   2.314 -0.0160  0.0561 -1.0358
 8199SOL    HW136059   2.944   2.757   2.290 -0.9877 -1.6853 -0.5900
 8199SOL    HW236060   2.810   2.764   2.249 -2.4197 -0.5762  1.4504
 8200SOL     OW36061   1.939   4.164   8.780  0.1841  0.4078 -0.6767
 8200SOL    HW136062   1.918   4.192   8.691  2.6815  0.0451 -1.3755
 8200SOL    HW236063   1.949   4.070   8.767  0.3496  0.0854  1.8485
 8201SOL     OW36064   2.486   2.078   2.923  0.0540 -0.1971 -0.2693
 8201SOL    HW136065   2.540   2.059   3.000 -0.4728 -1.1627 -0.1277
 8201SOL    HW236066   2.425   2.004   2.913 -2.7511  2.0687  0.0021
 8202SOL     OW36067   3.355   4.360   4.025 -0.2041 -0.1598  0.1430
 8202SOL    HW136068   3.435   4.340   4.073 -1.4134 -1.1267  1.7533
 8202SOL    HW236069   3.318   4.396   4.105 -0.7486 -0.2264 -0.0825
 8203SOL     OW36070   2.496   1.123   3.325 -0.8060 -0.3928 -0.4469
 8203SOL    HW136071   2.509   1.173   3.245 -0.4752  0.7855  0.3487
 8203SOL    HW236072   2.407   1.149   3.349 -0.0650  0.1738  1.7077
 8204SOL     OW36073   3.638   4.400   8.682 -0.0694 -0.3958 -0.6654
 8204SOL    HW136074   3.719   4.349   8.684  0.5416  0.5675 -0.9987
 8204SOL    HW236075   3.594   4.374   8.762  1.0868 -0.9495 -0.2019
 8205SOL     OW36076   1.536   0.605   0.257  0.1558  0.5839 -0.0750
 8205SOL    HW136077   1.607   0.561   0.210 -0.4786  0.3288 -0.7883
 8205SOL    HW236078   1.520   0.530   0.313 -0.3165 -0.2431 -1.3123
 8206SOL     OW36079   2.414   0.033   4.615 -0.3804  0.2152  0.4828
 8206SOL    HW136080   2.379   0.115   4.579 -1.3600 -0.2737  0.3421
 8206SOL    HW236081   2.371   0.031   4.700 -2.2281  0.7078 -0.4435
 8207SOL     OW36082   4.312   1.747   2.520 -0.3394 -0.5166  0.1487
 8207SOL    HW136083   4.234   1.801   2.506 -0.2892 -0.0460  1.6865
 8207SOL    HW236084   4.297   1.723   2.612  0.1552  0.7906  0.5650
 8208SOL     OW36085   2.952   2.433   3.249 -0.2546  0.6493  0.7972
 8208SOL    HW136086   2.907   2.459   3.330  1.6817 -1.5761  2.5655
 8208SOL    HW236087   2.886   2.367   3.229  1.2402 -0.7351  0.4756
 8209SOL     OW36088   3.464   0.893   7.747 -0.0416  0.7929  0.1985
 8209SOL    HW136089   3.458   0.809   7.701 -0.7854 -1.1212  3.8183
 8209SOL    HW236090   3.546   0.885   7.795 -0.8728 -0.4717  1.4155
 8210SOL     OW36091   2.502   1.311   0.709  0.0574 -0.9050  0.0176
 8210SOL    HW136092   2.509   1.405   0.726  0.6892 -0.9221 -0.1610
 8210SOL    HW236093   2.425   1.301   0.652 -0.9696  0.2389  1.1877
 8211SOL     OW36094   2.775   0.745   5.410 -0.3045  0.4318  0.6422
 8211SOL    HW136095   2.689   0.736   5.370 -1.7613 -0.3177  3.8762
 8211SOL    HW236096   2.817   0.788   5.336 -0.1440  1.3741  1.2761
 8212SOL     OW36097   2.346   3.246   2.107 -0.6557 -0.1058  0.0359
 8212SOL    HW136098   2.408   3.316   2.129 -0.9611 -0.5625  2.2954
 8212SOL    HW236099   2.357   3.180   2.175  2.3680 -0.3800 -0.7126
 8213SOL     OW36100   1.479   1.858   6.225  0.1846  0.3174 -0.2044
 8213SOL    HW136101   1.531   1.823   6.296 -1.6560  1.4917  1.7389
 8213SOL    HW236102   1.472   1.781   6.169  0.1180 -0.0734  0.3460
 8214SOL     OW36103   1.241   4.585  13.234 -0.3358 -0.4110 -0.3694
 8214SOL    HW136104   1.150   4.607  13.256 -0.4755 -1.0240 -0.3501
 8214SOL    HW236105   1.252   4.515  13.298 -0.4904 -0.0636  0.0439
 8215SOL     OW36106   4.438   0.134   3.423 -0.3245  0.0811 -0.1077
 8215SOL    HW136107   4.489   0.167   3.349 -1.6510 -3.2614 -2.5284
 8215SOL    HW236108   4.427   0.045   3.389  0.6317 -0.4651  1.0271
 8216SOL     OW36109   3.802   1.531   0.644 -0.5611 -0.7052  0.0339
 8216SOL    HW136110   3.858   1.593   0.691  0.0365 -0.1656 -1.3971
 8216SOL    HW236111   3.744   1.509   0.717 -2.7218 -0.4669 -1.6271
 8217SOL     OW36112   0.650   1.489   6.730  0.8597  0.7964  0.0579
 8217SOL    HW136113   0.614   1.476   6.817  2.5466  0.4795  0.7036
 8217SOL    HW236114   0.721   1.426   6.735 -0.6527 -0.8715  0.4533
 8218SOL     OW36115   0.575   3.043   9.821  0.1159  0.5091 -0.6517
 8218SOL    HW136116   0.560   3.137   9.836 -0.5746  0.2466  0.2990
 8218SOL    HW236117   0.552   3.043   9.728  0.1108  1.9182 -0.6551
 8219SOL     OW36118   3.083   2.637   5.841  0.2590  0.5450 -0.2213
 8219SOL    HW136119   3.001   2.684   5.852  1.4273  2.7044 -0.8339
 8219SOL    HW236120   3.046   2.554   5.812  0.2341  0.1091  1.0278
 8220SOL     OW36121   0.028   1.561  16.953 -0.7510  0.2247  0.0284
 8220SOL    HW136122   4.667   1.568  16.909 -1.3490 -2.1061  0.7836
 8220SOL    HW236123   0.092   1.578  16.885  2.4912 -1.7937  2.5856
 8221SOL     OW36124   3.648   3.419  12.924  0.1481 -0.2072  0.0148
 8221SOL    HW136125   3.733   3.440  12.887  0.0671 -1.8559 -1.1277
 8221SOL    HW236126   3.603   3.439  12.842 -1.1775  1.4069  1.1452
 8222SOL     OW36127   4.655   2.980   6.116 -0.4021  0.5421  0.3321
 8222SOL    HW136128   4.576   2.951   6.072  0.2898  1.4881 -1.5486
 8222SOL    HW236129   4.712   2.967   6.040 -0.9599  1.2025 -0.1930
 8223SOL     OW36130   0.983   1.797   2.953 -0.7387  0.0444  0.0207
 8223SOL    HW136131   1.035   1.749   2.889 -1.9868 -0.1724 -0.8196
 8223SOL    HW236132   0.947   1.865   2.895  2.1311  1.0543 -0.6129
 8224SOL     OW36133   0.012   3.795   5.683 -0.1929  0.3787 -0.8592
 8224SOL    HW136134   0.014   3.736   5.608  0.9669  0.5811 -0.9904
 8224SOL    HW236135   0.088   3.760   5.730 -1.0557 -0.1496  0.1423
 8225SOL     OW36136   4.105   3.621   5.781 -0.1348  0.2420 -0.2296
 8225SOL    HW136137   4.085   3.706   5.743 -0.9714 -0.3810 -1.1979
 8225SOL    HW236138   4.058   3.627   5.864 -1.5708 -0.9556 -0.9427
 8226SOL     OW36139   3.274   2.493   7.897  0.5947 -0.2785  0.0828
 8226SOL    HW136140   3.276   2.399   7.879  0.4283 -0.3590  0.4954
 8226SOL    HW236141   3.209   2.522   7.833  1.4945  1.6355  0.0334
 8227SOL     OW36142   1.587   0.528  12.558  0.6412  0.6048 -0.8498
 8227SOL    HW136143   1.583   0.453  12.617 -0.7921  0.6700 -0.8772
 8227SOL    HW236144   1.627   0.594  12.616 -1.0846  1.8645 -1.0789
 8228SOL     OW36145   3.984   0.941   6.058 -0.5950 -0.3268 -0.0169
 8228SOL    HW136146   4.071   0.976   6.041 -0.4748 -0.3070  0.6495
 8228SOL    HW236147   4.002   0.847   6.058 -1.3183 -0.4663  0.5399
 8229SOL     OW36148   0.898   4.066   7.567  0.1105  0.1112 -0.2317
 8229SOL    HW136149   0.905   4.116   7.486  1.5096  0.7967  0.3090
 8229SOL    HW236150   0.942   4.121   7.631  0.5716 -0.3079 -0.1861
 8230SOL     OW36151   3.072   3.725  16.835 -0.5181  0.3183  0.2029
 8230SOL    HW136152   2.979   3.739  16.815 -0.3870 -1.1298 -1.4459
 8230SOL    HW236153   3.119   3.727  16.752 -0.9579 -0.5341 -0.0676
 8231SOL     OW36154   1.892   1.389   6.530 -0.0968  0.3992  0.5689
 8231SOL    HW136155   1.886   1.402   6.436 -0.7795 -0.8771  0.4354
 8231SOL    HW236156   1.859   1.300   6.542  1.4291 -0.0401  1.5402
 8232SOL     OW36157   0.910   4.587   5.527  0.7700  0.0084  0.0771
 8232SOL    HW136158   0.897   4.680   5.507  0.1703  0.1762  1.2379
 8232SOL    HW236159   0.819   4.562   5.543  0.6166  0.3917 -0.1802
 8233SOL     OW36160   0.017   2.147   0.650  0.5774  0.0562  0.4478
 8233SOL    HW136161   0.065   2.091   0.711  2.0419  0.6981 -0.1128
 8233SOL    HW236162   0.015   2.227   0.703 -1.9363  1.6133 -1.9823
 8234SOL     OW36163   2.572   0.279   7.821 -0.3387  0.6018 -0.2630
 8234SOL    HW136164   2.640   0.256   7.885 -1.6055 -2.7115 -0.1257
 8234SOL    HW236165   2.506   0.319   7.878 -0.7135  0.0158 -0.2811
 8235SOL     OW36166   2.876   0.511   8.269  0.3104 -0.5000 -0.0392
 8235SOL    HW136167   2.902   0.565   8.344  1.1369 -0.6500 -0.2186
 8235SOL    HW236168   2.780   0.519   8.264  0.2040 -1.4661  0.4658
 8236SOL     OW36169   1.456   1.231   3.272 -0.1661 -0.1495 -0.0531
 8236SOL    HW136170   1.428   1.141   3.288 -2.1059  0.3250 -0.8301
 8236SOL    HW236171   1.550   1.232   3.288 -0.3136 -0.4671  0.8433
 8237SOL     OW36172   3.251   3.696  14.989  0.1080 -0.5498  0.1451
 8237SOL    HW136173   3.210   3.618  14.951  0.6931 -0.3436 -0.8944
 8237SOL    HW236174   3.288   3.662  15.070 -1.9533 -1.0246  0.8846
 8238SOL     OW36175   4.633   1.854   8.916  0.3027  0.0119 -0.3888
 8238SOL    HW136176   4.592   1.778   8.957  0.5567 -0.5581 -1.1918
 8238SOL    HW236177   4.573   1.921   8.949 -0.0545 -0.3154 -0.3823
 8239SOL     OW36178   0.072   1.963   9.556 -0.0633 -0.2699 -0.9728
 8239SOL    HW136179   0.094   1.951   9.464  0.9797 -0.0017 -0.7638
 8239SOL    HW236180   4.700   1.958   9.556  0.0027 -1.9271  2.6953
 8240SOL     OW36181   0.111   4.162   5.667 -0.0738 -0.3554 -0.0099
 8240SOL    HW136182   0.136   4.251   5.692  1.2382 -1.0748  1.2175
 8240SOL    HW236183   0.165   4.154   5.588 -0.4404  0.7408 -0.3709
 8241SOL     OW36184   2.706   0.444   4.893 -0.0935  0.0880 -0.3833
 8241SOL    HW136185   2.639   0.398   4.843  0.5145 -1.1172 -0.0902
 8241SOL    HW236186   2.698   0.535   4.865  0.8580 -0.6414 -2.9889
 8242SOL     OW36187   0.149   0.361   3.734 -0.1425  0.1135  0.3250
 8242SOL    HW136188   0.211   0.289   3.728 -0.5094 -0.2702  1.1515
 8242SOL    HW236189   0.152   0.393   3.643 -0.8645 -1.4971 -0.2584
 8243SOL     OW36190   0.814   3.710   8.143 -0.5007  0.1524 -0.4663
 8243SOL    HW136191   0.822   3.645   8.073  0.6935 -1.4967  1.1974
 8243SOL    HW236192   0.906   3.711   8.170 -0.6490 -1.4061  0.1085
 8244SOL     OW36193   4.016   3.679   5.016  0.1080 -0.3522  0.3765
 8244SOL    HW136194   4.095   3.629   5.037  0.2246  0.5397  2.0619
 8244SOL    HW236195   4.033   3.749   5.078  0.4507 -1.0906  1.1212
 8245SOL     OW36196   4.108   3.989  17.237  0.6926 -0.2379  0.4138
 8245SOL    HW136197   4.159   3.997  17.156  0.1211  0.8264  0.1570
 8245SOL    HW236198   4.035   4.043  17.207  2.2529  0.7796 -1.5497
 8246SOL     OW36199   3.544   1.755   4.589  0.1985  0.1088  0.4875
 8246SOL    HW136200   3.588   1.788   4.511  0.2476 -0.7301  0.1638
 8246SOL    HW236201   3.536   1.662   4.568 -0.9347  0.4046 -0.3702
 8247SOL     OW36202   3.682   4.286   9.315  0.9464 -0.2493  0.1588
 8247SOL    HW136203   3.589   4.297   9.335  0.8880 -0.4311 -0.0008
 8247SOL    HW236204   3.699   4.205   9.363 -0.2071 -0.4328  0.2655
 8248SOL     OW36205   0.630   1.190  16.645 -0.2420 -0.3121  0.1487
 8248SOL    HW136206   0.650   1.278  16.615 -2.4363 -0.7476 -2.5717
 8248SOL    HW236207   0.546   1.212  16.685  0.3743  1.0016  0.7189
 8249SOL     OW36208   0.586   3.790   6.635  0.1643  0.2291 -0.1079
 8249SOL    HW136209   0.562   3.826   6.549 -0.5033  1.3056  0.5376
 8249SOL    HW236210   0.531   3.712   6.635  1.7016 -0.8513 -0.5708
 8250SOL     OW36211   3.520   2.036   8.848  0.0040  0.0442 -0.5579
 8250SOL    HW136212   3.432   2.011   8.876  1.1292 -1.3015  1.7878
 8250SOL    HW236213   3.531   2.115   8.901  2.1738 -0.3969 -0.3244
 8251SOL     OW36214   0.427   1.525   4.607  0.2241 -0.2240 -0.1592
 8251SOL    HW136215   0.457   1.475   4.684 -0.4308 -1.2299 -0.5549
 8251SOL    HW236216   0.479   1.493   4.534  0.3758 -0.6125  0.1189
 8252SOL     OW36217   1.671   0.840   9.430 -0.2172  0.2654  0.7670
 8252SOL    HW136218   1.623   0.915   9.395 -0.0324 -1.4109 -3.0699
 8252SOL    HW236219   1.752   0.878   9.464  0.1774  0.7396 -0.7298
 8253SOL     OW36220   2.757   0.862  16.898 -0.2464  0.3331 -0.2766
 8253SOL    HW136221   2.808   0.913  16.835  0.3930 -0.3369 -0.2990
 8253SOL    HW236222   2.716   0.796  16.842 -2.2940  2.6444 -1.4814
 8254SOL     OW36223   1.110   2.053   7.861  0.1208  0.7864  0.3923
 8254SOL    HW136224   1.099   2.035   7.954  0.0769  0.6244  0.3551
 8254SOL    HW236225   1.025   2.091   7.838 -0.0797 -0.0761 -0.2958
 8255SOL     OW36226   0.149   3.715  10.513 -0.5137  0.4624 -0.0429
 8255SOL    HW136227   0.114   3.699  10.600 -0.6825  5.1696  0.7357
 8255SOL    HW236228   0.211   3.787  10.520 -1.2843  1.0115  1.0722
 8256SOL     OW36229   4.680   2.337  13.091  0.7346 -0.1933  0.4163
 8256SOL    HW136230   0.052   2.339  13.095  0.9136  1.1361 -4.4994
 8256SOL    HW236231   4.671   2.244  13.115 -0.9039 -0.4237 -1.0969
 8257SOL     OW36232   3.503   3.544   1.803  0.2360 -0.5669 -0.2980
 8257SOL    HW136233   3.434   3.531   1.738 -0.9390  0.7153  0.7034
 8257SOL    HW236234   3.551   3.461   1.804  1.5568  0.2219  1.4286
 8258SOL     OW36235   3.207   3.167   2.934 -0.4459 -0.4360 -0.5301
 8258SOL    HW136236   3.227   3.221   3.010 -0.4258 -0.2416 -0.6721
 8258SOL    HW236237   3.212   3.230   2.862  3.0409  1.3962  1.3431
 8259SOL     OW36238   2.897   2.304   6.302 -0.4723  0.4056  0.5116
 8259SOL    HW136239   2.830   2.368   6.327 -0.8857  0.2919 -0.2961
 8259SOL    HW236240   2.910   2.255   6.383 -0.0751 -1.6898 -0.7958
 8260SOL     OW36241   4.369   2.853   4.452  0.4510 -0.2697 -0.4229
 8260SOL    HW136242   4.459   2.875   4.428  0.5837 -1.0030 -0.5941
 8260SOL    HW236243   4.340   2.933   4.496 -0.8390 -1.1176  0.2619
 8261SOL     OW36244   0.678   1.353   2.361  0.2960  0.2742 -0.0965
 8261SOL    HW136245   0.739   1.299   2.311  2.0501  2.3668 -0.2001
 8261SOL    HW236246   0.730   1.432   2.372 -1.7234  1.5696  0.1939
 8262SOL     OW36247   1.895   0.067   8.992  0.1159 -0.4315 -0.7258
 8262SOL    HW136248   1.819   0.037   9.041 -0.8550  1.1738 -1.2581
 8262SOL    HW236249   1.965   0.059   9.057  1.6472  1.8604 -2.0612
 8263SOL     OW36250   2.821   4.545   5.743  0.0169  0.0247  0.2781
 8263SOL    HW136251   2.753   4.599   5.704  0.0414 -0.0716  0.0988
 8263SOL    HW236252   2.807   4.558   5.836 -0.2287  0.2280  0.2122
 8264SOL     OW36253   1.407   3.532  12.821 -0.0794 -0.1045 -0.2593
 8264SOL    HW136254   1.361   3.563  12.743 -0.1273 -3.3657 -1.5238
 8264SOL    HW236255   1.483   3.498  12.774 -0.4936  1.1566 -1.8761
 8265SOL     OW36256   4.122   4.433  12.210 -0.4606  0.0032  0.3950
 8265SOL    HW136257   4.167   4.395  12.285 -0.4368  0.2901  0.5256
 8265SOL    HW236258   4.031   4.404  12.218 -0.6878  0.3779 -0.7731
 8266SOL     OW36259   4.505   0.672  16.586  0.1484 -0.1711 -0.0412
 8266SOL    HW136260   4.475   0.735  16.651  3.4372 -0.9771  2.2821
 8266SOL    HW236261   4.505   0.594  16.642 -1.8466 -0.8036 -0.9375
 8267SOL     OW36262   3.473   4.483   0.209 -0.1844 -0.1752 -0.1800
 8267SOL    HW136263   3.420   4.524   0.277  0.5834 -1.0108  0.9230
 8267SOL    HW236264   3.455   4.541   0.135  3.3500  1.5520  0.3154
 8268SOL     OW36265   3.854   1.674   6.938  0.2601 -0.5726 -0.4446
 8268SOL    HW136266   3.818   1.745   6.991  0.9172 -0.1655 -0.5452
 8268SOL    HW236267   3.821   1.592   6.973  1.5617 -0.6956  0.5042
 8269SOL     OW36268   1.328   1.271   4.947 -0.9266 -0.2293 -0.2723
 8269SOL    HW136269   1.279   1.229   4.876 -0.6331  1.0955 -1.2491
 8269SOL    HW236270   1.382   1.327   4.892 -0.3335 -0.1397  0.4010
 8270SOL     OW36271   2.739   3.225   6.040 -0.3362  0.1048  0.0195
 8270SOL    HW136272   2.646   3.234   6.062 -1.0094 -2.5669 -1.6734
 8270SOL    HW236273   2.723   3.216   5.946 -0.7859 -0.8033  0.1857
 8271SOL     OW36274   0.761   4.584   7.152  0.3022 -0.5110 -0.2987
 8271SOL    HW136275   0.795   4.529   7.221  1.8473 -1.3393 -1.7113
 8271SOL    HW236276   0.845   4.619   7.123 -0.8877  0.3695 -2.7247
 8272SOL     OW36277   2.495   1.903   6.091 -0.0450 -0.2833  0.7782
 8272SOL    HW136278   2.430   1.949   6.144 -0.5924  1.0187 -1.0240
 8272SOL    HW236279   2.543   1.982   6.067  2.8185 -1.8754  1.3157
 8273SOL     OW36280   0.295   4.144   5.439  0.3904  0.1079 -0.0748
 8273SOL    HW136281   0.375   4.116   5.482 -0.3542 -0.9311  0.6396
 8273SOL    HW236282   0.322   4.222   5.391  0.7092  0.1186  0.1269
 8274SOL     OW36283   4.717   1.122   0.589 -0.4606  0.0085  0.3526
 8274SOL    HW136284   4.692   1.187   0.654  0.6582 -0.4824  1.2689
 8274SOL    HW236285   0.084   1.106   0.611  0.2491  1.0051 -1.8124
 8275SOL     OW36286   2.476   0.449   6.410  0.1485 -0.3352  0.2184
 8275SOL    HW136287   2.533   0.524   6.396  0.4489 -1.0489 -2.3213
 8275SOL    HW236288   2.393   0.497   6.401 -0.8737 -1.5824  2.8129
 8276SOL     OW36289   2.558   1.757   9.048 -0.2733  0.3496 -0.2102
 8276SOL    HW136290   2.614   1.785   9.121  0.7389 -2.7600  0.2127
 8276SOL    HW236291   2.479   1.745   9.100 -0.1215 -2.2498 -0.6017
 8277SOL     OW36292   1.965   2.056   4.320 -0.0924 -0.5689 -0.2774
 8277SOL    HW136293   2.025   2.121   4.357  0.0930 -1.0885  0.3357
 8277SOL    HW236294   1.889   2.108   4.293 -1.7225 -2.7071  0.1637
 8278SOL     OW36295   3.389   0.422   1.816 -0.3018  0.1086 -0.0798
 8278SOL    HW136296   3.379   0.351   1.880  0.6840  0.3601  0.3494
 8278SOL    HW236297   3.470   0.395   1.772 -0.5561 -2.3761  0.9453
 8279SOL     OW36298   2.427   3.261  16.804  0.3168  0.0973  0.1628
 8279SOL    HW136299   2.414   3.296  16.892  0.2782  1.0711 -0.2315
 8279SOL    HW236300   2.364   3.191  16.821  0.3565  0.0097 -0.0498
 8280SOL     OW36301   1.506   4.225   3.453  0.1746 -0.3733  0.4367
 8280SOL    HW136302   1.432   4.218   3.393  0.2643 -4.3076  0.8065
 8280SOL    HW236303   1.563   4.149   3.438  0.0106 -0.5627  0.7726
 8281SOL     OW36304   4.297   3.708  11.569 -0.6677 -0.0902 -0.3201
 8281SOL    HW136305   4.250   3.753  11.639 -0.6740  0.9318 -0.9906
 8281SOL    HW236306   4.219   3.669  11.531 -1.7456  1.7832 -0.0247
 8282SOL     OW36307   4.532   0.197  16.450  0.9268  0.2493  0.5925
 8282SOL    HW136308   4.569   0.250  16.519  1.3772  1.1421 -0.3454
 8282SOL    HW236309   4.447   0.168  16.483 -0.2227  1.1415 -1.5912
 8283SOL     OW36310   0.430   1.959  15.614 -0.2456  0.3922  0.4872
 8283SOL    HW136311   0.472   1.889  15.563 -0.5574 -0.0704  0.8604
 8283SOL    HW236312   0.465   1.936  15.700 -2.3040  2.3131  1.8374
 8284SOL     OW36313   4.207   4.200  12.068  0.3122 -0.5238  0.6565
 8284SOL    HW136314   4.260   4.134  12.112  0.4411 -0.1092  1.1208
 8284SOL    HW236315   4.147   4.228  12.136  0.5561  0.0363  0.6406
 8285SOL     OW36316   1.992   1.688   7.123 -0.5191  0.3192  0.2241
 8285SOL    HW136317   1.933   1.624   7.082 -0.2966 -0.0224  0.4434
 8285SOL    HW236318   1.965   1.673   7.214 -0.3243 -1.4877 -0.0221
 8286SOL     OW36319   0.709   1.781   8.156 -0.0094  0.1731  0.0074
 8286SOL    HW136320   0.622   1.811   8.184  0.1948  0.9944 -0.2299
 8286SOL    HW236321   0.737   1.777   8.247 -2.2801 -2.7122  0.5492
 8287SOL     OW36322   0.665   1.241   4.156  0.6399  0.5959 -0.1505
 8287SOL    HW136323   0.735   1.175   4.153 -0.7922 -1.0312  2.4384
 8287SOL    HW236324   0.591   1.183   4.174  2.2125 -1.3695  0.0050
 8288SOL     OW36325   2.035   4.409   5.678 -0.7815  0.3462  0.3556
 8288SOL    HW136326   1.990   4.339   5.630 -4.6328  3.6149 -0.8534
 8288SOL    HW236327   1.976   4.426   5.751 -0.4972 -1.2570  0.9448
 8289SOL     OW36328   1.337   0.431   8.777 -0.9477  0.1266 -0.5061
 8289SOL    HW136329   1.256   0.432   8.827 -0.2771  0.3051  0.5713
 8289SOL    HW236330   1.315   0.403   8.688 -0.7402 -0.4800 -0.3683
 8290SOL     OW36331   1.793   3.336   2.892 -0.2345 -0.5638 -0.1520
 8290SOL    HW136332   1.864   3.349   2.954  0.8645 -1.4280 -1.2261
 8290SOL    HW236333   1.823   3.401   2.828  2.1644 -1.0507  0.4822
 8291SOL     OW36334   3.854   2.141   6.840  0.2514 -0.0257  0.2513
 8291SOL    HW136335   3.904   2.060   6.831  0.9291  0.0311  3.5769
 8291SOL    HW236336   3.798   2.105   6.908 -3.0876  0.9585 -1.9632
 8292SOL     OW36337   1.694   3.770   4.418  0.6171 -0.0262 -0.3937
 8292SOL    HW136338   1.615   3.825   4.422 -0.4006 -1.5257  0.5010
 8292SOL    HW236339   1.738   3.824   4.352  1.3047 -1.0398 -0.7551
 8293SOL     OW36340   2.841   3.090   6.965  0.4975 -0.3574 -0.2529
 8293SOL    HW136341   2.920   3.143   6.974  0.9583 -1.6038  3.1309
 8293SOL    HW236342   2.868   3.016   7.020  0.8805  0.4474  0.6546
 8294SOL     OW36343   1.843   2.269  16.481  0.8942  0.2756  0.3010
 8294SOL    HW136344   1.782   2.280  16.408  0.5189  3.2899  1.0472
 8294SOL    HW236345   1.794   2.320  16.546  0.4122 -0.4561  0.5134
 8295SOL     OW36346   4.432   0.273  11.196 -0.8859 -0.1143 -0.4774
 8295SOL    HW136347   4.527   0.260  11.204 -1.3325 -2.7894  0.6649
 8295SOL    HW236348   4.409   0.277  11.289 -1.2104 -1.3790 -0.5036
 8296SOL     OW36349   0.574   4.563   2.255 -0.0508  0.2034  0.2655
 8296SOL    HW136350   0.496   4.605   2.292 -0.6220 -0.3315 -0.3534
 8296SOL    HW236351   0.558   4.470   2.243  0.2473 -0.0730  2.0090
 8297SOL     OW36352   2.934   3.410  15.428  0.1171  0.1539 -0.6451
 8297SOL    HW136353   2.902   3.438  15.514 -0.7228 -2.3701 -0.1355
 8297SOL    HW236354   3.029   3.419  15.435  0.0362  1.9366 -1.9732
 8298SOL     OW36355   1.507   1.358  15.632 -0.8842 -0.4641 -0.2933
 8298SOL    HW136356   1.588   1.313  15.656  0.0643  0.8533 -1.0482
 8298SOL    HW236357   1.457   1.343  15.713  0.5839 -0.8279  0.5610
 8299SOL     OW36358   2.351   3.000  16.896 -0.0154 -0.0320 -0.2797
 8299SOL    HW136359   2.315   2.937  16.834  1.6315 -1.5456  0.3033
 8299SOL    HW236360   2.442   2.994  16.866  0.7982 -3.4706  2.8380
 8300SOL     OW36361   1.840   0.297   0.263 -0.3557  0.1879  0.2988
 8300SOL    HW136362   1.932   0.305   0.238 -0.4989 -0.1106 -0.3226
 8300SOL    HW236363   1.809   0.227   0.207  1.0776 -0.0582 -0.1984
 8301SOL     OW36364   2.689   2.861   0.710  0.6110  0.5581  0.1970
 8301SOL    HW136365   2.689   2.820   0.796  1.4144 -0.1020 -0.1213
 8301SOL    HW236366   2.715   2.788   0.654 -0.4371 -0.6437  1.2899
 8302SOL     OW36367   2.625   0.915   7.884  0.1424 -0.2478  0.2139
 8302SOL    HW136368   2.719   0.927   7.900  0.1321  0.2682 -0.1023
 8302SOL    HW236369   2.622   0.853   7.812  2.3440  0.2352 -0.3215
 8303SOL     OW36370   3.627   2.301   5.770 -0.1040  0.2823 -0.1027
 8303SOL    HW136371   3.720   2.285   5.785 -0.1306  0.0788 -0.1583
 8303SOL    HW236372   3.613   2.249   5.691 -0.7712 -0.5728  0.5819
 8304SOL     OW36373   2.471   1.774  15.234 -0.1962 -0.4594 -0.8058
 8304SOL    HW136374   2.561   1.806  15.229 -0.1941 -0.4489 -0.7043
 8304SOL    HW236375   2.427   1.813  15.309 -1.2903 -1.0624 -1.1335
 8305SOL     OW36376   0.464   1.566   5.405  0.1035  0.1938  0.6749
 8305SOL    HW136377   0.425   1.488   5.446 -1.0189  1.2484  1.5937
 8305SOL    HW236378   0.463   1.537   5.314  0.2423 -2.9063  1.6426
 8306SOL     OW36379   2.299   0.667  15.699  0.3057 -0.8173  0.6057
 8306SOL    HW136380   2.320   0.733  15.633 -1.0332 -1.0580 -0.0441
 8306SOL    HW236381   2.240   0.605  15.658 -1.5004  2.0689 -1.1433
 8307SOL     OW36382   2.397   1.424   4.024  0.4934 -0.9621  0.5204
 8307SOL    HW136383   2.335   1.353   4.011  0.4359 -1.2462  2.3404
 8307SOL    HW236384   2.477   1.389   3.985  0.5170  0.3584 -0.5970
 8308SOL     OW36385   0.104   0.785   6.178  0.4483 -0.5586 -0.0778
 8308SOL    HW136386   0.047   0.857   6.203  0.2355 -0.4498 -0.8659
 8308SOL    HW236387   0.112   0.792   6.082  0.0175 -0.0295 -0.0706
 8309SOL     OW36388   3.922   3.816   2.725 -0.1338 -0.4329 -0.3917
 8309SOL    HW136389   3.869   3.742   2.756  1.0676 -1.0756  0.1225
 8309SOL    HW236390   3.857   3.886   2.714 -0.0410  0.0727  2.2957
 8310SOL     OW36391   2.161   1.240   6.370 -0.8321 -0.2274 -0.2410
 8310SOL    HW136392   2.186   1.323   6.411 -0.3768 -0.3308 -0.3107
 8310SOL    HW236393   2.173   1.265   6.278 -1.3571  0.6580 -0.0701
 8311SOL     OW36394   1.348   0.031   3.254  0.1783 -0.5408 -0.1900
 8311SOL    HW136395   1.407   4.701   3.201 -2.3810 -2.3491 -1.2165
 8311SOL    HW236396   1.311   4.693   3.317 -0.0149  0.2021  0.4255
 8312SOL     OW36397   2.359   2.090  17.119  0.1486  0.0059 -0.1411
 8312SOL    HW136398   2.425   2.063  17.182  0.8405  2.4997  0.1819
 8312SOL    HW236399   2.399   2.067  17.035 -0.6442 -0.3974 -0.4115
 8313SOL     OW36400   3.893   1.647   8.362  0.2071  0.3561  0.2009
 8313SOL    HW136401   3.869   1.687   8.278 -0.2276 -0.1280  0.0889
 8313SOL    HW236402   3.894   1.722   8.421 -0.2208 -1.3053  2.2905
 8314SOL     OW36403   3.197   4.447   0.975 -0.5806  0.0317 -0.0691
 8314SOL    HW136404   3.248   4.412   1.048  1.2000  0.8706 -0.9378
 8314SOL    HW236405   3.203   4.534   1.015 -0.1793 -1.5019  3.2570
 8315SOL     OW36406   4.630   2.035   5.682  0.7725 -0.0128  0.1609
 8315SOL    HW136407   4.714   2.079   5.670  0.1213  0.9580 -0.8527
 8315SOL    HW236408   4.582   2.104   5.727 -1.2737 -1.3796  0.0724
 8316SOL     OW36409   4.525   3.938  16.564 -0.2145  0.5201 -0.0146
 8316SOL    HW136410   4.620   3.923  16.561  0.0036  1.5477  1.3764
 8316SOL    HW236411   4.521   3.956  16.471 -0.4235  0.6424  0.0181
 8317SOL     OW36412   0.822   3.700   7.036 -0.3925  0.4404  0.1629
 8317SOL    HW136413   0.887   3.637   7.065  0.2963  0.4778 -1.2915
 8317SOL    HW236414   0.840   3.702   6.942 -1.5293  1.0396 -0.0526
 8318SOL     OW36415   2.461   0.736   3.630 -0.7543  0.1742  0.0456
 8318SOL    HW136416   2.475   0.641   3.631 -1.7597  0.0662  1.8399
 8318SOL    HW236417   2.519   0.755   3.704  0.7813  0.3695 -1.1855
 8319SOL     OW36418   2.180   1.296   9.166  0.6991 -0.1860 -0.4084
 8319SOL    HW136419   2.168   1.262   9.255 -1.2955 -1.3372 -1.1095
 8319SOL    HW236420   2.217   1.379   9.193 -0.2341  0.6403 -1.6735
 8320SOL     OW36421   0.917   2.406  15.831  0.1709 -0.3061  0.3190
 8320SOL    HW136422   0.916   2.473  15.900 -0.8790 -2.7536  2.6382
 8320SOL    HW236423   0.853   2.431  15.764 -0.9928  0.1531  1.6032
 8321SOL     OW36424   2.842   0.682   8.472  0.4020  0.0853 -0.2456
 8321SOL    HW136425   2.819   0.763   8.427 -0.0884  0.1589  0.1328
 8321SOL    HW236426   2.869   0.706   8.561 -1.1016 -0.0424  0.2419
 8322SOL     OW36427   1.430   4.307   3.693 -0.2817 -0.5233  0.0006
 8322SOL    HW136428   1.508   4.348   3.731 -0.2397 -0.6478  0.0486
 8322SOL    HW236429   1.464   4.276   3.609  0.3091  0.2424 -0.0385
 8323SOL     OW36430   4.359   4.139  10.674 -0.1755 -0.0747 -0.0704
 8323SOL    HW136431   4.295   4.200  10.712  0.7273 -0.2571  1.7339
 8323SOL    HW236432   4.422   4.119  10.744  0.8232 -0.4188 -1.0759
 8324SOL     OW36433   2.000   0.750   4.574 -0.2501 -0.7130  0.3168
 8324SOL    HW136434   1.994   0.828   4.629 -1.8564 -0.0428 -0.8093
 8324SOL    HW236435   1.920   0.703   4.599 -1.4873  0.1537 -2.0436
 8325SOL     OW36436   2.017   1.055   4.989  0.5457 -0.8142 -0.0670
 8325SOL    HW136437   1.968   1.040   5.070 -0.6923  1.4607 -0.3806
 8325SOL    HW236438   2.059   0.970   4.978  0.8394 -0.6537 -0.1999
 8326SOL     OW36439   4.063   3.198   4.899 -0.2809  0.1498 -0.5524
 8326SOL    HW136440   4.004   3.272   4.884 -2.8011 -1.5043  1.0011
 8326SOL    HW236441   4.147   3.233   4.928 -0.2455 -0.2246 -0.1993
 8327SOL     OW36442   3.740   0.273   5.483 -0.8477  0.1541 -0.1272
 8327SOL    HW136443   3.823   0.230   5.464 -2.8319 -3.0971 -1.4490
 8327SOL    HW236444   3.689   0.203   5.525  0.6045 -0.9001 -0.1000
 8328SOL     OW36445   2.352   3.065   1.267  0.6608  0.0712  1.0260
 8328SOL    HW136446   2.344   3.146   1.216 -0.2871 -1.0744 -0.6169
 8328SOL    HW236447   2.376   3.095   1.355 -0.8865  0.6879  1.2245
 8329SOL     OW36448   2.959   3.648   8.255 -0.4332 -0.1432  0.0864
 8329SOL    HW136449   2.928   3.558   8.242  1.6888 -0.7880 -0.6348
 8329SOL    HW236450   2.919   3.665   8.340  0.2520  0.9434  0.1919
 8330SOL     OW36451   2.372   1.305   1.803 -0.0129 -0.4992 -0.1443
 8330SOL    HW136452   2.280   1.288   1.782  1.3163 -6.4199 -1.1704
 8330SOL    HW236453   2.410   1.218   1.793 -0.0006 -0.7164  1.8941
 8331SOL     OW36454   3.817   0.398   3.874  0.4692 -0.4610 -0.4025
 8331SOL    HW136455   3.896   0.405   3.820  0.6947 -0.8254 -0.1249
 8331SOL    HW236456   3.781   0.314   3.844 -0.4205 -1.0209  2.2163
 8332SOL     OW36457   3.968   2.537  14.436 -0.2490 -0.2759  0.4783
 8332SOL    HW136458   3.968   2.608  14.500 -0.4865 -0.5661  0.7943
 8332SOL    HW236459   4.062   2.524  14.447  0.0942 -0.2380 -2.4219
 8333SOL     OW36460   2.649   1.264   1.611  0.2398  0.3395 -0.5734
 8333SOL    HW136461   2.619   1.183   1.653  0.7046 -0.6576 -2.1646
 8333SOL    HW236462   2.580   1.329   1.624 -0.2816 -0.1031 -1.1060
 8334SOL     OW36463   2.430   1.621   0.987 -0.2431  0.2409 -0.0166
 8334SOL    HW136464   2.506   1.652   1.037  0.6687 -1.4386 -0.3872
 8334SOL    HW236465   2.367   1.591   1.052  0.1307  1.9046  1.1201
 8335SOL     OW36466   3.286   0.611   6.100 -0.2242 -0.0614 -0.4623
 8335SOL    HW136467   3.338   0.540   6.063 -0.6028  0.5254 -2.1229
 8335SOL    HW236468   3.233   0.640   6.025 -2.1238 -1.3071  0.4061
 8336SOL     OW36469   1.722   0.108   8.608 -0.6203 -0.2929 -0.7822
 8336SOL    HW136470   1.766   0.058   8.540  1.1071 -0.9626  0.8127
 8336SOL    HW236471   1.788   0.144   8.668  0.6443 -0.7993 -1.8819
 8337SOL     OW36472   2.966   4.231  13.397  0.1565 -0.3470  0.0189
 8337SOL    HW136473   2.972   4.141  13.429 -0.6100 -0.6246 -0.6356
 8337SOL    HW236474   2.950   4.213  13.305  2.8751  0.7183 -0.6475
 8338SOL     OW36475   1.774   1.931   8.622 -0.8371  0.1617 -0.7774
 8338SOL    HW136476   1.707   1.934   8.553 -1.3455  1.3001 -0.2275
 8338SOL    HW236477   1.710   1.932   8.694 -0.4959 -1.8369 -0.4253
 8339SOL     OW36478   1.131   0.976  14.748 -0.4631 -0.0368  0.8229
 8339SOL    HW136479   1.083   0.900  14.780 -2.1719 -1.6389 -5.7338
 8339SOL    HW236480   1.151   0.937  14.663  0.8472 -0.5644  1.3705
 8340SOL     OW36481   1.457   4.392   6.192  0.0223 -0.4076 -0.0008
 8340SOL    HW136482   1.386   4.332   6.169  0.1831 -1.0823  1.2767
 8340SOL    HW236483   1.414   4.435   6.266  2.5227  1.1748  0.5117
 8341SOL     OW36484   3.060   3.668   9.148  0.1736 -0.1938 -0.9409
 8341SOL    HW136485   2.985   3.611   9.131  0.6810 -0.4290 -2.3509
 8341SOL    HW236486   3.077   3.649   9.240 -1.5396 -1.8977 -0.9798
 8342SOL     OW36487   2.058   2.049   0.394  0.6008 -0.1112  0.4282
 8342SOL    HW136488   2.119   1.976   0.388  2.3626  1.3228  0.7597
 8342SOL    HW236489   2.102   2.111   0.453  1.3931 -1.0620  0.8256
 8343SOL     OW36490   3.883   0.532   8.739 -0.2736  0.5316  0.0019
 8343SOL    HW136491   3.912   0.603   8.682 -0.3798 -0.5113 -1.3517
 8343SOL    HW236492   3.939   0.458   8.715  0.1577  0.8449  0.0535
 8344SOL     OW36493   2.437   4.277  13.070  0.5173 -0.0322 -0.2401
 8344SOL    HW136494   2.474   4.199  13.112  1.6383  0.3865 -0.4597
 8344SOL    HW236495   2.370   4.299  13.134 -0.8619  1.2738 -2.1123
 8345SOL     OW36496   3.946   0.545   9.353  0.2304 -0.3104 -0.2858
 8345SOL    HW136497   3.887   0.587   9.416 -0.3159 -0.2157 -0.8661
 8345SOL    HW236498   3.878   0.518   9.292 -0.2318  1.3746 -0.5359
 8346SOL     OW36499   3.330   3.154  10.530 -0.1030  0.8076 -0.5291
 8346SOL    HW136500   3.353   3.062  10.516  1.2886  1.0252  0.2756
 8346SOL    HW236501   3.316   3.150  10.624 -0.0611  2.7970 -0.4240
 8347SOL     OW36502   1.428   0.310   6.918  0.0299  0.0005  0.1048
 8347SOL    HW136503   1.398   0.401   6.911  1.0028  0.1778 -1.8877
 8347SOL    HW236504   1.476   0.309   6.835 -0.5181  0.7188 -0.2250
 8348SOL     OW36505   2.525   0.283  12.902 -0.1727  0.1224 -0.0215
 8348SOL    HW136506   2.619   0.271  12.915 -0.7921 -1.8251  2.6682
 8348SOL    HW236507   2.511   0.377  12.898 -0.9683 -0.1356 -3.7578
 8349SOL     OW36508   3.617   2.669   8.275 -0.2913 -0.1540  0.7117
 8349SOL    HW136509   3.594   2.623   8.355  1.3030 -1.6858  0.2770
 8349SOL    HW236510   3.540   2.654   8.220 -0.8711 -0.7074  1.6770
 8350SOL     OW36511   4.136   2.673   8.008  0.2731 -0.0531  0.2545
 8350SOL    HW136512   4.172   2.709   8.090 -0.4156 -0.8096  0.8829
 8350SOL    HW236513   4.137   2.581   8.035 -1.3545 -0.4675 -1.1339
 8351SOL     OW36514   1.125   2.125  13.653 -0.0560 -0.1344 -0.3187
 8351SOL    HW136515   1.191   2.168  13.598 -0.9232  4.0625  1.9469
 8351SOL    HW236516   1.096   2.053  13.596 -0.9792  2.1699 -2.7144
 8352SOL     OW36517   1.939   4.153   3.087  0.0599  0.4225  0.4912
 8352SOL    HW136518   1.898   4.084   3.035  0.8469  1.8185 -1.9867
 8352SOL    HW236519   1.959   4.216   3.018  0.1353 -0.6496 -0.4630
 8353SOL     OW36520   2.307   3.471   2.851  0.0786  0.0500 -0.1103
 8353SOL    HW136521   2.300   3.467   2.755  5.0421  1.2860 -0.5530
 8353SOL    HW236522   2.230   3.427   2.887 -0.1441  0.7120  0.2215
 8354SOL     OW36523   0.757   0.228   4.693  0.5793 -0.1706  0.3127
 8354SOL    HW136524   0.809   0.173   4.635 -0.6821 -1.4889  0.4200
 8354SOL    HW236525   0.710   0.287   4.634  0.8540 -0.2175  0.0468
 8355SOL     OW36526   2.376   3.483  13.310 -0.5536  0.1096 -0.0933
 8355SOL    HW136527   2.418   3.398  13.321 -0.9638 -0.1415 -0.4715
 8355SOL    HW236528   2.306   3.472  13.375 -1.3565 -0.0242 -0.9828
 8356SOL     OW36529   1.595   1.643   7.064  0.2986  0.4998 -0.6568
 8356SOL    HW136530   1.526   1.678   7.007 -1.2832  0.1372  1.0216
 8356SOL    HW236531   1.547   1.613   7.142  2.0992  1.0151  0.6606
 8357SOL     OW36532   0.432   3.740  10.067 -0.5232 -0.2727  0.2542
 8357SOL    HW136533   0.381   3.731  10.148  0.8632 -0.9163  1.0583
 8357SOL    HW236534   0.467   3.651  10.062 -1.1362 -0.4371 -1.1370
 8358SOL     OW36535   2.708   4.605   5.997  0.4791 -0.1461 -0.0801
 8358SOL    HW136536   2.768   4.561   6.057 -1.5438 -0.7387  1.4997
 8358SOL    HW236537   2.709   4.694   6.034  0.4097 -0.3073  0.3072
 8359SOL     OW36538   0.353   3.274   8.916 -0.1753 -0.2756 -0.1566
 8359SOL    HW136539   0.329   3.366   8.926 -1.0744 -0.6501  1.0393
 8359SOL    HW236540   0.287   3.227   8.966 -1.0641  2.4977  1.2573
 8360SOL     OW36541   2.303   0.141   2.341  0.1039 -0.2159 -0.2974
 8360SOL    HW136542   2.374   0.185   2.293  0.3591 -0.9020 -0.5519
 8360SOL    HW236543   2.304   0.068   2.280 -0.1191 -0.3695 -0.1131
 8361SOL     OW36544   2.030   1.057   6.193  0.1464  1.1819  0.0664
 8361SOL    HW136545   1.986   0.980   6.228 -1.0845  1.5488 -0.6633
 8361SOL    HW236546   2.044   1.107   6.273 -0.6493  0.1842  0.8216
 8362SOL     OW36547   0.220   0.551   5.203  0.0911 -0.6566 -0.5363
 8362SOL    HW136548   0.167   0.510   5.272 -0.3940  1.3778  0.3092
 8362SOL    HW236549   0.292   0.493   5.182  0.0524 -1.0931  0.5251
 8363SOL     OW36550   1.736   0.074   4.170  0.0954 -0.1612 -0.6625
 8363SOL    HW136551   1.737   0.008   4.101  1.0666 -1.3001  0.4414
 8363SOL    HW236552   1.726   0.153   4.116  0.2708  0.6446  0.4866
 8364SOL     OW36553   2.820   1.529   2.028  0.8596  0.7439  0.8895
 8364SOL    HW136554   2.839   1.612   1.985 -1.6841  0.5743 -0.5944
 8364SOL    HW236555   2.744   1.497   1.979  1.4313  0.4666  0.1957
 8365SOL     OW36556   0.525   2.318   2.872 -0.2325 -0.8371  0.3311
 8365SOL    HW136557   0.607   2.274   2.850 -0.3231 -0.7648 -0.1360
 8365SOL    HW236558   0.503   2.301   2.964  0.5269 -0.2817  0.6131
 8366SOL     OW36559   4.097   0.354  12.132 -0.7793  0.1859  0.6858
 8366SOL    HW136560   4.172   0.359  12.072 -1.6199  0.3237 -0.3491
 8366SOL    HW236561   4.147   0.330  12.210 -1.5570  1.4404  1.5650
 8367SOL     OW36562   0.978   2.067   5.430  0.0775 -0.8083 -0.4238
 8367SOL    HW136563   0.942   2.139   5.482 -0.4383 -1.4684  0.1260
 8367SOL    HW236564   1.065   2.097   5.403 -0.1252  0.3674  0.2232
 8368SOL     OW36565   4.471   2.448   9.550  0.0995  0.6514 -0.1520
 8368SOL    HW136566   4.472   2.397   9.631 -1.0074 -1.8889 -1.7157
 8368SOL    HW236567   4.561   2.478   9.553  0.6992 -1.1533  0.1890
 8369SOL     OW36568   3.933   0.826  12.860 -0.6192 -0.1091 -0.4328
 8369SOL    HW136569   3.911   0.838  12.953  0.6066  0.0274 -0.1556
 8369SOL    HW236570   4.023   0.856  12.871 -0.8454  0.0509  1.0519
 8370SOL     OW36571   0.388   1.204   1.066 -0.0202  0.6720 -0.3840
 8370SOL    HW136572   0.342   1.155   0.997  0.1188 -0.3833  0.2693
 8370SOL    HW236573   0.472   1.158   1.070 -0.5888 -0.3830 -0.4139
 8371SOL     OW36574   1.066   1.471   6.140  0.1433 -0.0207  0.3630
 8371SOL    HW136575   1.014   1.469   6.060  0.7471 -1.0432 -0.0060
 8371SOL    HW236576   1.003   1.518   6.195 -1.6009 -1.7725 -0.1307
 8372SOL     OW36577   3.109   1.030   2.489 -0.3773  0.8385 -0.0124
 8372SOL    HW136578   3.062   1.055   2.410  0.8521  0.7924 -0.7665
 8372SOL    HW236579   3.033   1.036   2.547 -1.2593  0.7340 -1.1774
 8373SOL     OW36580   3.554   3.382  10.200 -0.0773  0.6401  0.0315
 8373SOL    HW136581   3.620   3.344  10.142 -2.5371 -0.7171 -1.8595
 8373SOL    HW236582   3.587   3.466  10.232  2.4217  0.3833 -1.8146
 8374SOL     OW36583   2.937   3.517   6.379 -0.2500 -0.2245  0.1742
 8374SOL    HW136584   2.878   3.517   6.454 -2.3326 -1.5326 -1.4618
 8374SOL    HW236585   2.992   3.442   6.402  0.2294 -0.3714 -1.4147
 8375SOL     OW36586   4.360   0.788  11.649 -0.1870 -0.4253  0.2673
 8375SOL    HW136587   4.354   0.693  11.652 -0.6767 -0.4280 -0.5417
 8375SOL    HW236588   4.438   0.802  11.595  0.7244  0.4125  1.8176
 8376SOL     OW36589   4.020   3.773   8.848 -0.1730 -0.0995 -0.5611
 8376SOL    HW136590   4.059   3.696   8.807 -0.0975 -0.9488  1.1079
 8376SOL    HW236591   4.062   3.765   8.934 -0.8117  1.0800 -0.1524
 8377SOL     OW36592   3.833   0.978  11.196  0.0491  0.8125  0.3995
 8377SOL    HW136593   3.820   1.070  11.221  0.4274  1.0936 -0.4378
 8377SOL    HW236594   3.847   0.988  11.101  0.2015  1.8792  0.5331
 8378SOL     OW36595   0.752   2.249   3.240  0.4565  0.7686 -0.2890
 8378SOL    HW136596   0.844   2.275   3.236  0.4702  0.8611  0.5003
 8378SOL    HW236597   0.720   2.312   3.305  0.7992  0.0910  0.5458
 8379SOL     OW36598   4.294   0.493  13.637 -0.4237  0.0395 -0.2410
 8379SOL    HW136599   4.377   0.524  13.675 -0.8452 -0.9878  1.5172
 8379SOL    HW236600   4.262   0.436  13.707  1.8958 -3.6406 -2.1492
 8380SOL     OW36601   1.395   3.657   4.844 -0.0605  0.5248 -0.5822
 8380SOL    HW136602   1.376   3.596   4.916  0.7987  0.7021 -0.1963
 8380SOL    HW236603   1.473   3.628   4.796 -1.7102  1.5821 -3.8835
 8381SOL     OW36604   1.910   2.066  10.334 -0.1914  0.0272 -0.0191
 8381SOL    HW136605   1.997   2.034  10.359  0.7047  0.6955 -2.2751
 8381SOL    HW236606   1.911   2.143  10.391 -1.5109 -0.2277  0.3347
 8382SOL     OW36607   0.524   2.238  14.954 -0.1723 -0.3333 -0.0066
 8382SOL    HW136608   0.520   2.163  15.013  1.0388 -0.8604 -0.5839
 8382SOL    HW236609   0.514   2.309  15.017  0.2205  1.2002 -1.6642
 8383SOL     OW36610   4.092   1.470   8.881 -0.1199 -0.0097  0.4872
 8383SOL    HW136611   4.024   1.521   8.925  0.5860 -0.7408  2.3940
 8383SOL    HW236612   4.035   1.424   8.820 -1.2304  0.0472  1.4934
 8384SOL     OW36613   4.207   2.716   6.388 -0.3240  0.2544  0.8237
 8384SOL    HW136614   4.297   2.735   6.362 -0.2748 -0.9657  0.1186
 8384SOL    HW236615   4.183   2.664   6.312 -1.1719  0.7166  0.7731
 8385SOL     OW36616   2.547   3.878  12.753  0.1389  0.0704  0.4218
 8385SOL    HW136617   2.521   3.918  12.670  0.6505  1.5137  0.9559
 8385SOL    HW236618   2.638   3.850  12.745  0.0138  0.0340 -0.7951
 8386SOL     OW36619   3.057   2.615   6.644 -0.1199 -0.4622  0.3596
 8386SOL    HW136620   3.151   2.602   6.633  0.1778  0.0496  2.3039
 8386SOL    HW236621   3.022   2.648   6.562 -2.5296 -0.2173  1.4802
 8387SOL     OW36622   4.327   4.594  16.546  0.1865 -0.3832  0.4628
 8387SOL    HW136623   4.353   4.560  16.633  0.1975 -2.0103 -0.1691
 8387SOL    HW236624   4.407   4.627  16.505 -1.4315  1.1023 -1.4067
 8388SOL     OW36625   3.419   0.504   9.306 -0.9944  0.0515  0.7924
 8388SOL    HW136626   3.365   0.549   9.371  0.4556  0.6394  1.5711
 8388SOL    HW236627   3.445   0.433   9.365 -0.2338 -0.0348  0.3478
 8389SOL     OW36628   3.097   3.151   3.693  0.2354  0.0169  0.5454
 8389SOL    HW136629   3.153   3.204   3.636  0.9903 -3.1343 -1.6051
 8389SOL    HW236630   3.039   3.222   3.721 -1.4814 -0.4021 -1.9953
 8390SOL     OW36631   3.095   1.614   2.749 -0.0729  0.1228 -0.6353
 8390SOL    HW136632   3.143   1.564   2.814 -5.7463 -2.4883  1.5632
 8390SOL    HW236633   3.082   1.694   2.802 -0.1196  0.2880 -0.8964
 8391SOL     OW36634   3.048   1.674  17.525  0.4022 -0.1327 -0.4790
 8391SOL    HW136635   3.063   1.632  17.610 -0.2117 -0.6021 -0.5985
 8391SOL    HW236636   3.081   1.762  17.541 -1.9420  1.0237 -2.0018
 8392SOL     OW36637   2.228   3.542   5.534  0.0908  0.1486 -0.7324
 8392SOL    HW136638   2.284   3.554   5.457 -0.2278  1.2168 -0.7867
 8392SOL    HW236639   2.195   3.631   5.545  0.1502  0.3869 -2.4580
 8393SOL     OW36640   4.123   0.598  14.085 -0.2701  0.6364  0.2664
 8393SOL    HW136641   4.190   0.660  14.057  0.2230 -0.3999 -0.8480
 8393SOL    HW236642   4.099   0.642  14.167 -0.7759 -0.2690  0.6028
 8394SOL     OW36643   3.972   0.901   7.512 -0.5642  0.1026  0.0583
 8394SOL    HW136644   4.056   0.919   7.553  1.3933 -1.5931 -3.2180
 8394SOL    HW236645   3.987   0.822   7.460  2.4519  0.1131  0.9021
 8395SOL     OW36646   0.873   0.647   1.096 -0.0792 -0.1084 -0.2253
 8395SOL    HW136647   0.959   0.674   1.127  0.4602 -2.6414  0.4560
 8395SOL    HW236648   0.890   0.587   1.024 -0.0996  0.2672 -0.5380
 8396SOL     OW36649   3.651   2.190   4.922  0.2693  0.2963  0.2681
 8396SOL    HW136650   3.604   2.198   4.839  0.8125 -2.2479 -0.2845
 8396SOL    HW236651   3.710   2.265   4.919 -0.8115  1.1776  0.7692
 8397SOL     OW36652   0.239   3.899   8.451 -0.1980 -0.1049 -0.5564
 8397SOL    HW136653   0.271   3.912   8.361  1.0319 -0.3198 -0.1458
 8397SOL    HW236654   0.237   3.804   8.466  1.0429  0.1666  1.3041
 8398SOL     OW36655   1.247   3.600   7.750 -0.2961 -0.0415  0.2680
 8398SOL    HW136656   1.313   3.600   7.819  0.1129  1.1475 -0.1411
 8398SOL    HW236657   1.171   3.601   7.809 -2.0686 -0.9416 -2.0188
 8399SOL     OW36658   1.599   0.890   6.861 -0.3151  0.0101 -0.6214
 8399SOL    HW136659   1.589   0.814   6.919  1.9372 -0.2451 -0.5874
 8399SOL    HW236660   1.624   0.963   6.918 -2.2745 -1.6207  2.3492
 8400SOL     OW36661   4.616   1.301   7.556  0.6556 -0.1387 -0.3333
 8400SOL    HW136662   4.673   1.289   7.632 -1.5437  0.0914  1.3742
 8400SOL    HW236663   4.609   1.397   7.562 -1.1366 -0.1786 -1.8379
 8401SOL     OW36664   4.087   2.704   8.692  0.1318  0.4455 -0.0273
 8401SOL    HW136665   4.097   2.794   8.722 -2.7427  0.9551 -0.6508
 8401SOL    HW236666   4.104   2.666   8.778 -0.4126 -1.2637 -0.6611
 8402SOL     OW36667   3.688   2.344   6.730 -0.4727  0.1951  0.6493
 8402SOL    HW136668   3.624   2.278   6.703  0.0983  0.1401 -0.5851
 8402SOL    HW236669   3.737   2.288   6.791  0.8153  1.5823  0.8966
 8403SOL     OW36670   4.343   2.173  15.152 -0.1490 -0.4861 -0.2343
 8403SOL    HW136671   4.410   2.166  15.084  2.1763  3.1904  1.6774
 8403SOL    HW236672   4.313   2.082  15.154 -0.9479 -0.2095  0.5050
 8404SOL     OW36673   4.296   3.725  10.138 -0.5390  0.8796  0.5711
 8404SOL    HW136674   4.372   3.765  10.097 -0.9617  1.6656  0.5664
 8404SOL    HW236675   4.238   3.718  10.062  2.3765  0.4341 -1.5715
 8405SOL     OW36676   1.064   4.557   4.616 -0.5136 -0.3406  0.2708
 8405SOL    HW136677   0.983   4.550   4.567 -1.3834 -0.4696  1.7200
 8405SOL    HW236678   1.040   4.504   4.692  0.7618 -1.8180 -0.3467
 8406SOL     OW36679   1.632   0.039   7.071 -0.0611  0.2937  0.0599
 8406SOL    HW136680   1.617   0.045   6.977  0.2703  0.9185  0.0485
 8406SOL    HW236681   1.604   4.672   7.085  2.1762 -0.1681  1.5212
 8407SOL     OW36682   2.479   3.361   4.057  0.6223 -0.0078  0.0104
 8407SOL    HW136683   2.530   3.348   3.977  1.0056 -2.4123  0.6482
 8407SOL    HW236684   2.402   3.406   4.024  0.5290  0.6116  1.0601
 8408SOL     OW36685   4.712   1.253   4.029  0.3082 -0.5796 -0.0542
 8408SOL    HW136686   0.059   1.314   4.051  0.6546 -0.6358 -1.0029
 8408SOL    HW236687   4.633   1.306   4.020  1.4691  0.8068 -1.9294
 8409SOL     OW36688   3.549   1.646   3.509 -0.1692  0.3354 -0.0465
 8409SOL    HW136689   3.474   1.620   3.562 -0.1030 -0.5496 -0.3974
 8409SOL    HW236690   3.627   1.601   3.539 -0.9254 -0.9184  0.0439
 8410SOL     OW36691   4.686   0.893  14.644 -0.4310 -0.0858  0.7591
 8410SOL    HW136692   0.036   0.859  14.595 -0.5500  0.2801  0.3223
 8410SOL    HW236693   4.657   0.823  14.702 -2.5378  0.4523  0.3713
 8411SOL     OW36694   2.910   2.459   2.016 -0.5553 -0.0029 -0.4864
 8411SOL    HW136695   2.946   2.547   2.005  1.1290 -0.3840  1.7657
 8411SOL    HW236696   2.818   2.483   2.021 -0.4605  0.4788 -1.1851
 8412SOL     OW36697   1.076   0.392   6.958  0.0450 -0.2352 -0.0338
 8412SOL    HW136698   1.040   0.321   7.011  1.7595 -0.9238  0.1986
 8412SOL    HW236699   1.137   0.338   6.908 -0.9538 -1.6940  0.3085
 8413SOL     OW36700   0.351   0.367   1.801  0.1952  0.1295  0.6144
 8413SOL    HW136701   0.387   0.408   1.880 -2.6754  1.9682  0.9505
 8413SOL    HW236702   0.274   0.327   1.841 -1.6601 -0.2922 -3.3245
 8414SOL     OW36703   3.719   0.632   4.519  0.6646 -0.3091  0.2259
 8414SOL    HW136704   3.744   0.707   4.573 -0.9025 -1.0793  1.9992
 8414SOL    HW236705   3.798   0.630   4.465 -0.6655  0.7339 -1.7301
 8415SOL     OW36706   1.036   0.940  16.090  0.3236 -0.0354  0.6501
 8415SOL    HW136707   1.112   0.995  16.109 -0.5880  0.7495  2.1143
 8415SOL    HW236708   1.025   0.900  16.177  1.0624 -0.9412  0.3232
 8416SOL     OW36709   0.737   0.376   2.464 -0.0311  0.1388 -0.2824
 8416SOL    HW136710   0.664   0.431   2.437 -0.9732 -1.0251 -0.1117
 8416SOL    HW236711   0.793   0.445   2.499 -1.1726 -0.3191  2.4421
 8417SOL     OW36712   4.040   3.152  17.197  0.3915 -0.0544 -0.1903
 8417SOL    HW136713   3.982   3.226  17.183  0.9850  0.7346  1.5183
 8417SOL    HW236714   4.072   3.138  17.108  0.9065  0.6632 -0.1147
 8418SOL     OW36715   0.306   2.249  11.370  0.5248  0.1231 -0.3183
 8418SOL    HW136716   0.358   2.266  11.291  0.3653 -1.0482 -0.6923
 8418SOL    HW236717   0.216   2.254  11.338 -0.2301 -1.1249  1.5942
 8419SOL     OW36718   3.711   1.085   8.819  0.0816  0.2321  0.1561
 8419SOL    HW136719   3.796   1.125   8.837 -0.4685  1.5590 -0.1810
 8419SOL    HW236720   3.702   1.035   8.900 -1.0017 -0.3024 -0.2903
 8420SOL     OW36721   0.366   1.883   5.082 -0.6867 -0.0366 -0.3745
 8420SOL    HW136722   0.284   1.882   5.033  0.8034 -2.0451 -2.8344
 8420SOL    HW236723   0.341   1.912   5.170  2.9548  3.0819 -0.3850
 8421SOL     OW36724   2.435   1.010  15.927  0.0790  0.0423  0.0898
 8421SOL    HW136725   2.392   1.091  15.899  2.1339  1.8571  2.1612
 8421SOL    HW236726   2.364   0.946  15.934 -0.5929  0.7284 -0.3395
 8422SOL     OW36727   2.999   2.008   4.953 -0.4044  0.1393  0.6375
 8422SOL    HW136728   3.077   1.956   4.975 -1.1332 -1.4632 -0.5434
 8422SOL    HW236729   3.033   2.051   4.874  0.2471 -2.5341 -0.5544
 8423SOL     OW36730   3.961   4.254   8.394 -0.2048  0.3631  0.3694
 8423SOL    HW136731   3.940   4.200   8.470  0.5457 -0.9786 -0.3885
 8423SOL    HW236732   3.939   4.338   8.436 -2.1643  0.2513 -0.4143
 8424SOL     OW36733   4.035   1.626   3.863 -0.2445  0.2928  0.0619
 8424SOL    HW136734   3.958   1.575   3.888  0.7406 -1.1434  0.2044
 8424SOL    HW236735   4.046   1.600   3.771 -0.4854 -0.2385  0.1840
 8425SOL     OW36736   1.896   4.231   8.512  0.5158  0.2849  0.3928
 8425SOL    HW136737   1.856   4.146   8.498 -2.4654  1.8735 -0.7950
 8425SOL    HW236738   1.867   4.276   8.433 -0.3321 -0.4506  0.2928
 8426SOL     OW36739   3.612   1.596   7.959 -0.3569 -0.2928  0.0617
 8426SOL    HW136740   3.539   1.575   7.901  0.0911  2.1010 -1.3857
 8426SOL    HW236741   3.614   1.526   8.024  3.3978  0.7784  1.0807
 8427SOL     OW36742   3.847   1.777  17.580  0.5017  0.4371 -0.9050
 8427SOL    HW136743   3.793   1.781  17.501 -0.7746  0.7529 -0.0117
 8427SOL    HW236744   3.843   1.871  17.596 -1.9736 -0.0037  1.1246
 8428SOL     OW36745   4.545   1.778  16.104  0.6270 -0.0001 -0.2846
 8428SOL    HW136746   4.580   1.864  16.079 -1.6144  1.2232  0.7937
 8428SOL    HW236747   4.494   1.807  16.179  0.9913  2.7037 -1.0709
 8429SOL     OW36748   2.323   0.082   2.012 -0.4007 -0.4807 -0.3552
 8429SOL    HW136749   2.337   4.711   2.009  2.4228 -0.0709  0.1789
 8429SOL    HW236750   2.311   0.100   1.919 -0.8067  0.1293 -0.1798
 8430SOL     OW36751   4.407   0.502  11.631  0.2306  0.0129 -0.3008
 8430SOL    HW136752   4.463   0.428  11.656  1.8092  1.3370  0.1479
 8430SOL    HW236753   4.318   0.470  11.615  0.4807  0.3663 -2.3940
 8431SOL     OW36754   1.587   2.579   4.915 -0.5283  0.2262  0.1810
 8431SOL    HW136755   1.579   2.487   4.892 -2.0221  0.6090 -0.8078
 8431SOL    HW236756   1.523   2.622   4.858 -0.9304  1.9080  1.8843
 8432SOL     OW36757   2.851   0.615   2.502  0.6121 -0.2907 -0.0208
 8432SOL    HW136758   2.942   0.607   2.475  0.4873  1.8658 -1.0187
 8432SOL    HW236759   2.802   0.551   2.450 -1.8988  0.9209  0.8559
 8433SOL     OW36760   1.610   3.361   3.780  0.2885  0.1059  0.7182
 8433SOL    HW136761   1.625   3.328   3.868 -1.1224  2.3911  1.8088
 8433SOL    HW236762   1.700   3.376   3.751 -0.2976  1.5537 -0.3378
 8434SOL     OW36763   0.677   4.204   8.858 -0.3336  0.2320 -0.1350
 8434SOL    HW136764   0.638   4.286   8.889 -0.4244  0.1790 -0.1119
 8434SOL    HW236765   0.661   4.139   8.925  0.5400  1.1797  1.0010
 8435SOL     OW36766   1.333   3.353   9.483  0.0106  0.7083 -0.2682
 8435SOL    HW136767   1.257   3.346   9.425 -0.3606  0.4917  0.2547
 8435SOL    HW236768   1.402   3.320   9.426  0.3079 -0.2752  0.6728
 8436SOL     OW36769   0.997   2.721   9.706  0.2261  0.1667 -0.0320
 8436SOL    HW136770   1.070   2.781   9.722 -0.9535  1.2324  1.2881
 8436SOL    HW236771   0.930   2.760   9.650 -1.1063  0.2229  1.6321
 8437SOL     OW36772   2.527   4.467   5.112 -0.3967 -0.0176 -0.3618
 8437SOL    HW136773   2.522   4.375   5.135 -1.3085  1.3198  4.7127
 8437SOL    HW236774   2.623   4.475   5.110 -0.3317 -0.6516  0.2925
 8438SOL     OW36775   1.116   1.806   7.013 -0.2515  0.3729  0.3068
 8438SOL    HW136776   1.058   1.744   7.056  0.0193 -0.6513 -0.7904
 8438SOL    HW236777   1.060   1.842   6.945 -0.5679  0.7627  0.7755
 8439SOL     OW36778   3.756   0.355  14.367  0.3133 -0.1466  0.3482
 8439SOL    HW136779   3.769   0.449  14.371 -1.7964  0.1422  0.4542
 8439SOL    HW236780   3.749   0.345  14.462 -3.3673 -1.1701 -0.0407
 8440SOL     OW36781   2.699   3.000   2.245 -0.1618  0.1566  1.2614
 8440SOL    HW136782   2.771   2.949   2.282 -0.1763  0.0647  1.1655
 8440SOL    HW236783   2.665   2.923   2.200 -1.8596  0.9272  1.2578
 8441SOL     OW36784   4.647   2.839  12.255  0.1087 -0.2808 -0.0145
 8441SOL    HW136785   4.652   2.858  12.161  0.3534  0.3519  0.1278
 8441SOL    HW236786   4.714   2.772  12.269 -0.0144 -0.3680  0.1658
 8442SOL     OW36787   4.059   2.796  15.778  0.0171  0.3020  0.5678
 8442SOL    HW136788   4.058   2.886  15.809 -1.8487  0.6567 -0.4927
 8442SOL    HW236789   4.060   2.813  15.684 -2.4351  0.4757  0.5621
 8443SOL     OW36790   4.346   3.963   3.332  0.4864  0.2386  0.4539
 8443SOL    HW136791   4.279   3.911   3.376  0.2369  0.4334  0.3009
 8443SOL    HW236792   4.315   4.053   3.347 -0.9850 -0.0382 -0.9535
 8444SOL     OW36793   0.446   4.355   3.658 -0.6910  0.0491  0.6707
 8444SOL    HW136794   0.528   4.314   3.687 -0.7258 -1.1253 -0.8539
 8444SOL    HW236795   0.391   4.338   3.735 -0.7031 -1.3969  0.3471
 8445SOL     OW36796   3.849   0.741   4.154 -1.2590  0.6415  0.0237
 8445SOL    HW136797   3.882   0.827   4.126  0.7236 -0.4225 -0.9447
 8445SOL    HW236798   3.937   0.704   4.165 -0.7701  2.0068  0.7243
 8446SOL     OW36799   4.199   2.232   1.112  0.0388 -0.0295 -0.0842
 8446SOL    HW136800   4.172   2.147   1.145  1.4132  0.2558  1.7814
 8446SOL    HW236801   4.125   2.277   1.151  0.0882 -0.7249  0.7978
 8447SOL     OW36802   4.486   0.491  16.814  0.0139  0.2483 -0.3579
 8447SOL    HW136803   4.401   0.461  16.847  0.0522  1.4272  0.8403
 8447SOL    HW236804   4.518   0.528  16.897  2.2869  0.9237 -1.5321
 8448SOL     OW36805   1.711   0.814   4.836 -0.0303 -0.5948 -0.6271
 8448SOL    HW136806   1.714   0.896   4.885  1.0436 -0.4962 -0.8592
 8448SOL    HW236807   1.651   0.767   4.894  0.6025 -0.2047  0.3359
 8449SOL     OW36808   3.930   2.434   8.396 -0.4559 -0.1656 -0.1294
 8449SOL    HW136809   3.838   2.409   8.390 -0.5727  0.0654  0.7276
 8449SOL    HW236810   3.952   2.411   8.486 -0.5842 -1.3727 -0.3939
 8450SOL     OW36811   0.564   1.386  17.385 -0.5241  0.3589  0.2922
 8450SOL    HW136812   0.596   1.400  17.474  1.6785 -0.1950 -0.4241
 8450SOL    HW236813   0.638   1.418  17.334 -0.4864  0.7575  0.5982
 8451SOL     OW36814   1.723   3.458   8.229  0.1041 -0.2666  0.7427
 8451SOL    HW136815   1.697   3.379   8.180  0.7888  0.4609 -0.7951
 8451SOL    HW236816   1.770   3.412   8.298 -0.3990  1.9608  2.5596
 8452SOL     OW36817   4.013   1.972   8.031  0.6720  0.7170  0.4997
 8452SOL    HW136818   4.077   2.042   8.047 -1.5273  2.7510  0.3197
 8452SOL    HW236819   4.071   1.896   8.038  0.6095  0.5452 -0.7534
 8453SOL     OW36820   2.285   2.178   2.466 -0.2095  0.0167 -0.0717
 8453SOL    HW136821   2.222   2.136   2.407  1.4902 -0.2137 -1.7413
 8453SOL    HW236822   2.250   2.162   2.553  0.2085  2.3946  0.5266
 8454SOL     OW36823   1.170   2.323   3.889  0.3532  0.7170 -0.4022
 8454SOL    HW136824   1.157   2.369   3.971  2.6450 -2.3526  1.6991
 8454SOL    HW236825   1.266   2.318   3.890  0.4529  3.6157  1.6631
 8455SOL     OW36826   0.850   3.468  15.742 -0.5969  0.1916 -0.4739
 8455SOL    HW136827   0.919   3.425  15.793 -0.0004  1.4498 -0.2260
 8455SOL    HW236828   0.880   3.456  15.652 -0.0786 -2.7443  0.0931
 8456SOL     OW36829   3.768   0.060   9.472 -0.8949  0.1136 -0.7241
 8456SOL    HW136830   3.752   4.693   9.449 -1.9595 -0.0125  0.5217
 8456SOL    HW236831   3.686   0.088   9.513  0.1421  1.3087  0.5522
 8457SOL     OW36832   1.024   4.053   7.097  0.6087  0.1251  0.1846
 8457SOL    HW136833   1.094   3.988   7.085  1.2020  0.9437 -0.7830
 8457SOL    HW236834   1.027   4.060   7.192 -1.5460 -3.1163  0.5069
 8458SOL     OW36835   0.968   1.091  11.041 -0.7722 -0.0274 -0.1313
 8458SOL    HW136836   0.953   1.181  11.012  0.2192 -0.0217 -0.6623
 8458SOL    HW236837   1.022   1.068  10.965  1.5613  1.2807  1.1045
 8459SOL     OW36838   0.468   1.345   2.934 -0.4020  0.3144 -0.0940
 8459SOL    HW136839   0.493   1.421   2.882  3.7304  0.9892  2.9238
 8459SOL    HW236840   0.545   1.298   2.903 -1.2579  0.3380 -2.2094
 8460SOL     OW36841   2.750   0.422   3.588  0.3905  0.0382 -0.3313
 8460SOL    HW136842   2.746   0.351   3.523  0.7471 -2.0879  1.9842
 8460SOL    HW236843   2.828   0.466   3.553  1.2654 -0.7320  0.6324
 8461SOL     OW36844   1.118   2.786   4.233 -0.6157  0.0576  0.3626
 8461SOL    HW136845   1.041   2.774   4.289 -1.9514 -1.1597 -1.7332
 8461SOL    HW236846   1.083   2.769   4.146 -1.3490 -1.6173  0.9826
 8462SOL     OW36847   3.304   4.026   7.347 -0.1859  0.5561  0.3465
 8462SOL    HW136848   3.383   4.012   7.399  1.8317  1.9651 -2.3158
 8462SOL    HW236849   3.243   4.070   7.406 -0.6043  0.6488 -0.1566
 8463SOL     OW36850   3.997   0.209  11.697 -0.7914  0.0313 -0.6625
 8463SOL    HW136851   3.932   0.193  11.629 -2.0339  0.1587  0.4999
 8463SOL    HW236852   3.943   0.234  11.772  0.9832  1.2900  0.2075
 8464SOL     OW36853   3.127   4.598  11.613 -0.0938 -0.4289 -0.5539
 8464SOL    HW136854   3.171   4.535  11.556  1.4301  0.7388 -0.6640
 8464SOL    HW236855   3.199   4.640  11.660 -0.6285  1.7207 -1.6761
 8465SOL     OW36856   4.659   0.029  17.449  0.4648  0.2058  0.2575
 8465SOL    HW136857   0.002   4.692  17.419  0.7035  0.0778  1.0620
 8465SOL    HW236858   4.688   0.117  17.424  1.3435  0.0796  0.8600
 8466SOL     OW36859   2.989   0.261   8.349  0.4377  0.3093 -0.5922
 8466SOL    HW136860   2.934   0.334   8.319  1.0935  1.2329  0.4438
 8466SOL    HW236861   3.063   0.257   8.287 -0.0685 -5.2136 -0.7920
 8467SOL     OW36862   1.805   2.134   8.342  0.2070  0.4836  0.7055
 8467SOL    HW136863   1.803   2.041   8.318  1.9039  0.7417 -0.4320
 8467SOL    HW236864   1.863   2.165   8.272  0.2208  1.8342  1.3096
 8468SOL     OW36865   2.672   1.292   8.068 -0.4680 -0.1822  0.6687
 8468SOL    HW136866   2.754   1.244   8.059 -1.0428 -1.1872  0.7736
 8468SOL    HW236867   2.688   1.348   8.144  1.1481 -0.6820  0.6976
 8469SOL     OW36868   4.201   2.639   6.727 -0.2709  0.1713 -0.0752
 8469SOL    HW136869   4.284   2.678   6.701 -0.3698  1.3401  1.3916
 8469SOL    HW236870   4.220   2.546   6.714  3.8712  0.7423  2.1563
 8470SOL     OW36871   1.487   4.667   8.216  0.3371 -0.0123 -0.4521
 8470SOL    HW136872   1.492   4.572   8.222  0.4910  0.0932  0.9931
 8470SOL    HW236873   1.439   4.667   8.132  1.1061 -0.4757 -0.8842
 8471SOL     OW36874   0.471   3.714   2.492  0.0444  0.5993 -0.1454
 8471SOL    HW136875   0.480   3.620   2.474 -0.2764  0.4747  0.3577
 8471SOL    HW236876   0.547   3.727   2.549 -1.4108  1.4687  1.5657
 8472SOL     OW36877   2.569   4.417   2.415  0.2428 -0.4141  0.0089
 8472SOL    HW136878   2.583   4.372   2.332 -0.0299 -0.1273 -0.1932
 8472SOL    HW236879   2.653   4.414   2.461 -0.2636  0.8967  1.0200
 8473SOL     OW36880   0.481   1.328   4.859 -0.5658  0.5883  0.1370
 8473SOL    HW136881   0.391   1.342   4.887 -0.0400 -3.2650  3.7513
 8473SOL    HW236882   0.522   1.376   4.931 -0.5160 -0.2250  0.6557
 8474SOL     OW36883   1.942   0.139   7.372  0.0298 -0.3609  0.5911
 8474SOL    HW136884   1.851   0.133   7.401 -0.0403 -1.2761  0.1983
 8474SOL    HW236885   1.979   0.052   7.388  2.1336  0.0163 -2.2845
 8475SOL     OW36886   4.048   2.509  12.367  0.3456  0.0973 -0.3664
 8475SOL    HW136887   3.960   2.543  12.379 -0.0962 -1.3221  0.4258
 8475SOL    HW236888   4.061   2.501  12.273  1.1908 -1.1041 -0.1546
 8476SOL     OW36889   0.715   2.295  17.340  0.5180  0.2089  0.5690
 8476SOL    HW136890   0.728   2.230  17.409  2.5026 -0.7470 -0.6781
 8476SOL    HW236891   0.776   2.265  17.272 -0.5424  0.4955 -0.5074
 8477SOL     OW36892   1.237   3.848   5.295  0.2127 -0.0286 -0.2653
 8477SOL    HW136893   1.313   3.793   5.275 -0.1297 -0.6696  0.1906
 8477SOL    HW236894   1.207   3.872   5.208  0.0694 -0.2957 -0.2902
 8478SOL     OW36895   2.778   3.044   1.129  0.0663 -0.2080 -0.3357
 8478SOL    HW136896   2.752   3.005   1.213 -3.7411 -1.1984 -1.9763
 8478SOL    HW236897   2.869   3.073   1.135  0.7297 -2.4749  0.6959
 8479SOL     OW36898   2.244   1.702   8.178 -0.0302  0.0251  0.2721
 8479SOL    HW136899   2.194   1.621   8.176  1.2421 -0.7762  1.3176
 8479SOL    HW236900   2.185   1.755   8.231  0.2799  1.2755 -0.6066
 8480SOL     OW36901   4.026   2.462   1.662 -0.0124  0.3482  0.1155
 8480SOL    HW136902   4.047   2.522   1.734 -1.2852 -0.6620  1.3321
 8480SOL    HW236903   3.944   2.502   1.634  0.2445  0.8079  0.0049
 8481SOL     OW36904   0.182   0.857   6.717  0.2714  0.1318 -0.6484
 8481SOL    HW136905   0.244   0.811   6.660  0.7758  0.3411 -0.2667
 8481SOL    HW236906   0.238   0.909   6.774 -1.5301  1.9554 -0.5434
 8482SOL     OW36907   2.866   2.829   4.283  0.0459  0.1034 -0.1667
 8482SOL    HW136908   2.873   2.894   4.353  0.6996  1.3720 -1.4045
 8482SOL    HW236909   2.773   2.834   4.258 -0.3662  0.3852  1.4253
 8483SOL     OW36910   2.158   1.034   2.552 -0.7443 -0.1283 -0.1052
 8483SOL    HW136911   2.130   1.122   2.577  3.7165  1.3006 -0.2098
 8483SOL    HW236912   2.122   0.974   2.617 -1.4112  1.4413  0.9688
 8484SOL     OW36913   3.571   3.033   7.203  0.1237 -0.0084  0.0791
 8484SOL    HW136914   3.589   2.939   7.204  1.5610  0.2673  0.7448
 8484SOL    HW236915   3.587   3.062   7.293 -2.3804 -0.5666  0.7012
 8485SOL     OW36916   3.022   3.421  15.869 -0.1718  0.4852  0.2889
 8485SOL    HW136917   3.068   3.502  15.845  0.8263 -0.0460  0.3763
 8485SOL    HW236918   3.002   3.386  15.782 -4.6465 -1.0767  1.9584
 8486SOL     OW36919   0.465   3.431   1.830  0.2066 -0.0755 -1.1071
 8486SOL    HW136920   0.437   3.483   1.755  1.5253  0.5940 -1.1465
 8486SOL    HW236921   0.386   3.393   1.868 -0.5568 -0.7714 -3.3655
 8487SOL     OW36922   1.743   1.719   4.808 -0.1151 -0.0397 -0.3069
 8487SOL    HW136923   1.678   1.748   4.871 -0.8006 -1.3614 -0.3980
 8487SOL    HW236924   1.690   1.692   4.733 -0.3897  0.3968 -0.2679
 8488SOL     OW36925   3.923   1.602  16.181 -0.6376  0.3124 -0.4951
 8488SOL    HW136926   3.910   1.691  16.213  0.6187  0.5026 -0.5333
 8488SOL    HW236927   3.963   1.564  16.258 -0.1940 -0.2762 -1.0153
 8489SOL     OW36928   2.010   4.283   8.998 -0.6298  0.2119  0.0500
 8489SOL    HW136929   1.999   4.233   8.918  5.6144 -0.0187 -0.6000
 8489SOL    HW236930   1.939   4.244   9.050 -0.5934 -0.6404 -0.5479
 8490SOL     OW36931   2.052   3.439   9.644  0.3544  0.0752  0.5426
 8490SOL    HW136932   1.988   3.495   9.689  0.0162  0.3917 -0.3409
 8490SOL    HW236933   2.034   3.349   9.669 -0.8608 -0.1878 -1.2994
 8491SOL     OW36934   1.732   2.200   5.763 -0.5795 -0.3294 -0.1632
 8491SOL    HW136935   1.695   2.267   5.705 -0.1832 -0.5320 -0.6576
 8491SOL    HW236936   1.808   2.166   5.714 -0.7760  1.0781 -1.4710
 8492SOL     OW36937   1.755   1.369   9.491  0.1560  0.0738 -0.3547
 8492SOL    HW136938   1.761   1.352   9.397  0.6209  0.1253 -0.3366
 8492SOL    HW236939   1.748   1.283   9.530  0.3398  0.7506  1.1514
 8493SOL     OW36940   1.394   1.078  12.012 -0.0490  0.7151  0.1219
 8493SOL    HW136941   1.416   1.000  11.962 -1.5712 -0.6543  1.5850
 8493SOL    HW236942   1.341   1.131  11.952 -1.7468 -0.0689  0.9383
 8494SOL     OW36943   3.530   3.987   8.891  0.1376  0.2593 -0.7916
 8494SOL    HW136944   3.601   3.923   8.900 -0.0731  0.0342 -0.7284
 8494SOL    HW236945   3.485   3.980   8.975  1.2851 -0.2094 -0.2036
 8495SOL     OW36946   4.059   3.691   0.084 -0.3324  0.0571 -0.5490
 8495SOL    HW136947   4.035   3.633   0.012 -1.7245 -0.5425  0.4220
 8495SOL    HW236948   4.032   3.771   0.039  0.2235  0.8199  0.4814
 8496SOL     OW36949   4.385   0.149   3.009 -0.0173  0.2213 -0.1564
 8496SOL    HW136950   4.366   0.075   3.066  1.6276  0.8193  1.1791
 8496SOL    HW236951   4.325   0.133   2.936 -0.5336  2.0651 -0.1139
 8497SOL     OW36952   4.286   3.149   3.279 -0.7939  0.2490  0.1905
 8497SOL    HW136953   4.371   3.112   3.302 -0.1652  1.8097  0.3687
 8497SOL    HW236954   4.282   3.214   3.349  1.5159 -0.6785  1.1755
 8498SOL     OW36955   3.765   4.576  16.995  0.0750 -0.4572  0.6216
 8498SOL    HW136956   3.704   4.646  16.973  0.6416  0.1197  0.8760
 8498SOL    HW236957   3.784   4.543  16.907  0.7972  0.9773  0.2280
 8499SOL     OW36958   3.849   0.377   5.896 -0.1640 -0.7463  0.0457
 8499SOL    HW136959   3.914   0.403   5.961 -0.2459  0.1351 -0.2290
 8499SOL    HW236960   3.870   0.439   5.826 -0.6742  1.7451  2.0777
 8500SOL     OW36961   1.395   1.137   1.653 -0.1633 -0.2191 -0.3548
 8500SOL    HW136962   1.355   1.107   1.571 -2.9998 -0.4985  1.1325
 8500SOL    HW236963   1.365   1.070   1.715 -0.5455  0.8616  0.6335
 8501SOL     OW36964   0.898   3.758   6.185 -0.1295  0.3458 -0.6107
 8501SOL    HW136965   0.939   3.739   6.269 -2.4951 -0.0690  0.4458
 8501SOL    HW236966   0.975   3.759   6.128  1.0360  2.8333  1.0553
 8502SOL     OW36967   2.415   2.596   5.324  0.1845  0.5357 -0.5613
 8502SOL    HW136968   2.375   2.557   5.246 -2.7079  0.2303  1.0570
 8502SOL    HW236969   2.442   2.682   5.292  1.0746 -0.7414 -3.2428
 8503SOL     OW36970   3.984   0.644   6.116 -0.0938 -0.0703  0.3943
 8503SOL    HW136971   3.908   0.631   6.174  0.2289 -1.2970  0.5455
 8503SOL    HW236972   3.992   0.555   6.081 -0.4133  0.7446 -1.6848
 8504SOL     OW36973   1.927   3.902   4.140  0.1695  0.4567  0.0179
 8504SOL    HW136974   1.936   3.809   4.161  1.3024  0.7244  0.7362
 8504SOL    HW236975   1.996   3.897   4.073  0.6145 -2.3643  0.6722
 8505SOL     OW36976   0.618   2.333   5.959  0.0048 -0.3647 -0.1279
 8505SOL    HW136977   0.658   2.264   5.907 -0.1552  1.1054 -2.2018
 8505SOL    HW236978   0.644   2.306   6.048  1.3816  1.7184  0.1054
 8506SOL     OW36979   3.398   4.311   0.841 -0.5047  0.5595 -0.0909
 8506SOL    HW136980   3.437   4.271   0.919 -0.0733 -1.9096 -1.5989
 8506SOL    HW236981   3.326   4.358   0.883 -0.5429  1.8876 -1.6421
 8507SOL     OW36982   4.452   2.821   6.351  0.0588 -0.0882  0.0886
 8507SOL    HW136983   4.423   2.911   6.335  1.5842  0.2172 -0.8962
 8507SOL    HW236984   4.548   2.825   6.352  0.1100 -1.5617  0.6924
 8508SOL     OW36985   0.628   4.197   5.157  0.1142  0.2620 -0.0141
 8508SOL    HW136986   0.585   4.210   5.073 -0.0892  1.7113  0.3148
 8508SOL    HW236987   0.578   4.262   5.207  0.9142 -0.5923  1.9209
 8509SOL     OW36988   1.202   1.173  14.931  0.4584 -0.1632 -0.0244
 8509SOL    HW136989   1.114   1.190  14.963  0.5074 -0.2178  0.1373
 8509SOL    HW236990   1.182   1.113  14.858  1.7393 -0.4781 -0.1117
 8510SOL     OW36991   1.154   4.691  11.713  0.6864  0.5418  0.2823
 8510SOL    HW136992   1.069   0.009  11.728  0.5228  0.0847  0.6309
 8510SOL    HW236993   1.211   0.044  11.705 -0.6259  1.2632 -1.9170
 8511SOL     OW36994   3.192   2.234   5.670 -0.0748 -0.7742  0.6469
 8511SOL    HW136995   3.216   2.238   5.578 -3.0248  0.6243 -0.0510
 8511SOL    HW236996   3.248   2.166   5.708  1.7046  0.1139 -0.4194
 8512SOL     OW36997   3.314   3.933   5.476  0.2973 -0.3754  0.6392
 8512SOL    HW136998   3.366   4.009   5.451 -2.5184  1.4249  0.2237
 8512SOL    HW236999   3.337   3.875   5.404  0.2332  0.3262  0.0649
 8513SOL     OW37000   4.135   0.880   8.778 -0.2391 -0.2550 -0.2282
 8513SOL    HW137001   4.087   0.829   8.713 -1.8154  1.6130 -0.5096
 8513SOL    HW237002   4.167   0.812   8.838  0.9837  2.4470  2.1875
 8514SOL     OW37003   0.161   3.261   4.921  0.7485 -0.7417 -0.9039
 8514SOL    HW137004   0.156   3.349   4.882  3.0480 -0.7733 -1.2727
 8514SOL    HW237005   0.081   3.225   4.884  1.0634 -1.3675 -0.9857
 8515SOL     OW37006   2.244   2.654   9.226 -0.3213  0.1448  0.0723
 8515SOL    HW137007   2.201   2.730   9.186 -1.9299 -1.3697 -1.0670
 8515SOL    HW237008   2.275   2.685   9.311  0.0486 -0.3991  0.1346
 8516SOL     OW37009   1.559   2.240  11.215  0.1631  0.5186  0.0834
 8516SOL    HW137010   1.486   2.250  11.276  0.3492 -0.6724  0.4923
 8516SOL    HW237011   1.581   2.333  11.205 -0.6576  0.5118 -1.8206
 8517SOL     OW37012   2.727   1.496   4.254  0.1468  0.0158 -0.0595
 8517SOL    HW137013   2.722   1.590   4.270 -1.1079  0.1062 -0.8960
 8517SOL    HW237014   2.645   1.467   4.295 -0.2716  0.7753 -0.3533
 8518SOL     OW37015   3.554   3.506  12.672 -0.7432  0.1295 -0.8144
 8518SOL    HW137016   3.460   3.519  12.665 -0.8824  0.2758  1.4026
 8518SOL    HW237017   3.574   3.599  12.666 -0.3705 -0.0421 -2.2863
 8519SOL     OW37018   2.744   0.537  10.764  0.3718 -0.2411 -0.2268
 8519SOL    HW137019   2.658   0.576  10.783  0.3662 -0.6677  0.5981
 8519SOL    HW237020   2.715   0.447  10.773 -1.3809  0.2346 -0.9654
 8520SOL     OW37021   2.785   3.228   6.311 -0.6734 -0.6156 -0.1989
 8520SOL    HW137022   2.876   3.233   6.283 -0.4656 -4.0869 -0.0622
 8520SOL    HW237023   2.748   3.237   6.223 -0.9155 -0.9257 -0.1290
 8521SOL     OW37024   0.702   0.497   7.073 -0.1009  0.4108  0.1068
 8521SOL    HW137025   0.687   0.444   6.994 -1.1467 -1.2789  1.4208
 8521SOL    HW237026   0.716   0.582   7.031  4.2576 -0.1049  0.5983
 8522SOL     OW37027   2.658   0.491   7.352  0.0101 -0.2527  0.5455
 8522SOL    HW137028   2.684   0.422   7.292 -0.1492  1.2282 -1.2404
 8522SOL    HW237029   2.727   0.553   7.329 -0.0481 -0.1414  0.6633
 8523SOL     OW37030   3.301   3.911   7.970 -0.4012  0.4465  0.5749
 8523SOL    HW137031   3.373   3.857   7.937 -1.7175 -0.0490 -1.4764
 8523SOL    HW237032   3.322   3.920   8.063 -3.7223  0.7248  1.2810
 8524SOL     OW37033   2.237   0.368  16.413 -0.6713  0.1428 -0.2431
 8524SOL    HW137034   2.279   0.412  16.339 -0.0998 -0.8385 -0.5088
 8524SOL    HW237035   2.301   0.340  16.479  0.4004 -0.0433 -1.3586
 8525SOL     OW37036   3.725   1.819   5.859  0.1632  0.0501  0.3900
 8525SOL    HW137037   3.640   1.839   5.898  0.0821 -1.1036  0.7939
 8525SOL    HW237038   3.694   1.801   5.771 -0.8215  0.2457  0.7009
 8526SOL     OW37039   3.643   0.007  15.651 -0.0269  0.0769 -0.5109
 8526SOL    HW137040   3.657   4.680  15.730 -0.2989  0.6555 -0.0853
 8526SOL    HW237041   3.732   0.041  15.638  0.4372 -0.5293  1.0749
 8527SOL     OW37042   1.581   0.361   0.364  0.4667  0.5966  0.1691
 8527SOL    HW137043   1.572   0.287   0.423 -1.7517 -0.1561 -1.1084
 8527SOL    HW237044   1.654   0.330   0.310 -0.2130  1.5495 -1.2969
 8528SOL     OW37045   4.662   0.687  10.634  0.5659  0.1488 -0.5067
 8528SOL    HW137046   0.009   0.744  10.664  1.0724  0.9902 -3.3612
 8528SOL    HW237047   4.598   0.698  10.705  1.9717 -1.0419  0.9354
 8529SOL     OW37048   3.175   2.842  15.340 -0.2096 -0.1556 -0.3374
 8529SOL    HW137049   3.106   2.855  15.275 -0.0901  2.0812 -0.0110
 8529SOL    HW237050   3.167   2.923  15.390  1.4658 -0.4296  0.3805
 8530SOL     OW37051   1.776   3.331   5.577 -0.0971 -0.0061 -0.1037
 8530SOL    HW137052   1.754   3.322   5.484  0.9181  1.8357 -0.5163
 8530SOL    HW237053   1.721   3.406   5.601  0.8883  0.9792 -0.9126
 8531SOL     OW37054   3.005   3.076   8.259  0.3187  0.2754  0.5682
 8531SOL    HW137055   2.959   2.994   8.276 -0.7954  0.6092 -0.8781
 8531SOL    HW237056   3.094   3.047   8.276  0.1933  0.0761  0.9002
 8532SOL     OW37057   3.179   0.667   6.804  0.2612 -0.4586  0.1489
 8532SOL    HW137058   3.175   0.713   6.720  2.9674 -0.6452 -0.0804
 8532SOL    HW237059   3.254   0.704   6.851 -0.8088  1.1879  0.5494
 8533SOL     OW37060   3.872   3.225   8.498  0.4218  0.5203  0.1962
 8533SOL    HW137061   3.907   3.136   8.489  1.6081  1.0152 -0.1518
 8533SOL    HW237062   3.840   3.211   8.587  0.3236 -0.9232 -0.0777
 8534SOL     OW37063   0.227   0.726   0.557 -0.1617  0.5606  0.4286
 8534SOL    HW137064   0.261   0.765   0.477 -1.0018 -3.9570 -2.1356
 8534SOL    HW237065   0.276   0.644   0.564 -2.2882 -0.6251  1.4169
 8535SOL     OW37066   0.198   3.067   0.474  0.4456 -0.3796  0.7111
 8535SOL    HW137067   0.222   2.985   0.431  3.0053  1.3353 -1.1043
 8535SOL    HW237068   0.122   3.087   0.419 -1.2382 -1.2756  2.6822
 8536SOL     OW37069   3.003   0.085  11.471  0.3065  0.5755  0.1531
 8536SOL    HW137070   3.043   0.013  11.519  0.4720  1.8066  1.8495
 8536SOL    HW237071   2.915   0.046  11.467  0.3884  0.2617  1.2430
 8537SOL     OW37072   3.951   3.881   3.812 -0.1602 -0.1154  0.1409
 8537SOL    HW137073   3.964   3.895   3.906 -0.6586 -0.7316  0.3016
 8537SOL    HW237074   4.001   3.800   3.795  2.6706  0.6698  4.6371
 8538SOL     OW37075   1.658   1.020   4.562 -0.1073  0.5093 -0.0545
 8538SOL    HW137076   1.684   1.031   4.653 -1.2198  0.3390  0.2849
 8538SOL    HW237077   1.580   0.970   4.584  0.4111  0.6276  2.0188
 8539SOL     OW37078   1.277   2.019  10.081 -0.1339 -0.0380  0.2377
 8539SOL    HW137079   1.340   2.018  10.153 -0.3034 -1.8391  0.3599
 8539SOL    HW237080   1.207   1.969  10.121  1.2725 -0.9446  1.5633
 8540SOL     OW37081   3.305   4.554  15.304 -0.0448 -0.3935 -0.3651
 8540SOL    HW137082   3.398   4.576  15.310 -0.3569  1.3706 -2.4222
 8540SOL    HW237083   3.276   4.568  15.394  1.0453  1.3111 -0.2930
 8541SOL     OW37084   2.911   1.622   8.215 -0.4420  0.4328 -0.2549
 8541SOL    HW137085   2.834   1.568   8.232  0.3969 -0.5128  0.6194
 8541SOL    HW237086   2.930   1.622   8.309 -1.0679  1.4182 -0.1329
 8542SOL     OW37087   2.385   1.214   5.242  0.5404 -0.8458  0.4649
 8542SOL    HW137088   2.402   1.244   5.331 -1.2940 -1.0171  0.8692
 8542SOL    HW237089   2.474   1.187   5.217 -0.8117 -3.7319 -1.1575
 8543SOL     OW37090   2.837   1.416  17.493  0.4710 -0.4402 -0.7549
 8543SOL    HW137091   2.932   1.431  17.498  0.5493 -1.1098 -0.2108
 8543SOL    HW237092   2.804   1.506  17.496 -0.7040 -0.8172 -3.1348
 8544SOL     OW37093   0.159   3.189   7.723  0.6212 -0.3695  0.2144
 8544SOL    HW137094   0.065   3.203   7.737  0.7325 -0.1820  0.7701
 8544SOL    HW237095   0.200   3.230   7.799  0.5307  0.0891  0.0157
 8545SOL     OW37096   0.520   1.982  14.113  0.1632  0.2983 -0.0329
 8545SOL    HW137097   0.612   1.969  14.087 -0.0998 -1.9944  0.2371
 8545SOL    HW237098   0.511   2.076  14.127  1.1346  0.3593  0.2318
 8546SOL     OW37099   0.102   2.061   6.766 -0.3949  0.5059 -0.3233
 8546SOL    HW137100   0.130   2.129   6.829  0.1031 -1.7882  1.9411
 8546SOL    HW237101   0.075   1.990   6.824 -0.1787  1.0254  0.4226
 8547SOL     OW37102   3.332   2.794   1.066  0.0321 -0.1199  0.1111
 8547SOL    HW137103   3.342   2.760   1.155  1.3433 -2.8211 -1.0332
 8547SOL    HW237104   3.387   2.871   1.080 -0.7092  0.2952  0.7019
 8548SOL     OW37105   0.545   2.012  15.101 -0.3827  0.6224 -0.6474
 8548SOL    HW137106   0.565   1.957  15.025  0.0780 -1.3440  0.8749
 8548SOL    HW237107   0.617   1.993  15.162 -2.7617 -1.5678  1.4787
 8549SOL     OW37108   3.923   1.826   2.143  0.6215  0.1439 -0.6936
 8549SOL    HW137109   3.939   1.918   2.123 -2.0810  0.6343 -0.6501
 8549SOL    HW237110   3.838   1.815   2.101  0.0952 -0.1857  0.4459
 8550SOL     OW37111   3.957   4.645   0.879  0.4269 -0.1088 -0.4175
 8550SOL    HW137112   3.934   4.554   0.860 -2.6079  0.8595 -1.3888
 8550SOL    HW237113   3.875   4.676   0.917  0.6280  0.0953 -0.1517
 8551SOL     OW37114   0.201   4.287   9.254 -0.6976 -0.0333  0.3580
 8551SOL    HW137115   0.254   4.218   9.215  0.0592  0.8599 -0.1844
 8551SOL    HW237116   0.160   4.252   9.333  1.0538 -0.6852  0.9821
 8552SOL     OW37117   0.637   2.046  16.628  0.2375  0.2836 -0.3425
 8552SOL    HW137118   0.591   1.970  16.663  2.6996 -0.5528  1.0587
 8552SOL    HW237119   0.713   2.002  16.588  1.2361  2.2050 -0.5653
 8553SOL     OW37120   1.789   1.722   9.003  0.4728 -0.1494 -0.7291
 8553SOL    HW137121   1.720   1.757   8.946  0.0493 -1.1459 -0.8306
 8553SOL    HW237122   1.869   1.765   8.975  2.0332 -2.5756  0.0479
 8554SOL     OW37123   1.814   4.686   1.914  0.9231 -0.2474  0.2725
 8554SOL    HW137124   1.773   0.026   1.972 -2.2928 -1.4786 -0.6327
 8554SOL    HW237125   1.891   0.011   1.884 -1.1571  1.8705 -1.6257
 8555SOL     OW37126   0.169   2.826   4.452  0.4479 -0.0389 -0.9435
 8555SOL    HW137127   0.242   2.803   4.510  0.6252  0.4367 -0.9820
 8555SOL    HW237128   0.220   2.888   4.400  0.4722  1.5092  0.9405
 8556SOL     OW37129   2.117   1.670   6.289  0.3283  0.2563 -0.5476
 8556SOL    HW137130   2.185   1.650   6.224 -0.2966 -0.5189 -0.9643
 8556SOL    HW237131   2.139   1.598   6.347  3.5378  0.0594 -1.9951
 8557SOL     OW37132   0.178   4.689   7.273  0.4260  0.3557  0.5346
 8557SOL    HW137133   0.156   4.602   7.308 -2.9548  0.9516 -0.1756
 8557SOL    HW237134   0.271   4.669   7.257  0.6613  1.2079  0.8285
 8558SOL     OW37135   0.957   3.288  16.006 -0.3782 -0.1173  0.3229
 8558SOL    HW137136   1.012   3.323  16.077 -1.0321  0.6222  0.4696
 8558SOL    HW237137   1.021   3.252  15.945 -3.2148 -3.4543 -0.6446
 8559SOL     OW37138   3.532   3.968   0.773  0.4362  0.0103  0.6038
 8559SOL    HW137139   3.478   3.894   0.746 -0.7987  1.8314 -1.9331
 8559SOL    HW237140   3.586   3.933   0.844 -1.1816 -1.9090  0.9000
 8560SOL     OW37141   3.605   1.938  10.077  0.6823  0.4592 -0.1321
 8560SOL    HW137142   3.591   1.873  10.008 -0.2451 -0.8130  1.2483
 8560SOL    HW237143   3.665   2.001  10.038  1.9491 -0.9154 -0.3865
 8561SOL     OW37144   0.857   4.372   8.061 -0.0899 -0.5847 -0.2615
 8561SOL    HW137145   0.849   4.277   8.067 -2.0224 -0.4923 -1.5485
 8561SOL    HW237146   0.910   4.391   8.139  1.3841 -0.5036 -1.2807
 8562SOL     OW37147   3.754   0.063   7.045  0.1331  0.0345 -0.3801
 8562SOL    HW137148   3.719   0.013   6.972 -1.7214 -0.4773  0.8484
 8562SOL    HW237149   3.732   0.154   7.027 -1.3029 -0.0733  0.8156
 8563SOL     OW37150   4.385   3.900   4.650  0.1892  0.0150  0.5948
 8563SOL    HW137151   4.337   3.822   4.678 -0.3066 -0.4176 -1.4292
 8563SOL    HW237152   4.385   3.954   4.729  0.7225  0.6000  0.1912
 8564SOL     OW37153   2.201   0.258   7.664  0.0795 -0.8252  0.3572
 8564SOL    HW137154   2.253   0.261   7.744  0.5927 -1.5718  0.0521
 8564SOL    HW237155   2.177   0.350   7.658  0.4393 -0.6768  1.3401
 8565SOL     OW37156   2.291   2.474   3.634  0.3725  0.2137 -0.5205
 8565SOL    HW137157   2.340   2.398   3.601  0.0925 -0.1804 -0.0294
 8565SOL    HW237158   2.205   2.432   3.636  1.1585 -1.3605  0.1708
 8566SOL     OW37159   2.355   3.320   1.192 -0.2462 -0.4933 -0.3185
 8566SOL    HW137160   2.317   3.399   1.153  1.3489 -0.0282 -0.9346
 8566SOL    HW237161   2.407   3.364   1.260 -0.2583 -0.0714 -0.5861
 8567SOL     OW37162   0.102   1.920   4.362 -0.2212  0.5363 -0.1343
 8567SOL    HW137163   0.190   1.953   4.343  0.3660 -0.5448  0.6757
 8567SOL    HW237164   0.040   1.992   4.353 -0.9399 -0.1884 -0.9915
 8568SOL     OW37165   2.205   0.896   7.974  0.0549  0.0961 -0.4056
 8568SOL    HW137166   2.122   0.880   7.930  0.5555  1.5368 -1.8351
 8568SOL    HW237167   2.204   0.829   8.043  1.5867  0.0371 -0.4504
 8569SOL     OW37168   2.036   0.369  12.599  0.1280  0.2299  0.1399
 8569SOL    HW137169   2.112   0.422  12.576  1.0708 -0.7742  0.9836
 8569SOL    HW237170   2.065   0.319  12.675 -2.0624 -0.2486  0.6820
 8570SOL     OW37171   1.608   0.860  16.864 -0.7485 -0.0707  0.1628
 8570SOL    HW137172   1.518   0.866  16.897 -0.7905 -0.6792  0.1493
 8570SOL    HW237173   1.605   0.803  16.787 -0.1722 -1.7197  1.3577
 8571SOL     OW37174   1.482   3.417  17.035  0.0990 -0.2063 -0.3227
 8571SOL    HW137175   1.532   3.438  17.113 -0.6223  2.2218 -0.5207
 8571SOL    HW237176   1.396   3.444  17.067  1.0353  1.6474  0.5990
 8572SOL     OW37177   4.263   0.516   3.792 -0.1337  0.4153  0.3910
 8572SOL    HW137178   4.320   0.592   3.791  0.0411  0.2901  1.1476
 8572SOL    HW237179   4.276   0.485   3.702  1.4303 -0.3215  0.8829
 8573SOL     OW37180   1.889   0.242   8.775  0.0576 -0.0224 -0.2283
 8573SOL    HW137181   1.891   0.192   8.857 -2.1284  1.4272  0.7406
 8573SOL    HW237182   1.976   0.280   8.778  0.7127 -1.4369 -1.5845
 8574SOL     OW37183   3.200   1.362  14.069 -0.1066  0.4380 -0.2958
 8574SOL    HW137184   3.126   1.312  14.103  1.8694 -0.3385  2.8978
 8574SOL    HW237185   3.264   1.328  14.132 -0.5593 -0.7848 -0.4894
 8575SOL     OW37186   4.185   3.667   7.854  0.5239  0.6480 -0.6520
 8575SOL    HW137187   4.135   3.642   7.776 -2.8867  1.2210  1.3663
 8575SOL    HW237188   4.112   3.690   7.912  0.8841  1.3563 -0.4830
 8576SOL     OW37189   0.237   0.079   2.097 -0.1047 -0.2676  0.7623
 8576SOL    HW137190   0.231   0.021   2.173  0.0520 -1.7723 -0.3504
 8576SOL    HW237191   0.211   0.022   2.024  1.1950 -1.0364  0.9132
 8577SOL     OW37192   1.416   1.208   8.103  0.3387 -0.3020  0.0423
 8577SOL    HW137193   1.364   1.132   8.130  1.8588 -1.1799  0.5246
 8577SOL    HW237194   1.463   1.232   8.184  0.0701  0.6667 -0.0834
 8578SOL     OW37195   1.333   3.097   5.167 -0.0504 -0.3238 -0.2632
 8578SOL    HW137196   1.372   3.028   5.114  0.7990  1.4966 -1.9906
 8578SOL    HW237197   1.387   3.175   5.156  0.4797 -0.6433  0.0351
 8579SOL     OW37198   2.707   0.597   4.146 -0.7238 -0.0946 -0.1709
 8579SOL    HW137199   2.760   0.610   4.066  0.2269 -1.1584  0.2857
 8579SOL    HW237200   2.674   0.508   4.134 -2.8831  0.2369  3.3465
 8580SOL     OW37201   4.676   3.687   3.247  0.0113 -0.8217  0.5662
 8580SOL    HW137202   4.601   3.636   3.216  0.6510 -1.0881 -0.5463
 8580SOL    HW237203   4.699   3.749   3.177  0.4121 -0.9840  0.5585
 8581SOL     OW37204   3.806   2.345  14.403  0.0103 -0.1071  0.1315
 8581SOL    HW137205   3.868   2.414  14.427  2.3780 -1.7362 -1.3499
 8581SOL    HW237206   3.738   2.407  14.376  0.7509 -0.0867 -1.6175
 8582SOL     OW37207   0.773   1.074   7.280 -0.1128 -0.7147 -0.2514
 8582SOL    HW137208   0.729   1.136   7.338  1.1216 -0.0831  0.0215
 8582SOL    HW237209   0.727   0.992   7.298  0.3476 -1.0470 -0.5823
 8583SOL     OW37210   1.867   0.718   5.326  0.3291 -0.3297  0.5907
 8583SOL    HW137211   1.802   0.652   5.303  1.3641 -1.3167  0.5192
 8583SOL    HW237212   1.858   0.723   5.421 -1.8120 -0.6533  0.4094
 8584SOL     OW37213   4.231   1.033   3.331  0.3584  0.0644  0.1861
 8584SOL    HW137214   4.197   0.959   3.281 -0.2372  0.9219 -0.6823
 8584SOL    HW237215   4.280   0.978   3.392  2.5314  0.9705 -0.7195
 8585SOL     OW37216   0.384   4.724  15.090  0.1652  0.3668 -0.2113
 8585SOL    HW137217   0.473   4.692  15.102  0.6497  1.5473 -0.7359
 8585SOL    HW237218   0.332   4.689  15.163  1.2423 -0.3073  0.2193
 8586SOL     OW37219   3.679   2.679  10.416  0.0573 -0.3366 -0.0452
 8586SOL    HW137220   3.607   2.617  10.407 -0.6673  0.3601  1.0767
 8586SOL    HW237221   3.699   2.669  10.509 -1.0267 -0.1903  0.2010
 8587SOL     OW37222   1.755   3.020   5.888 -0.7307  0.1423  0.2845
 8587SOL    HW137223   1.826   2.993   5.946 -0.9143 -0.8356  0.0601
 8587SOL    HW237224   1.808   3.077   5.832 -0.8049  0.1749  0.2482
 8588SOL     OW37225   0.106   2.902   5.923 -0.2596  0.4832  0.2598
 8588SOL    HW137226   0.055   2.837   5.875  0.2568 -0.1548  0.5750
 8588SOL    HW237227   0.163   2.853   5.982 -0.9753 -0.6081  0.0425
 8589SOL     OW37228   0.136   1.101   3.828 -0.4175 -0.3330 -0.4137
 8589SOL    HW137229   0.063   1.105   3.889 -0.3726  0.6751 -0.4242
 8589SOL    HW237230   0.119   1.175   3.770  2.6951 -1.0406 -2.2374
 8590SOL     OW37231   0.684   3.446   1.962  0.3336 -0.1100 -0.4379
 8590SOL    HW137232   0.611   3.418   1.908  1.3737 -1.7499 -1.0031
 8590SOL    HW237233   0.732   3.492   1.892  1.8714  0.6192  1.0769
 8591SOL     OW37234   1.588   0.936   9.108  0.7993  0.3158  0.3585
 8591SOL    HW137235   1.493   0.928   9.118  0.6481  0.7632 -0.7272
 8591SOL    HW237236   1.614   0.844   9.113 -1.4370 -0.2449  1.8307
 8592SOL     OW37237   4.287   1.057   4.842  0.3525  0.1357 -0.0003
 8592SOL    HW137238   4.349   0.991   4.871 -0.5505 -0.8905 -0.4240
 8592SOL    HW237239   4.327   1.086   4.760  0.7353  1.7152  0.7447
 8593SOL     OW37240   1.325   2.208   7.895 -0.3131 -0.2082 -0.1510
 8593SOL    HW137241   1.294   2.299   7.889 -0.3315 -0.1287  0.9917
 8593SOL    HW237242   1.244   2.159   7.899  0.0292 -0.8007 -0.5625
 8594SOL     OW37243   3.053   4.419   0.307 -0.0847 -0.1329 -0.2041
 8594SOL    HW137244   3.084   4.440   0.219 -1.6719 -0.8852 -0.9474
 8594SOL    HW237245   2.959   4.433   0.296  0.1039  1.2782 -0.1127
 8595SOL     OW37246   3.928   4.662   9.048  0.5047  0.2291 -0.0695
 8595SOL    HW137247   3.861   4.594   9.038  3.3033 -2.5955  0.6406
 8595SOL    HW237248   3.870   0.003   9.088 -0.4815 -2.5400  2.9278
 8596SOL     OW37249   0.020   3.997   7.515  0.2466 -0.0741  0.1158
 8596SOL    HW137250   4.658   4.007   7.475  0.8217  0.8755 -0.9025
 8596SOL    HW237251   0.075   3.958   7.447 -1.8685 -1.2839 -0.8899
 8597SOL     OW37252   1.332   2.506   9.041  0.1120 -0.5740  0.2428
 8597SOL    HW137253   1.388   2.457   9.101  2.6215  1.9555 -0.0568
 8597SOL    HW237254   1.396   2.508   8.969 -1.5274 -2.5130 -1.2748
 8598SOL     OW37255   3.631   2.294   1.313 -0.0927  0.0970 -0.4679
 8598SOL    HW137256   3.621   2.215   1.366 -0.5626  0.7591  0.4321
 8598SOL    HW237257   3.719   2.277   1.280 -0.3090 -0.4624 -0.7574
 8599SOL     OW37258   3.340   2.704   5.880  0.6589 -0.1247  0.8805
 8599SOL    HW137259   3.376   2.650   5.809  1.8830  0.8648  0.7498
 8599SOL    HW237260   3.253   2.667   5.863  0.3416  1.5263 -1.0582
 8600SOL     OW37261   0.587   2.965   7.063 -0.0357 -0.5696  0.3293
 8600SOL    HW137262   0.494   2.974   7.083 -0.0875 -1.1287  0.3370
 8600SOL    HW237263   0.590   2.959   6.968  0.4540 -0.8834  0.3619
 8601SOL     OW37264   4.558   4.322   2.162  0.1138 -0.0113 -0.0676
 8601SOL    HW137265   4.528   4.341   2.251 -0.7476 -1.0842 -0.1311
 8601SOL    HW237266   4.499   4.248   2.149  1.8276 -1.3472 -0.1574
 8602SOL     OW37267   2.602   4.510  10.802 -0.6511  0.1231 -0.1194
 8602SOL    HW137268   2.588   4.503  10.897  1.8465 -2.0035  0.0904
 8602SOL    HW237269   2.636   4.599  10.795 -1.9500  0.6214 -0.2499
 8603SOL     OW37270   3.270   2.515   5.527 -0.5399  0.3228 -0.2325
 8603SOL    HW137271   3.299   2.469   5.448 -2.2244 -0.1275 -0.5963
 8603SOL    HW237272   3.350   2.514   5.579 -0.7398 -1.3859  0.0613
 8604SOL     OW37273   1.027   3.232   4.472  0.3572 -0.7610  0.1358
 8604SOL    HW137274   0.990   3.306   4.423 -1.3108 -0.1939  2.2149
 8604SOL    HW237275   1.007   3.162   4.410  1.9566 -0.7389 -0.3852
 8605SOL     OW37276   4.694   4.070   6.744 -0.4388 -0.1617 -0.0640
 8605SOL    HW137277   0.029   4.018   6.690 -0.5539 -1.6706  1.2654
 8605SOL    HW237278   4.684   4.011   6.819 -0.1933  1.3573  1.1822
 8606SOL     OW37279   2.616   4.081  12.056 -0.8256  0.0960  0.2371
 8606SOL    HW137280   2.570   4.133  11.989 -1.4445 -1.7096 -0.7418
 8606SOL    HW237281   2.674   4.029  12.001 -0.1195 -2.4149  3.3891
 8607SOL     OW37282   3.679   2.066   8.399 -0.4490  0.6437 -0.3237
 8607SOL    HW137283   3.732   2.043   8.475  1.5233  0.5281 -1.7355
 8607SOL    HW237284   3.592   2.076   8.438  0.2599  0.1965  1.3507
 8608SOL     OW37285   4.420   4.523   4.491 -0.0540 -0.4748  0.2232
 8608SOL    HW137286   4.382   4.595   4.541 -2.6858 -0.6270 -1.5705
 8608SOL    HW237287   4.444   4.467   4.565  0.2984  0.1992  0.6222
 8609SOL     OW37288   2.330   2.643   3.333 -0.6089 -0.4820  0.2881
 8609SOL    HW137289   2.359   2.552   3.342  0.9267 -0.1585 -1.5161
 8609SOL    HW237290   2.242   2.640   3.296 -0.3362 -1.4280 -0.2911
 8610SOL     OW37291   1.933   4.279  11.907 -0.0544  0.0956  0.4053
 8610SOL    HW137292   2.007   4.220  11.920 -0.3967 -0.5139 -0.4022
 8610SOL    HW237293   1.854   4.227  11.894  0.8162 -1.0843 -0.1300
 8611SOL     OW37294   3.080   0.575  14.311  0.0066 -0.8212  0.4555
 8611SOL    HW137295   2.996   0.552  14.272 -1.5812  0.7879  2.9387
 8611SOL    HW237296   3.139   0.581  14.236 -1.5361  0.0641 -0.6892
 8612SOL     OW37297   2.212   4.429   6.019  0.9061 -0.0670  0.1751
 8612SOL    HW137298   2.131   4.454   5.974 -1.0593 -2.3572  2.4573
 8612SOL    HW237299   2.278   4.471   5.965  1.2295 -0.9852 -0.1273
 8613SOL     OW37300   1.171   3.827   2.254 -0.7031 -0.4306 -0.0138
 8613SOL    HW137301   1.257   3.815   2.215 -0.3873  0.3037  0.4686
 8613SOL    HW237302   1.156   3.744   2.299  1.0815 -0.6438  0.1670
 8614SOL     OW37303   3.407   1.031   3.358  0.1754 -0.1585 -0.2620
 8614SOL    HW137304   3.381   0.952   3.405  1.8464  0.0305  0.9660
 8614SOL    HW237305   3.501   1.016   3.370 -0.0996 -1.7105 -0.1330
 8615SOL     OW37306   3.306   4.158   0.645 -0.7931 -0.6651 -0.5148
 8615SOL    HW137307   3.381   4.101   0.663 -0.5494 -0.6150 -1.4054
 8615SOL    HW237308   3.337   4.228   0.703  1.1350 -0.4021 -1.8585
 8616SOL     OW37309   0.961   0.063   7.527 -0.2123  0.0017  0.0750
 8616SOL    HW137310   1.033   0.054   7.589 -0.3084  0.5496  0.2612
 8616SOL    HW237311   0.954   0.158   7.518  0.5339 -0.0596 -1.0822
 8617SOL     OW37312   4.513   4.467   5.529  0.3202 -0.3324 -0.3566
 8617SOL    HW137313   4.511   4.399   5.597  4.4830  1.0544  1.1770
 8617SOL    HW237314   4.515   4.548   5.580  0.2659 -0.0099 -0.8642
 8618SOL     OW37315   0.199   3.887   0.928 -0.3711 -0.2527 -0.5211
 8618SOL    HW137316   0.118   3.871   0.879 -1.0491  3.2901 -0.5417
 8618SOL    HW237317   0.185   3.969   0.975  0.6999  0.1453 -0.9062
 8619SOL     OW37318   3.272   2.288   0.716 -0.0851  0.3453 -0.7844
 8619SOL    HW137319   3.328   2.333   0.653 -1.5723  1.9658 -0.9348
 8619SOL    HW237320   3.338   2.239   0.766  0.0639 -1.7570 -3.0192
 8620SOL     OW37321   0.337   0.842   2.205  0.1209  0.0406 -0.1228
 8620SOL    HW137322   0.366   0.927   2.172  2.2353 -1.0907 -1.1445
 8620SOL    HW237323   0.391   0.834   2.283 -2.2434  0.4619  1.5693
 8621SOL     OW37324   2.084   2.866   9.131 -0.4015 -0.7044  0.1993
 8621SOL    HW137325   2.148   2.937   9.123 -1.2928  0.2598  1.7387
 8621SOL    HW237326   2.005   2.898   9.174 -1.0896 -1.0181 -0.8321
 8622SOL     OW37327   1.145   0.346   0.416  0.2089  0.7673  0.2466
 8622SOL    HW137328   1.070   0.309   0.370  0.8624 -0.4736  0.1683
 8622SOL    HW237329   1.193   0.263   0.411  3.1349  2.5464 -1.5574
 8623SOL     OW37330   1.977   1.414   4.043 -0.0648  0.4770 -0.1423
 8623SOL    HW137331   1.959   1.350   4.112 -0.5421 -1.4675 -2.0660
 8623SOL    HW237332   1.920   1.487   4.068  1.2595  1.7442 -0.8643
 8624SOL     OW37333   3.409   1.108   5.732  0.4342 -0.2442  0.4284
 8624SOL    HW137334   3.365   1.089   5.649  0.5859 -1.6975  0.6829
 8624SOL    HW237335   3.461   1.028   5.730  0.5886 -0.1120 -0.6262
 8625SOL     OW37336   0.510   4.051   8.446  0.3786 -0.0882 -0.4066
 8625SOL    HW137337   0.416   4.066   8.454  0.3960  0.7111 -1.6775
 8625SOL    HW237338   0.518   3.970   8.497 -0.9460 -1.1036 -1.7908
 8626SOL     OW37339   0.373   1.490   6.205  0.1361  0.5670  0.4271
 8626SOL    HW137340   0.349   1.435   6.279 -0.6486  0.6929  0.2708
 8626SOL    HW237341   0.432   1.432   6.157 -0.3571  0.3558  0.0661
 8627SOL     OW37342   4.166   3.671  14.042  0.1632  0.2776  0.0134
 8627SOL    HW137343   4.098   3.728  14.007 -0.5477  0.3043  1.4494
 8627SOL    HW237344   4.223   3.675  13.965 -2.7649 -0.8823 -2.2065
 8628SOL     OW37345   4.458   1.057  13.175 -0.2066  0.2732  0.8708
 8628SOL    HW137346   4.439   1.078  13.084  2.0172 -2.4355 -0.2366
 8628SOL    HW237347   4.390   0.990  13.180 -0.9097  0.9389  0.0853
 8629SOL     OW37348   2.981   0.576  12.079 -0.1162  0.2223  0.7694
 8629SOL    HW137349   3.074   0.592  12.067 -0.2538  0.0830 -0.4665
 8629SOL    HW237350   2.965   0.665  12.112 -2.0709 -0.1832  0.8989
 8630SOL     OW37351   0.729   2.985   1.382  0.3248  0.1485 -0.0130
 8630SOL    HW137352   0.741   3.065   1.329 -2.3859  0.0806 -0.7148
 8630SOL    HW237353   0.821   2.975   1.406  0.2255  2.4068  1.3322
 8631SOL     OW37354   0.986   3.850   1.622 -0.0120 -0.0170 -0.8525
 8631SOL    HW137355   1.032   3.907   1.684  0.0329  1.1181 -1.9161
 8631SOL    HW237356   0.986   3.914   1.550 -2.2940 -0.4402 -1.2143
 8632SOL     OW37357   3.793   3.028   2.545  0.0940 -0.2402 -0.2470
 8632SOL    HW137358   3.770   2.949   2.496  3.2517 -0.3760 -1.4723
 8632SOL    HW237359   3.866   3.053   2.488 -0.0294  1.9782  0.5571
 8633SOL     OW37360   0.228   1.297   6.848  0.4327 -0.2471 -0.1662
 8633SOL    HW137361   0.139   1.311   6.818 -0.0411 -0.0643  1.3172
 8633SOL    HW237362   0.261   1.383   6.873  0.9877 -1.1347  2.1999
 8634SOL     OW37363   0.802   0.404   4.087  0.0962 -0.9036  0.3040
 8634SOL    HW137364   0.835   0.314   4.087 -0.2141 -1.0170  2.7506
 8634SOL    HW237365   0.714   0.391   4.123  0.3977 -3.1953  0.1584
 8635SOL     OW37366   3.635   4.106   2.959 -0.0546 -0.3830 -0.1898
 8635SOL    HW137367   3.540   4.099   2.967 -0.1320  1.5644  0.5162
 8635SOL    HW237368   3.641   4.195   2.925  0.8606 -0.3021  0.1945
 8636SOL     OW37369   2.271   4.487   9.206  0.1104 -0.1618  0.0060
 8636SOL    HW137370   2.194   4.542   9.191  0.7979  0.7736 -0.1034
 8636SOL    HW237371   2.251   4.405   9.161  0.5168  0.3354 -1.0784
 8637SOL     OW37372   2.168   0.783  16.943 -0.2569  0.2826 -0.3142
 8637SOL    HW137373   2.259   0.771  16.968 -0.5403 -0.5490  0.3267
 8637SOL    HW237374   2.124   0.794  17.028 -1.2690 -1.9554 -0.5457
 8638SOL     OW37375   4.698   4.060   4.496  0.0617 -0.3760  0.0641
 8638SOL    HW137376   4.690   3.968   4.469  2.8722 -1.2352  2.0985
 8638SOL    HW237377   4.693   4.104   4.411 -2.0154  1.5844  1.2162
 8639SOL     OW37378   1.940   0.222   6.071  0.3304  0.1589 -0.4439
 8639SOL    HW137379   1.963   0.130   6.085  2.9968  1.1088  1.3570
 8639SOL    HW237380   1.873   0.228   6.139 -2.4229 -0.1224 -3.1426
 8640SOL     OW37381   2.246   1.967  16.634 -0.8939 -0.1064 -0.1261
 8640SOL    HW137382   2.276   1.877  16.646 -1.0482  0.0515  1.4949
 8640SOL    HW237383   2.163   1.946  16.592 -1.7016  2.4832  0.1800
 8641SOL     OW37384   2.338   3.671  15.444  0.3163 -0.5445 -0.7575
 8641SOL    HW137385   2.310   3.585  15.410 -0.5631 -0.3278 -0.5985
 8641SOL    HW237386   2.409   3.687  15.383  0.2311 -3.1355 -1.5581
 8642SOL     OW37387   2.704   1.567  10.497  0.0178  0.1852  0.2659
 8642SOL    HW137388   2.731   1.641  10.552 -1.4359  0.5939  0.4452
 8642SOL    HW237389   2.610   1.574  10.516 -0.3594  0.9823 -1.8976
 8643SOL     OW37390   1.659   0.793   0.428  0.3907  0.1816 -0.3199
 8643SOL    HW137391   1.728   0.726   0.424 -1.1597 -1.3087 -1.8310
 8643SOL    HW237392   1.613   0.787   0.344 -0.5178 -1.3608  0.2830
 8644SOL     OW37393   4.695   3.397   4.177  0.1465 -0.1328  0.5556
 8644SOL    HW137394   0.043   3.414   4.118  0.7744 -1.4583  0.9274
 8644SOL    HW237395   4.630   3.451   4.133  0.7871  0.6443  0.5745
 8645SOL     OW37396   4.343   2.429   9.047 -0.1034 -0.2570 -0.3290
 8645SOL    HW137397   4.387   2.393   8.970 -2.3890 -0.7065 -1.4479
 8645SOL    HW237398   4.365   2.358   9.106  0.0228  0.3981  0.4039
 8646SOL     OW37399   3.058   2.130  12.481  0.2164  0.8765 -0.2132
 8646SOL    HW137400   3.064   2.212  12.433 -1.5275  2.5096  2.3590
 8646SOL    HW237401   3.128   2.079  12.441 -1.2732 -1.3618  0.0366
 8647SOL     OW37402   1.302   3.184   2.937 -0.2385 -0.5071 -0.6360
 8647SOL    HW137403   1.303   3.096   2.898  0.8332 -0.7669 -0.0088
 8647SOL    HW237404   1.394   3.209   2.942 -0.9093  1.6073  1.1040
 8648SOL     OW37405   1.543   1.536   9.361 -0.2277 -0.1275  0.2784
 8648SOL    HW137406   1.513   1.495   9.442 -0.9511  1.5219  0.8316
 8648SOL    HW237407   1.635   1.548   9.386  0.6673 -1.5308 -2.2917
 8649SOL     OW37408   0.599   0.400   4.510  0.7351 -0.2586 -0.3262
 8649SOL    HW137409   0.578   0.331   4.447 -0.3159  0.5296 -0.8462
 8649SOL    HW237410   0.618   0.464   4.442  1.0068  0.8203  0.7750
 8650SOL     OW37411   3.619   2.229  12.536  0.3452  0.4032 -0.4576
 8650SOL    HW137412   3.700   2.234  12.586 -1.4496 -0.5112  2.5479
 8650SOL    HW237413   3.582   2.148  12.571 -0.5915  0.6998 -0.7593
 8651SOL     OW37414   2.854   0.168   4.614  0.0155 -0.7699  0.6278
 8651SOL    HW137415   2.780   0.113   4.638 -0.1809 -1.5800 -1.7625
 8651SOL    HW237416   2.884   0.122   4.535  0.3499  0.7996 -0.1635
 8652SOL     OW37417   1.091   0.997  10.276  0.3629 -0.7462 -0.0550
 8652SOL    HW137418   1.068   0.943  10.200  1.6505 -0.8151 -0.3924
 8652SOL    HW237419   1.175   1.038  10.259  1.7327 -3.0489  1.1395
 8653SOL     OW37420   4.547   1.488   6.945 -0.3282  0.4002  0.2410
 8653SOL    HW137421   4.579   1.536   7.022  1.6220 -0.3537 -0.1034
 8653SOL    HW237422   4.461   1.468   6.982  0.5534  1.1904  2.7118
 8654SOL     OW37423   1.535   3.387   8.558  0.6274 -0.1741  0.2773
 8654SOL    HW137424   1.476   3.317   8.530  0.3465 -0.8310  2.4948
 8654SOL    HW237425   1.624   3.352   8.558  0.4904 -0.5233 -0.2415
 8655SOL     OW37426   0.427   0.255  15.186  0.8010 -0.2642 -0.5834
 8655SOL    HW137427   0.505   0.305  15.159  0.3000  0.9758  0.2755
 8655SOL    HW237428   0.452   0.166  15.161 -0.7774 -1.2353  1.3167
 8656SOL     OW37429   2.079   0.797   4.283 -0.3111  0.3556 -0.4221
 8656SOL    HW137430   2.056   0.771   4.372  2.0946  1.8521  0.6315
 8656SOL    HW237431   2.019   0.750   4.225 -0.5473 -0.9181  0.8699
 8657SOL     OW37432   1.405   2.248  10.000  0.4512  0.2585 -0.3298
 8657SOL    HW137433   1.348   2.172  10.012  0.8547  0.0277  0.1057
 8657SOL    HW237434   1.422   2.268  10.092  0.5724 -1.0390 -0.0695
 8658SOL     OW37435   4.679   3.938   8.842  0.3194  0.1873 -0.4592
 8658SOL    HW137436   4.634   4.001   8.899  0.2770 -1.8525  1.7985
 8658SOL    HW237437   4.602   3.881   8.830 -0.3741  0.5498  2.2101
 8659SOL     OW37438   0.425   0.257   1.326  0.6097  0.5315  0.3211
 8659SOL    HW137439   0.475   0.244   1.407 -0.5197 -1.5385  0.6815
 8659SOL    HW237440   0.492   0.294   1.268  2.2515  1.0690  2.5097
 8660SOL     OW37441   2.182   0.495   2.933 -0.7053 -0.2023 -0.4868
 8660SOL    HW137442   2.112   0.507   2.997  0.7195  0.6292  0.9174
 8660SOL    HW237443   2.253   0.554   2.958 -1.4965  0.7090 -0.3965
 8661SOL     OW37444   2.596   1.324   3.832  0.0863 -0.3949  0.7715
 8661SOL    HW137445   2.561   1.361   3.751  1.3743  0.5220  0.6290
 8661SOL    HW237446   2.551   1.242   3.812 -1.5852  0.8163 -0.4880
 8662SOL     OW37447   2.628   3.427   6.801 -0.0360  1.0306  0.6469
 8662SOL    HW137448   2.609   3.333   6.805 -1.9069  1.2854 -2.2775
 8662SOL    HW237449   2.561   3.458   6.741  1.2246  0.8179 -0.8675
 8663SOL     OW37450   2.707   0.046   3.985 -0.1295 -0.2971 -0.3049
 8663SOL    HW137451   2.769   4.700   4.003 -1.3747 -1.9407 -2.5257
 8663SOL    HW237452   2.661   0.060   4.068  0.7803  0.5508  0.0619
 8664SOL     OW37453   0.513   2.792   2.276 -0.3158  0.1573 -0.1911
 8664SOL    HW137454   0.588   2.747   2.237  0.4925  0.7941  0.6405
 8664SOL    HW237455   0.437   2.747   2.239  1.1696 -1.0802 -1.7293
 8665SOL     OW37456   4.049   4.244   8.032  0.3776  0.5705 -0.1455
 8665SOL    HW137457   4.115   4.264   8.098 -0.1449 -1.4252  0.9838
 8665SOL    HW237458   3.992   4.321   8.035 -1.2993 -0.7937  2.8998
 8666SOL     OW37459   3.161   1.117   6.502  0.0698  0.3324  1.0774
 8666SOL    HW137460   3.234   1.158   6.455 -1.2052  0.9310 -0.3871
 8666SOL    HW237461   3.127   1.179   6.566 -2.8716 -0.0903 -0.0617
 8667SOL     OW37462   3.145   1.968   1.780  0.0070 -0.2604  0.5919
 8667SOL    HW137463   3.157   2.052   1.824  0.8425 -0.4488  0.7179
 8667SOL    HW237464   3.134   1.907   1.853  1.9918 -1.0005  0.2560
 8668SOL     OW37465   2.338   0.178   1.500 -0.6848  0.2786  0.1571
 8668SOL    HW137466   2.326   0.092   1.458 -0.8969 -0.2307  1.2612
 8668SOL    HW237467   2.367   0.235   1.429  1.0334  0.1890  0.7827
 8669SOL     OW37468   2.941   4.527  13.938  0.1969  0.0510 -0.0058
 8669SOL    HW137469   3.002   4.453  13.941 -0.6313 -0.6575 -0.4944
 8669SOL    HW237470   2.924   4.548  13.846  2.5098 -0.6954 -0.6286
 8670SOL     OW37471   3.797   1.672   7.546 -0.5006 -0.1296  0.3425
 8670SOL    HW137472   3.824   1.656   7.636 -0.2719 -0.0592  0.2860
 8670SOL    HW237473   3.824   1.586   7.513 -0.6379  0.7949 -2.1871
 8671SOL     OW37474   1.469   3.529   0.690  0.6917  0.1230  0.0178
 8671SOL    HW137475   1.426   3.444   0.697 -1.0868  1.0734  0.5165
 8671SOL    HW237476   1.402   3.576   0.640 -1.7358 -1.4767  1.7793
 8672SOL     OW37477   0.020   0.786   8.061 -0.0506 -0.0112 -0.5507
 8672SOL    HW137478   0.098   0.761   8.111  1.2602  3.8867 -0.6924
 8672SOL    HW237479   4.693   0.707   8.043  3.0192 -1.8211 -1.3215
 8673SOL     OW37480   0.506   0.225   2.817 -0.1190 -0.5364 -0.4931
 8673SOL    HW137481   0.584   0.186   2.776 -1.4368 -2.4610 -1.1683
 8673SOL    HW237482   0.450   0.239   2.741 -2.2029 -1.6871  0.8585
 8674SOL     OW37483   0.385   3.487  15.606  0.2889  0.6816 -0.0919
 8674SOL    HW137484   0.404   3.495  15.699 -0.8667  0.8691  0.1306
 8674SOL    HW237485   0.451   3.545  15.569  1.1144  0.7296  1.4826
 8675SOL     OW37486   0.754   1.825   7.176 -0.1827  0.1649  0.6184
 8675SOL    HW137487   0.760   1.783   7.091  0.2462  1.2583  0.1074
 8675SOL    HW237488   0.836   1.786   7.206 -0.1474  0.7720  1.3319
 8676SOL     OW37489   4.077   3.441  13.902 -0.4028 -0.3433 -0.1028
 8676SOL    HW137490   4.146   3.389  13.943 -2.4991 -1.2907  2.1994
 8676SOL    HW237491   4.110   3.527  13.930 -2.2614  0.2432  0.2920
 8677SOL     OW37492   2.675   1.060   5.466 -0.0127  0.0726 -0.7680
 8677SOL    HW137493   2.613   1.125   5.497 -0.4686 -0.4904 -0.4918
 8677SOL    HW237494   2.736   1.062   5.540 -0.6267 -1.1983 -0.2242
 8678SOL     OW37495   4.644   3.887   4.952  0.3374 -0.1012 -0.8817
 8678SOL    HW137496   4.619   3.804   4.912 -0.2576  0.9124 -2.6501
 8678SOL    HW237497   4.680   3.860   5.036  3.6882  1.1716 -1.8847
 8679SOL     OW37498   2.469   0.132   8.103  0.0891  0.2742  0.0784
 8679SOL    HW137499   2.383   0.110   8.138 -0.0147 -2.2430 -1.7805
 8679SOL    HW237500   2.521   0.062   8.143 -0.5149 -1.5343 -2.3013
 8680SOL     OW37501   3.326   1.921  12.142  0.3725 -0.3343 -0.4116
 8680SOL    HW137502   3.309   1.829  12.161 -0.8048  0.0846  0.5123
 8680SOL    HW237503   3.253   1.944  12.085  0.7570 -0.5798 -1.0070
 8681SOL     OW37504   3.437   1.134   8.742 -0.0237  0.0418  0.1215
 8681SOL    HW137505   3.521   1.090   8.755 -0.4540 -1.9571 -3.8134
 8681SOL    HW237506   3.379   1.059   8.738 -2.1424  1.6660  0.2658
 8682SOL     OW37507   0.817   4.577   2.127 -0.2298  0.4978 -0.2719
 8682SOL    HW137508   0.727   4.555   2.152  0.8259 -2.3272  0.9836
 8682SOL    HW237509   0.862   4.493   2.125  0.2892  0.7596  0.2542
 8683SOL     OW37510   0.447   1.204   3.675 -0.6454  0.0306  0.3308
 8683SOL    HW137511   0.450   1.290   3.718 -1.0179  0.6730 -0.9172
 8683SOL    HW237512   0.414   1.234   3.590  1.9118  2.3798  0.1437
 8684SOL     OW37513   1.450   4.313   5.388  0.3654  0.0518  0.1429
 8684SOL    HW137514   1.392   4.379   5.425 -1.0108 -1.4510  0.6569
 8684SOL    HW237515   1.510   4.374   5.346  0.0333  0.8052  0.7729
 8685SOL     OW37516   3.913   2.184  10.837  0.3481  0.2447 -0.1485
 8685SOL    HW137517   3.842   2.245  10.817 -0.8689 -0.6466  1.3830
 8685SOL    HW237518   3.978   2.253  10.827 -0.8621  0.9517 -3.3770
 8686SOL     OW37519   0.405   1.656  12.205  0.3309  0.8562 -0.7714
 8686SOL    HW137520   0.487   1.624  12.168 -1.0661 -1.7897 -1.5771
 8686SOL    HW237521   0.375   1.584  12.261  2.6271  0.6087  0.1552
 8687SOL     OW37522   0.620   2.022   8.712  0.5943  0.3113 -0.6169
 8687SOL    HW137523   0.685   2.090   8.725  0.9500 -0.5318  1.8898
 8687SOL    HW237524   0.594   1.993   8.799  1.9518  0.5837 -0.1211
 8688SOL     OW37525   3.924   4.541   2.820 -0.7736  0.0894  0.4849
 8688SOL    HW137526   3.929   4.532   2.725 -1.0834  0.9769  0.3833
 8688SOL    HW237527   4.003   4.494   2.845  0.5148  1.7547 -0.3994
 8689SOL     OW37528   4.501   4.693   4.068 -0.3849 -0.1654 -0.4792
 8689SOL    HW137529   4.585   4.720   4.032  0.7982 -1.7832  1.0656
 8689SOL    HW237530   4.519   0.007   4.154 -3.1458  2.9342 -1.2959
 8690SOL     OW37531   3.546   3.133   9.025 -0.5054 -0.0877  0.1226
 8690SOL    HW137532   3.566   3.194   9.096  2.9736 -1.3491  0.2498
 8690SOL    HW237533   3.510   3.200   8.967  2.9159  1.3903 -0.2919
 8691SOL     OW37534   0.492   3.325   9.817 -0.1995 -0.2184  0.3285
 8691SOL    HW137535   0.568   3.382   9.814 -0.5820  0.2580 -0.3188
 8691SOL    HW237536   0.460   3.328   9.727  0.3422 -2.4124  0.0634
 8692SOL     OW37537   2.461   0.540   6.808 -0.4275  0.0728 -0.2045
 8692SOL    HW137538   2.456   0.446   6.825  2.9240  0.5311  3.2364
 8692SOL    HW237539   2.375   0.536   6.765 -1.3171 -1.2531  1.7156
 8693SOL     OW37540   3.119   0.450  13.572  0.3269 -0.0811  0.4057
 8693SOL    HW137541   3.041   0.399  13.595 -0.8953  1.7669  0.3939
 8693SOL    HW237542   3.167   0.390  13.515  0.6745  1.1953 -0.6512
 8694SOL     OW37543   1.225   4.649   6.982  0.6452  0.2050 -0.1712
 8694SOL    HW137544   1.245   4.721   7.041  2.6466 -1.6989  1.4408
 8694SOL    HW237545   1.306   4.599   6.975 -0.7646 -2.1586  0.0280
 8695SOL     OW37546   3.590   4.268   4.188 -0.0278  0.0501 -0.2614
 8695SOL    HW137547   3.641   4.216   4.250  1.0508  2.0436  0.5575
 8695SOL    HW237548   3.662   4.306   4.136 -2.1109  1.1380 -2.3547
 8696SOL     OW37549   1.033   0.097   3.232  0.6462 -0.1679  0.3923
 8696SOL    HW137550   0.986   0.088   3.315 -0.0652 -0.4354 -0.0384
 8696SOL    HW237551   1.111   0.043   3.243  0.5440 -0.7595 -1.6906
 8697SOL     OW37552   2.454   3.226   6.026 -0.3574  0.1959 -0.2263
 8697SOL    HW137553   2.504   3.170   5.966  0.5713 -1.0262  1.6749
 8697SOL    HW237554   2.364   3.209   5.998 -0.1471 -0.3141 -0.6026
 8698SOL     OW37555   2.809   2.324   5.083  0.1041  0.1107 -0.0235
 8698SOL    HW137556   2.752   2.286   5.016 -2.1121  1.9193  0.8339
 8698SOL    HW237557   2.745   2.356   5.147  0.6834  3.0407 -0.8738
 8699SOL     OW37558   3.035   1.277   4.821  0.7446 -0.5154  0.3718
 8699SOL    HW137559   3.083   1.194   4.824  0.7240 -0.5083  1.0543
 8699SOL    HW237560   3.099   1.345   4.840  0.7085 -0.5053  0.4573
 8700SOL     OW37561   0.191   0.003   8.210 -0.1578  0.1611 -0.3653
 8700SOL    HW137562   0.193   0.045   8.124  0.4416 -2.0624 -1.4451
 8700SOL    HW237563   0.280   0.028   8.235  0.1175 -0.7644 -0.3933
 8701SOL     OW37564   2.516   1.681   5.906  0.0071 -0.3304 -0.6130
 8701SOL    HW137565   2.607   1.690   5.879  0.2955 -0.7249  0.2260
 8701SOL    HW237566   2.509   1.756   5.965 -3.2690 -1.1477  0.0718
 8702SOL     OW37567   3.656   4.317  10.880  0.0738  0.1470 -0.0725
 8702SOL    HW137568   3.745   4.311  10.914  1.8642  1.3942 -4.5612
 8702SOL    HW237569   3.643   4.411  10.867 -2.4281 -0.6139 -2.8997
 8703SOL     OW37570   0.745   0.416   7.668  0.4045  0.4658  0.1921
 8703SOL    HW137571   0.837   0.388   7.664  0.1116 -0.6184  0.9506
 8703SOL    HW237572   0.712   0.328   7.686  0.1219  0.6067  0.3547
 8704SOL     OW37573   1.207   2.248   2.767 -0.1077  0.1794 -0.3164
 8704SOL    HW137574   1.140   2.277   2.704 -1.6986 -1.3415  0.6572
 8704SOL    HW237575   1.225   2.333   2.808 -2.0584  0.6525 -0.4040
 8705SOL     OW37576   1.904   3.790  13.539  0.0727  0.5068  0.0645
 8705SOL    HW137577   1.905   3.859  13.473 -0.1078  0.0615 -0.4014
 8705SOL    HW237578   1.950   3.839  13.607  3.0010 -0.5202 -1.1387
 8706SOL     OW37579   2.132   1.971   7.539  0.0625 -0.0314  0.0070
 8706SOL    HW137580   2.134   1.901   7.605 -2.9067 -1.5690 -1.5143
 8706SOL    HW237581   2.055   2.015   7.574  2.0904  2.6618  1.0724
 8707SOL     OW37582   0.570   0.343   4.231  0.2863  0.6735 -0.5531
 8707SOL    HW137583   0.488   0.296   4.248  1.3303 -1.1814 -0.6205
 8707SOL    HW237584   0.537   0.395   4.158  0.6205  0.1046 -1.1056
 8708SOL     OW37585   2.494   3.488   8.936 -0.4323 -0.4514 -0.3763
 8708SOL    HW137586   2.509   3.577   8.967  1.5450 -0.9910  0.1809
 8708SOL    HW237587   2.572   3.447   8.972  1.1099  1.5165 -1.4967
 8709SOL     OW37588   2.231   3.610  15.684 -0.7514  0.1228 -0.2586
 8709SOL    HW137589   2.308   3.640  15.733  0.0547  0.9895 -2.0213
 8709SOL    HW237590   2.275   3.613  15.598 -0.6254 -0.7191 -0.2303
 8710SOL     OW37591   0.167   0.184   0.668 -0.5170 -0.1375 -0.2618
 8710SOL    HW137592   0.143   0.116   0.731 -3.8728  0.2461 -1.1784
 8710SOL    HW237593   0.223   0.240   0.724 -2.0119  0.2815  0.8112
 8711SOL     OW37594   1.456   0.877  17.564  0.0203 -0.3161 -0.5931
 8711SOL    HW137595   1.375   0.907  17.604  0.0599  1.0002 -1.5017
 8711SOL    HW237596   1.501   0.849  17.643 -0.6755 -0.5965 -0.2983
 8712SOL     OW37597   2.139   0.792   2.750  0.5011  0.3004 -0.0867
 8712SOL    HW137598   2.117   0.724   2.686  0.3030  0.2545  0.0315
 8712SOL    HW237599   2.069   0.786   2.815 -0.1951 -0.9606 -0.9460
 8713SOL     OW37600   3.297   2.241   3.509 -0.2886 -0.3895  0.0526
 8713SOL    HW137601   3.290   2.200   3.423  2.0076 -0.8129  0.0556
 8713SOL    HW237602   3.209   2.227   3.544 -0.5326  1.2267  0.0964
 8714SOL     OW37603   4.637   3.258   3.136 -0.2471 -0.2975 -0.6678
 8714SOL    HW137604   4.559   3.221   3.179  0.6115 -1.8458 -0.4550
 8714SOL    HW237605   4.602   3.303   3.060 -1.0833  0.5689  0.2245
 8715SOL     OW37606   2.525   0.884   2.260 -0.5569  0.7338  0.4844
 8715SOL    HW137607   2.481   0.876   2.345  0.9095  0.0474  1.1651
 8715SOL    HW237608   2.488   0.967   2.227  0.0332  0.7368 -0.1587
 8716SOL     OW37609   3.137   3.898  15.666 -0.2482  0.5260  0.1918
 8716SOL    HW137610   3.150   3.917  15.573 -1.3642  3.6450  0.6833
 8716SOL    HW237611   3.081   3.974  15.684 -1.3139 -0.2228  0.0641
 8717SOL     OW37612   0.925   1.279   9.898  0.3386  0.4082 -0.1373
 8717SOL    HW137613   0.850   1.298   9.953 -0.1336 -1.4521 -0.1445
 8717SOL    HW237614   0.918   1.357   9.842 -0.2082 -0.1269 -0.8124
 8718SOL     OW37615   0.241   0.226  14.913  0.0861 -0.4285  0.1469
 8718SOL    HW137616   0.279   0.171  14.982 -1.2839  1.0591  2.0777
 8718SOL    HW237617   0.231   0.166  14.840 -0.4094 -1.9684  1.4769
 8719SOL     OW37618   3.763   2.160  15.327 -0.3175 -0.6201 -0.4417
 8719SOL    HW137619   3.833   2.097  15.311 -0.8510 -0.7028 -2.3657
 8719SOL    HW237620   3.765   2.174  15.422  1.6649  0.2171 -0.5900
 8720SOL     OW37621   1.548   0.988  14.306  0.4514  0.1360 -0.0046
 8720SOL    HW137622   1.553   0.893  14.295 -0.4135  0.2277 -1.1309
 8720SOL    HW237623   1.568   1.018  14.218  1.1517 -1.2347 -0.3164
 8721SOL     OW37624   0.506   3.877   9.848  0.2928 -0.0480 -0.4577
 8721SOL    HW137625   0.470   3.810   9.906  1.3807 -0.5104 -0.3183
 8721SOL    HW237626   0.488   3.838   9.763 -1.9225 -1.5295  0.7041
 8722SOL     OW37627   4.597   3.762   6.290  0.4201  0.0352 -0.4634
 8722SOL    HW137628   4.558   3.843   6.324 -3.8410 -2.3528  0.4265
 8722SOL    HW237629   4.663   3.805   6.236  0.6307 -1.2724 -1.2227
 8723SOL     OW37630   3.348   3.131  10.835 -0.0293 -0.3133  0.2464
 8723SOL    HW137631   3.439   3.157  10.822 -0.1630 -0.4978 -1.1270
 8723SOL    HW237632   3.321   3.154  10.924 -0.8733  0.2687 -0.1567
 8724SOL     OW37633   0.375   2.998   8.575  0.4930 -0.3421  0.1179
 8724SOL    HW137634   0.428   3.028   8.648 -0.0418  2.0436 -0.4730
 8724SOL    HW237635   0.366   2.909   8.609 -0.2886 -0.4635 -0.3876
 8725SOL     OW37636   1.488   3.493   8.933 -0.2063  0.3632 -0.5472
 8725SOL    HW137637   1.482   3.574   8.881  1.2878  0.7406 -0.1458
 8725SOL    HW237638   1.448   3.520   9.015  2.2340  1.2679  0.3344
 8726SOL     OW37639   1.934   2.372   6.225  0.3142  0.1651  0.1104
 8726SOL    HW137640   1.970   2.434   6.161  2.4880 -2.7305 -1.4555
 8726SOL    HW237641   1.962   2.416   6.305  1.1390 -0.5340  0.2040
 8727SOL     OW37642   4.643   0.142   3.243  0.0292 -0.8284 -0.1079
 8727SOL    HW137643   4.664   0.061   3.198 -1.0404 -0.8455 -0.5821
 8727SOL    HW237644   4.703   0.203   3.201 -2.6029  1.9013  0.0876
 8728SOL     OW37645   2.117   0.549   9.162  0.0198 -0.1221 -0.0983
 8728SOL    HW137646   2.147   0.471   9.117 -2.8032 -0.1523 -1.8896
 8728SOL    HW237647   2.151   0.618   9.105 -1.3908 -1.2282 -2.2674
 8729SOL     OW37648   4.660   1.368  14.045 -0.4988 -0.0426 -0.1424
 8729SOL    HW137649   4.706   1.334  14.121  0.8693 -0.4668 -1.1568
 8729SOL    HW237650   4.577   1.330  14.076  0.6451 -1.2997  1.3292
 8730SOL     OW37651   2.642   0.547   1.348 -0.7257  0.4779  0.4338
 8730SOL    HW137652   2.650   0.558   1.253 -1.1575  2.3955  0.6095
 8730SOL    HW237653   2.727   0.565   1.389  0.7329 -2.8485 -1.1037
 8731SOL     OW37654   1.791   2.293   8.560 -0.6031 -0.3178 -0.7637
 8731SOL    HW137655   1.803   2.258   8.472 -0.8866 -1.7072 -0.2592
 8731SOL    HW237656   1.862   2.356   8.552 -0.0312 -0.5322  2.3533
 8732SOL     OW37657   1.275   4.403   9.980  0.4037  0.2351 -0.4906
 8732SOL    HW137658   1.249   4.318  10.015 -3.2333  1.7186  0.4565
 8732SOL    HW237659   1.217   4.462  10.028 -0.5394 -0.3561 -0.9170
 8733SOL     OW37660   1.519   4.266  14.305  0.2235 -0.9054 -0.4039
 8733SOL    HW137661   1.484   4.309  14.227 -2.2920 -1.7918  0.2447
 8733SOL    HW237662   1.457   4.287  14.375  0.4844 -1.3151 -0.0498
 8734SOL     OW37663   1.076   0.511   5.383  0.0907 -0.1306 -0.7859
 8734SOL    HW137664   1.163   0.480   5.358  0.6914  0.9847 -0.0542
 8734SOL    HW237665   1.093   0.603   5.403  0.1581 -0.1661 -0.6819
 8735SOL     OW37666   0.645   2.076  13.114 -0.5057  0.1628  0.0056
 8735SOL    HW137667   0.554   2.047  13.110  1.0131 -4.7686  2.0000
 8735SOL    HW237668   0.655   2.139  13.185 -1.6419  1.6019 -1.0958
 8736SOL     OW37669   0.318   0.009  17.638 -1.0259 -0.3504 -0.1273
 8736SOL    HW137670   0.360   4.679   0.008 -1.1191 -1.0431 -0.6266
 8736SOL    HW237671   0.304   4.661  17.578 -1.7782  1.1797 -1.7645
 8737SOL     OW37672   1.160   3.959   5.049 -0.1272  0.0781 -0.2606
 8737SOL    HW137673   1.234   4.007   5.011  2.7229 -1.2160  3.5817
 8737SOL    HW237674   1.128   3.896   4.985 -1.4307  0.1467  0.3365
 8738SOL     OW37675   3.488   0.810   5.033 -0.2533 -0.1906 -0.0760
 8738SOL    HW137676   3.552   0.881   5.032 -0.1682 -0.2342  1.5064
 8738SOL    HW237677   3.501   0.779   4.944  0.6876  1.3329 -0.4758
 8739SOL     OW37678   4.208   2.918  14.571  0.4467 -0.1073  0.0645
 8739SOL    HW137679   4.115   2.898  14.575 -0.2623  3.0497 -0.7261
 8739SOL    HW237680   4.232   2.855  14.502  2.1961 -0.1430  0.7123
 8740SOL     OW37681   4.084   4.618   7.018 -0.1332  0.0801 -0.0502
 8740SOL    HW137682   4.100   4.712   7.012  1.6074 -0.2460 -0.6187
 8740SOL    HW237683   4.137   4.578   7.087 -1.4646 -1.0332  0.3188
 8741SOL     OW37684   2.178   0.497   4.313  0.0083  0.3944  0.0743
 8741SOL    HW137685   2.173   0.592   4.298  1.7288  0.2102 -1.6383
 8741SOL    HW237686   2.215   0.498   4.401  2.7946 -0.9783 -1.0736
 8742SOL     OW37687   4.624   2.949   4.395  0.5490  0.1527  0.0027
 8742SOL    HW137688   4.639   3.026   4.340  1.3023  2.1486  3.0336
 8742SOL    HW237689   4.712   2.922   4.422  0.8668 -0.8152 -2.0015
 8743SOL     OW37690   1.372   4.377  17.667 -0.5144 -0.5095 -0.3165
 8743SOL    HW137691   1.327   4.397   0.052  1.6720  0.4231  0.6614
 8743SOL    HW237692   1.454   4.340  17.697  0.1174 -0.2146 -1.6876
 8744SOL     OW37693   3.759   3.841  17.119 -0.2842  0.5689  0.2590
 8744SOL    HW137694   3.777   3.814  17.210  1.8576  1.6635  0.1566
 8744SOL    HW237695   3.715   3.924  17.138  1.4296  1.4140  0.4633
 8745SOL     OW37696   0.261   0.962   2.576  0.2709  0.1285 -0.5916
 8745SOL    HW137697   0.202   0.980   2.649  1.8346  1.4669  0.3433
 8745SOL    HW237698   0.207   0.933   2.503 -1.1382  3.1687 -0.7587
 8746SOL     OW37699   2.175   2.229  13.667 -0.0197  0.0914  0.7723
 8746SOL    HW137700   2.145   2.283  13.740  0.0752  0.3964  0.5861
 8746SOL    HW237701   2.269   2.221  13.683 -0.1327 -0.6590  1.0668
 8747SOL     OW37702   1.512   3.272   2.699  0.1216  0.4387  0.2046
 8747SOL    HW137703   1.557   3.204   2.648  0.0952 -1.3745  2.6027
 8747SOL    HW237704   1.492   3.226   2.781 -1.0085  1.5735  0.5511
 8748SOL     OW37705   0.471   0.408   8.282  0.1395  0.0938 -0.0742
 8748SOL    HW137706   0.437   0.334   8.232 -0.8567  1.3438 -1.2628
 8748SOL    HW237707   0.430   0.393   8.367  3.0141  1.9679  1.6339
 8749SOL     OW37708   2.170   2.183   2.711 -0.1531 -0.0116  0.7335
 8749SOL    HW137709   2.127   2.101   2.688 -1.0724  0.3567  1.1204
 8749SOL    HW237710   2.164   2.171   2.806 -0.5731 -2.5542  0.3817
 8750SOL     OW37711   2.811   0.208  17.249  0.3567  0.0282 -1.1358
 8750SOL    HW137712   2.754   0.236  17.178 -0.0167 -1.2154 -1.3166
 8750SOL    HW237713   2.860   0.290  17.262  1.4522 -1.1101  2.0363
 8751SOL     OW37714   4.212   4.129   0.932 -0.2399 -0.1691  0.0772
 8751SOL    HW137715   4.143   4.133   0.866 -0.4948  1.9664  0.4807
 8751SOL    HW237716   4.252   4.215   0.926 -1.4459  0.3299 -0.6877
 8752SOL     OW37717   0.202   3.485   9.089 -0.0258 -0.4879  0.3264
 8752SOL    HW137718   0.274   3.468   9.151 -0.0944  3.2403  1.4305
 8752SOL    HW237719   0.176   3.572   9.116  0.1739  0.2195 -1.7549
 8753SOL     OW37720   1.515   1.439   7.281 -0.0870  0.0257 -0.5151
 8753SOL    HW137721   1.520   1.360   7.229 -1.3130  0.8047 -1.8271
 8753SOL    HW237722   1.434   1.428   7.331  0.7650  1.3157  1.1587
 8754SOL     OW37723   2.175   0.415   2.662 -0.0724  0.4869 -0.5356
 8754SOL    HW137724   2.174   0.468   2.741 -0.6805  0.4316 -0.5060
 8754SOL    HW237725   2.084   0.424   2.634 -0.2347  0.2900 -0.0604
 8755SOL     OW37726   2.660   1.026   6.528  0.4563  0.0416 -0.2227
 8755SOL    HW137727   2.641   0.937   6.558 -1.2289  0.3147 -0.4756
 8755SOL    HW237728   2.587   1.035   6.467 -1.5923  0.9381  2.3804
 8756SOL     OW37729   1.437   2.165  15.912  0.0163 -0.2173  0.5090
 8756SOL    HW137730   1.528   2.168  15.940 -0.6045  0.1998  2.5438
 8756SOL    HW237731   1.456   2.157  15.819 -0.4494  0.8506  0.3153
 8757SOL     OW37732   1.149   4.107   6.296 -0.7216 -0.1539  0.5377
 8757SOL    HW137733   1.158   4.012   6.283  0.4871  0.1850 -1.0285
 8757SOL    HW237734   1.057   4.114   6.323 -0.5972 -1.9546  1.4795
 8758SOL     OW37735   2.029   2.072   8.558  0.3381 -0.4595  0.1975
 8758SOL    HW137736   1.936   2.056   8.541  0.5850 -2.5781  0.8113
 8758SOL    HW237737   2.028   2.165   8.578 -0.1047 -0.5737  0.7138
 8759SOL     OW37738   3.886   1.841  11.930 -0.1278 -0.1943 -0.1076
 8759SOL    HW137739   3.812   1.812  11.984 -0.6434  0.5498 -0.4222
 8759SOL    HW237740   3.928   1.911  11.978 -1.7013  0.4884  0.2712
 8760SOL     OW37741   4.654   4.101   3.244  0.0935 -0.2827  0.0815
 8760SOL    HW137742   4.639   4.037   3.314  0.2005 -1.2234 -0.7607
 8760SOL    HW237743   4.593   4.062   3.181 -0.5018 -0.0232  0.5011
 8761SOL     OW37744   0.797   2.845   4.960  0.1575 -0.3801 -0.0595
 8761SOL    HW137745   0.755   2.885   5.036  0.9610  0.7545 -0.2154
 8761SOL    HW237746   0.858   2.918   4.949  0.7184 -1.1084 -1.8139
 8762SOL     OW37747   3.203   2.952   2.542 -0.4065  0.5436  0.1069
 8762SOL    HW137748   3.261   2.972   2.615 -0.5502  2.0586 -0.1992
 8762SOL    HW237749   3.168   2.865   2.562  0.2872  0.2521  0.0737
 8763SOL     OW37750   0.825   0.517   2.711 -0.3674 -1.0282  0.4318
 8763SOL    HW137751   0.860   0.598   2.748 -1.1512  0.6071 -2.3736
 8763SOL    HW237752   0.796   0.480   2.794  1.0707 -0.8210  1.0213
 8764SOL     OW37753   3.651   2.298  10.741  0.2910  0.2182  0.2665
 8764SOL    HW137754   3.576   2.278  10.685 -0.0341  1.0130  0.4176
 8764SOL    HW237755   3.602   2.334  10.816  0.1691  1.0045 -0.1903
 8765SOL     OW37756   4.489   1.917   4.525 -0.1038 -0.0361 -0.5225
 8765SOL    HW137757   4.443   1.981   4.579 -0.6586  0.3571 -1.4639
 8765SOL    HW237758   4.531   1.978   4.465 -1.4873  0.0201 -1.4292
 8766SOL     OW37759   1.553   0.370   2.068 -0.0715 -0.2204  0.3638
 8766SOL    HW137760   1.560   0.456   2.027  0.7812 -0.4950 -0.0648
 8766SOL    HW237761   1.526   0.407   2.152 -2.1536  0.3842 -0.5661
 8767SOL     OW37762   3.828   2.230  12.713 -0.1099 -0.6962  0.7331
 8767SOL    HW137763   3.810   2.288  12.787 -1.0644 -0.4835  0.3276
 8767SOL    HW237764   3.921   2.248  12.695 -0.0674 -2.8599 -1.2836
 8768SOL     OW37765   3.212   1.929  13.052  0.0602 -0.4747 -0.0306
 8768SOL    HW137766   3.269   1.892  13.120  1.0930 -0.0451 -0.6606
 8768SOL    HW237767   3.155   1.990  13.098 -2.2332 -0.3203 -3.0899
 8769SOL     OW37768   4.165   0.793   0.240  0.0247  0.1759 -0.2219
 8769SOL    HW137769   4.224   0.862   0.271 -1.1952  0.7644  0.7745
 8769SOL    HW237770   4.203   0.777   0.154  0.7876 -1.4913  0.4073
 8770SOL     OW37771   0.976   4.251  10.393 -0.2780 -0.3116 -0.1240
 8770SOL    HW137772   0.934   4.203  10.321 -2.4976  0.3632  0.7126
 8770SOL    HW237773   1.052   4.194  10.398 -0.3696 -0.4633 -0.4284
 8771SOL     OW37774   0.759   3.314   2.664  0.0272  0.7614 -0.1267
 8771SOL    HW137775   0.750   3.247   2.731 -1.2311 -0.0368 -1.1090
 8771SOL    HW237776   0.787   3.266   2.586  2.1952  1.2005  0.3778
 8772SOL     OW37777   4.617   2.853  13.838 -0.0714  0.3098 -0.6510
 8772SOL    HW137778   4.565   2.835  13.760  0.0164  0.9614 -0.8595
 8772SOL    HW237779   4.706   2.857  13.805  0.5016  0.4224  0.8969
 8773SOL     OW37780   1.070   1.060   9.841  0.2580  0.3165 -0.0651
 8773SOL    HW137781   1.019   1.029   9.765  1.6713  0.6948 -1.1663
 8773SOL    HW237782   1.015   1.138   9.853 -1.1215 -0.1476 -3.1946
 8774SOL     OW37783   3.308   2.303   6.654 -0.0789  0.1321  0.2617
 8774SOL    HW137784   3.352   2.291   6.569 -0.1650  0.0071  0.2346
 8774SOL    HW237785   3.317   2.399   6.658 -1.3729  0.1136  3.0493
 8775SOL     OW37786   4.293   3.745  11.976 -0.5681  0.8117 -0.6507
 8775SOL    HW137787   4.380   3.778  11.954  0.1443  1.8121  3.5366
 8775SOL    HW237788   4.247   3.765  11.895 -1.6685 -0.4228 -0.3304
 8776SOL     OW37789   1.240   0.826   2.052 -0.3309  0.2718 -0.5154
 8776SOL    HW137790   1.288   0.744   2.049 -1.1747 -0.2311 -0.4102
 8776SOL    HW237791   1.163   0.785   2.012  0.3819 -2.2189  0.6534
 8777SOL     OW37792   1.846   0.465   7.584 -0.5695  0.4845  0.8141
 8777SOL    HW137793   1.922   0.503   7.629 -0.7438 -0.2041  1.6907
 8777SOL    HW237794   1.845   0.533   7.517 -1.4966 -0.3100  0.0202
 8778SOL     OW37795   2.101   0.742   8.205 -0.6767 -0.0851  0.3435
 8778SOL    HW137796   2.150   0.659   8.205  0.0207  0.3268  1.7534
 8778SOL    HW237797   2.032   0.715   8.265 -1.8208 -0.0437 -0.9632
 8779SOL     OW37798   1.085   0.315  16.455  0.4665  0.6292 -0.0193
 8779SOL    HW137799   1.080   0.368  16.534  1.0784 -1.0386  1.1543
 8779SOL    HW237800   1.000   0.325  16.412 -0.2255 -3.6362  0.3342
 8780SOL     OW37801   4.078   3.733   9.918  0.2393 -0.0100  0.0578
 8780SOL    HW137802   4.091   3.718   9.824  0.6412  2.4189 -0.2745
 8780SOL    HW237803   4.069   3.826   9.940  0.4104  0.4463 -1.7833
 8781SOL     OW37804   4.263   3.535   5.030 -0.1897 -0.5714  0.5690
 8781SOL    HW137805   4.291   3.474   4.962 -1.5629 -0.2190 -0.3075
 8781SOL    HW237806   4.341   3.536   5.086  1.0289  0.4264 -1.1586
 8782SOL     OW37807   2.575   2.219  16.676 -0.0103  0.4618 -0.6680
 8782SOL    HW137808   2.662   2.205  16.714 -0.1509 -0.1491 -0.5786
 8782SOL    HW237809   2.587   2.313  16.664 -2.0804  1.2104  3.0606
 8783SOL     OW37810   4.565   1.657   4.686 -0.0195 -0.2032 -0.4427
 8783SOL    HW137811   4.539   1.739   4.645 -1.0800 -1.4136 -2.1753
 8783SOL    HW237812   4.597   1.682   4.773 -1.8262  1.8017 -0.3688
 8784SOL     OW37813   4.370   4.212   4.162  0.2721 -0.3282  0.4011
 8784SOL    HW137814   4.381   4.307   4.175 -1.7761 -0.2631  1.7667
 8784SOL    HW237815   4.394   4.196   4.071 -0.9786 -1.0397  0.1979
 8785SOL     OW37816   4.068   0.674   2.537 -0.9728  0.0251  0.1350
 8785SOL    HW137817   4.119   0.598   2.511 -0.5747  0.9488 -1.8064
 8785SOL    HW237818   3.978   0.643   2.526  0.6161 -3.6119 -2.5910
 8786SOL     OW37819   0.362   3.371  14.087 -0.2097 -0.2428 -0.5950
 8786SOL    HW137820   0.288   3.425  14.059  0.0269 -0.8641 -2.4436
 8786SOL    HW237821   0.390   3.344  13.999 -0.5083 -0.3923 -0.6436
 8787SOL     OW37822   1.101   1.865   1.323  0.6591 -0.3027 -0.6961
 8787SOL    HW137823   1.048   1.942   1.339  0.0984 -0.6703 -0.8005
 8787SOL    HW237824   1.076   1.813   1.399  0.2714 -2.4695 -2.2833
 8788SOL     OW37825   1.671   4.451   5.249 -0.3228  0.4418  0.0367
 8788SOL    HW137826   1.766   4.449   5.236 -0.1661 -0.6106  1.3324
 8788SOL    HW237827   1.649   4.458   5.156 -0.6144  1.3615  0.1752
 8789SOL     OW37828   1.104   4.221   2.885  0.5235 -0.3080  0.2286
 8789SOL    HW137829   1.035   4.262   2.936 -0.7022 -1.5896 -0.3899
 8789SOL    HW237830   1.078   4.242   2.795  3.1626 -0.0941 -0.4780
 8790SOL     OW37831   2.538   4.185   5.220  0.4708  0.8660 -0.2328
 8790SOL    HW137832   2.470   4.168   5.285  0.7038  0.6649 -0.0360
 8790SOL    HW237833   2.616   4.182   5.277  0.6833 -0.3967 -0.5827
 8791SOL     OW37834   0.577   1.081   4.447 -0.4508  0.5294 -0.0206
 8791SOL    HW137835   0.584   1.088   4.542  0.2094  0.0835 -0.0374
 8791SOL    HW237836   0.658   1.125   4.421  1.5669 -3.5924 -0.6811
 8792SOL     OW37837   0.005   0.711   7.253 -0.6997 -0.3241  0.2526
 8792SOL    HW137838   4.649   0.681   7.211  0.6224  0.1736 -2.5853
 8792SOL    HW237839   0.021   0.639   7.313 -1.3111 -2.0138 -1.6321
 8793SOL     OW37840   2.187   2.233   3.161  0.2685 -0.6487  0.4214
 8793SOL    HW137841   2.243   2.269   3.093  0.1660 -0.2252  0.5594
 8793SOL    HW237842   2.250   2.213   3.231  0.0728  0.3094  0.8809
 8794SOL     OW37843   0.967   2.237   8.061 -0.2605 -0.0159 -0.6816
 8794SOL    HW137844   0.950   2.317   8.011 -0.2781 -0.5134 -1.4640
 8794SOL    HW237845   0.879   2.213   8.088  0.3938 -2.3879 -0.6637
 8795SOL     OW37846   1.519   0.075   2.291  0.2342 -0.2111  0.2495
 8795SOL    HW137847   1.465   0.148   2.322  0.4083  0.1625 -0.3246
 8795SOL    HW237848   1.491   0.018   2.363 -0.2803  0.8354  0.8753
 8796SOL     OW37849   4.082   3.999   1.927 -0.1673 -0.0236 -0.2211
 8796SOL    HW137850   3.988   3.988   1.911 -0.6598 -0.0966  2.8124
 8796SOL    HW237851   4.106   3.915   1.967 -1.2409 -0.6126 -0.7984
 8797SOL     OW37852   1.113   2.272   6.441 -0.3084 -0.3613  0.3943
 8797SOL    HW137853   1.029   2.315   6.424 -0.0946  0.2878  0.9715
 8797SOL    HW237854   1.159   2.269   6.358 -0.0584  0.6231  0.5039
 8798SOL     OW37855   0.905   2.806   6.396 -0.1538 -0.3044  0.3815
 8798SOL    HW137856   0.865   2.893   6.396 -0.3929 -0.4092 -1.2690
 8798SOL    HW237857   0.958   2.800   6.316 -2.5453  0.9828 -1.3059
 8799SOL     OW37858   2.583   2.181   6.359 -0.2344  0.1178 -0.4804
 8799SOL    HW137859   2.674   2.151   6.355 -0.3711 -0.6168  2.0884
 8799SOL    HW237860   2.526   2.123   6.307 -1.0685  1.4341 -1.0142
 8800SOL     OW37861   1.831   2.626  16.432 -0.3825  0.3600 -0.0565
 8800SOL    HW137862   1.815   2.682  16.356 -0.0787 -0.6490 -0.8638
 8800SOL    HW237863   1.879   2.550  16.398  1.8023  1.0106  1.5697
 8801SOL     OW37864   0.442   2.929   6.079  0.3908  0.0453 -0.2205
 8801SOL    HW137865   0.464   3.006   6.132 -1.6791 -0.6796  1.6643
 8801SOL    HW237866   0.483   2.950   5.995  0.0444 -1.1245 -0.6825
 8802SOL     OW37867   2.063   1.329   2.363 -0.1817 -0.9951  0.4472
 8802SOL    HW137868   1.984   1.350   2.314  1.5769  1.5670 -1.2810
 8802SOL    HW237869   2.138   1.354   2.309 -0.3207  1.3752  1.3721
 8803SOL     OW37870   3.914   0.109   3.405  0.2391 -0.1229 -0.0355
 8803SOL    HW137871   3.966   0.108   3.324  0.6580  0.1305  0.2314
 8803SOL    HW237872   3.845   0.170   3.381 -1.0605 -1.3977  0.4666
 8804SOL     OW37873   3.819   1.049   6.220  0.0819  0.1161 -0.1791
 8804SOL    HW137874   3.874   1.004   6.155  0.7631 -0.7671  1.0123
 8804SOL    HW237875   3.735   1.009   6.197  0.2235 -1.9528  2.9855
 8805SOL     OW37876   3.095   0.751  12.330  0.0970  0.0266 -0.3193
 8805SOL    HW137877   3.176   0.729  12.376 -0.1040  1.0767  0.5491
 8805SOL    HW237878   3.098   0.847  12.330  0.9936 -0.0039 -1.9217
 8806SOL     OW37879   2.554   2.051  13.050 -0.4991 -0.1247 -0.0403
 8806SOL    HW137880   2.567   1.990  13.122  0.1657 -0.1504 -0.1878
 8806SOL    HW237881   2.607   2.125  13.080 -0.2241 -0.5454  0.5077
 8807SOL     OW37882   3.329   3.877   7.133  0.4510 -0.3650 -0.0322
 8807SOL    HW137883   3.315   3.947   7.198  1.5478 -0.8296  0.7122
 8807SOL    HW237884   3.242   3.868   7.096  1.3347 -1.0316 -1.9415
 8808SOL     OW37885   1.092   4.237   5.855 -0.1643 -0.8749  0.0374
 8808SOL    HW137886   1.102   4.322   5.811 -0.9728 -1.1100 -0.5955
 8808SOL    HW237887   1.008   4.248   5.899 -0.2814 -0.9299 -0.1741
 8809SOL     OW37888   3.947   1.372   9.473 -0.1076  0.5418 -0.7438
 8809SOL    HW137889   3.956   1.414   9.559 -2.0368  0.3581 -0.4561
 8809SOL    HW237890   3.921   1.455   9.432  2.2295  1.8537  0.4233
 8810SOL     OW37891   1.136   4.575   9.164  0.0814 -0.2696 -0.6576
 8810SOL    HW137892   1.104   4.575   9.254  2.7244 -2.7570  0.2715
 8810SOL    HW237893   1.225   4.604   9.185 -0.3654 -0.5312  1.5220
 8811SOL     OW37894   1.600   1.825   8.424  0.3467 -0.3382  0.4081
 8811SOL    HW137895   1.566   1.736   8.435 -1.1589  0.2057  0.0746
 8811SOL    HW237896   1.515   1.868   8.413  0.7319  0.5261  0.7573
 8812SOL     OW37897   1.332   1.629   6.953  0.3491  0.4680 -0.4826
 8812SOL    HW137898   1.271   1.701   6.969  1.5340  1.0484  1.4639
 8812SOL    HW237899   1.294   1.559   7.006 -0.4248  0.3490 -1.2016
 8813SOL     OW37900   3.568   1.840   7.555 -0.6076  0.5055  0.4318
 8813SOL    HW137901   3.495   1.787   7.523 -2.5313  1.5966  2.9787
 8813SOL    HW237902   3.637   1.778   7.580  0.1241  0.1951 -2.3706
 8814SOL     OW37903   2.188   4.433   3.032  0.2837 -0.2647 -0.0115
 8814SOL    HW137904   2.139   4.374   2.974 -0.1129 -1.0513  1.1171
 8814SOL    HW237905   2.143   4.517   3.037 -1.4696 -1.0799 -1.9049
 8815SOL     OW37906   2.806   0.174   5.567  0.2653 -0.2139  0.3782
 8815SOL    HW137907   2.849   0.238   5.623 -1.8383  1.6825 -0.1859
 8815SOL    HW237908   2.875   0.108   5.580  1.2212  0.3588 -1.7071
 8816SOL     OW37909   4.209   4.279   7.792  0.5104 -0.8416  0.7164
 8816SOL    HW137910   4.172   4.272   7.880 -0.1623 -0.1484  0.4870
 8816SOL    HW237911   4.137   4.325   7.750 -0.0489 -2.7004 -0.3894
 8817SOL     OW37912   2.898   4.548   4.056  0.3259  0.1478  0.4992
 8817SOL    HW137913   2.952   4.492   4.000  2.1308  0.5161  1.8437
 8817SOL    HW237914   2.956   4.624   4.058  0.3923  0.0697  1.3037
 8818SOL     OW37915   1.541   3.657  13.575  0.3206  0.3466 -0.5082
 8818SOL    HW137916   1.493   3.598  13.518  3.5310 -0.8464 -1.9890
 8818SOL    HW237917   1.525   3.603  13.652 -1.7854  0.6463 -0.7407
 8819SOL     OW37918   4.130   2.234   8.084  0.5838 -0.2137  0.6016
 8819SOL    HW137919   4.050   2.264   8.040  1.2957  1.9297  0.7591
 8819SOL    HW237920   4.181   2.314   8.095  0.0525  0.2507 -0.3827
 8820SOL     OW37921   4.148   0.850   1.988  0.1218 -0.3674 -0.2587
 8820SOL    HW137922   4.233   0.836   2.030 -1.2196 -2.3628  1.7863
 8820SOL    HW237923   4.150   0.799   1.907  0.4941 -0.3049 -0.2885
 8821SOL     OW37924   3.836   0.669   7.664  0.2236 -0.4880  0.2651
 8821SOL    HW137925   3.932   0.665   7.667  0.2359 -0.1265  0.4297
 8821SOL    HW237926   3.815   0.585   7.623  0.1365  0.1415 -0.9705
 8822SOL     OW37927   1.287   1.049  12.269 -0.2506 -0.4891  0.3032
 8822SOL    HW137928   1.197   1.056  12.240 -0.5864 -2.7880  0.7936
 8822SOL    HW237929   1.337   1.069  12.190  1.2797 -0.7138  1.2113
 8823SOL     OW37930   1.125   2.086   3.691 -0.5648  0.1405 -0.2919
 8823SOL    HW137931   1.122   2.076   3.596  0.7244  0.7673 -0.4040
 8823SOL    HW237932   1.170   2.169   3.705  0.0879 -0.1011 -0.9275
 8824SOL     OW37933   3.639   2.683  12.279  0.1383 -0.1648 -0.6807
 8824SOL    HW137934   3.581   2.735  12.335 -1.0971 -1.1598 -1.0347
 8824SOL    HW237935   3.621   2.713  12.190 -0.4407  0.5621 -0.3266
 8825SOL     OW37936   3.882   4.559   6.806  0.2719  0.3876  0.7799
 8825SOL    HW137937   3.953   4.556   6.869 -0.4603 -0.7450  1.5455
 8825SOL    HW237938   3.826   4.485   6.831 -2.3824  1.5895 -1.5854
 8826SOL     OW37939   2.593   2.897   7.235  0.3238  0.7071  0.1981
 8826SOL    HW137940   2.503   2.915   7.263  0.5829  2.1095  0.1067
 8826SOL    HW237941   2.630   2.883   7.322  0.5926  0.7372  0.0904
 8827SOL     OW37942   1.394   3.969   1.025 -0.2483 -0.3447  0.0567
 8827SOL    HW137943   1.306   3.943   0.999 -0.8426  2.2217 -0.5803
 8827SOL    HW237944   1.439   3.885   1.019  2.0822  0.7937  1.7193
 8828SOL     OW37945   3.192   0.596   8.964  0.5499 -0.1149  0.7019
 8828SOL    HW137946   3.153   0.520   9.006  1.3655 -1.7321 -1.4749
 8828SOL    HW237947   3.214   0.569   8.875  4.3552  2.2643  0.8904
 8829SOL     OW37948   3.470   1.534   8.342  0.6766 -0.2242 -0.4967
 8829SOL    HW137949   3.448   1.465   8.405 -0.3805  1.5874  1.1267
 8829SOL    HW237950   3.496   1.487   8.262 -2.1394 -0.7335 -1.0983
 8830SOL     OW37951   1.228   1.122   2.060  0.2753  0.2640 -0.0196
 8830SOL    HW137952   1.230   1.027   2.076 -0.7111  0.7526  3.0978
 8830SOL    HW237953   1.241   1.157   2.148 -0.5498 -2.0835  1.0359
 8831SOL     OW37954   0.453   1.650   8.308 -0.6500 -0.4903 -0.2767
 8831SOL    HW137955   0.417   1.569   8.270  0.7935  0.7974 -4.3506
 8831SOL    HW237956   0.424   1.714   8.243  0.7908 -0.3258 -0.7354
 8832SOL     OW37957   2.701   3.495  12.965  0.0479 -0.1282 -0.0977
 8832SOL    HW137958   2.760   3.560  12.927 -3.9250  3.7012  0.2313
 8832SOL    HW237959   2.751   3.470  13.043 -1.2748  1.5848  1.3053
 8833SOL     OW37960   3.453   3.829   4.538 -0.1341 -0.0336  0.5476
 8833SOL    HW137961   3.370   3.811   4.493  0.0313  0.4750  0.0458
 8833SOL    HW237962   3.511   3.818   4.462  0.6831 -0.2643  1.2116
 8834SOL     OW37963   1.068   3.493   1.206  0.2542 -0.5407 -0.0642
 8834SOL    HW137964   0.995   3.542   1.244 -1.6804 -1.1145 -3.0895
 8834SOL    HW237965   1.137   3.559   1.198 -1.3326  0.9259 -1.6319
 8835SOL     OW37966   1.268   4.438   7.957 -0.4524  0.2865  0.2350
 8835SOL    HW137967   1.273   4.388   8.039 -1.8223  0.6001  0.5117
 8835SOL    HW237968   1.342   4.396   7.914  0.6855  0.4895  1.9984
 8836SOL     OW37969   4.558   3.793   8.068  0.6264 -0.3567 -0.5676
 8836SOL    HW137970   4.553   3.698   8.072 -0.3657 -0.2414  0.8599
 8836SOL    HW237971   4.546   3.792   7.973  0.6350  1.9494 -0.6013
 8837SOL     OW37972   4.462   1.440  15.066  0.1990 -0.3098  0.5138
 8837SOL    HW137973   4.431   1.383  14.996 -2.7733  2.0448 -0.1022
 8837SOL    HW237974   4.471   1.378  15.139 -2.1433  0.1710  1.2151
 8838SOL     OW37975   0.773   0.596   5.088 -0.3700 -0.3799  0.3749
 8838SOL    HW137976   0.862   0.586   5.121 -0.9433 -3.7298  0.8513
 8838SOL    HW237977   0.785   0.556   5.002 -0.3880  0.9576 -0.2669
 8839SOL     OW37978   0.695   4.477   4.825  0.2000 -0.1313 -0.1492
 8839SOL    HW137979   0.753   4.512   4.892 -1.9896  1.4767  0.9042
 8839SOL    HW237980   0.617   4.465   4.879 -0.3557 -0.2177 -0.9695
 8840SOL     OW37981   2.164   3.879   2.184  0.2923  0.1403 -0.4723
 8840SOL    HW137982   2.086   3.922   2.218 -1.0078 -0.9613 -2.0325
 8840SOL    HW237983   2.140   3.792   2.216  0.5043 -0.8433 -2.9627
 8841SOL     OW37984   4.229   1.144   6.432  0.1752  0.1874  0.4565
 8841SOL    HW137985   4.164   1.146   6.362 -0.8728 -2.5399  1.3431
 8841SOL    HW237986   4.206   1.228   6.470 -2.0745 -0.1212 -0.2443
 8842SOL     OW37987   3.100   3.745   2.357 -0.0037  0.4465  0.0667
 8842SOL    HW137988   3.128   3.663   2.397 -1.1399  0.2458  0.4368
 8842SOL    HW237989   3.176   3.769   2.303  0.4083 -0.7699  0.1086
 8843SOL     OW37990   4.206   3.068   2.214 -0.1725  0.3251 -0.3094
 8843SOL    HW137991   4.166   3.095   2.131 -1.4145 -1.0477 -0.1614
 8843SOL    HW237992   4.286   3.020   2.193 -0.0801  0.4988 -0.3598
 8844SOL     OW37993   3.140   3.551   2.118 -0.1088 -0.0006 -0.7531
 8844SOL    HW137994   3.169   3.633   2.158 -0.5638 -0.4068  0.4178
 8844SOL    HW237995   3.092   3.511   2.190  2.6364 -0.2435  0.9352
 8845SOL     OW37996   0.910   3.508   2.798  0.1876  0.0335  0.2869
 8845SOL    HW137997   0.974   3.445   2.832 -0.0631 -0.2621  0.2179
 8845SOL    HW237998   0.882   3.443   2.733  2.7927 -2.0499  1.2365
 8846SOL     OW37999   0.180   2.896  12.462  0.2093 -0.4142 -0.7468
 8846SOL    HW138000   0.232   2.858  12.391  0.4010 -1.7769  0.1248
 8846SOL    HW238001   0.136   2.817  12.493  0.7266  0.3239  1.8436
 8847SOL     OW38002   4.660   1.588   7.161  0.6419  0.3994 -0.0111
 8847SOL    HW138003   4.675   1.501   7.197 -1.8652 -0.3014 -0.6262
 8847SOL    HW238004   4.597   1.627   7.223  1.6994 -0.8993  1.8770
 8848SOL     OW38005   1.936   1.073   2.373 -0.3688  0.3067 -0.3911
 8848SOL    HW138006   1.987   1.152   2.354  0.2291  0.0767  0.2582
 8848SOL    HW238007   2.005   1.027   2.420 -0.8702  1.6000  1.5941
 8849SOL     OW38008   2.917   4.076   6.726  0.4549  0.5177 -0.2867
 8849SOL    HW138009   2.927   3.994   6.677  0.2902  0.9897 -1.1119
 8849SOL    HW238010   2.849   4.116   6.671 -2.7539 -2.4532  1.5116
 8850SOL     OW38011   2.371   0.986   6.833  0.2318  0.3372  0.6486
 8850SOL    HW138012   2.292   0.941   6.862 -0.8896  2.7365  1.2801
 8850SOL    HW238013   2.411   0.911   6.788 -1.4993  1.4100 -2.6005
 8851SOL     OW38014   3.673   0.362  11.156  0.1952  0.5842  0.0715
 8851SOL    HW138015   3.596   0.418  11.162  1.1741  2.0824 -1.3364
 8851SOL    HW238016   3.704   0.382  11.244  0.7269  3.5265 -0.8025
 8852SOL     OW38017   4.418   4.598  11.779 -0.3142 -0.2645  0.6197
 8852SOL    HW138018   4.361   4.593  11.702  3.6266  0.9973 -2.3599
 8852SOL    HW238019   4.363   4.550  11.841  2.3454 -2.0461  1.5544
 8853SOL     OW38020   0.087   4.055   5.942  0.3630 -0.4428 -0.3033
 8853SOL    HW138021   0.064   4.029   5.852  0.7320  0.8854 -0.7764
 8853SOL    HW238022   0.041   4.138   5.950  1.2531 -0.1792  1.8905
 8854SOL     OW38023   0.133   3.746  17.485  0.0941 -0.6739  0.0987
 8854SOL    HW138024   0.214   3.737  17.537  0.2026  0.2944  0.0943
 8854SOL    HW238025   0.075   3.770  17.557 -1.1352 -1.3555 -0.6682
 8855SOL     OW38026   0.563   0.093   0.745 -0.2475  0.0997  0.0318
 8855SOL    HW138027   0.489   0.146   0.775  0.8893  2.4322 -1.3065
 8855SOL    HW238028   0.521   0.029   0.687  0.8433 -2.0474  1.5972
 8856SOL     OW38029   0.810   0.496  14.601 -0.0952 -0.2681  0.3538
 8856SOL    HW138030   0.726   0.505  14.646  0.7846 -1.0408  2.1421
 8856SOL    HW238031   0.799   0.556  14.527  1.1179 -1.6485 -0.9549
 8857SOL     OW38032   3.416   4.061   0.360  0.4880  0.3875  0.6005
 8857SOL    HW138033   3.359   4.079   0.284 -1.5822  2.0733  2.5437
 8857SOL    HW238034   3.347   4.036   0.421  0.7744 -0.0068  0.7606
 8858SOL     OW38035   3.067   4.008   3.063 -0.6969 -0.3129  0.2554
 8858SOL    HW138036   3.022   4.022   2.980  0.1258 -0.5490 -0.2306
 8858SOL    HW238037   3.000   4.017   3.132 -0.1256  0.0867  0.7577
 8859SOL     OW38038   2.469   1.248   2.837  0.4112 -0.0730 -0.0402
 8859SOL    HW138039   2.447   1.160   2.809  1.3798 -0.2138 -0.3774
 8859SOL    HW238040   2.522   1.279   2.763 -0.7805  0.5990 -0.6241
 8860SOL     OW38041   3.809   1.506   3.946  0.4109  0.2167 -0.0495
 8860SOL    HW138042   3.721   1.540   3.928  0.8855  1.7485  0.4488
 8860SOL    HW238043   3.788   1.418   3.976  1.1348  0.0944  0.1019
 8861SOL     OW38044   1.904   4.655   6.215  0.4730  0.1442  0.4129
 8861SOL    HW138045   1.952   4.627   6.293 -0.2074  1.0581  1.1634
 8861SOL    HW238046   1.826   4.690   6.256  1.0902  0.9855  0.8710
 8862SOL     OW38047   0.298   2.103  13.831 -0.0711  0.0298  0.3761
 8862SOL    HW138048   0.342   2.184  13.859 -0.4797  1.1713 -2.2488
 8862SOL    HW238049   0.372   2.045  13.813 -2.0473 -2.6147  0.8984
 8863SOL     OW38050   3.111   3.659   5.421 -0.1544  0.2675  0.0227
 8863SOL    HW138051   3.058   3.733   5.394 -0.0441  0.8682  1.4256
 8863SOL    HW238052   3.196   3.672   5.378  0.0035 -0.9452 -0.0327
 8864SOL     OW38053   4.338   2.621   9.296 -0.2376  0.4444  0.3580
 8864SOL    HW138054   4.397   2.591   9.366 -0.0741  0.7056  0.3329
 8864SOL    HW238055   4.355   2.554   9.229  1.7438  1.5613 -0.2528
 8865SOL     OW38056   1.165   2.230   5.309 -0.5745 -0.1672 -0.1802
 8865SOL    HW138057   1.191   2.265   5.394 -1.4135 -1.4554  0.6096
 8865SOL    HW238058   1.143   2.311   5.263  1.1230  0.8462  0.7973
 8866SOL     OW38059   1.940   3.579   5.255  0.1304  0.4529  0.0720
 8866SOL    HW138060   1.988   3.654   5.220  1.0811  1.1573  2.8916
 8866SOL    HW238061   2.014   3.520   5.269 -0.5765 -0.0591  1.6895
 8867SOL     OW38062   4.084   0.318   1.518  0.5101  0.0846  0.4150
 8867SOL    HW138063   4.119   0.376   1.587  2.6646 -1.2734  0.4616
 8867SOL    HW238064   4.156   0.325   1.456 -0.2357  0.4760 -0.4074
 8868SOL     OW38065   0.668   3.128   0.555  0.3451  0.0505 -0.0531
 8868SOL    HW138066   0.610   3.052   0.553 -0.1558  0.4496 -0.3488
 8868SOL    HW238067   0.619   3.203   0.523 -0.7925 -0.7325 -0.1534
 8869SOL     OW38068   4.509   3.578   4.558  0.3220  0.1017 -0.2691
 8869SOL    HW138069   4.494   3.510   4.492 -0.0735 -0.5696  0.5214
 8869SOL    HW238070   4.546   3.645   4.501 -0.3019  0.4084 -0.3082
 8870SOL     OW38071   1.547   2.035  13.332 -0.0558 -0.3425  0.4186
 8870SOL    HW138072   1.541   2.082  13.250 -0.8695 -1.6246 -0.2612
 8870SOL    HW238073   1.519   2.105  13.392  0.3357 -1.1624  1.5722
 8871SOL     OW38074   2.900   1.690  10.816 -0.0960 -0.1711  0.0786
 8871SOL    HW138075   2.847   1.685  10.895  0.2914 -3.0809  0.1597
 8871SOL    HW238076   2.846   1.740  10.754 -0.4925 -0.7862 -0.0670
 8872SOL     OW38077   2.185   1.181   7.992  0.4170  0.7116  0.3360
 8872SOL    HW138078   2.215   1.090   8.003 -0.1109  0.4006 -0.7527
 8872SOL    HW238079   2.100   1.172   8.033  0.9993 -1.8637  0.9697
 8873SOL     OW38080   0.131   3.699   7.103  0.1848 -0.1411  0.0331
 8873SOL    HW138081   0.045   3.657   7.100  0.0020  0.1931  0.6336
 8873SOL    HW238082   0.181   3.629   7.061  2.4490  0.7116  1.3025
 8874SOL     OW38083   4.436   2.363   0.562 -0.2568 -0.6245 -0.4291
 8874SOL    HW138084   4.475   2.361   0.649  1.0489 -1.2346 -1.0241
 8874SOL    HW238085   4.353   2.409   0.577  0.4306  0.5293 -0.1049
 8875SOL     OW38086   0.510   3.068   9.576  0.3970  0.0120  0.5263
 8875SOL    HW138087   0.527   3.048   9.484 -0.0457 -0.4915  0.5533
 8875SOL    HW238088   0.491   3.162   9.573  0.8454  0.0951  0.3619
 8876SOL     OW38089   2.424   2.933  13.440 -0.2926  0.7158  0.1966
 8876SOL    HW138090   2.475   2.894  13.369  2.7756  1.6351  1.9218
 8876SOL    HW238091   2.452   3.024  13.437  2.7110 -0.1623  1.4103
 8877SOL     OW38092   0.133   3.973   9.346 -0.1149 -0.0049  0.4575
 8877SOL    HW138093   0.097   4.001   9.261  1.0200  1.1620  0.3585
 8877SOL    HW238094   0.123   4.050   9.402 -3.3566  0.8545 -1.2971
 8878SOL     OW38095   1.766   4.604   4.649 -0.4557 -0.2401 -0.5960
 8878SOL    HW138096   1.766   4.697   4.670  0.4380 -0.3325 -0.1643
 8878SOL    HW238097   1.855   4.585   4.680 -0.2318  2.8226  0.6031
 8879SOL     OW38098   3.580   2.546   6.888  0.0989  0.0316 -0.5726
 8879SOL    HW138099   3.597   2.480   6.821  1.6962  0.3434 -0.4634
 8879SOL    HW238100   3.628   2.507   6.960 -0.6614 -1.9199 -1.1307
 8880SOL     OW38101   2.765   0.237  13.111 -0.0263  0.6290 -0.3789
 8880SOL    HW138102   2.681   0.233  13.156  1.1995  2.0759  2.0282
 8880SOL    HW238103   2.804   0.305  13.166 -2.6411  1.2188  0.7399
 8881SOL     OW38104   2.820   3.068   3.978  0.0542 -0.0432 -0.2210
 8881SOL    HW138105   2.871   3.115   4.044 -0.1642 -0.8759  0.5320
 8881SOL    HW238106   2.879   2.997   3.954  0.2106 -0.0804  0.2785
 8882SOL     OW38107   4.116   2.166   7.730 -0.0590  0.4638 -0.4985
 8882SOL    HW138108   4.047   2.101   7.746  0.3906  0.6450  2.2302
 8882SOL    HW238109   4.105   2.229   7.802 -1.1784  1.2034 -1.3053
 8883SOL     OW38110   0.681   4.223   5.482  0.3930  0.3801  0.1888
 8883SOL    HW138111   0.640   4.309   5.487 -1.1679 -0.4825  2.5763
 8883SOL    HW238112   0.764   4.242   5.439 -0.3879  2.1272 -0.5299
 8884SOL     OW38113   1.270   1.586   2.914 -0.1774 -0.6697 -0.3750
 8884SOL    HW138114   1.190   1.538   2.891 -2.6133  2.2350  2.0354
 8884SOL    HW238115   1.290   1.549   3.000 -1.1196  3.4272  1.5665
 8885SOL     OW38116   3.698   1.387   6.378 -0.2482  0.8148  0.2813
 8885SOL    HW138117   3.761   1.423   6.315 -0.9530  0.8514 -0.4059
 8885SOL    HW238118   3.710   1.442   6.455  0.4793 -0.0810  0.8021
 8886SOL     OW38119   4.059   1.834   7.682  0.3187 -0.4031 -0.0815
 8886SOL    HW138120   4.131   1.805   7.738 -0.3421 -0.9125  0.5235
 8886SOL    HW238121   4.007   1.756   7.663  0.4222 -0.3149 -0.7104
 8887SOL     OW38122   0.739   1.075   6.589  0.0001 -0.1293  0.1955
 8887SOL    HW138123   0.667   1.013   6.588 -0.1077 -0.0087  0.5659
 8887SOL    HW238124   0.812   1.017   6.609  0.5222  0.5647  0.3115
 8888SOL     OW38125   1.884   1.786   6.309 -0.2777  0.2860 -0.1559
 8888SOL    HW138126   1.966   1.737   6.305  0.0146  0.8315 -0.8262
 8888SOL    HW238127   1.847   1.734   6.238 -1.0169  0.9269 -0.2360
 8889SOL     OW38128   3.795   0.746   9.983  0.4208  0.2832 -0.0515
 8889SOL    HW138129   3.800   0.730  10.077 -0.3833  0.1665 -0.0268
 8889SOL    HW238130   3.730   0.680   9.957 -0.7702  1.0436  0.9489
 8890SOL     OW38131   0.848   4.285   4.011  0.0185 -0.7074  0.3749
 8890SOL    HW138132   0.839   4.193   3.985 -1.6724 -0.7258  1.0284
 8890SOL    HW238133   0.922   4.281   4.071  1.2023 -0.0128 -1.0521
 8891SOL     OW38134   0.645   2.824   1.594 -0.4724  0.0513  0.1569
 8891SOL    HW138135   0.641   2.734   1.562 -2.1229 -0.1400  0.8757
 8891SOL    HW238136   0.655   2.878   1.516  1.3098 -1.1775 -0.4609
 8892SOL     OW38137   0.802   2.221   6.152  0.4285  0.5898 -0.5613
 8892SOL    HW138138   0.888   2.205   6.113  0.5430 -0.0659 -0.0318
 8892SOL    HW238139   0.830   2.269   6.230  3.0740 -0.6884 -0.7279
 8893SOL     OW38140   3.050   3.216   1.386 -0.2044 -0.0107  0.1918
 8893SOL    HW138141   2.964   3.190   1.419  0.2747  0.2403  1.6163
 8893SOL    HW238142   3.041   3.311   1.395  2.7401  0.1740  1.1689
 8894SOL     OW38143   2.893   0.965   7.933  0.7207  0.2006  0.5033
 8894SOL    HW138144   2.945   0.933   7.860  0.5325  1.7883 -0.3218
 8894SOL    HW238145   2.913   1.059   7.929  0.4820  0.2678  0.8880
 8895SOL     OW38146   0.301   4.628  13.254 -0.5591 -0.4728 -0.1023
 8895SOL    HW138147   0.267   4.621  13.165  2.7928  0.4694 -1.4716
 8895SOL    HW238148   0.293   4.720  13.279 -0.8800 -1.2252  2.5720
 8896SOL     OW38149   3.831   1.186   5.649 -0.5498 -0.2607 -0.4024
 8896SOL    HW138150   3.917   1.160   5.684  0.0073  0.7312 -1.0202
 8896SOL    HW238151   3.796   1.101   5.621 -2.6460  0.4363  0.1062
 8897SOL     OW38152   4.551   3.839   7.799 -0.1287 -0.3653 -0.1498
 8897SOL    HW138153   4.514   3.920   7.765  0.4944  0.3331  0.8210
 8897SOL    HW238154   4.534   3.777   7.728  2.2881 -1.6588  0.3820
 8898SOL     OW38155   0.886   1.930   2.731 -0.2619  0.3569  0.8503
 8898SOL    HW138156   0.821   1.942   2.662 -1.2685  2.3538  2.1552
 8898SOL    HW238157   0.955   1.883   2.684  0.3826  0.5130  1.6375
 8899SOL     OW38158   1.107   0.548  12.722  0.8404  0.1989 -0.6019
 8899SOL    HW138159   1.029   0.535  12.669 -0.5895  4.3323  0.4773
 8899SOL    HW238160   1.172   0.588  12.664  1.5218 -3.0007 -2.0427
 8900SOL     OW38161   0.118   3.070   8.982  0.3348 -0.2577  0.4660
 8900SOL    HW138162   0.119   3.040   9.073 -0.2610  1.1658  0.9437
 8900SOL    HW238163   0.159   2.994   8.941 -0.8848  0.6080 -2.3262
 8901SOL     OW38164   1.307   2.558   6.694  0.2779  0.5578 -0.2984
 8901SOL    HW138165   1.329   2.525   6.606  1.4795  1.3220 -0.2868
 8901SOL    HW238166   1.218   2.590   6.680 -1.5488 -2.6809  3.7730
 8902SOL     OW38167   1.464   4.617   2.478 -0.1487  0.6280  0.1599
 8902SOL    HW138168   1.544   4.572   2.505 -0.0226  0.3636 -0.6578
 8902SOL    HW238169   1.393   4.565   2.516  0.6164 -1.3822 -1.1550
 8903SOL     OW38170   0.310   3.532   9.723 -0.8368 -0.3140 -0.2512
 8903SOL    HW138171   0.330   3.474   9.796  0.5063  0.5413  0.0708
 8903SOL    HW238172   0.220   3.561   9.736 -0.3138  1.3861 -0.3353
 8904SOL     OW38173   4.722   4.011   0.793 -0.4653 -0.0889  0.0892
 8904SOL    HW138174   4.641   3.962   0.780 -1.2260  1.1337  0.2468
 8904SOL    HW238175   0.015   4.047   0.705  2.1948 -2.0006 -0.1852
 8905SOL     OW38176   1.576   3.176   2.954 -0.1487 -0.4386 -0.0492
 8905SOL    HW138177   1.636   3.240   2.915 -0.7304  0.1739  0.0728
 8905SOL    HW238178   1.621   3.153   3.036  0.4572 -2.5616 -1.0051
 8906SOL     OW38179   2.769   4.669   2.375 -0.2116  0.7109  0.3768
 8906SOL    HW138180   2.704   4.682   2.306  0.5193  2.7330  0.0525
 8906SOL    HW238181   2.823   0.023   2.360 -0.3422  0.6612 -0.3347
 8907SOL     OW38182   4.467   3.578  15.186 -0.3758  0.6413  0.2217
 8907SOL    HW138183   4.396   3.597  15.123  0.0566 -1.4142 -0.8737
 8907SOL    HW238184   4.531   3.522  15.144 -0.1169  0.1659  1.2643
 8908SOL     OW38185   1.950   2.157   6.433  0.0363 -0.1190  0.0778
 8908SOL    HW138186   1.877   2.143   6.494  0.5849  0.5044  0.8842
 8908SOL    HW238187   1.928   2.248   6.418 -1.6662 -0.5649 -0.1427
 8909SOL     OW38188   4.267   1.714   4.486 -0.0285 -0.3918  0.1697
 8909SOL    HW138189   4.306   1.801   4.478  1.5309 -1.0380  0.7375
 8909SOL    HW238190   4.338   1.658   4.454  1.8662  0.9692  1.9937
 8910SOL     OW38191   0.205   2.742   6.136 -0.2831 -0.0412  0.0652
 8910SOL    HW138192   0.264   2.805   6.176 -0.8861 -0.4857  1.6701
 8910SOL    HW238193   0.260   2.665   6.121  3.5519  2.0796  3.4444
 8911SOL     OW38194   1.427   2.912   3.843  0.6977  0.0953 -0.0245
 8911SOL    HW138195   1.361   2.849   3.872 -0.7614  2.4326  1.7321
 8911SOL    HW238196   1.486   2.865   3.785  0.2712 -1.0230  0.4479
 8912SOL     OW38197   2.150   3.089  14.239  0.1746  0.0392  0.3218
 8912SOL    HW138198   2.109   3.171  14.266 -0.1424 -0.3131  0.9085
 8912SOL    HW238199   2.074   3.030  14.238  1.5392 -1.7226  0.2871
 8913SOL     OW38200   0.330   3.343   5.535  0.4313  0.0425  0.4350
 8913SOL    HW138201   0.327   3.439   5.543 -1.0998 -0.2291  3.1834
 8913SOL    HW238202   0.368   3.318   5.620 -1.0046 -0.8291  0.8202
 8914SOL     OW38203   2.293   1.942   5.749 -0.0486 -0.3909 -0.0026
 8914SOL    HW138204   2.228   2.007   5.723  0.3547 -0.0866 -0.2734
 8914SOL    HW238205   2.264   1.938   5.840 -1.9774 -0.3252 -0.6224
 8915SOL     OW38206   0.716   1.793  13.180  0.4727 -0.0256  0.3498
 8915SOL    HW138207   0.721   1.888  13.191  2.7402  0.0747 -1.5130
 8915SOL    HW238208   0.623   1.777  13.164  0.9973 -1.1719 -1.5020
 8916SOL     OW38209   3.141   2.394   8.868  0.5470 -0.2402  0.0986
 8916SOL    HW138210   3.205   2.364   8.804  0.3200  0.7143 -0.5721
 8916SOL    HW238211   3.178   2.349   8.944 -1.2565  0.2007  1.2521
 8917SOL     OW38212   2.792   3.386   2.643 -0.6075  0.6621  0.0442
 8917SOL    HW138213   2.872   3.414   2.688 -0.6521  1.1216 -0.1615
 8917SOL    HW238214   2.730   3.407   2.713 -0.2092 -1.9654  1.1679
 8918SOL     OW38215   4.512   3.774   5.293 -0.3147  0.6572 -0.3070
 8918SOL    HW138216   4.510   3.682   5.269  0.3066  1.2781 -2.7142
 8918SOL    HW238217   4.599   3.792   5.257  0.2679 -2.0013 -0.1563
 8919SOL     OW38218   0.473   2.404   2.619  0.0017 -0.3631 -0.2148
 8919SOL    HW138219   0.496   2.388   2.710 -0.9853  0.5514  0.1929
 8919SOL    HW238220   0.395   2.348   2.618 -0.3659  0.1557 -0.6881
 8920SOL     OW38221   4.292   2.731  12.361 -0.2411 -0.3600  0.1200
 8920SOL    HW138222   4.319   2.643  12.335  0.0000 -0.3891  0.4557
 8920SOL    HW238223   4.203   2.726  12.395 -0.0295 -2.2135  0.3596
 8921SOL     OW38224   4.006   4.170   0.218  0.4558 -0.6914 -0.1003
 8921SOL    HW138225   3.942   4.194   0.285  0.2922 -1.3265 -0.0232
 8921SOL    HW238226   4.042   4.093   0.263 -0.3644 -1.1509 -0.2277
 8922SOL     OW38227   1.046   4.455  11.968  0.7222  0.2081  0.1112
 8922SOL    HW138228   1.061   4.405  11.888  1.0968 -0.1649  0.4122
 8922SOL    HW238229   0.950   4.452  11.968  0.7463 -0.7282 -0.2385
 8923SOL     OW38230   4.101   2.701   2.949 -0.2223  0.3788 -0.1552
 8923SOL    HW138231   4.121   2.636   3.017  0.3592 -0.4698 -1.1386
 8923SOL    HW238232   4.181   2.753   2.955 -1.1933  1.9072 -0.4450
 8924SOL     OW38233   3.248   0.934   2.268 -0.7120  0.1202 -0.6164
 8924SOL    HW138234   3.191   0.979   2.206 -0.0355  1.5342 -0.2274
 8924SOL    HW238235   3.196   0.945   2.348  0.4111 -2.5267  0.4621
 8925SOL     OW38236   0.156   1.504   2.587  0.7470  0.5456  0.1895
 8925SOL    HW138237   0.080   1.559   2.601  0.6512  0.8749 -1.5963
 8925SOL    HW238238   0.135   1.429   2.643  1.1141  1.7774  1.9436
 8926SOL     OW38239   4.029   4.257   6.894  0.3282  0.2744  0.1135
 8926SOL    HW138240   4.047   4.277   6.986  0.9927  1.8811 -0.3514
 8926SOL    HW238241   3.937   4.282   6.884  0.2297 -0.3615 -0.5666
 8927SOL     OW38242   3.036   2.454   0.559 -0.5790 -0.0142  0.1370
 8927SOL    HW138243   3.069   2.408   0.637 -2.9481 -0.2655  0.9873
 8927SOL    HW238244   2.943   2.472   0.570 -0.1658  2.1830 -0.0268
 8928SOL     OW38245   2.419   0.985   5.852  0.9252 -0.0326 -0.4376
 8928SOL    HW138246   2.407   0.996   5.758  2.0029  2.6360 -0.2539
 8928SOL    HW238247   2.350   1.042   5.885  0.4737  0.0799 -1.5955
 8929SOL     OW38248   2.496   2.877   8.330 -0.7134  0.5128 -0.2000
 8929SOL    HW138249   2.425   2.918   8.379 -0.1301  1.0477  0.2001
 8929SOL    HW238250   2.455   2.791   8.321 -0.8109  0.5139  0.2379
 8930SOL     OW38251   4.545   0.236  10.360  0.4897 -0.0543 -0.4451
 8930SOL    HW138252   4.547   0.332  10.354  3.4616 -0.2881 -3.5063
 8930SOL    HW238253   4.555   0.216  10.453  0.9651 -1.6888 -0.8456
 8931SOL     OW38254   2.729   2.316   8.331  0.3494  0.6290  0.1172
 8931SOL    HW138255   2.794   2.273   8.276  0.7722  0.4022  0.7873
 8931SOL    HW238256   2.754   2.283   8.418 -1.5416  0.4074  0.5745
 8932SOL     OW38257   2.005   4.531  15.721  0.3361  0.5539  0.0804
 8932SOL    HW138258   2.032   4.464  15.784  1.2526  0.8318 -0.0113
 8932SOL    HW238259   2.088   4.556  15.679  1.3147  1.6050  2.6254
 8933SOL     OW38260   2.911   3.366   7.470  0.2417  0.0513  0.1049
 8933SOL    HW138261   2.993   3.318   7.481 -0.8262 -1.9190 -0.6275
 8933SOL    HW238262   2.921   3.414   7.388 -0.2079 -0.0629 -0.0139
 8934SOL     OW38263   0.869   0.688  14.287 -0.0847 -0.0800  0.1226
 8934SOL    HW138264   0.802   0.755  14.274 -0.0891 -0.1419 -0.1686
 8934SOL    HW238265   0.843   0.612  14.235 -0.5461  0.3827 -0.3156
 8935SOL     OW38266   2.617   3.377   7.467 -0.3344  0.4960 -0.0592
 8935SOL    HW138267   2.707   3.359   7.495  0.0911 -0.0587 -1.7855
 8935SOL    HW238268   2.617   3.472   7.462  1.0295  0.6712  3.1536
 8936SOL     OW38269   0.477   0.487   5.167 -0.4592  0.4964  0.5928
 8936SOL    HW138270   0.475   0.552   5.097 -1.7205 -1.8453 -1.5434
 8936SOL    HW238271   0.560   0.508   5.208  0.4881  0.2745 -1.2266
 8937SOL     OW38272   2.864   3.855   2.412 -0.4378  0.6370  0.3417
 8937SOL    HW138273   2.802   3.783   2.416 -0.9020  1.0272  0.2015
 8937SOL    HW238274   2.940   3.809   2.376 -0.4178 -0.5224  1.8712
 8938SOL     OW38275   0.385   1.967   5.782 -0.0102 -0.0308  0.0671
 8938SOL    HW138276   0.470   1.988   5.742  0.1977 -1.9791 -0.5166
 8938SOL    HW238277   0.333   2.046   5.769  0.2925 -0.4098 -3.4632
 8939SOL     OW38278   2.735   1.980   4.952  0.1131 -0.1862 -0.4252
 8939SOL    HW138279   2.828   1.999   4.948 -0.3549  2.0873 -0.4027
 8939SOL    HW238280   2.719   1.920   4.879  0.0136 -1.1580  0.4024
 8940SOL     OW38281   3.288   2.174   6.879 -0.3310 -0.1811 -0.1254
 8940SOL    HW138282   3.196   2.189   6.902 -1.2060 -1.4133 -2.7131
 8940SOL    HW238283   3.283   2.216   6.793  1.2414  2.5272  1.0969
 8941SOL     OW38284   2.753   2.980   8.354 -0.9731  0.4984 -0.6040
 8941SOL    HW138285   2.658   2.975   8.364 -1.0401  2.3377 -0.1823
 8941SOL    HW238286   2.770   3.071   8.380 -1.8025  0.1432  1.1662
 8942SOL     OW38287   4.122   3.675  12.241  0.0115  0.3314 -0.3362
 8942SOL    HW138288   4.145   3.691  12.149  0.2399  2.1817  0.0524
 8942SOL    HW238289   4.192   3.725  12.284 -0.2032  1.7690 -1.6653
 8943SOL     OW38290   2.844   2.997  14.916  0.1742 -0.3224 -0.1958
 8943SOL    HW138291   2.872   2.972  14.827  0.6475 -0.5809  0.0234
 8943SOL    HW238292   2.760   3.041  14.901  0.0604 -0.3043  0.5270
 8944SOL     OW38293   3.454   3.518   5.989  0.6016 -0.0385  0.3581
 8944SOL    HW138294   3.398   3.512   6.066  0.3379 -1.5998  0.0574
 8944SOL    HW238295   3.388   3.500   5.921  0.7114 -2.1914  0.8195
 8945SOL     OW38296   2.499   4.598   6.976  0.6956 -0.5958  0.6206
 8945SOL    HW138297   2.505   4.692   6.958 -1.0425 -0.5072  0.5613
 8945SOL    HW238298   2.582   4.567   6.939  0.0413 -1.2902 -0.2331
 8946SOL     OW38299   0.137   0.899   7.831 -0.4363 -0.0414  0.5881
 8946SOL    HW138300   0.135   0.828   7.767 -0.8628  1.3183 -0.9105
 8946SOL    HW238301   0.107   0.855   7.910  0.9186 -1.0898  0.5054
 8947SOL     OW38302   4.330   0.886   7.340 -0.1004 -0.1377  0.4287
 8947SOL    HW138303   4.272   0.810   7.346  1.6289 -1.7202 -2.6627
 8947SOL    HW238304   4.402   0.840   7.384  0.9831 -0.8629 -2.0850
 8948SOL     OW38305   2.505   1.280   4.325 -0.1175 -0.0088 -0.2522
 8948SOL    HW138306   2.413   1.291   4.351 -0.1590 -2.2179  0.5244
 8948SOL    HW238307   2.504   1.277   4.229 -0.3704  0.3840 -0.2629
 8949SOL     OW38308   2.576   4.640   2.170  0.2769  0.3832 -0.1341
 8949SOL    HW138309   2.555   4.627   2.077  0.6421 -2.0288  0.1307
 8949SOL    HW238310   2.604   4.552   2.196  1.3842  0.7519 -0.1026
 8950SOL     OW38311   0.426   0.761   0.320  0.0384 -0.2346 -0.1943
 8950SOL    HW138312   0.494   0.755   0.388 -0.6940  1.1688  0.6526
 8950SOL    HW238313   0.437   0.680   0.270 -1.3732 -0.2202 -0.5281
 8951SOL     OW38314   1.741   0.011  16.146 -0.0639 -0.4604  0.2109
 8951SOL    HW138315   1.736   0.094  16.099  0.2674 -0.7138 -0.2831
 8951SOL    HW238316   1.681   0.036  16.215 -1.0229  0.3934 -0.9401
 8952SOL     OW38317   2.024   0.209   2.368  0.0816  0.1968  0.3766
 8952SOL    HW138318   2.034   0.239   2.277  0.7427 -0.9663  0.0650
 8952SOL    HW238319   2.114   0.190   2.394 -0.6758 -2.5460  0.9236
 8953SOL     OW38320   4.104   0.560   9.902 -0.3419 -0.1172  0.2766
 8953SOL    HW138321   4.100   0.615   9.981  0.5890 -1.3050  1.1506
 8953SOL    HW238322   4.168   0.494   9.929  0.2287  0.5528  0.5543
 8954SOL     OW38323   0.744   1.591   1.780  0.4888 -0.1402  0.1910
 8954SOL    HW138324   0.736   1.663   1.844 -2.1542  1.8735 -2.4274
 8954SOL    HW238325   0.704   1.623   1.699 -0.8787  0.4921  1.1117
 8955SOL     OW38326   4.399   4.048  16.796 -0.1886 -0.5230  0.1902
 8955SOL    HW138327   4.413   3.981  16.729  1.9027  0.5014 -0.3934
 8955SOL    HW238328   4.487   4.065  16.830 -1.2016 -0.5339  2.8383
 8956SOL     OW38329   3.426   2.929   8.817 -0.3770 -0.5904  0.1797
 8956SOL    HW138330   3.495   2.931   8.751 -2.0773  2.1180 -1.5339
 8956SOL    HW238331   3.462   2.984   8.887 -0.2780 -1.7317  1.0237
 8957SOL     OW38332   1.802   1.125  13.686 -0.0381 -0.2574  0.3852
 8957SOL    HW138333   1.841   1.038  13.697  1.9161  0.8761  2.5787
 8957SOL    HW238334   1.785   1.147  13.778  0.2693 -0.2227  0.4349
 8958SOL     OW38335   4.598   2.838   3.107  0.2169 -0.1139 -0.0399
 8958SOL    HW138336   4.666   2.802   3.050  0.6183 -0.2592  0.5418
 8958SOL    HW238337   4.593   2.772   3.176 -1.1269  0.1652  0.1235
 8959SOL     OW38338   3.006   4.710   5.245 -0.7048 -0.0420  0.3312
 8959SOL    HW138339   3.059   0.013   5.320 -0.1639  2.8691 -1.0798
 8959SOL    HW238340   2.931   4.671   5.289 -0.2545 -2.7392 -1.2810
 8960SOL     OW38341   3.329   4.008   5.747  0.3771  0.8374 -0.2084
 8960SOL    HW138342   3.279   3.927   5.740  1.5713  0.1029 -0.2682
 8960SOL    HW238343   3.352   4.006   5.654  0.6631 -1.4520 -0.0906
 8961SOL     OW38344   4.401   3.109   7.213  0.4180 -0.1409  0.0303
 8961SOL    HW138345   4.434   3.066   7.134 -1.2636  1.2142 -1.4184
 8961SOL    HW238346   4.354   3.033   7.249  0.5950  0.4250  1.4661
 8962SOL     OW38347   4.299   4.632   5.159 -0.0070 -0.0332  0.0516
 8962SOL    HW138348   4.303   4.681   5.077  0.6857  0.0531  0.1389
 8962SOL    HW238349   4.283   4.543   5.128  0.1053  0.5148 -1.5438
 8963SOL     OW38350   4.433   1.485   4.530  0.0915  0.6698  0.4427
 8963SOL    HW138351   4.491   1.470   4.455 -1.2692  1.6252 -0.7802
 8963SOL    HW238352   4.495   1.528   4.590 -0.1697  1.8202 -0.1283
 8964SOL     OW38353   2.064   2.460   1.143 -0.1912 -0.0171 -0.0612
 8964SOL    HW138354   2.049   2.550   1.115 -1.6043 -0.1926  0.1195
 8964SOL    HW238355   2.152   2.442   1.109 -0.1198 -1.2397  0.7628
 8965SOL     OW38356   3.072   0.361   5.131  0.8262 -0.1713  0.0213
 8965SOL    HW138357   3.084   0.406   5.048  1.4357 -2.2065 -1.0009
 8965SOL    HW238358   3.016   0.427   5.171  0.8825 -1.0165  1.5007
 8966SOL     OW38359   0.258   3.082  13.828  0.6921 -0.2175  0.3225
 8966SOL    HW138360   0.252   3.176  13.847 -0.2790 -0.4673  1.2901
 8966SOL    HW238361   0.336   3.073  13.774 -1.5666 -2.0443 -2.6411
 8967SOL     OW38362   2.038   1.181  14.914 -0.2470  0.3826  0.0424
 8967SOL    HW138363   1.953   1.196  14.873 -2.1631 -0.4028  3.6627
 8967SOL    HW238364   2.085   1.258  14.883 -0.1233 -0.3297 -1.4994
 8968SOL     OW38365   1.067   0.766  16.322  0.1413 -0.0046 -0.3599
 8968SOL    HW138366   0.975   0.742  16.329  0.3898 -0.8905 -0.1683
 8968SOL    HW238367   1.105   0.690  16.277 -1.7917 -0.9446 -0.4214
 8969SOL     OW38368   1.639   0.720  12.735  0.1179  0.8901  0.2881
 8969SOL    HW138369   1.665   0.696  12.824  2.0578  1.2118 -0.1740
 8969SOL    HW238370   1.545   0.728  12.751  0.0829  2.8569 -0.8929
 8970SOL     OW38371   0.027   1.765   5.423 -0.0013  0.1565  0.2107
 8970SOL    HW138372   0.113   1.733   5.453 -0.4101 -1.0387  0.1018
 8970SOL    HW238373   0.044   1.747   5.331  0.3886  1.1615  0.0840
 8971SOL     OW38374   3.694   4.359   2.830 -0.3221  0.3935 -0.6470
 8971SOL    HW138375   3.770   4.417   2.822  0.9191 -1.5526 -2.9143
 8971SOL    HW238376   3.653   4.369   2.745  1.8704  0.5463 -1.6705
 8972SOL     OW38377   2.060   1.050  16.227  0.7568  0.3473 -0.3126
 8972SOL    HW138378   2.030   1.140  16.240 -0.0868 -0.2143  1.6985
 8972SOL    HW238379   2.146   1.069  16.263  0.7194  0.8163 -0.4744
 8973SOL     OW38380   0.916   0.907   5.133  0.6063  0.3220  0.5540
 8973SOL    HW138381   0.991   0.966   5.138  0.1332  0.5939  4.6653
 8973SOL    HW238382   0.954   0.820   5.116  0.8101  0.4985  0.1111
 8974SOL     OW38383   2.194   0.890  15.986 -0.0218  0.3676 -0.2415
 8974SOL    HW138384   2.145   0.811  15.961  0.7916 -0.0068 -0.6605
 8974SOL    HW238385   2.131   0.942  16.035 -1.7020 -1.1119 -0.7866
 8975SOL     OW38386   2.660   1.918   2.056 -0.2401 -0.3519  0.6049
 8975SOL    HW138387   2.573   1.937   2.019  0.0061 -0.2324  0.0930
 8975SOL    HW238388   2.669   1.950   2.145  1.2851  0.2261  0.2300
 8976SOL     OW38389   0.088   3.429   6.764 -0.4187 -0.0426 -0.1114
 8976SOL    HW138390   0.160   3.442   6.826 -0.7980 -0.1650  0.3499
 8976SOL    HW238391   0.031   3.378   6.820 -1.0473  0.2235 -0.5008
 8977SOL     OW38392   4.186   2.581   3.536  0.2420  0.8269  0.4424
 8977SOL    HW138393   4.240   2.528   3.595 -0.3315 -1.9816 -1.5487
 8977SOL    HW238394   4.096   2.558   3.559  0.2298  1.3845  0.9378
 8978SOL     OW38395   1.334   2.466  17.145 -0.4612  0.1256 -0.4083
 8978SOL    HW138396   1.254   2.437  17.099 -1.2756  0.8028  0.5889
 8978SOL    HW238397   1.293   2.546  17.177 -0.1294  1.0535 -2.2823
 8979SOL     OW38398   2.903   1.593   7.160 -0.2253 -0.2947  0.1498
 8979SOL    HW138399   2.870   1.630   7.078 -2.5438 -0.1344  1.1370
 8979SOL    HW238400   2.837   1.618   7.225 -0.8859  2.4793 -1.5766
 8980SOL     OW38401   1.156   1.500  13.777 -0.2679 -0.0881 -0.1319
 8980SOL    HW138402   1.191   1.505  13.866  0.4195 -3.4293 -0.2082
 8980SOL    HW238403   1.087   1.437  13.799  0.5302 -1.8979 -2.8081
 8981SOL     OW38404   3.877   2.110  17.632  0.0264 -0.5362  0.0913
 8981SOL    HW138405   3.927   2.043  17.679  2.2199  0.1105 -1.3668
 8981SOL    HW238406   3.923   2.116  17.549 -0.7837  0.0113 -0.3123
 8982SOL     OW38407   2.308   2.748   5.964 -0.7816 -0.6158  0.0911
 8982SOL    HW138408   2.258   2.693   6.024 -1.4918 -0.2297 -0.1549
 8982SOL    HW238409   2.337   2.825   6.013 -1.7672  0.2956 -0.7805
 8983SOL     OW38410   3.754   1.951  12.327  0.4350  0.8336 -0.1262
 8983SOL    HW138411   3.703   1.899  12.266  2.3064 -0.8782 -0.2311
 8983SOL    HW238412   3.721   1.933  12.415  0.4691  0.2192 -0.2408
 8984SOL     OW38413   1.861   4.180   3.494 -0.0617 -0.1886 -0.0676
 8984SOL    HW138414   1.951   4.173   3.463 -0.1435  0.0470 -0.3685
 8984SOL    HW238415   1.867   4.271   3.525 -1.3034 -1.6518  4.4024
 8985SOL     OW38416   0.722   1.461   4.012  0.6273 -0.3637  0.0316
 8985SOL    HW138417   0.698   1.447   3.920 -1.7981 -0.8254  0.7199
 8985SOL    HW238418   0.712   1.377   4.058  0.0780 -1.0117 -1.2493
 8986SOL     OW38419   4.124   0.590  11.247 -0.5966 -0.2662 -0.0653
 8986SOL    HW138420   4.068   0.626  11.178  1.2605  2.7364  0.0185
 8986SOL    HW238421   4.075   0.608  11.327  0.6208  0.5234  0.5045
 8987SOL     OW38422   1.071   1.793   6.306 -0.2393  0.1267 -0.2498
 8987SOL    HW138423   1.050   1.875   6.350 -0.8544  0.1541 -0.5916
 8987SOL    HW238424   0.991   1.742   6.288  1.1166 -2.1320  0.0349
 8988SOL     OW38425   2.715   0.357   5.836 -0.3159  0.1025  0.1544
 8988SOL    HW138426   2.666   0.438   5.849 -2.9487 -1.5684  0.4886
 8988SOL    HW238427   2.785   0.383   5.776 -1.1072 -0.6357 -1.0705
 8989SOL     OW38428   0.962   3.720   4.108 -0.1699 -0.6822  0.3389
 8989SOL    HW138429   1.003   3.634   4.100  1.5245  0.0954  0.7354
 8989SOL    HW238430   0.965   3.729   4.204  1.0983  0.0560  0.2275
 8990SOL     OW38431   3.183   0.442   7.395  0.6228 -0.6878  0.4585
 8990SOL    HW138432   3.138   0.372   7.444  0.5886 -2.3338 -1.9329
 8990SOL    HW238433   3.114   0.467   7.334 -1.7651 -1.9055  2.6833
 8991SOL     OW38434   2.776   2.048   9.268  0.2413  0.1319 -0.2900
 8991SOL    HW138435   2.695   1.997   9.273 -0.1551  0.7347 -0.6413
 8991SOL    HW238436   2.848   1.985   9.259 -0.9497 -1.4126  1.0646
 8992SOL     OW38437   3.468   1.564   6.790  0.0464 -0.0784  0.2496
 8992SOL    HW138438   3.465   1.606   6.876  1.5375  2.7786 -1.0588
 8992SOL    HW238439   3.409   1.614   6.734  1.4167 -1.3378 -2.3178
 8993SOL     OW38440   0.030   0.854   3.109  0.2134 -0.1310 -0.3073
 8993SOL    HW138441   0.115   0.896   3.090 -0.8468  2.7616  1.2538
 8993SOL    HW238442   4.688   0.923   3.102 -0.7633 -0.9751  0.5627
 8994SOL     OW38443   4.356   0.351  16.136 -0.0249  0.1944 -0.6533
 8994SOL    HW138444   4.281   0.377  16.082 -0.0314  0.2966 -0.5965
 8994SOL    HW238445   4.382   0.436  16.173 -1.1755 -0.6026  1.9893
 8995SOL     OW38446   3.857   2.249   1.770 -0.1373 -0.6917  0.1151
 8995SOL    HW138447   3.883   2.266   1.679  1.2288 -0.1070  0.6076
 8995SOL    HW238448   3.890   2.333   1.800 -2.3600  0.2620 -0.1695
 8996SOL     OW38449   0.275   2.604   2.687  0.7074  0.4137 -0.3114
 8996SOL    HW138450   0.327   2.524   2.695 -0.3074 -0.0960  1.4025
 8996SOL    HW238451   0.337   2.673   2.710  1.4612  0.4731 -2.5424
 8997SOL     OW38452   1.889   0.725   2.904 -0.6744  0.1798  0.1496
 8997SOL    HW138453   1.849   0.642   2.878 -3.1916  1.5796 -0.4110
 8997SOL    HW238454   1.924   0.685   2.984 -0.6211 -2.4044 -1.1860
 8998SOL     OW38455   1.304   0.845   5.612  0.2017 -0.2656 -0.0887
 8998SOL    HW138456   1.378   0.895   5.578  0.3041 -0.5706 -0.3202
 8998SOL    HW238457   1.261   0.915   5.661  0.9546 -0.3912  0.7691
 8999SOL     OW38458   3.938   1.621   4.251  0.0290  0.1339 -0.4439
 8999SOL    HW138459   3.922   1.530   4.226 -0.1450  0.1417 -0.3651
 8999SOL    HW238460   3.915   1.661   4.167 -0.3790  2.6550  0.8677
 9000SOL     OW38461   2.229   1.135   7.393 -0.5085 -0.2800  0.0619
 9000SOL    HW138462   2.315   1.094   7.390 -0.1582  0.3906  1.1091
 9000SOL    HW238463   2.249   1.195   7.321 -2.2357 -1.1896 -1.1727
 9001SOL     OW38464   2.284   0.815   0.805 -0.4013 -0.5227  0.3440
 9001SOL    HW138465   2.261   0.904   0.775 -1.8742 -0.8139  0.5946
 9001SOL    HW238466   2.218   0.770   0.752  0.1999 -1.7951  0.6750
 9002SOL     OW38467   2.614   1.964   4.151  0.0506  0.2483  0.7183
 9002SOL    HW138468   2.635   1.924   4.067  1.1109  2.3640 -0.0394
 9002SOL    HW238469   2.531   2.007   4.129 -0.1918 -0.7622 -0.3296
 9003SOL     OW38470   3.762   3.054   4.694  0.2936 -0.0093 -0.5119
 9003SOL    HW138471   3.731   3.059   4.604  0.3092 -0.0766 -0.5214
 9003SOL    HW238472   3.704   3.120   4.732  0.0421 -0.7892  0.4583
 9004SOL     OW38473   0.085   3.778   4.071 -0.2391  0.3687 -0.0334
 9004SOL    HW138474   0.123   3.818   3.994 -0.6002 -0.3665 -0.5945
 9004SOL    HW238475   0.105   3.840   4.142  0.2225  0.0943  0.0765
 9005SOL     OW38476   1.631   1.380   2.984 -0.1960 -0.3231 -0.8546
 9005SOL    HW138477   1.633   1.448   3.051 -2.1583 -0.9850 -0.1170
 9005SOL    HW238478   1.685   1.312   3.024  1.4795  1.3294 -0.3552
 9006SOL     OW38479   4.382   0.333   2.562  0.1960 -0.4008  0.2705
 9006SOL    HW138480   4.415   0.385   2.636 -0.0624  0.1044  0.0254
 9006SOL    HW238481   4.453   0.271   2.543  0.6181  0.0994  0.2201
 9007SOL     OW38482   2.415   2.856   5.216 -0.2396  0.4109 -0.0265
 9007SOL    HW138483   2.491   2.898   5.256  1.6507 -1.0170 -2.1430
 9007SOL    HW238484   2.400   2.922   5.148 -0.0672 -0.6430 -1.0656
 9008SOL     OW38485   2.723   2.336   5.981  0.0157  0.3111  0.6412
 9008SOL    HW138486   2.682   2.359   5.897  1.9715  1.4677  0.0021
 9008SOL    HW238487   2.684   2.405   6.034  0.4372  1.8812 -1.0846
 9009SOL     OW38488   0.688   0.649  11.783  0.3184 -0.2940  0.4005
 9009SOL    HW138489   0.601   0.686  11.772  0.7029  0.7193  0.8154
 9009SOL    HW238490   0.663   0.558  11.799  0.8858 -0.1887  1.8553
 9010SOL     OW38491   2.317   0.960   9.276 -0.3990 -0.6388 -0.0135
 9010SOL    HW138492   2.376   1.027   9.311  0.2603 -1.1128 -0.2131
 9010SOL    HW238493   2.343   0.886   9.330  3.9369  0.5836 -0.4543
 9011SOL     OW38494   2.048   2.133  14.482 -0.3291 -0.1043  0.1901
 9011SOL    HW138495   2.088   2.184  14.411 -1.7777 -1.3408 -1.5495
 9011SOL    HW238496   2.122   2.078  14.506  1.1797  1.5627 -0.6621
 9012SOL     OW38497   2.114   1.140   1.435  0.6034 -0.0038  0.1156
 9012SOL    HW138498   2.161   1.178   1.361 -0.3828 -0.5305 -0.7613
 9012SOL    HW238499   2.175   1.072   1.465  0.8686 -0.3454 -1.2187
 9013SOL     OW38500   0.716   2.430   4.029  0.1843 -0.3610  0.4383
 9013SOL    HW138501   0.731   2.484   4.106  1.2243 -3.7418  2.6263
 9013SOL    HW238502   0.795   2.376   4.031 -0.5317 -1.3853  1.2356
 9014SOL     OW38503   1.733   2.572  16.984  0.1024 -0.3354 -0.1161
 9014SOL    HW138504   1.748   2.501  16.921 -0.4305 -0.3601 -0.2159
 9014SOL    HW238505   1.691   2.522  17.055  0.1984  0.5202  0.5359
 9015SOL     OW38506   4.463   3.643   5.612  0.5072 -0.0224  0.5336
 9015SOL    HW138507   4.555   3.645   5.586 -0.1749 -0.0618 -1.9559
 9015SOL    HW238508   4.427   3.684   5.533 -1.2978 -1.3418  0.6829
 9016SOL     OW38509   0.557   3.685   5.242  0.0415  0.7183  0.0113
 9016SOL    HW138510   0.492   3.644   5.185  0.5253  2.2394 -1.6382
 9016SOL    HW238511   0.542   3.778   5.226 -1.5098  0.5913  0.6547
 9017SOL     OW38512   1.599   1.694   2.779 -0.0681 -0.0337 -0.0929
 9017SOL    HW138513   1.694   1.692   2.783 -0.2145  0.3769  3.1183
 9017SOL    HW238514   1.586   1.608   2.740 -1.5755 -0.5856  1.6246
 9018SOL     OW38515   4.186   0.277  13.778 -0.1585 -0.3168 -0.2335
 9018SOL    HW138516   4.217   0.208  13.836 -1.0218  0.4671  1.1552
 9018SOL    HW238517   4.093   0.256  13.764 -0.9989  1.7630  2.2073
 9019SOL     OW38518   1.074   0.842   6.158 -0.1517  0.1706  0.3855
 9019SOL    HW138519   1.044   0.755   6.133  0.3005 -0.0800  0.7134
 9019SOL    HW238520   0.989   0.882   6.179  0.6779  1.8552  0.5994
 9020SOL     OW38521   3.747   0.434  15.693 -0.0919 -0.2239 -0.2252
 9020SOL    HW138522   3.722   0.357  15.744 -0.7735 -1.1138 -1.9194
 9020SOL    HW238523   3.710   0.410  15.608 -1.4131 -0.1368  0.3348
 9021SOL     OW38524   2.847   3.018   3.281  0.3505  0.4140 -0.0203
 9021SOL    HW138525   2.815   3.108   3.273 -1.3152 -0.2974 -1.3239
 9021SOL    HW238526   2.772   2.969   3.316  0.7092 -1.4392 -1.8147
 9022SOL     OW38527   0.029   2.468   3.543  0.3763  0.1033  0.3230
 9022SOL    HW138528   0.060   2.492   3.630  0.9373  0.6381 -0.0207
 9022SOL    HW238529   4.659   2.457   3.556  0.2070 -1.6509 -2.3503
 9023SOL     OW38530   0.828   1.286   6.847 -0.1972 -0.6846  0.2497
 9023SOL    HW138531   0.808   1.215   6.785  4.4850 -1.3198 -0.5273
 9023SOL    HW238532   0.859   1.234   6.921 -0.3445 -0.4668  0.4644
 9024SOL     OW38533   4.708   0.039  16.740  0.1958 -0.1778 -0.2324
 9024SOL    HW138534   4.634   0.020  16.798  1.0400  1.2553  1.2967
 9024SOL    HW238535   4.676   0.127  16.719 -1.0233 -1.0869 -2.1439
 9025SOL     OW38536   0.316   1.964   5.375  0.1372  0.3109  0.5914
 9025SOL    HW138537   0.404   1.969   5.412  0.4520 -3.2071  0.3368
 9025SOL    HW238538   0.256   1.960   5.449  0.3391  1.5248  0.8147
 9026SOL     OW38539   1.303   4.156   4.560  0.5622  0.4500 -0.2463
 9026SOL    HW138540   1.242   4.167   4.487  0.6226  1.9886 -0.0685
 9026SOL    HW238541   1.377   4.150   4.499  0.5502  1.0237 -0.3216
 9027SOL     OW38542   1.340   3.404   2.532  0.1823  0.2185  0.5511
 9027SOL    HW138543   1.390   3.366   2.604 -0.2444 -0.1606  0.6513
 9027SOL    HW238544   1.410   3.441   2.479 -0.7299  2.1565  0.6734
 9028SOL     OW38545   2.814   3.594   4.968 -0.5777  0.7603 -0.0716
 9028SOL    HW138546   2.780   3.602   5.057 -1.9697  0.0959 -0.5495
 9028SOL    HW238547   2.825   3.682   4.933  0.9750  0.8203  0.5571
 9029SOL     OW38548   2.947   3.120  15.689  0.2065 -0.2833  0.0689
 9029SOL    HW138549   2.900   3.204  15.697  0.8112 -0.0419  1.1250
 9029SOL    HW238550   2.911   3.067  15.760 -0.7559  1.0994  0.6356
 9030SOL     OW38551   0.557   0.571  14.646  0.7348 -0.3285 -0.1040
 9030SOL    HW138552   0.530   0.655  14.609 -0.3092 -0.2829  0.7838
 9030SOL    HW238553   0.499   0.562  14.722 -0.4106  0.2434 -0.8995
 9031SOL     OW38554   4.182   3.484   8.061 -0.5583 -0.0162  0.0858
 9031SOL    HW138555   4.106   3.527   8.022 -0.1874 -0.9557 -1.6564
 9031SOL    HW238556   4.260   3.531   8.034 -0.1167  1.3050  3.6243
 9032SOL     OW38557   3.992   4.389   7.680 -0.5465 -0.1227 -0.0658
 9032SOL    HW138558   3.909   4.344   7.664  0.3099 -0.9092 -2.2534
 9032SOL    HW238559   3.965   4.468   7.726 -1.1137  0.4647 -1.4187
 9033SOL     OW38560   2.797   1.855   2.935 -0.0931 -0.1016 -0.7487
 9033SOL    HW138561   2.880   1.832   2.893  0.5792  0.4424  0.2605
 9033SOL    HW238562   2.754   1.931   2.895 -0.5347 -0.8842 -1.7507
 9034SOL     OW38563   3.110   4.714   4.050  0.7080  0.1456  0.7679
 9034SOL    HW138564   3.096   0.068   4.104 -0.4145 -0.4035  1.2709
 9034SOL    HW238565   3.194   0.010   4.008  1.2214 -2.5448  0.5281
 9035SOL     OW38566   0.875   0.999  14.444  0.5967 -0.3841  0.2402
 9035SOL    HW138567   0.809   0.954  14.392 -2.2855  1.8778  1.9506
 9035SOL    HW238568   0.941   0.932  14.464 -0.1586 -0.1898  3.3699
 9036SOL     OW38569   1.192   2.900   7.894  0.1300  0.2785  0.7068
 9036SOL    HW138570   1.111   2.902   7.843  1.4383  0.9580 -1.3482
 9036SOL    HW238571   1.175   2.828   7.954  1.9642 -0.4899  0.3200
 9037SOL     OW38572   1.206   1.922  11.693  0.4975  0.3896 -0.0115
 9037SOL    HW138573   1.291   1.961  11.715  0.8208 -0.5871  0.4792
 9037SOL    HW238574   1.184   1.952  11.605  0.7129 -0.6549 -0.4211
 9038SOL     OW38575   0.463   1.877   7.240 -0.1740 -0.2313  0.2603
 9038SOL    HW138576   0.557   1.880   7.222 -0.0282  1.2713  1.2347
 9038SOL    HW238577   0.455   1.783   7.253  2.3941 -0.1418  2.5429
 9039SOL     OW38578   3.897   2.248   5.748 -0.5390 -0.6952  0.4481
 9039SOL    HW138579   3.963   2.180   5.735  1.8450  1.9705 -1.3179
 9039SOL    HW238580   3.911   2.308   5.674 -1.8783 -1.9082 -0.8034
 9040SOL     OW38581   2.308   2.366   1.848 -0.4773  0.6823 -0.3148
 9040SOL    HW138582   2.400   2.343   1.858 -0.4246  0.8180 -0.4753
 9040SOL    HW238583   2.318   2.372   1.753  1.0335  0.4214 -0.1739
 9041SOL     OW38584   1.827   2.249  17.459  0.1368  0.5443  0.6340
 9041SOL    HW138585   1.891   2.271  17.392  0.7102 -4.7432 -0.5046
 9041SOL    HW238586   1.765   2.202  17.403 -0.3418  0.4842  1.2111
 9042SOL     OW38587   3.360   2.520   2.472  0.0937  0.0257 -0.3062
 9042SOL    HW138588   3.427   2.587   2.486  0.6839 -0.8881  1.2802
 9042SOL    HW238589   3.357   2.524   2.377 -3.1033 -2.6995 -0.2962
 9043SOL     OW38590   4.687   3.493  12.837  0.2861  0.1627 -0.3174
 9043SOL    HW138591   4.633   3.511  12.760 -0.0718  1.0455  0.1368
 9043SOL    HW238592   4.723   3.579  12.860 -0.8612  0.6365 -0.3092
 9044SOL     OW38593   4.492   1.282   5.545 -0.1318  0.2795 -0.4492
 9044SOL    HW138594   4.415   1.225   5.545 -0.3541  0.5818 -0.1224
 9044SOL    HW238595   4.463   1.360   5.499 -0.8105  0.7360  0.7421
 9045SOL     OW38596   1.860   3.528   7.441 -0.3186  0.4847  0.9215
 9045SOL    HW138597   1.940   3.570   7.409 -0.7744 -0.6868 -1.7732
 9045SOL    HW238598   1.848   3.559   7.531  2.5210 -0.1991  1.5243
 9046SOL     OW38599   3.202   0.296   6.189  0.1027 -0.3979 -0.2435
 9046SOL    HW138600   3.206   0.324   6.280  2.0553  0.5298 -0.6015
 9046SOL    HW238601   3.197   0.201   6.193  0.4668 -0.3806  0.5515
 9047SOL     OW38602   4.040   1.198   6.211  0.0821 -0.1213  0.0921
 9047SOL    HW138603   4.094   1.139   6.159 -0.4153 -1.8460  1.5327
 9047SOL    HW238604   3.954   1.155   6.213  2.5615 -4.9730  0.5604
 9048SOL     OW38605   4.240   2.519   8.555  0.1412 -0.1866 -0.4568
 9048SOL    HW138606   4.181   2.579   8.600 -1.8511 -1.4369 -1.3703
 9048SOL    HW238607   4.306   2.582   8.526 -0.4543 -0.3496 -2.1744
 9049SOL     OW38608   1.227   3.365  17.580 -0.3922 -0.0025  0.1798
 9049SOL    HW138609   1.162   3.346  17.512 -1.5268  1.2330  0.9356
 9049SOL    HW238610   1.179   3.415  17.646 -1.3187  0.8730 -1.1651
 9050SOL     OW38611   4.632   0.843   5.717 -0.3199 -0.0700  0.0073
 9050SOL    HW138612   4.691   0.832   5.642 -0.4599 -2.7919  0.2928
 9050SOL    HW238613   4.563   0.898   5.679 -2.5392 -2.4523  0.6124
 9051SOL     OW38614   0.690   1.238  10.290  0.6603 -0.4039  0.7185
 9051SOL    HW138615   0.765   1.211  10.237  1.4698  1.6906  0.8087
 9051SOL    HW238616   0.697   1.332  10.279 -4.4737  0.0599  1.2186
 9052SOL     OW38617   3.113   2.256   1.816  0.1944  0.0718  0.0305
 9052SOL    HW138618   3.167   2.265   1.737 -1.8047  1.6377 -1.1596
 9052SOL    HW238619   3.055   2.332   1.821 -0.0597 -0.0153 -1.4601
 9053SOL     OW38620   1.115   2.749   7.344  0.1800  0.0094  0.1449
 9053SOL    HW138621   1.099   2.823   7.402 -0.0078  0.3529 -0.3577
 9053SOL    HW238622   1.025   2.719   7.330 -0.0373  1.5358 -1.6979
 9054SOL     OW38623   1.393   2.475  13.116  0.2603  1.1193 -0.0127
 9054SOL    HW138624   1.477   2.433  13.102 -1.4419 -2.1964 -0.3547
 9054SOL    HW238625   1.412   2.517  13.200  1.0093 -0.8343  0.7852
 9055SOL     OW38626   1.328   0.058  15.384  0.0697 -0.0330  0.4529
 9055SOL    HW138627   1.410   0.009  15.399  2.1928  3.1325 -0.8032
 9055SOL    HW238628   1.298   0.059  15.475  1.6745  1.7060  0.9651
 9056SOL     OW38629   1.774   4.236   2.321  0.3834 -0.8112  0.0577
 9056SOL    HW138630   1.722   4.155   2.320  0.8504 -1.1066 -1.0835
 9056SOL    HW238631   1.780   4.259   2.228 -1.1070  0.3950  0.2598
 9057SOL     OW38632   0.399   4.373   3.948 -0.1373  0.1307 -0.5128
 9057SOL    HW138633   0.440   4.287   3.939 -0.8231 -0.3210  0.6504
 9057SOL    HW238634   0.450   4.410   4.020  1.1587 -0.8400 -0.9216
 9058SOL     OW38635   1.862   1.321   9.229 -0.8358  0.1120 -0.2078
 9058SOL    HW138636   1.929   1.269   9.272 -1.1411 -1.3781 -1.5406
 9058SOL    HW238637   1.827   1.257   9.167 -0.3007 -0.4386  0.0593
 9059SOL     OW38638   1.136   4.174   5.219 -0.2285  0.4940 -0.3447
 9059SOL    HW138639   1.101   4.109   5.158  0.5467 -0.6448  0.4151
 9059SOL    HW238640   1.231   4.165   5.219 -0.1565  1.1893 -1.6282
 9060SOL     OW38641   0.760   2.302   5.235  0.8495  0.2603  0.3194
 9060SOL    HW138642   0.802   2.264   5.312  0.3098  0.1099  0.5368
 9060SOL    HW238643   0.670   2.274   5.252  1.8491 -2.0337  1.8708
 9061SOL     OW38644   4.362   1.230   5.881  0.6406 -0.6514  0.2453
 9061SOL    HW138645   4.312   1.310   5.897  1.3732 -0.2236  0.3950
 9061SOL    HW238646   4.435   1.244   5.941  0.0383  1.5029  0.4771
 9062SOL     OW38647   0.193   3.580   3.044  0.2932 -0.6848 -0.3209
 9062SOL    HW138648   0.107   3.619   3.058  1.1573  0.9847  0.3119
 9062SOL    HW238649   0.203   3.604   2.952  0.7516  1.4866  0.2981
 9063SOL     OW38650   1.950   3.277  13.388  0.0352 -0.2856 -0.0401
 9063SOL    HW138651   1.957   3.307  13.478 -0.4269 -0.7330  0.1437
 9063SOL    HW238652   1.858   3.300  13.373  0.3129  1.3863  0.8899
 9064SOL     OW38653   3.404   2.057   5.696 -0.4092 -0.1959 -0.4861
 9064SOL    HW138654   3.441   2.116   5.762 -1.9516 -1.4349  1.4973
 9064SOL    HW238655   3.422   1.970   5.733  2.0219  0.8860  0.8775
 9065SOL     OW38656   0.819   0.621  12.616 -0.0408  0.0399 -0.0216
 9065SOL    HW138657   0.797   0.706  12.653 -1.4285  0.0293 -0.7940
 9065SOL    HW238658   0.852   0.658  12.535  0.6871  2.4116  1.3589
 9066SOL     OW38659   1.277   0.019   5.774  0.5798 -0.1327  0.5891
 9066SOL    HW138660   1.222   4.720   5.849 -1.7648  1.2326 -0.6992
 9066SOL    HW238661   1.206   0.058   5.722  0.7855 -1.0839 -0.4004
 9067SOL     OW38662   4.051   3.913  15.858 -0.4870 -0.0230 -0.2200
 9067SOL    HW138663   4.004   3.978  15.806 -0.9623 -0.8796 -0.8719
 9067SOL    HW238664   3.985   3.893  15.924 -1.1091 -1.4978 -1.2786
 9068SOL     OW38665   2.292   1.267  15.929 -0.1373  0.0789  0.2823
 9068SOL    HW138666   2.198   1.289  15.926 -0.2323 -0.5694 -1.6128
 9068SOL    HW238667   2.312   1.270  16.023  0.3769 -0.0768  0.1754
 9069SOL     OW38668   4.420   3.092  16.614  0.3209  0.2659  0.2353
 9069SOL    HW138669   4.510   3.060  16.612  1.2054  2.8247 -0.6956
 9069SOL    HW238670   4.418   3.156  16.685 -1.8616 -0.8708  1.2052
 9070SOL     OW38671   0.198   4.689   0.301 -0.1074  0.2478 -0.3102
 9070SOL    HW138672   0.242   0.009   0.374 -1.5678 -0.7325  1.1563
 9070SOL    HW238673   0.242   4.722   0.223 -0.4136 -0.4603 -0.7795
 9071SOL     OW38674   2.363   3.819   4.452  0.3352 -0.0788 -0.1686
 9071SOL    HW138675   2.425   3.859   4.391 -0.0629 -2.6696 -2.2737
 9071SOL    HW238676   2.346   3.897   4.504  2.4429  1.4478 -1.7933
 9072SOL     OW38677   3.622   1.967   8.166  0.1844 -0.5409 -0.1767
 9072SOL    HW138678   3.645   2.007   8.250  3.3580  1.3451 -1.9599
 9072SOL    HW238679   3.693   1.906   8.149  1.1352  0.6535 -0.4374
 9073SOL     OW38680   1.773   2.121   7.796  0.1653 -0.6083 -0.0652
 9073SOL    HW138681   1.770   2.058   7.724  1.3977  1.6594 -2.1002
 9073SOL    HW238682   1.769   2.065   7.874  0.4742  2.7482  2.3553
 9074SOL     OW38683   1.510   4.670   1.879  0.2670 -0.0814  0.2706
 9074SOL    HW138684   1.464   0.025   1.852 -0.5711 -0.1183  1.5951
 9074SOL    HW238685   1.603   4.683   1.863 -0.0193  0.1901 -1.1180
 9075SOL     OW38686   2.334   0.921  16.636  0.2523 -0.1683  0.4731
 9075SOL    HW138687   2.351   0.848  16.696  0.6665  0.0407  0.6092
 9075SOL    HW238688   2.246   0.949  16.664 -2.2822 -3.3104 -4.4139
 9076SOL     OW38689   1.567   1.561  13.887 -0.6277  0.0470  0.3167
 9076SOL    HW138690   1.633   1.492  13.880  1.0333  1.4592  1.9214
 9076SOL    HW238691   1.530   1.554  13.799  1.9848 -0.2401 -0.7659
 9077SOL     OW38692   4.157   4.487   2.179 -0.0642 -0.1212  0.1532
 9077SOL    HW138693   4.135   4.435   2.256  0.4297 -0.0528  0.3412
 9077SOL    HW238694   4.138   4.421   2.113  0.6855 -1.2638  1.0702
 9078SOL     OW38695   4.412   2.184   4.609 -0.0681 -0.4494 -0.4457
 9078SOL    HW138696   4.443   2.265   4.568 -1.1116  0.4867  0.6136
 9078SOL    HW238697   4.319   2.207   4.616 -0.3479 -1.7249 -0.0912
 9079SOL     OW38698   1.106   2.532   7.103 -0.1858 -0.1433 -0.2166
 9079SOL    HW138699   1.093   2.527   7.198 -0.0407 -1.8759 -0.2969
 9079SOL    HW238700   1.019   2.521   7.065  0.0620 -0.6426 -0.6373
 9080SOL     OW38701   1.047   4.619   4.169 -0.7827  0.1032  0.0599
 9080SOL    HW138702   1.047   4.713   4.188 -0.0551 -0.2528  1.8249
 9080SOL    HW238703   1.141   4.606   4.159 -0.8770 -1.2739  1.0261
 9081SOL     OW38704   3.450   2.525   4.371  0.3892  0.1500 -0.5446
 9081SOL    HW138705   3.378   2.487   4.421  0.5742 -0.0258 -0.4152
 9081SOL    HW238706   3.459   2.466   4.296  1.1155  2.8875 -2.6431
 9082SOL     OW38707   2.368   1.849   5.049  0.2859 -0.1304  0.8844
 9082SOL    HW138708   2.338   1.770   5.094  0.0320  0.4976  1.8074
 9082SOL    HW238709   2.294   1.863   4.990  0.3551 -1.7657  0.4008
 9083SOL     OW38710   2.466   0.284   4.320 -0.1275  0.0084  0.3212
 9083SOL    HW138711   2.438   0.373   4.303 -1.7310 -1.0049 -2.2209
 9083SOL    HW238712   2.562   0.292   4.327 -0.3488  1.6634  1.3145
 9084SOL     OW38713   1.883   1.064   1.310 -0.2121 -0.1436  0.3739
 9084SOL    HW138714   1.969   1.088   1.344 -0.5255  1.8366 -0.2474
 9084SOL    HW238715   1.896   0.971   1.290  1.5292  0.5363 -1.6069
 9085SOL     OW38716   2.592   2.838   6.573  0.3179 -0.2678  0.3332
 9085SOL    HW138717   2.562   2.856   6.661  1.0255 -0.5082  0.6232
 9085SOL    HW238718   2.633   2.922   6.548  2.5211 -1.2804  0.5320
 9086SOL     OW38719   3.967   1.557  16.440 -0.0128  0.7189  0.3050
 9086SOL    HW138720   4.005   1.562  16.528 -2.7292  0.0476  1.5074
 9086SOL    HW238721   3.905   1.484  16.449  0.1605  0.6286  0.7991
 9087SOL     OW38722   4.627   3.927  11.560  0.5399  0.1735  0.3480
 9087SOL    HW138723   4.554   3.890  11.510 -0.1333  2.0432 -0.0285
 9087SOL    HW238724   4.652   3.850  11.611  1.8347 -0.1727 -0.8169
 9088SOL     OW38725   1.160   3.891   6.091  0.5341 -0.6930  0.0635
 9088SOL    HW138726   1.181   3.951   6.020  0.8061  0.7722  1.3743
 9088SOL    HW238727   1.147   3.808   6.046 -0.3344 -0.7314  0.3902
 9089SOL     OW38728   2.671   2.634   8.522  0.4233 -0.5694 -0.3135
 9089SOL    HW138729   2.609   2.701   8.551  0.2092 -1.1140  0.4836
 9089SOL    HW238730   2.630   2.552   8.551  1.9068 -1.2856 -0.2235
 9090SOL     OW38731   1.260   1.368  12.977 -0.0531  0.6087 -0.0578
 9090SOL    HW138732   1.219   1.311  13.042 -1.3906 -0.4806 -1.8283
 9090SOL    HW238733   1.340   1.388  13.025  0.0971 -2.1063  0.8296
 9091SOL     OW38734   3.813   2.537   9.817 -0.2150  0.2347 -0.1519
 9091SOL    HW138735   3.739   2.522   9.759 -1.4358 -0.4176  1.5848
 9091SOL    HW238736   3.773   2.587   9.888  2.2247  1.4488  0.3809
 9092SOL     OW38737   4.213   4.565   4.707 -0.5019 -0.6438  0.5662
 9092SOL    HW138738   4.172   4.546   4.623  0.9331  2.1705 -0.7814
 9092SOL    HW238739   4.169   4.509   4.771  0.1940 -0.6143  1.0722
 9093SOL     OW38740   0.174   1.856   4.891 -0.0798  0.4883  0.1336
 9093SOL    HW138741   0.185   1.776   4.841  0.3886 -0.2467  1.4190
 9093SOL    HW238742   0.152   1.915   4.819  0.1912 -0.4286 -0.7048
 9094SOL     OW38743   1.882   1.664   4.032  0.0334  0.4910  0.6382
 9094SOL    HW138744   1.918   1.715   4.104 -0.6389 -0.5251  1.6926
 9094SOL    HW238745   1.792   1.694   4.015 -0.2198 -0.2829  0.6029
 9095SOL     OW38746   3.041   1.946   2.073 -0.0471  0.1911 -0.0921
 9095SOL    HW138747   3.036   2.041   2.068 -1.4780  0.0897 -0.6259
 9095SOL    HW238748   3.126   1.930   2.115  0.1656  0.7282 -0.3106
 9096SOL     OW38749   4.595   3.601   3.621  0.1943 -0.5004 -0.3669
 9096SOL    HW138750   4.672   3.552   3.594  1.2023  1.6701 -1.4403
 9096SOL    HW238751   4.620   3.629   3.708 -0.6305 -1.5241  0.2052
 9097SOL     OW38752   2.603   3.220   4.289  0.2494 -0.5012 -0.2555
 9097SOL    HW138753   2.573   3.234   4.199 -0.4450  1.3351  0.2526
 9097SOL    HW238754   2.525   3.256   4.333  0.4694 -0.1094 -0.1869
 9098SOL     OW38755   2.774   2.546  14.785 -0.5143 -0.2567  0.2011
 9098SOL    HW138756   2.679   2.543  14.796 -0.5504 -0.2485 -0.1020
 9098SOL    HW238757   2.805   2.467  14.829 -0.1915  0.0915  0.5968
 9099SOL     OW38758   0.769   3.259   3.857 -0.7981  0.2538 -0.0419
 9099SOL    HW138759   0.685   3.285   3.895 -1.0250  0.2255 -0.5265
 9099SOL    HW238760   0.823   3.322   3.905 -1.2603  0.3450  0.3605
 9100SOL     OW38761   1.564   1.369   7.791  0.1886 -0.7414 -0.1075
 9100SOL    HW138762   1.574   1.332   7.703  0.1821 -0.0573 -0.3967
 9100SOL    HW238763   1.490   1.428   7.776 -0.6613 -1.4017  1.5249
 9101SOL     OW38764   3.898   1.372   7.570 -0.1652 -0.5422  0.0783
 9101SOL    HW138765   3.891   1.285   7.609 -2.7079 -1.2285 -1.8549
 9101SOL    HW238766   3.914   1.348   7.479  1.4228  1.0382 -0.0468
 9102SOL     OW38767   2.041   3.132   1.515  0.2701 -0.5461  0.2163
 9102SOL    HW138768   1.995   3.080   1.449 -0.4235  2.8176 -1.9496
 9102SOL    HW238769   2.070   3.208   1.465  0.6985 -0.2562  0.9069
 9103SOL     OW38770   1.314   2.943  16.870 -0.2818 -0.3422 -0.0076
 9103SOL    HW138771   1.409   2.948  16.859 -0.1854 -0.5758  0.7571
 9103SOL    HW238772   1.289   2.990  16.790  1.5950  1.1169  0.2482
 9104SOL     OW38773   0.174   0.142   5.239  0.0011  0.7203  0.6467
 9104SOL    HW138774   0.139   0.133   5.151 -3.3758 -0.1711  2.0742
 9104SOL    HW238775   0.264   0.171   5.222  0.2816 -0.0363  0.8206
 9105SOL     OW38776   3.497   4.256  16.121 -0.1930 -0.4903 -0.2520
 9105SOL    HW138777   3.490   4.182  16.061 -3.6646 -0.9446  0.6841
 9105SOL    HW238778   3.409   4.292  16.131 -0.1784 -0.2201 -1.1156
 9106SOL     OW38779   2.164   4.004   5.631  0.2513  0.4349  0.2463
 9106SOL    HW138780   2.078   3.999   5.588 -0.1046 -0.5379  1.0772
 9106SOL    HW238781   2.160   4.068   5.703  1.4737  2.3420 -1.3665
 9107SOL     OW38782   0.568   2.781   3.829 -0.3580  0.0566 -0.2810
 9107SOL    HW138783   0.515   2.761   3.906  1.9394  2.1139  1.8355
 9107SOL    HW238784   0.513   2.759   3.754  1.3387  1.7118 -2.0317
 9108SOL     OW38785   2.799   2.464   9.923  0.0808  0.0906 -0.6575
 9108SOL    HW138786   2.848   2.476  10.005 -1.8825 -1.8594  0.7780
 9108SOL    HW238787   2.868   2.474   9.857  0.6683 -1.6040 -0.2895
 9109SOL     OW38788   3.103   4.407  11.068 -0.1828 -0.0646  0.6703
 9109SOL    HW138789   3.086   4.371  11.155 -1.4853 -0.9778  0.0481
 9109SOL    HW238790   3.011   4.415  11.042  0.0715 -0.2755 -0.2884
 9110SOL     OW38791   2.077   1.476   4.916 -0.0067 -0.1966  0.6151
 9110SOL    HW138792   2.138   1.427   4.971  0.9867  0.6355  0.2541
 9110SOL    HW238793   2.017   1.405   4.889 -0.7912  1.4444 -1.9991
 9111SOL     OW38794   4.518   1.113  14.972  0.4566  0.1445 -0.2326
 9111SOL    HW138795   4.446   1.172  14.953  0.7298  1.0504  1.5597
 9111SOL    HW238796   4.486   1.072  15.053  0.0798 -1.7316 -1.3203
 9112SOL     OW38797   1.444   4.491  11.426 -0.3635 -0.2890  0.3876
 9112SOL    HW138798   1.406   4.407  11.453  1.7503 -1.2652  0.3734
 9112SOL    HW238799   1.368   4.549  11.419 -1.4399 -1.8354 -0.6723
 9113SOL     OW38800   2.004   1.619   0.212  0.3345 -0.0289  0.2786
 9113SOL    HW138801   1.977   1.709   0.190 -0.7724 -0.7529 -1.3690
 9113SOL    HW238802   1.929   1.570   0.245  0.0355  0.7383  0.7484
 9114SOL     OW38803   2.638   3.302   2.312 -0.1659 -0.0615  0.0632
 9114SOL    HW138804   2.656   3.239   2.241 -0.8394 -1.0701  0.7821
 9114SOL    HW238805   2.675   3.253   2.385 -0.6559  1.9856  1.6743
 9115SOL     OW38806   1.663   2.565   1.195 -0.7266 -0.9588 -0.0192
 9115SOL    HW138807   1.628   2.579   1.107 -1.2643  0.6430  0.4303
 9115SOL    HW238808   1.702   2.479   1.187  1.0197 -0.3376  2.0733
 9116SOL     OW38809   2.292   2.994   8.466  0.0925 -0.3573 -0.3435
 9116SOL    HW138810   2.364   3.016   8.525  1.9969  0.0134 -2.8383
 9116SOL    HW238811   2.280   3.078   8.422  1.1697 -0.0077  0.0475
 9117SOL     OW38812   2.527   2.545   8.008  0.2783 -0.2837 -0.3462
 9117SOL    HW138813   2.607   2.497   8.027 -0.5242 -1.0311  1.1705
 9117SOL    HW238814   2.453   2.485   7.999 -0.6726  1.4065 -3.9162
 9118SOL     OW38815   0.421   3.449   0.670  0.4327 -0.1625 -0.2831
 9118SOL    HW138816   0.421   3.367   0.620  0.2097 -0.1670 -0.2733
 9118SOL    HW238817   0.431   3.417   0.760  2.7253  0.6419 -0.2470
 9119SOL     OW38818   1.685   3.829  16.745  0.2520 -0.0935  0.0842
 9119SOL    HW138819   1.732   3.788  16.817  0.1502 -0.5281 -0.0972
 9119SOL    HW238820   1.745   3.900  16.722 -0.7503  0.2077 -1.5972
 9120SOL     OW38821   4.515   3.494   5.182  0.1228  0.1142 -0.3221
 9120SOL    HW138822   4.609   3.509   5.174  0.4839 -1.6316  0.4843
 9120SOL    HW238823   4.503   3.425   5.247 -0.0466  1.3371  0.9309
 9121SOL     OW38824   1.419   3.678   5.186  0.1265  0.3930 -0.4592
 9121SOL    HW138825   1.512   3.671   5.210  0.5987  1.8790 -1.8368
 9121SOL    HW238826   1.400   3.608   5.123  1.6259 -0.9898  0.6348
 9122SOL     OW38827   1.062   4.668   5.933 -0.6160 -0.3409 -0.2324
 9122SOL    HW138828   1.055   4.681   6.028 -1.4325  0.1865 -0.3591
 9122SOL    HW238829   0.973   4.697   5.911 -1.9371 -4.9768 -1.0247
 9123SOL     OW38830   4.590   1.699   6.770 -0.2734  0.2598  0.5258
 9123SOL    HW138831   4.584   1.625   6.830  0.6658 -1.7440 -1.8705
 9123SOL    HW238832   4.639   1.766   6.817 -0.6464  0.1296  1.0988
 9124SOL     OW38833   1.761   1.396   6.279  0.0613  0.0635  0.1412
 9124SOL    HW138834   1.790   1.466   6.220 -0.1587  0.1125  0.0912
 9124SOL    HW238835   1.761   1.321   6.219  2.5581 -0.7168  1.0910
 9125SOL     OW38836   2.003   2.954   5.723  0.3859 -0.1741  0.2901
 9125SOL    HW138837   2.028   3.044   5.741  0.6246 -0.0730 -0.5948
 9125SOL    HW238838   1.997   2.948   5.628 -0.9486  3.2235  0.1849
 9126SOL     OW38839   4.439   0.123  12.111 -0.0189 -0.1607  0.5826
 9126SOL    HW138840   4.484   0.049  12.150  0.8180  0.5509  0.9519
 9126SOL    HW238841   4.506   0.163  12.056 -1.0003  0.0296 -0.4794
 9127SOL     OW38842   3.023   0.858  13.327  0.4318  0.0481 -0.0004
 9127SOL    HW138843   3.092   0.851  13.393  0.7977  1.1731 -0.2718
 9127SOL    HW238844   3.000   0.951  13.326  0.3301  0.0342  1.5308
 9128SOL     OW38845   4.017   2.997   6.189  0.0956 -0.0783  0.1053
 9128SOL    HW138846   4.049   2.907   6.180  0.8448  0.2066 -0.0507
 9128SOL    HW238847   4.062   3.037   6.115  1.5702  1.1940  1.6992
 9129SOL     OW38848   0.788   0.152   5.490 -0.3552 -0.2521 -0.0409
 9129SOL    HW138849   0.693   0.145   5.495 -0.3856  0.0223 -0.2231
 9129SOL    HW238850   0.799   0.247   5.484 -2.7953 -0.0481 -1.0646
 9130SOL     OW38851   4.724   2.302   7.150  0.3784  0.2832 -0.3607
 9130SOL    HW138852   4.640   2.256   7.140  0.6426 -0.5954  1.2975
 9130SOL    HW238853   4.701   2.384   7.193  0.5962  0.6893 -1.0267
 9131SOL     OW38854   3.795   4.063   3.641  0.3292 -0.2178 -0.3667
 9131SOL    HW138855   3.824   4.025   3.558 -0.3042 -0.6138 -0.4026
 9131SOL    HW238856   3.823   3.991   3.697 -1.6020 -0.3049  0.4765
 9132SOL     OW38857   0.125   4.478   8.143 -0.3391 -0.3264  0.3564
 9132SOL    HW138858   0.131   4.573   8.153 -4.2216 -0.2183  1.4846
 9132SOL    HW238859   0.116   4.441   8.231 -1.1215 -1.9566 -0.4057
 9133SOL     OW38860   3.475   3.028   6.878  0.7148  0.0412  0.9174
 9133SOL    HW138861   3.509   2.939   6.874 -1.4471 -0.7830  0.7258
 9133SOL    HW238862   3.447   3.029   6.786 -0.8048  0.2933  1.3804
 9134SOL     OW38863   3.664   4.088   7.126 -0.4204  0.6860  0.0894
 9134SOL    HW138864   3.686   4.000   7.093  2.5597  0.9206  1.4395
 9134SOL    HW238865   3.618   4.135   7.056 -1.1751 -1.0162 -0.5734
 9135SOL     OW38866   2.300   1.418   8.069 -0.3539 -0.4880  0.4823
 9135SOL    HW138867   2.268   1.338   8.028 -0.0942 -1.2022  1.6785
 9135SOL    HW238868   2.227   1.448   8.123 -0.1379  0.0787  0.4583
 9136SOL     OW38869   1.254   2.242   6.894 -0.1488 -0.7146  0.1876
 9136SOL    HW138870   1.245   2.156   6.853 -1.5908 -0.7593  0.5939
 9136SOL    HW238871   1.178   2.245   6.953  0.9478  1.3556  1.4720
 9137SOL     OW38872   4.560   0.158   9.401  0.3246 -0.1472 -0.7221
 9137SOL    HW138873   4.594   0.075   9.366  0.7403 -0.4327  0.3596
 9137SOL    HW238874   4.479   0.174   9.351  0.0353 -0.8789 -0.4891
 9138SOL     OW38875   1.365   0.591   6.544  0.1170  0.6845  0.4992
 9138SOL    HW138876   1.356   0.653   6.472  2.3125  0.3524 -0.0743
 9138SOL    HW238877   1.301   0.616   6.610 -0.5286 -0.8387  0.4653
 9139SOL     OW38878   3.612   1.637   1.037 -0.7065 -0.3166 -0.5161
 9139SOL    HW138879   3.536   1.671   1.084 -0.0040 -0.1840  0.5113
 9139SOL    HW238880   3.654   1.579   1.100  0.3219  0.7348 -0.2257
 9140SOL     OW38881   1.939   1.304   1.570 -0.0614 -0.2858 -0.1780
 9140SOL    HW138882   1.971   1.234   1.515  2.7186 -0.0573  1.1321
 9140SOL    HW238883   1.994   1.293   1.648 -1.7942  1.7904  1.3637
 9141SOL     OW38884   1.189   1.050  12.526  0.0409 -0.5349  0.0548
 9141SOL    HW138885   1.223   1.138  12.545 -1.2920  0.1069 -0.5861
 9141SOL    HW238886   1.246   1.032  12.452  2.1603 -2.0724  2.0686
 9142SOL     OW38887   3.566   1.506   2.870 -0.0794  0.1914 -0.9733
 9142SOL    HW138888   3.645   1.490   2.817  1.4215  0.1617  1.2913
 9142SOL    HW238889   3.500   1.462   2.816 -0.6603 -1.3472  0.9906
 9143SOL     OW38890   2.193   4.623  15.916  0.3809 -0.0774 -0.1648
 9143SOL    HW138891   2.216   4.540  15.959 -0.7603 -0.5943 -0.5559
 9143SOL    HW238892   2.220   4.599  15.827  1.4161  1.4140 -0.2384
 9144SOL     OW38893   4.045   0.876   4.677 -0.4705  0.4438 -0.0574
 9144SOL    HW138894   4.105   0.844   4.610  0.7310 -1.7644  2.0405
 9144SOL    HW238895   4.103   0.940   4.720 -1.4573 -0.1530  2.1732
 9145SOL     OW38896   3.166   3.567   7.512 -0.3549  0.1895  0.0991
 9145SOL    HW138897   3.221   3.609   7.578  0.6929 -0.5157 -0.3247
 9145SOL    HW238898   3.156   3.487   7.564  1.8360  1.1311  1.9753
 9146SOL     OW38899   3.132   0.633   2.448  0.4928  0.4768  0.2199
 9146SOL    HW138900   3.126   0.664   2.539 -3.0947  1.3117 -0.2668
 9146SOL    HW238901   3.199   0.566   2.456 -1.1425 -1.1379  0.5891
 9147SOL     OW38902   0.061   1.834   7.456 -1.1079  0.1395 -0.3434
 9147SOL    HW138903   0.077   1.746   7.492  1.2136  0.3578 -0.8562
 9147SOL    HW238904   0.135   1.888   7.481 -0.4569 -0.1879 -1.5515
 9148SOL     OW38905   2.339   3.302   5.062 -0.0333  0.4237  0.3448
 9148SOL    HW138906   2.433   3.317   5.051 -0.2937 -0.0795 -2.6336
 9148SOL    HW238907   2.312   3.295   4.970  1.2731  0.6348 -0.0470
 9149SOL     OW38908   0.233   4.256  13.410  0.4964  0.0171 -0.1470
 9149SOL    HW138909   0.148   4.281  13.446 -0.2210 -0.6836 -1.3279
 9149SOL    HW238910   0.218   4.163  13.423 -0.1802  0.1943  0.3895
 9150SOL     OW38911   3.548   4.014  13.432 -0.6750 -0.3043  0.6127
 9150SOL    HW138912   3.519   3.989  13.520 -1.7940  0.3885  0.4403
 9150SOL    HW238913   3.643   4.006  13.445 -0.5462  2.1538  1.2926
 9151SOL     OW38914   4.423   3.302   5.958  0.0919  0.3985 -0.0758
 9151SOL    HW138915   4.394   3.393   5.956 -0.2642  0.3186  1.1874
 9151SOL    HW238916   4.345   3.257   5.991  0.9964 -0.5824  0.7659
 9152SOL     OW38917   0.963   0.749  14.566 -0.4550  0.3802 -0.7678
 9152SOL    HW138918   0.999   0.674  14.614  1.3220  0.1924 -2.4324
 9152SOL    HW238919   0.937   0.715  14.480  1.8675  0.7557 -1.6094
 9153SOL     OW38920   0.952   2.826   4.652 -0.0104 -0.3130  0.5172
 9153SOL    HW138921   0.899   2.841   4.573 -0.7438 -1.5677  0.7794
 9153SOL    HW238922   0.886   2.780   4.703 -1.1056 -1.7125 -2.1834
 9154SOL     OW38923   4.031   1.731   8.725  0.1891 -0.2436  0.2807
 9154SOL    HW138924   4.104   1.749   8.784 -1.4292 -1.3696  2.6315
 9154SOL    HW238925   4.021   1.639   8.751 -0.5500  0.4474  2.4518
 9155SOL     OW38926   4.206   0.200   0.641 -0.0110 -0.1650  0.5339
 9155SOL    HW138927   4.161   0.211   0.557  1.5398  0.1338 -0.2426
 9155SOL    HW238928   4.291   0.226   0.605 -0.2615 -2.5760 -1.7677
 9156SOL     OW38929   0.203   2.158   4.245  0.3057  0.0534 -0.0257
 9156SOL    HW138930   0.156   2.235   4.276 -1.4187 -1.3838  0.9057
 9156SOL    HW238931   0.197   2.153   4.150 -0.7489  0.9392  0.0072
 9157SOL     OW38932   4.250   2.620   4.499 -0.3138  0.4682  0.5877
 9157SOL    HW138933   4.181   2.644   4.561 -1.3484 -0.0865 -0.3657
 9157SOL    HW238934   4.290   2.705   4.479  1.2147 -0.8787 -2.1120
 9158SOL     OW38935   4.331   2.343   6.922 -0.2073 -0.5652 -0.1465
 9158SOL    HW138936   4.250   2.333   6.873 -0.0465  1.2619 -0.7605
 9158SOL    HW238937   4.382   2.390   6.856  1.1996 -1.9698 -0.0643
 9159SOL     OW38938   3.427   0.671  13.468 -0.2153  0.4680 -0.0137
 9159SOL    HW138939   3.422   0.766  13.478  0.2384  0.5879 -0.9389
 9159SOL    HW238940   3.466   0.661  13.381 -0.9865 -2.0243 -0.0718
 9160SOL     OW38941   0.606   2.471   5.704 -0.2743  0.0095  0.2810
 9160SOL    HW138942   0.533   2.532   5.715  0.8214  1.3867 -0.0381
 9160SOL    HW238943   0.605   2.425   5.788 -1.7175 -0.7291 -0.1507
 9161SOL     OW38944   4.571   1.615  15.885 -0.5308 -0.4673 -0.1273
 9161SOL    HW138945   4.660   1.633  15.915 -1.1616  3.6032 -0.7874
 9161SOL    HW238946   4.531   1.683  15.938 -1.3360 -1.3602  0.4141
 9162SOL     OW38947   1.803   0.162   4.766  0.2204  0.0726 -0.9131
 9162SOL    HW138948   1.892   0.151   4.731  0.4386 -0.5829 -0.1656
 9162SOL    HW238949   1.816   0.137   4.857 -1.9477  3.4146  0.3199
 9163SOL     OW38950   4.531   2.535   7.050  0.0421  0.2339 -0.4438
 9163SOL    HW138951   4.557   2.541   7.142 -1.3079 -1.0614  0.0339
 9163SOL    HW238952   4.438   2.510   7.046  0.6355 -2.1008  0.2728
 9164SOL     OW38953   1.545   2.200   6.710 -0.3257  0.0276  0.5537
 9164SOL    HW138954   1.459   2.177   6.675 -0.1914 -0.6646  0.6786
 9164SOL    HW238955   1.536   2.225   6.802 -1.1869 -2.6793  1.2034
 9165SOL     OW38956   2.504   1.759   0.384  0.3598 -0.0300  0.5287
 9165SOL    HW138957   2.534   1.838   0.430 -0.6414  1.3312 -1.1593
 9165SOL    HW238958   2.578   1.705   0.413  1.1540  0.1039 -1.2934
 9166SOL     OW38959   1.787   4.273   6.733  0.0041  0.3215  0.2431
 9166SOL    HW138960   1.862   4.218   6.755  1.3079  1.8564 -0.3620
 9166SOL    HW238961   1.798   4.360   6.771  1.0284  0.7187 -0.9677
 9167SOL     OW38962   0.301   4.090   4.743  0.5037 -0.2936 -0.4216
 9167SOL    HW138963   0.277   4.180   4.724  2.1563  0.4501  1.0079
 9167SOL    HW238964   0.217   4.045   4.740  0.2887  0.1936 -1.9437
 9168SOL     OW38965   1.017   1.000  13.010 -0.5276 -0.1085  0.2215
 9168SOL    HW138966   1.084   0.935  12.989  0.1176  0.5756  0.2052
 9168SOL    HW238967   0.967   0.949  13.074 -0.5311 -0.0445  0.2688
 9169SOL     OW38968   3.344   4.514   3.050  0.3999 -0.0616  0.4665
 9169SOL    HW138969   3.433   4.550   3.045  0.8972 -1.0939  2.0238
 9169SOL    HW238970   3.354   4.435   3.103 -0.2511  0.4521  1.3605
 9170SOL     OW38971   1.280   1.057   5.793 -0.6748 -0.0099 -0.3246
 9170SOL    HW138972   1.277   1.015   5.879 -0.4947  0.9966  0.1762
 9170SOL    HW238973   1.369   1.087   5.777 -0.3161 -0.6581  0.4280
 9171SOL     OW38974   1.011   1.391   7.732 -0.1634 -0.4942 -0.1620
 9171SOL    HW138975   1.034   1.467   7.785  0.3733 -0.9072  0.1956
 9171SOL    HW238976   0.946   1.351   7.789 -0.2545  0.2410  0.2504
 9172SOL     OW38977   3.937   3.376   4.046  0.4385  0.0021  0.2897
 9172SOL    HW138978   3.921   3.453   3.990  1.0356 -0.4051 -0.4414
 9172SOL    HW238979   3.851   3.335   4.039  0.2724  0.5499 -0.9668
 9173SOL     OW38980   2.200   3.709   9.594 -0.6188  0.4225 -0.2551
 9173SOL    HW138981   2.125   3.656   9.566 -0.7414  1.5569 -2.0903
 9173SOL    HW238982   2.249   3.685   9.515 -0.3114  0.1071  0.0286
 9174SOL     OW38983   2.106   4.188  10.567 -0.1046 -0.2311 -0.2312
 9174SOL    HW138984   2.087   4.268  10.518 -0.2460 -0.0692  0.0864
 9174SOL    HW238985   2.195   4.211  10.594  0.5543  0.0385 -2.6343
 9175SOL     OW38986   4.411   0.798   2.046 -0.4396 -0.0869  0.4367
 9175SOL    HW138987   4.407   0.759   2.133  0.0858 -2.1962 -0.4848
 9175SOL    HW238988   4.420   0.726   1.984 -1.0387  0.9700 -0.8968
 9176SOL     OW38989   3.894   3.032  13.213  0.5115 -0.6145 -0.2441
 9176SOL    HW138990   3.876   3.126  13.212  3.1200 -0.0970  0.8900
 9176SOL    HW238991   3.937   3.017  13.129  0.9860  1.6826 -0.4162
 9177SOL     OW38992   3.944   1.029   4.185  0.3168 -0.3884 -0.2922
 9177SOL    HW138993   3.971   1.090   4.116 -0.3954  1.0251  0.6835
 9177SOL    HW238994   3.948   1.083   4.264 -0.3265  2.2829 -2.0589
 9178SOL     OW38995   1.282   1.509  14.033 -0.3264  0.2699  0.1642
 9178SOL    HW138996   1.288   1.529  14.126  3.1040  1.9382 -0.4381
 9178SOL    HW238997   1.353   1.447  14.023 -0.5609  0.4063 -2.5414
 9179SOL     OW38998   0.647   0.695   0.966  0.3500 -0.2319  0.0572
 9179SOL    HW138999   0.733   0.699   1.008 -0.2106  2.6152  0.9874
 9179SOL    HW239000   0.644   0.607   0.929  2.1399 -0.1212 -0.3806
 9180SOL     OW39001   2.364   2.650   8.296 -0.8898  0.4392  0.4123
 9180SOL    HW139002   2.405   2.570   8.263 -2.4753  0.3459 -1.3319
 9180SOL    HW239003   2.280   2.647   8.250  0.3812 -0.8073 -1.8273
 9181SOL     OW39004   2.099   2.492   6.429  0.3858  0.0891 -0.2454
 9181SOL    HW139005   2.083   2.487   6.524 -0.2812 -1.2901 -0.4261
 9181SOL    HW239006   2.195   2.485   6.425  0.3852 -1.3317  1.6078
 9182SOL     OW39007   2.902   2.572  11.953 -0.5215  0.6194  0.0740
 9182SOL    HW139008   2.863   2.583  11.866  0.7209 -0.4157 -0.6180
 9182SOL    HW239009   2.974   2.510  11.940 -3.4773 -2.5755 -1.0830
 9183SOL     OW39010   0.156   2.618   8.579 -0.0520 -0.0537  0.1226
 9183SOL    HW139011   0.164   2.536   8.530 -0.6767  0.7057 -1.2580
 9183SOL    HW239012   0.121   2.581   8.659 -1.9230  1.8671  0.1891
 9184SOL     OW39013   1.545   1.072   9.710  0.2577  0.6101 -0.1168
 9184SOL    HW139014   1.486   1.008   9.671 -0.0696 -0.4194  2.0438
 9184SOL    HW239015   1.603   1.081   9.634  1.9357  0.3466  1.1228
 9185SOL     OW39016   3.034   3.525  17.035 -0.4803  0.3849 -0.0113
 9185SOL    HW139017   2.947   3.488  17.046  0.1115 -0.6274  1.4334
 9185SOL    HW239018   3.023   3.554  16.945  0.8745  2.8769  0.6051
 9186SOL     OW39019   0.515   4.647  12.855 -0.3085 -0.2945  0.2674
 9186SOL    HW139020   0.427   4.609  12.847 -0.7761  0.5833  1.2151
 9186SOL    HW239021   0.548   4.652  12.765 -0.2254  1.2095  0.3711
 9187SOL     OW39022   2.371   0.128  14.210  0.8270  0.3224 -0.1814
 9187SOL    HW139023   2.321   0.173  14.278 -0.3540 -0.8237 -0.3035
 9187SOL    HW239024   2.320   0.132  14.129 -0.2668 -1.6537  0.4163
 9188SOL     OW39025   2.589   3.443  11.071 -0.5542 -0.4023  0.2017
 9188SOL    HW139026   2.601   3.377  11.139 -1.3781  1.1882  1.9015
 9188SOL    HW239027   2.620   3.390  10.998  0.5645  0.8513 -0.2492
 9189SOL     OW39028   0.337   0.575   7.404 -0.0738  0.0807 -0.0450
 9189SOL    HW139029   0.398   0.627   7.352  0.0262 -0.1265 -0.1376
 9189SOL    HW239030   0.367   0.487   7.381  2.0856  0.7982  0.0455
 9190SOL     OW39031   1.017   3.337   6.814  0.4938 -0.0581 -0.5189
 9190SOL    HW139032   1.075   3.327   6.890  1.5984 -0.5257 -1.4277
 9190SOL    HW239033   1.084   3.309   6.751  0.7736 -1.1265  0.2541
 9191SOL     OW39034   2.853   0.163  16.830  0.2684  0.0833 -0.5233
 9191SOL    HW139035   2.944   0.176  16.855  0.4870  0.6734 -1.6074
 9191SOL    HW239036   2.802   0.207  16.898 -1.3122 -1.5096 -0.6616
 9192SOL     OW39037   3.937   1.771   5.675  0.1717  0.2301  0.2441
 9192SOL    HW139038   3.942   1.693   5.731  0.8976 -0.7924 -1.2429
 9192SOL    HW239039   3.856   1.809   5.711  0.7127 -1.0201  2.7750
 9193SOL     OW39040   3.845   0.830  11.430  0.3586  0.0739 -0.0541
 9193SOL    HW139041   3.872   0.898  11.368 -2.0294  0.7366 -0.3553
 9193SOL    HW239042   3.763   0.808  11.386 -0.0377  1.5807 -0.0929
 9194SOL     OW39043   2.658   0.769   3.013 -0.3526 -0.7275 -0.2501
 9194SOL    HW139044   2.719   0.716   3.065  0.3832  0.5164  0.1423
 9194SOL    HW239045   2.703   0.787   2.931  1.0621  0.8518  0.8690
 9195SOL     OW39046   1.331   4.274   1.610  0.0331  0.5033  0.2077
 9195SOL    HW139047   1.330   4.211   1.682  1.8739 -1.3762 -1.4201
 9195SOL    HW239048   1.317   4.352   1.664  0.2265  0.1986  0.6940
 9196SOL     OW39049   3.576   1.919   9.610  0.1584 -0.5058 -0.6316
 9196SOL    HW139050   3.574   1.839   9.662  1.4276 -2.1635 -3.1220
 9196SOL    HW239051   3.669   1.940   9.618  0.3771 -0.9529 -1.9344
 9197SOL     OW39052   4.225   2.973   3.781 -0.0163 -0.0076 -0.1478
 9197SOL    HW139053   4.170   2.967   3.703 -0.3510 -0.4097  0.1201
 9197SOL    HW239054   4.316   2.962   3.753 -0.2785  1.0423 -1.4455
 9198SOL     OW39055   1.150   2.491   7.427 -0.0576  0.2879 -0.2356
 9198SOL    HW139056   1.241   2.485   7.456  0.6829  3.2052 -1.8978
 9198SOL    HW239057   1.155   2.582   7.399 -2.2791  0.5508  0.2690
 9199SOL     OW39058   0.103   0.497  10.846 -0.0239 -0.1232 -0.0004
 9199SOL    HW139059   0.194   0.499  10.815 -0.4366  1.4881 -1.0737
 9199SOL    HW239060   0.079   0.589  10.855 -0.9145 -0.0141 -3.7560
 9200SOL     OW39061   0.482   4.456   7.476 -0.0286 -0.2415 -0.2217
 9200SOL    HW139062   0.422   4.406   7.422 -1.6537  0.9013  0.5052
 9200SOL    HW239063   0.515   4.516   7.410 -0.4226 -0.1528 -0.3395
 9201SOL     OW39064   2.624   2.793   1.831 -0.1394 -0.1903 -0.3929
 9201SOL    HW139065   2.537   2.757   1.813 -0.7179  0.4419  1.1370
 9201SOL    HW239066   2.668   2.730   1.774  0.6344  0.7243 -0.7876
 9202SOL     OW39067   3.847   2.485   2.818  0.1382 -0.2745  0.2213
 9202SOL    HW139068   3.812   2.413   2.870  0.5066  0.0980  0.9941
 9202SOL    HW239069   3.928   2.504   2.864  0.2651 -1.5907  0.5213
 9203SOL     OW39070   2.832   0.288   9.380 -0.0988 -0.0798  0.0327
 9203SOL    HW139071   2.861   0.257   9.465 -0.4896  2.5432  1.1273
 9203SOL    HW239072   2.874   0.221   9.325  0.9492  0.4955  0.1342
 9204SOL     OW39073   3.105   4.175   1.233  0.0627 -0.2812 -0.2592
 9204SOL    HW139074   3.042   4.233   1.276  1.0129 -0.3605  1.2260
 9204SOL    HW239075   3.192   4.207   1.255 -0.8805 -0.2742  3.3747
 9205SOL     OW39076   0.469   0.573  12.017 -0.0155  0.0675 -0.1972
 9205SOL    HW139077   0.522   0.524  11.954 -1.1229  2.6817 -3.2026
 9205SOL    HW239078   0.401   0.609  11.960 -2.7270 -0.0107  3.0438
 9206SOL     OW39079   4.437   4.359   2.391  0.1752 -0.0409  0.0793
 9206SOL    HW139080   4.471   4.409   2.465 -2.5163 -0.4090  1.5866
 9206SOL    HW239081   4.344   4.341   2.405  0.1930 -0.9615 -0.9894
 9207SOL     OW39082   1.218   2.436   5.491 -0.0755  0.5053  0.1294
 9207SOL    HW139083   1.142   2.493   5.505 -0.1248  0.2626  0.8370
 9207SOL    HW239084   1.287   2.502   5.480 -2.4682  2.7446 -1.6511
 9208SOL     OW39085   1.384   1.407   8.487 -0.3535 -0.1787  0.2972
 9208SOL    HW139086   1.308   1.442   8.440 -0.7870 -0.7212  0.5962
 9208SOL    HW239087   1.369   1.313   8.486 -1.6254  0.0145  0.5845
 9209SOL     OW39088   3.060   2.937   9.437  0.3019  0.0204 -0.0688
 9209SOL    HW139089   3.148   2.905   9.418  0.5399 -0.0880  1.1950
 9209SOL    HW239090   3.078   3.020   9.483  1.6472  0.4554 -1.3660
 9210SOL     OW39091   1.198   2.265   8.195 -0.5897 -0.3637  0.4823
 9210SOL    HW139092   1.115   2.220   8.182 -0.2547 -0.9954  0.5441
 9210SOL    HW239093   1.186   2.333   8.129 -1.0872  0.0939  1.0507
 9211SOL     OW39094   3.392   1.934   7.743 -0.4443  0.6990 -0.8743
 9211SOL    HW139095   3.458   1.901   7.681 -0.5408 -1.0741 -0.0560
 9211SOL    HW239096   3.443   1.995   7.797  0.8934 -0.1235 -1.2013
 9212SOL     OW39097   0.484   4.296   2.292  0.6411 -0.2344  0.2581
 9212SOL    HW139098   0.413   4.333   2.238  1.5575  0.1560 -0.6699
 9212SOL    HW239099   0.481   4.209   2.253  3.3478  0.3804 -1.2642
 9213SOL     OW39100   0.507   2.366   6.311  0.3283  0.4367 -0.2105
 9213SOL    HW139101   0.454   2.427   6.363 -2.6312 -1.3799 -1.0987
 9213SOL    HW239102   0.491   2.300   6.378  0.6968 -2.5932 -3.1391
 9214SOL     OW39103   2.082   1.015  15.124 -0.2684  0.0716  0.6237
 9214SOL    HW139104   2.173   1.007  15.152 -0.6471  0.6047  1.9794
 9214SOL    HW239105   2.099   1.065  15.045 -0.7265 -1.4810 -0.4665
 9215SOL     OW39106   3.138   3.656   6.170  0.4493 -0.9124  0.3060
 9215SOL    HW139107   3.203   3.666   6.239  2.4319 -1.2174 -1.5253
 9215SOL    HW239108   3.058   3.632   6.218  0.6031  0.9579  1.4918
 9216SOL     OW39109   2.162   3.225   5.983 -0.2322 -0.0507 -0.5941
 9216SOL    HW139110   2.168   3.282   5.906 -2.8208  3.4975  1.8782
 9216SOL    HW239111   2.145   3.292   6.048 -1.3912 -1.0476  0.1127
 9217SOL     OW39112   2.383   2.060   7.860  0.2194 -1.0955  0.0474
 9217SOL    HW139113   2.375   2.024   7.948  0.4343 -2.7958 -0.6148
 9217SOL    HW239114   2.470   2.099   7.856  0.8600 -2.2382  2.6721
 9218SOL     OW39115   2.967   2.585  12.824 -0.8578  0.1128  0.2867
 9218SOL    HW139116   2.873   2.574  12.837 -0.7414 -0.2449  0.8177
 9218SOL    HW239117   2.984   2.593  12.918  0.2653  1.2173 -0.0201
 9219SOL     OW39118   3.894   1.291   6.701  0.0016 -0.4961  0.4956
 9219SOL    HW139119   3.922   1.217   6.754  0.5114 -1.2818 -0.8822
 9219SOL    HW239120   3.804   1.314   6.725 -0.9294 -1.1502 -2.4378
 9220SOL     OW39121   0.564   0.974   1.887  0.5112  0.4267 -0.1241
 9220SOL    HW139122   0.484   0.925   1.866 -0.1431  0.6395  1.8287
 9220SOL    HW239123   0.601   0.905   1.942  2.0946  0.0825 -1.6328
 9221SOL     OW39124   2.733   4.153  16.578  0.5071  0.3668 -0.1469
 9221SOL    HW139125   2.657   4.171  16.523 -0.2692  0.4607  0.9426
 9221SOL    HW239126   2.727   4.232  16.633 -0.6438  0.1518  0.0403
 9222SOL     OW39127   2.867   2.910   1.526 -0.0526  0.5378 -0.2962
 9222SOL    HW139128   2.870   3.006   1.537 -1.1490  0.6521 -0.9471
 9222SOL    HW239129   2.801   2.905   1.457  1.9594  2.5073 -2.3579
 9223SOL     OW39130   0.073   0.230   1.804  0.5100  0.6695 -0.4347
 9223SOL    HW139131   0.107   0.152   1.760  0.1026  1.3102 -1.8719
 9223SOL    HW239132   0.005   0.268   1.749  0.2317 -2.6201 -2.3952
 9224SOL     OW39133   3.272   2.997   9.068 -0.1055 -0.2474  0.2778
 9224SOL    HW139134   3.177   2.996   9.069 -0.0506 -1.9049  2.8547
 9224SOL    HW239135   3.287   3.049   8.989  1.6665 -1.2236 -0.0452
 9225SOL     OW39136   1.391   2.902   5.330  0.0647  0.1176  0.4739
 9225SOL    HW139137   1.364   2.982   5.286  0.1455  0.0398  0.2815
 9225SOL    HW239138   1.485   2.899   5.315  0.1344  2.1839  0.5018
 9226SOL     OW39139   3.221   0.595   6.370  0.2538  0.0690  0.2024
 9226SOL    HW139140   3.231   0.586   6.276  0.7591 -0.8941  0.3532
 9226SOL    HW239141   3.301   0.547   6.392 -0.0016 -1.0113 -1.2932
 9227SOL     OW39142   0.604   2.331   3.816  0.1878  0.4144 -0.2612
 9227SOL    HW139143   0.662   2.366   3.749  2.1410 -0.3082  1.0540
 9227SOL    HW239144   0.640   2.370   3.895  1.7622  1.3841 -1.4518
 9228SOL     OW39145   1.178   2.120  11.878  0.1522  0.2098  0.2072
 9228SOL    HW139146   1.224   2.192  11.835  0.9052  0.1121  0.8473
 9228SOL    HW239147   1.195   2.044  11.821  2.5681  1.5933 -0.9194
 9229SOL     OW39148   3.599   1.303   4.750 -0.1965 -0.1141  0.0176
 9229SOL    HW139149   3.531   1.283   4.815  2.6692  2.2595  3.6917
 9229SOL    HW239150   3.551   1.285   4.669  0.5198 -1.8033 -0.0343
 9230SOL     OW39151   1.011   1.361  10.953 -0.0548  0.1961  0.3369
 9230SOL    HW139152   0.981   1.420  10.884 -0.1100  0.3635  0.5048
 9230SOL    HW239153   1.099   1.346  10.916 -1.1587 -0.5041 -2.0500
 9231SOL     OW39154   0.193   3.385  14.501 -0.0533 -0.1300  0.2988
 9231SOL    HW139155   0.124   3.336  14.546 -0.7260  0.7598  0.2244
 9231SOL    HW239156   0.145   3.460  14.465  0.5965  1.0217  1.8369
 9232SOL     OW39157   3.334   2.447   9.844 -0.6936  0.1344 -0.2341
 9232SOL    HW139158   3.311   2.540   9.841  0.3323  0.3340 -1.7412
 9232SOL    HW239159   3.409   2.447   9.904 -0.9800  0.9880  0.1293
 9233SOL     OW39160   0.417   1.537  14.204 -0.3041 -0.2944  0.0315
 9233SOL    HW139161   0.510   1.524  14.190  0.0185  1.3934  0.5934
 9233SOL    HW239162   0.410   1.633  14.201  0.9687 -0.2462 -1.0200
 9234SOL     OW39163   1.951   1.334  12.901  0.7459 -0.1533  0.2560
 9234SOL    HW139164   2.007   1.275  12.951 -0.3481 -1.0525  0.4159
 9234SOL    HW239165   2.004   1.410  12.876 -2.5509  0.7876 -3.8465
 9235SOL     OW39166   1.052   0.318   8.246 -1.0227 -0.2300  0.1479
 9235SOL    HW139167   0.963   0.299   8.216 -0.1767  0.1948 -2.6892
 9235SOL    HW239168   1.059   0.271   8.329  1.6277  1.2008  0.7574
 9236SOL     OW39169   1.952   4.414  10.511  0.1782 -0.5510 -0.3934
 9236SOL    HW139170   1.949   4.491  10.455 -0.8876 -0.1668  0.1814
 9236SOL    HW239171   1.998   4.455  10.585  0.3549 -1.7043  0.1276
 9237SOL     OW39172   0.809   2.652  12.581 -0.2231 -0.1313  0.0222
 9237SOL    HW139173   0.884   2.628  12.526 -0.2881  0.7151 -0.4430
 9237SOL    HW239174   0.740   2.629  12.519  0.4399 -0.3106 -0.6529
 9238SOL     OW39175   1.370   3.957   0.577 -0.1159 -0.2901  0.0261
 9238SOL    HW139176   1.428   3.899   0.625 -0.0568  1.6167  2.2628
 9238SOL    HW239177   1.344   4.030   0.634  1.7550  0.8906 -0.6544
 9239SOL     OW39178   1.820   2.741   4.873 -0.4795  0.0226 -0.4474
 9239SOL    HW139179   1.735   2.700   4.887 -0.7348  1.0095  0.9806
 9239SOL    HW239180   1.847   2.689   4.797  0.6200  2.8426 -2.0025
 9240SOL     OW39181   3.653   3.340  12.457 -0.1005 -0.1610 -0.0847
 9240SOL    HW139182   3.621   3.387  12.534  0.3949 -1.7093  1.0705
 9240SOL    HW239183   3.716   3.279  12.497  0.5502  0.7106  0.2236
 9241SOL     OW39184   1.153   2.514   9.816  0.3298  0.0911  0.1346
 9241SOL    HW139185   1.075   2.569   9.809 -0.7342 -1.7540 -2.6042
 9241SOL    HW239186   1.189   2.505   9.728  0.5566 -1.4167  0.3719
 9242SOL     OW39187   4.633   3.323   2.576  0.4796  0.2174 -0.0788
 9242SOL    HW139188   0.004   3.314   2.573  0.4516 -0.0533 -0.1610
 9242SOL    HW239189   4.599   3.233   2.571  0.3342  0.3283 -1.0754
 9243SOL     OW39190   1.096   0.721   0.647  0.3541  0.0811 -0.0393
 9243SOL    HW139191   1.097   0.757   0.736  0.3753  0.2559 -0.1104
 9243SOL    HW239192   1.169   0.660   0.651 -2.0955 -2.7648  1.2833
 9244SOL     OW39193   3.762   0.045   0.309  0.0669  0.0847 -0.2541
 9244SOL    HW139194   3.803   0.004   0.385  2.3364 -0.5927 -1.8399
 9244SOL    HW239195   3.726   0.128   0.340  0.3666 -0.1633  0.7546
 9245SOL     OW39196   0.855   0.236   3.609  0.0033  0.3434  0.2340
 9245SOL    HW139197   0.925   0.219   3.547  0.8622 -0.1416  1.3404
 9245SOL    HW239198   0.873   0.178   3.683 -0.3067 -0.1973 -0.1222
 9246SOL     OW39199   3.656   1.993   3.457 -0.1053 -0.0719  0.2354
 9246SOL    HW139200   3.619   1.951   3.379 -2.4301  0.8856  0.8010
 9246SOL    HW239201   3.591   1.967   3.523 -0.9675 -2.0155 -1.3870
 9247SOL     OW39202   1.799   3.239   7.225 -0.2442 -0.3147 -0.1000
 9247SOL    HW139203   1.877   3.249   7.279  0.8460 -0.3766 -1.6341
 9247SOL    HW239204   1.728   3.279   7.274 -0.4337  1.2504 -1.6368
 9248SOL     OW39205   3.227   1.364   6.653  0.9604  0.3294 -0.2330
 9248SOL    HW139206   3.305   1.404   6.693 -0.4571  0.1524  2.7122
 9248SOL    HW239207   3.189   1.433   6.598 -0.4949 -0.0451  0.3057
 9249SOL     OW39208   1.505   1.319   9.211 -0.3151  0.7447  0.2249
 9249SOL    HW139209   1.532   1.387   9.273  3.6119 -1.8608  1.3574
 9249SOL    HW239210   1.528   1.368   9.132  0.7736  2.2261  1.4755
 9250SOL     OW39211   3.589   1.380   8.146  0.4982 -0.4968 -0.1973
 9250SOL    HW139212   3.677   1.351   8.122  0.2532 -0.7463 -0.8016
 9250SOL    HW239213   3.556   1.299   8.186 -0.3611 -0.2661 -0.4407
 9251SOL     OW39214   3.806   3.085  12.515 -0.7103  0.8247  0.7038
 9251SOL    HW139215   3.900   3.101  12.508 -0.6664  0.9289  1.4739
 9251SOL    HW239216   3.798   3.058  12.607 -0.8888 -0.5049  0.3010
 9252SOL     OW39217   2.782   2.230  17.352  0.0127  0.2117  0.1959
 9252SOL    HW139218   2.747   2.259  17.437 -2.0189 -1.2543 -0.1555
 9252SOL    HW239219   2.847   2.301  17.352 -0.1030  0.3082 -1.5923
 9253SOL     OW39220   1.794   1.299   2.637 -0.2311 -0.3039 -0.3912
 9253SOL    HW139221   1.832   1.370   2.585  1.3436 -1.9216 -1.4426
 9253SOL    HW239222   1.866   1.237   2.631  2.5229  2.8060  0.5819
 9254SOL     OW39223   2.566   0.196   2.197 -0.1763 -0.0535 -0.2192
 9254SOL    HW139224   2.567   0.104   2.173  3.9044 -0.5062  1.6595
 9254SOL    HW239225   2.505   0.229   2.131 -0.7625  0.0832  0.3881
 9255SOL     OW39226   2.723   3.232  15.185  0.4001 -0.1786  0.6800
 9255SOL    HW139227   2.734   3.161  15.248 -1.1789 -0.4984  0.6043
 9255SOL    HW239228   2.673   3.184  15.119 -1.0440  0.8102  1.0549
 9256SOL     OW39229   3.057   4.262   4.465 -0.2624 -0.4317  0.0522
 9256SOL    HW139230   3.120   4.196   4.437  1.7403  1.2517  0.6097
 9256SOL    HW239231   3.016   4.210   4.533 -1.3572  0.2865 -0.0623
 9257SOL     OW39232   2.046   0.463  16.723  0.9920 -0.4271 -0.3543
 9257SOL    HW139233   2.045   0.419  16.638  1.6077 -0.1623 -0.4943
 9257SOL    HW239234   2.139   0.457  16.745  0.9970  0.3065 -0.1810
 9258SOL     OW39235   3.177   2.792  10.290  0.9293 -0.0786 -0.5976
 9258SOL    HW139236   3.116   2.747  10.350 -2.6176  1.9284 -2.7104
 9258SOL    HW239237   3.176   2.721  10.226  3.1751 -1.6880  1.1317
 9259SOL     OW39238   2.786   3.386   4.402  0.2638 -0.0920 -0.2834
 9259SOL    HW139239   2.879   3.370   4.419  0.6030  1.9449 -0.1886
 9259SOL    HW239240   2.755   3.305   4.361  1.2704 -1.5685  1.8900
 9260SOL     OW39241   3.820   2.110   6.135 -0.2804 -0.4313  1.0439
 9260SOL    HW139242   3.838   2.025   6.174 -0.8999 -0.8541  0.3944
 9260SOL    HW239243   3.904   2.153   6.153  0.3086  0.0873 -2.8855
 9261SOL     OW39244   0.923   0.163   5.171  0.1591  0.2208 -0.6520
 9261SOL    HW139245   0.935   0.258   5.170 -0.1561  0.2684  0.1341
 9261SOL    HW239246   0.847   0.155   5.228 -0.4646  0.2461 -1.4811
 9262SOL     OW39247   1.596   1.432   0.094 -0.8963 -0.1037 -0.2940
 9262SOL    HW139248   1.671   1.446   0.152 -1.6341 -0.8402  0.8396
 9262SOL    HW239249   1.575   1.341   0.115  1.3030  0.0244  2.5454
 9263SOL     OW39250   4.040   1.641   5.131 -0.7405 -0.4212  0.2914
 9263SOL    HW139251   4.020   1.549   5.110  0.0964 -0.3075 -0.9747
 9263SOL    HW239252   4.133   1.640   5.108 -0.9757  0.6714 -0.6843
 9264SOL     OW39253   2.394   4.342   8.797 -0.2284  0.2673 -0.1701
 9264SOL    HW139254   2.334   4.403   8.840 -1.0046 -2.4122  2.4659
 9264SOL    HW239255   2.329   4.277   8.772 -0.2337  0.7742 -1.4899
 9265SOL     OW39256   0.092   3.667   2.424 -0.1203 -0.3137  0.1650
 9265SOL    HW139257   0.094   3.758   2.395  0.7111 -0.5670 -0.5439
 9265SOL    HW239258   0.153   3.616   2.370  1.2385  0.7358  0.6988
 9266SOL     OW39259   1.742   3.235   9.690  0.4809  0.0948  0.4644
 9266SOL    HW139260   1.806   3.163   9.695 -0.9100 -1.1985 -0.1782
 9266SOL    HW239261   1.657   3.194   9.674 -1.0667  2.5288  2.5967
 9267SOL     OW39262   2.519   0.710   3.361 -0.4180 -0.3645  0.0806
 9267SOL    HW139263   2.605   0.748   3.345  0.3675 -1.7845  0.9170
 9267SOL    HW239264   2.508   0.742   3.451  3.2990 -1.3390  0.8918
 9268SOL     OW39265   2.888   1.516   6.021 -0.0977 -0.6931  0.2317
 9268SOL    HW139266   2.894   1.600   5.975 -0.1808 -0.5152  0.5474
 9268SOL    HW239267   2.792   1.515   6.030 -0.0012 -0.6187  1.1928
 9269SOL     OW39268   1.345   0.334   1.027  0.1700 -0.0982  0.0141
 9269SOL    HW139269   1.309   0.419   1.000 -0.5078 -0.2129  0.5346
 9269SOL    HW239270   1.368   0.283   0.950 -1.1556 -1.4039  0.4640
 9270SOL     OW39271   0.681   3.107  16.934  0.2174  0.3933 -0.0971
 9270SOL    HW139272   0.631   3.182  16.966 -0.3726  1.1134 -2.7191
 9270SOL    HW239273   0.627   3.069  16.865  0.1543 -2.8538  1.7658
 9271SOL     OW39274   0.771   1.682   5.739 -0.6361 -0.2774 -0.0936
 9271SOL    HW139275   0.854   1.700   5.695 -0.1791 -0.6422  0.6094
 9271SOL    HW239276   0.719   1.688   5.659  0.8249  2.0533 -0.8456
 9272SOL     OW39277   3.109   2.962   6.340  0.6356 -0.4342  0.0076
 9272SOL    HW139278   3.117   2.866   6.335 -1.6658 -0.5791 -0.7294
 9272SOL    HW239279   3.061   2.971   6.422  1.1188 -2.1811  0.4890
 9273SOL     OW39280   1.076   3.623   5.344 -0.2208  0.3336 -0.2044
 9273SOL    HW139281   1.153   3.679   5.331 -0.7798  1.5535  1.7010
 9273SOL    HW239282   1.082   3.562   5.270  0.0616  1.5023 -1.1434
 9274SOL     OW39283   0.283   2.660  16.438  0.2304 -0.6359  0.1460
 9274SOL    HW139284   0.340   2.736  16.447  1.0227 -1.3835  1.5151
 9274SOL    HW239285   0.280   2.649  16.533 -0.3813  0.7346  0.2799
 9275SOL     OW39286   3.500   3.050   5.635 -0.1286 -0.5517  0.2249
 9275SOL    HW139287   3.506   3.003   5.719  0.1484  0.6221  0.8550
 9275SOL    HW239288   3.541   2.984   5.578  3.3074  0.1681  1.8376
 9276SOL     OW39289   0.120   2.202   5.583 -0.0335 -0.1836 -0.7702
 9276SOL    HW139290   0.184   2.198   5.654  0.1324 -0.9218 -0.9650
 9276SOL    HW239291   0.136   2.287   5.541 -2.3939  0.4461 -0.3972
 9277SOL     OW39292   2.344   0.356   8.781  0.4539 -0.0773  0.2288
 9277SOL    HW139293   2.435   0.378   8.759  0.4654 -0.4866 -0.1392
 9277SOL    HW239294   2.349   0.269   8.821  0.1110 -0.2738 -0.1500
 9278SOL     OW39295   0.986   1.974   3.880  0.9991  0.0600  0.0083
 9278SOL    HW139296   1.046   1.929   3.939  1.2012 -0.4459 -0.5828
 9278SOL    HW239297   1.050   2.002   3.814  0.9607 -0.8528 -0.4168
 9279SOL     OW39298   3.657   3.445   6.273 -0.2850 -0.1448 -0.0152
 9279SOL    HW139299   3.563   3.432   6.289  0.6542 -3.1389  2.8808
 9279SOL    HW239300   3.663   3.531   6.231 -0.2586 -0.6750 -1.0833
 9280SOL     OW39301   2.121   0.106   8.616  0.0956 -0.1569  0.3943
 9280SOL    HW139302   2.185   0.151   8.561 -0.4898  0.5275  0.2804
 9280SOL    HW239303   2.170   0.078   8.693  2.3934 -0.6894 -1.2547
 9281SOL     OW39304   2.448   4.607   6.174 -0.2287  0.1445  0.4640
 9281SOL    HW139305   2.362   4.591   6.214 -0.1108  0.9690  1.0560
 9281SOL    HW239306   2.499   4.527   6.185 -0.1989  0.3329  1.6261
 9282SOL     OW39307   2.782   4.715   4.884  0.0712  0.9536  0.0403
 9282SOL    HW139308   2.797   4.654   4.812 -0.5939  1.8346 -0.8504
 9282SOL    HW239309   2.869   0.028   4.900  0.5336 -1.5910  3.4780
 9283SOL     OW39310   1.291   0.250  14.093 -0.2115  0.1029 -0.2387
 9283SOL    HW139311   1.359   0.256  14.160  0.2526  0.3343 -0.7299
 9283SOL    HW239312   1.308   0.331  14.045  1.8648 -0.1849  0.0091
 9284SOL     OW39313   1.721   2.419   2.825  0.3341 -0.1443 -1.4478
 9284SOL    HW139314   1.685   2.473   2.896 -0.2962 -0.7589 -1.3015
 9284SOL    HW239315   1.654   2.352   2.816  0.4667 -0.4739 -0.1088
 9285SOL     OW39316   3.412   1.259   4.566  0.3948  0.0107 -0.1493
 9285SOL    HW139317   3.341   1.195   4.577  0.7766 -0.5059 -0.6860
 9285SOL    HW239318   3.459   1.207   4.501  1.6040 -0.4724  1.1023
 9286SOL     OW39319   4.652   4.046  14.776 -0.1793  0.2162  0.1381
 9286SOL    HW139320   4.593   4.119  14.794  0.2652  0.6818 -0.2992
 9286SOL    HW239321   4.707   4.078  14.704 -0.8001  0.0642 -0.4045
 9287SOL     OW39322   1.655   2.134  17.291 -0.6071  0.2743 -0.2689
 9287SOL    HW139323   1.569   2.107  17.258 -1.0800  1.3195  0.1035
 9287SOL    HW239324   1.710   2.059  17.268  1.0911  1.5008 -0.1597
 9288SOL     OW39325   2.135   1.149   1.738 -0.6672  0.0520 -0.5056
 9288SOL    HW139326   2.085   1.115   1.664 -2.0528  1.3974 -0.1873
 9288SOL    HW239327   2.110   1.075   1.793  0.3005  0.3336  0.3171
 9289SOL     OW39328   3.485   0.054   4.425 -0.6547  0.1834  0.2049
 9289SOL    HW139329   3.401   0.097   4.438 -0.4138  0.2986  1.3369
 9289SOL    HW239330   3.509   0.106   4.348  1.3746 -1.9542 -0.6155
 9290SOL     OW39331   1.270   4.233   7.599  0.6495  0.3805  0.0175
 9290SOL    HW139332   1.298   4.305   7.543 -1.0664 -0.0478 -1.4191
 9290SOL    HW239333   1.240   4.163   7.540 -0.2449 -1.8747  3.1514
 9291SOL     OW39334   3.860   3.794   5.672 -0.0461 -0.0352 -0.1318
 9291SOL    HW139335   3.908   3.868   5.711  1.3160  0.1828 -2.1979
 9291SOL    HW239336   3.809   3.766   5.748  0.6508  0.1513  0.4132
 9292SOL     OW39337   1.534   3.414   6.639  0.0708  0.5930 -0.0728
 9292SOL    HW139338   1.586   3.479   6.592  0.7625 -0.8681 -1.3162
 9292SOL    HW239339   1.447   3.434   6.605 -0.1893 -1.8493 -0.8529
 9293SOL     OW39340   3.034   3.754   4.024  0.1925 -0.6872 -0.0837
 9293SOL    HW139341   2.981   3.740   4.102 -0.7541 -0.4275 -0.6626
 9293SOL    HW239342   3.013   3.665   3.996 -0.4330 -0.9312  1.1888
 9294SOL     OW39343   1.955   0.486   7.953  0.0820 -0.1897 -0.0164
 9294SOL    HW139344   1.995   0.570   7.976 -0.9322 -0.2460  1.9022
 9294SOL    HW239345   1.977   0.422   8.020  0.5620 -0.5780 -0.5542
 9295SOL     OW39346   1.983   1.193   4.523 -0.3326  0.0214  0.4087
 9295SOL    HW139347   2.070   1.160   4.544 -0.5788  0.8988  2.7842
 9295SOL    HW239348   1.937   1.127   4.574  0.5874 -0.2213  0.9192
 9296SOL     OW39349   2.123   3.533   2.617  0.0772  0.0816  0.5681
 9296SOL    HW139350   2.042   3.494   2.585 -0.7702  1.3742  1.1448
 9296SOL    HW239351   2.194   3.494   2.566 -0.7881 -0.9375  0.1319
 9297SOL     OW39352   3.435   3.375   7.686  0.0811 -0.3600  0.5926
 9297SOL    HW139353   3.504   3.416   7.634  1.2173 -2.4331  0.4933
 9297SOL    HW239354   3.485   3.312   7.738 -0.9289  0.2086  2.2584
 9298SOL     OW39355   4.003   0.165  14.494  0.2094 -0.4809 -0.5485
 9298SOL    HW139356   3.937   0.135  14.432 -0.3692  1.9416 -1.1070
 9298SOL    HW239357   4.043   0.242  14.454 -2.0033  1.3458  0.7592
 9299SOL     OW39358   2.353   2.123   6.192 -0.1275 -0.5434 -0.0801
 9299SOL    HW139359   2.320   2.213   6.199 -0.7699 -0.9039  1.7133
 9299SOL    HW239360   2.294   2.085   6.257  0.8056 -3.9783 -1.2713
 9300SOL     OW39361   3.194   1.762   7.799  0.1431  0.3698 -0.1184
 9300SOL    HW139362   3.276   1.811   7.813  0.1486  0.0555  0.9572
 9300SOL    HW239363   3.142   1.833   7.761  0.6013  1.0696  0.5607
 9301SOL     OW39364   0.036   0.993   2.746  0.1083  0.1956 -0.1711
 9301SOL    HW139365   4.691   1.019   2.807 -0.8086 -1.9902 -0.2793
 9301SOL    HW239366   0.016   0.900   2.739 -1.3274  0.2760  2.6744
 9302SOL     OW39367   1.534   0.682   2.791  0.0589 -0.3892  0.2472
 9302SOL    HW139368   1.630   0.672   2.792  0.2393  1.4513  1.4274
 9302SOL    HW239369   1.506   0.607   2.843 -1.0522 -1.1220 -1.4182
 9303SOL     OW39370   2.339   4.465   5.588  0.2335  0.1069 -0.0358
 9303SOL    HW139371   2.269   4.413   5.627  0.9737 -0.1308  0.9878
 9303SOL    HW239372   2.332   4.554   5.624  2.6466  0.2590  0.0377
 9304SOL     OW39373   0.178   3.956  11.115 -0.4016  0.0151  0.4357
 9304SOL    HW139374   0.169   4.050  11.124  0.8990  0.0970  0.8970
 9304SOL    HW239375   0.133   3.928  11.195  0.9767  1.0343  1.5807
 9305SOL     OW39376   4.376   1.211   4.314 -0.5419 -0.0255 -0.0368
 9305SOL    HW139377   4.325   1.130   4.318  0.7952 -0.9794 -1.9709
 9305SOL    HW239378   4.455   1.190   4.265 -0.7827 -1.4122  0.1624
 9306SOL     OW39379   2.831   0.031   6.872 -0.2138 -0.2802  0.0156
 9306SOL    HW139380   2.813   0.119   6.905  0.7901  0.1176 -0.5064
 9306SOL    HW239381   2.926   0.027   6.861 -0.2328  1.1684 -0.5690
 9307SOL     OW39382   3.147   1.526  11.622 -0.0496 -0.5910  0.5417
 9307SOL    HW139383   3.074   1.464  11.619 -1.5185  1.1132  0.8261
 9307SOL    HW239384   3.104   1.605  11.589 -0.9258 -1.1763  0.2777
 9308SOL     OW39385   1.481   2.307  14.336 -0.3275  0.1324  0.0215
 9308SOL    HW139386   1.392   2.317  14.368  0.1544  4.6364 -0.1216
 9308SOL    HW239387   1.469   2.368  14.263  1.7928  3.5171  2.5105
 9309SOL     OW39388   2.907   3.006  13.946 -0.5099  0.3807 -0.2978
 9309SOL    HW139389   2.900   3.076  13.881 -2.2442 -0.1135 -0.6547
 9309SOL    HW239390   2.819   2.967  13.947  0.2435 -1.2544  1.9643
 9310SOL     OW39391   4.039   4.536   1.757 -0.4054 -0.3867 -0.2416
 9310SOL    HW139392   4.026   4.453   1.711  1.3580 -1.9253  2.0358
 9310SOL    HW239393   3.969   4.527   1.821 -1.0540  1.9798 -0.6014
 9311SOL     OW39394   0.561   1.758   4.334 -0.6160 -0.1412 -0.5299
 9311SOL    HW139395   0.471   1.783   4.313 -0.9710 -0.9111  0.0796
 9311SOL    HW239396   0.605   1.835   4.299  0.2318  0.3734  1.6926
 9312SOL     OW39397   0.170   3.006   4.673  0.2092  0.0357 -0.6452
 9312SOL    HW139398   0.173   2.971   4.761  0.6257  0.3769 -0.5219
 9312SOL    HW239399   0.151   2.934   4.613 -0.1866  1.2751 -2.0459
 9313SOL     OW39400   2.201   1.602   1.829 -0.5799  0.7105 -0.2860
 9313SOL    HW139401   2.124   1.583   1.884  0.7987  0.6665  1.6349
 9313SOL    HW239402   2.257   1.541   1.877 -0.5823  1.6335  0.8877
 9314SOL     OW39403   3.164   1.371   5.651 -0.1549  0.6229  0.1152
 9314SOL    HW139404   3.084   1.416   5.626 -0.4447 -0.7065 -1.3721
 9314SOL    HW239405   3.228   1.411   5.593  0.1265  1.3487  0.9269
 9315SOL     OW39406   0.264   0.018   2.762  0.0082 -0.4326 -0.6857
 9315SOL    HW139407   0.169   0.029   2.760 -0.1155 -1.5324 -0.5968
 9315SOL    HW239408   0.290   0.094   2.709 -0.2033  1.0381  1.3281
 9316SOL     OW39409   3.281   3.060   1.351 -0.0385  0.6234  0.1249
 9316SOL    HW139410   3.206   3.120   1.351  0.8536  1.7442  0.7100
 9316SOL    HW239411   3.241   2.999   1.414  1.4759  0.2018  0.6794
 9317SOL     OW39412   2.367   2.183   8.809  0.1219  0.6355 -0.5745
 9317SOL    HW139413   2.289   2.215   8.764 -0.5538 -0.6479 -0.3370
 9317SOL    HW239414   2.434   2.180   8.741  1.2495  0.9600  0.5262
 9318SOL     OW39415   3.523   3.903   3.676 -0.1651  0.1196  0.5466
 9318SOL    HW139416   3.554   3.874   3.590 -1.6385  2.7319 -0.8560
 9318SOL    HW239417   3.594   3.964   3.698  1.4731 -2.2555  1.9135
 9319SOL     OW39418   4.472   3.917   3.719  0.0343  0.2630  0.9289
 9319SOL    HW139419   4.412   3.869   3.662  2.0519  0.0857 -1.0577
 9319SOL    HW239420   4.536   3.856   3.755  0.4029  1.3405  2.0712
 9320SOL     OW39421   0.979   1.857   8.908 -0.2468 -0.6098  0.2909
 9320SOL    HW139422   0.934   1.784   8.950 -1.8907 -0.1379 -0.6702
 9320SOL    HW239423   1.033   1.816   8.841  1.5441  2.9508 -0.4880
 9321SOL     OW39424   1.124   1.412   4.706 -0.1499  0.1123 -0.4915
 9321SOL    HW139425   1.033   1.390   4.723  0.2386 -0.3346  1.0064
 9321SOL    HW239426   1.149   1.338   4.650 -1.1277 -0.3812 -0.2694
 9322SOL     OW39427   0.359   1.725  16.896 -0.7888 -0.0368 -0.0408
 9322SOL    HW139428   0.372   1.799  16.955 -0.9576  0.9440 -1.2473
 9322SOL    HW239429   0.390   1.653  16.951  0.7811 -1.1037 -2.3105
 9323SOL     OW39430   2.484   4.707  12.880 -0.6761 -0.0955  0.3075
 9323SOL    HW139431   2.417   4.686  12.815  0.2220 -1.4496 -0.1964
 9323SOL    HW239432   2.480   0.078  12.877  0.7023 -0.0907 -1.4322
 9324SOL     OW39433   1.097   3.930   9.727  0.0867 -0.4854 -0.7594
 9324SOL    HW139434   1.018   3.889   9.763  0.4532 -1.9560 -1.6498
 9324SOL    HW239435   1.078   3.927   9.633  1.0129  0.1499 -0.9658
 9325SOL     OW39436   1.309   2.969   7.226 -0.3087 -0.7958  0.1345
 9325SOL    HW139437   1.265   2.903   7.280 -1.9818  1.0831  1.0944
 9325SOL    HW239438   1.243   2.985   7.158  1.2158 -1.4449 -1.4659
 9326SOL     OW39439   2.797   3.869   5.114  0.7481  0.3072  0.1310
 9326SOL    HW139440   2.743   3.939   5.076  0.5190 -0.8773 -1.7133
 9326SOL    HW239441   2.875   3.896   5.065  2.2636 -1.9094  1.3760
 9327SOL     OW39442   2.485   3.594   0.489 -0.3211  0.3514 -0.0692
 9327SOL    HW139443   2.506   3.680   0.524 -2.8536  0.9927 -0.1171
 9327SOL    HW239444   2.394   3.579   0.515 -0.9238 -0.0477 -2.3974
 9328SOL     OW39445   0.260   1.844   3.880 -0.2305  0.2788  0.1084
 9328SOL    HW139446   0.290   1.914   3.823  1.2882 -0.2201  0.3040
 9328SOL    HW239447   0.171   1.878   3.894  0.3167  1.9382 -0.5045
 9329SOL     OW39448   0.859   4.455   8.926 -0.1543 -0.3957  0.6980
 9329SOL    HW139449   0.792   4.420   8.985 -0.9350  0.0382  0.0631
 9329SOL    HW239450   0.929   4.390   8.938 -1.0733 -1.4816  0.1396
 9330SOL     OW39451   1.265   0.128   2.848  0.1760 -0.1802  0.2706
 9330SOL    HW139452   1.232   0.190   2.914 -1.3630  0.5660 -1.2062
 9330SOL    HW239453   1.260   0.042   2.889  1.7102  0.8453  2.6148
 9331SOL     OW39454   0.388   3.369  10.072 -0.5228  0.2115 -0.3735
 9331SOL    HW139455   0.353   3.296  10.123 -0.6315 -0.0429 -0.8109
 9331SOL    HW239456   0.386   3.334   9.983  0.5852  1.8918 -1.0707
 9332SOL     OW39457   2.475   0.517   8.029  0.1117 -0.4180 -0.2344
 9332SOL    HW139458   2.502   0.501   8.120  0.0839  2.2678  0.2698
 9332SOL    HW239459   2.552   0.557   7.987 -0.7445  1.9313  0.4286
 9333SOL     OW39460   2.995   3.033   6.594  0.4279 -0.0535  0.0709
 9333SOL    HW139461   2.902   3.017   6.615  0.0630 -0.8064 -2.1697
 9333SOL    HW239462   3.032   3.027   6.682  1.3599  2.9617 -0.1125
 9334SOL     OW39463   1.953   3.982   0.835  0.6118  0.5503 -0.2401
 9334SOL    HW139464   1.892   3.908   0.832  0.5508  0.5062  2.0370
 9334SOL    HW239465   1.897   4.049   0.874  0.0420  0.4309 -0.8504
 9335SOL     OW39466   2.646   1.843   8.009 -0.2549 -1.0863  0.6176
 9335SOL    HW139467   2.701   1.910   8.050  0.8517 -1.3494 -0.4494
 9335SOL    HW239468   2.600   1.806   8.084  0.5468  0.2016  1.7464
 9336SOL     OW39469   4.065   0.641  16.672  0.0132  0.0538 -0.3122
 9336SOL    HW139470   4.138   0.661  16.614  0.7600 -2.6009 -0.3012
 9336SOL    HW239471   3.989   0.647  16.615 -1.3707 -0.7764  1.4425
 9337SOL     OW39472   1.268   0.133   9.633 -0.5819 -0.0240 -0.2440
 9337SOL    HW139473   1.228   0.084   9.704 -0.6926 -0.0127 -0.2986
 9337SOL    HW239474   1.343   0.080   9.607 -0.5404 -0.5426  0.9590
 9338SOL     OW39475   3.494   1.400   4.223 -0.1126  0.3772  0.4995
 9338SOL    HW139476   3.409   1.357   4.236  0.3468 -0.2247  1.5405
 9338SOL    HW239477   3.497   1.408   4.128 -3.8391 -2.6683  0.1063
 9339SOL     OW39478   0.068   2.183  14.788  0.4164  0.1477 -0.4653
 9339SOL    HW139479   0.163   2.192  14.780  0.2821  2.3555  0.2741
 9339SOL    HW239480   0.038   2.103  14.745  0.4675  1.1561 -2.4039
 9340SOL     OW39481   1.411   4.347  15.483 -0.0647  0.0254 -0.4630
 9340SOL    HW139482   1.494   4.388  15.458 -0.5963  1.3379 -0.0865
 9340SOL    HW239483   1.353   4.386  15.418 -0.4626  1.0661  0.5153
 9341SOL     OW39484   3.380   4.557   5.552 -0.2902 -0.1619 -0.2645
 9341SOL    HW139485   3.374   4.550   5.647  0.6118 -0.9541 -0.2733
 9341SOL    HW239486   3.355   4.468   5.526 -1.5136  0.3239 -0.7813
 9342SOL     OW39487   3.468   3.322   7.292 -0.1800  0.0371 -0.0618
 9342SOL    HW139488   3.530   3.393   7.278  0.9906 -0.8549  0.5977
 9342SOL    HW239489   3.507   3.270   7.362  0.6326 -1.5917 -1.7358
 9343SOL     OW39490   1.373   0.160   8.942  0.2190 -0.1011  0.8688
 9343SOL    HW139491   1.291   0.208   8.945 -0.2422 -0.9037  1.0221
 9343SOL    HW239492   1.437   0.231   8.929 -0.3103  0.1580 -0.2421
 9344SOL     OW39493   1.353   3.122   7.943  0.2193  0.1306 -0.0055
 9344SOL    HW139494   1.385   3.174   7.870  0.9828 -0.8929 -0.4081
 9344SOL    HW239495   1.316   3.047   7.896 -2.0338 -0.2965  2.4005
 9345SOL     OW39496   4.668   1.316  12.720 -0.0056 -0.3878 -0.0193
 9345SOL    HW139497   4.720   1.272  12.653 -0.0088 -0.0005 -0.2751
 9345SOL    HW239498   4.648   1.402  12.683  1.2243  0.2477  0.7801
 9346SOL     OW39499   1.662   2.142  10.310  0.0588  0.1995  0.1587
 9346SOL    HW139500   1.662   2.145  10.406 -1.5670  0.0029  0.1539
 9346SOL    HW239501   1.754   2.122  10.289 -0.5353 -1.5077 -0.7822
 9347SOL     OW39502   0.466   3.185   6.749  0.2873 -0.5994  0.1902
 9347SOL    HW139503   0.554   3.219   6.731 -0.8699  1.7884 -0.8347
 9347SOL    HW239504   0.495   3.094   6.756  2.5770  0.2326  1.4408
 9348SOL     OW39505   3.573   0.645   8.078 -0.0026 -0.1696 -0.2986
 9348SOL    HW139506   3.603   0.613   8.163  1.7041  2.2837  0.0204
 9348SOL    HW239507   3.617   0.579   8.024 -1.1058  0.2526 -1.6840
 9349SOL     OW39508   2.044   1.825  16.236  0.2491 -0.8206  0.1778
 9349SOL    HW139509   2.123   1.879  16.222  0.5569 -1.7108 -1.5510
 9349SOL    HW239510   2.048   1.827  16.332 -2.1261 -1.4151  0.2704
 9350SOL     OW39511   0.553   4.577   1.117 -0.5629 -0.2687  0.1546
 9350SOL    HW139512   0.504   4.579   1.199  2.6290 -0.6844  2.0940
 9350SOL    HW239513   0.600   4.495   1.129 -0.0084  0.0233 -0.0053
 9351SOL     OW39514   3.213   3.339  11.436  0.2459  0.3628  0.0109
 9351SOL    HW139515   3.188   3.332  11.528  1.3520 -1.8167  0.1311
 9351SOL    HW239516   3.216   3.246  11.415  0.6067 -0.1700  2.3628
 9352SOL     OW39517   4.639   0.487  11.362 -0.5579 -0.2346 -0.3532
 9352SOL    HW139518   4.567   0.548  11.378  0.9416  1.6146 -0.7692
 9352SOL    HW239519   4.673   0.508  11.275  1.7575 -0.2793  0.5321
 9353SOL     OW39520   2.366   1.467   8.552  0.8024 -0.2817  0.4384
 9353SOL    HW139521   2.460   1.486   8.554  0.6886  0.4936 -1.5136
 9353SOL    HW239522   2.360   1.443   8.459  1.1927 -1.0800  0.6151
 9354SOL     OW39523   0.889   4.513  15.191  0.3513  0.6896 -0.1650
 9354SOL    HW139524   0.931   4.499  15.276  0.7765  1.1716 -0.2974
 9354SOL    HW239525   0.967   4.503  15.136 -0.3480 -0.7944 -0.8884
 9355SOL     OW39526   3.199   4.144   3.401  0.0227 -0.3096  0.4862
 9355SOL    HW139527   3.115   4.105   3.375  1.2848 -2.9047  0.2756
 9355SOL    HW239528   3.192   4.232   3.364 -0.6443 -0.8524 -0.7062
 9356SOL     OW39529   1.113   0.107   8.425  0.5284  0.1318  0.3977
 9356SOL    HW139530   1.118   0.083   8.518 -2.2668 -0.1472  0.4851
 9356SOL    HW239531   1.033   0.064   8.395 -0.2052  1.0389  1.0628
 9357SOL     OW39532   3.573   3.729   9.369  0.2616  0.0087  0.3265
 9357SOL    HW139533   3.564   3.634   9.356  0.2624  0.0602 -0.0456
 9357SOL    HW239534   3.536   3.734   9.458 -0.1375  0.2605  0.1474
 9358SOL     OW39535   0.161   2.010   8.576 -0.5185  0.1774 -0.1540
 9358SOL    HW139536   0.254   2.031   8.566 -0.4418 -0.3253 -0.4901
 9358SOL    HW239537   0.116   2.090   8.551 -0.8333  1.0345  3.0671
 9359SOL     OW39538   1.701   1.025   4.997  0.2191 -0.2111  0.5118
 9359SOL    HW139539   1.721   1.114   5.024  1.1322 -0.3695  0.3600
 9359SOL    HW239540   1.608   1.028   5.020 -0.0346 -0.7742 -0.4168
 9360SOL     OW39541   3.816   3.945  13.432 -0.2023 -0.3340  0.0446
 9360SOL    HW139542   3.797   3.916  13.343 -1.4671  1.7291 -0.3549
 9360SOL    HW239543   3.886   4.007  13.413 -0.3726 -0.8850 -2.3843
 9361SOL     OW39544   2.654   4.237   4.273  0.3731  0.9408  0.0664
 9361SOL    HW139545   2.638   4.275   4.359  1.6918  0.0559  0.7075
 9361SOL    HW239546   2.749   4.224   4.272  0.1691 -0.5397  0.4980
 9362SOL     OW39547   2.464   2.796   1.479  0.2020  0.3756 -0.8072
 9362SOL    HW139548   2.461   2.759   1.567 -0.4479 -0.6956 -1.2866
 9362SOL    HW239549   2.433   2.886   1.493 -1.5353 -0.2312 -0.8298
 9363SOL     OW39550   3.177   3.305   7.321  0.4603 -0.1213 -0.0574
 9363SOL    HW139551   3.271   3.288   7.322  0.7633  1.4542 -1.0833
 9363SOL    HW239552   3.171   3.322   7.415  0.4041  1.1724 -0.2957
 9364SOL     OW39553   0.203   2.305   6.940  0.7340 -0.1210  0.2115
 9364SOL    HW139554   0.156   2.359   7.003 -1.8461 -0.4924 -1.4480
 9364SOL    HW239555   0.229   2.230   6.995  0.4375  1.5054  2.5896
 9365SOL     OW39556   3.766   0.129   5.181  0.2829  0.3118 -0.1365
 9365SOL    HW139557   3.724   0.069   5.120  1.2377 -0.4475 -0.0368
 9365SOL    HW239558   3.857   0.102   5.171  0.4823  1.6742 -1.9980
 9366SOL     OW39559   3.321   3.138  16.257 -0.3839 -0.0749 -0.2089
 9366SOL    HW139560   3.236   3.099  16.238 -1.7253  3.5492 -1.5371
 9366SOL    HW239561   3.286   3.226  16.272  2.6926  0.8882  1.4344
 9367SOL     OW39562   2.084   3.777   3.966 -0.1482 -0.7583  0.4059
 9367SOL    HW139563   2.173   3.795   3.939 -1.2372  1.4713 -1.6749
 9367SOL    HW239564   2.052   3.710   3.906 -0.8567  1.0584 -1.2228
 9368SOL     OW39565   4.482   2.018   5.148 -0.5125  0.6558  0.1913
 9368SOL    HW139566   4.572   2.049   5.136 -1.0107  1.6863 -0.8925
 9368SOL    HW239567   4.486   1.982   5.237 -4.1353  1.7962  0.7905
 9369SOL     OW39568   3.986   0.982   2.922 -0.1486 -0.0049  0.6279
 9369SOL    HW139569   4.024   0.899   2.894 -1.8085 -0.3176 -0.7243
 9369SOL    HW239570   3.962   1.010   2.834  0.5610 -0.2752  0.3548
 9370SOL     OW39571   4.452   1.054   9.328  0.7035 -0.1007 -0.2060
 9370SOL    HW139572   4.372   1.056   9.382 -0.7855  1.4982 -2.4934
 9370SOL    HW239573   4.435   1.130   9.273  2.9529  1.7340  1.6479
 9371SOL     OW39574   1.788   0.709   3.476 -0.0775  0.2274  0.1942
 9371SOL    HW139575   1.857   0.730   3.538 -0.0228 -2.7743  1.1390
 9371SOL    HW239576   1.785   0.614   3.467  1.2833  0.3896 -1.9168
 9372SOL     OW39577   4.567   4.639   6.049  0.0880  0.1048 -0.3071
 9372SOL    HW139578   4.608   4.574   5.992  0.9295  0.0053  0.3980
 9372SOL    HW239579   4.481   4.646   6.008  0.2196 -0.7587 -0.7336
 9373SOL     OW39580   0.530   3.544  13.529 -0.0615 -0.0177  0.4934
 9373SOL    HW139581   0.583   3.607  13.479  1.9550 -0.8791  1.5584
 9373SOL    HW239582   0.572   3.461  13.510 -1.6786 -0.7079 -0.0564
 9374SOL     OW39583   2.734   1.102   7.657 -0.2976 -0.0322 -0.8446
 9374SOL    HW139584   2.655   1.154   7.648  0.9244  1.8984 -0.4709
 9374SOL    HW239585   2.699   1.038   7.719  1.4394 -0.5216 -0.3407
 9375SOL     OW39586   2.220   0.740   3.940  0.1843 -0.3638 -0.3556
 9375SOL    HW139587   2.162   0.670   3.970 -0.0150  0.3649  0.9437
 9375SOL    HW239588   2.307   0.705   3.955  0.1449  0.1991  1.1698
 9376SOL     OW39589   4.685   1.596  10.854 -0.4227  0.0164  0.3158
 9376SOL    HW139590   4.684   1.691  10.846 -2.2136 -0.0275  0.1313
 9376SOL    HW239591   4.696   1.572  10.762 -1.9176 -2.2997  0.7358
 9377SOL     OW39592   3.893   1.852   9.950 -0.4008 -0.5685  0.1801
 9377SOL    HW139593   3.859   1.813  10.030  0.5029  0.7697  1.2164
 9377SOL    HW239594   3.979   1.813   9.960 -0.0049  0.9256  2.5685
 9378SOL     OW39595   1.681   4.185   5.520  0.5328  0.1777 -0.0876
 9378SOL    HW139596   1.643   4.097   5.520  1.9106 -0.4123 -1.9324
 9378SOL    HW239597   1.625   4.241   5.467  2.4285  0.1139 -2.1698
 9379SOL     OW39598   1.289   1.455   8.722  0.2369  0.0202 -0.9939
 9379SOL    HW139599   1.327   1.443   8.635  1.1679  1.2065 -0.7554
 9379SOL    HW239600   1.325   1.387   8.780  0.5094  0.0889 -1.0857
 9380SOL     OW39601   0.643   2.045   7.035 -0.0062 -0.4590  0.0467
 9380SOL    HW139602   0.681   2.107   7.097 -0.7324 -0.5026  0.5311
 9380SOL    HW239603   0.676   1.963   7.071  1.9948  0.2489 -0.1240
 9381SOL     OW39604   0.587   0.199   0.096 -0.3343  0.2771  0.0534
 9381SOL    HW139605   0.614   0.157   0.014 -1.2320 -0.2698  0.0314
 9381SOL    HW239606   0.561   0.286   0.067  2.8356  0.6436 -1.7319
 9382SOL     OW39607   2.676   4.302   3.879  0.1943  0.0452  0.1016
 9382SOL    HW139608   2.713   4.216   3.897 -0.3622 -0.3736 -0.7344
 9382SOL    HW239609   2.618   4.302   3.955 -1.0067 -0.9192 -0.8239
 9383SOL     OW39610   0.182   4.580  11.656  0.0967 -0.5848 -0.0479
 9383SOL    HW139611   0.193   4.663  11.702 -0.3105 -0.4397 -0.2104
 9383SOL    HW239612   0.103   4.602  11.607 -1.6482 -3.4793  1.4872
 9384SOL     OW39613   4.355   2.210   6.616  0.0300 -0.3405  0.3033
 9384SOL    HW139614   4.393   2.297   6.617 -1.7963  0.4345  1.2002
 9384SOL    HW239615   4.430   2.151   6.622  0.8265  0.7620  0.9138
 9385SOL     OW39616   2.553   4.532   7.772 -0.0873 -0.4480 -0.6441
 9385SOL    HW139617   2.474   4.586   7.764  1.3648  2.0082  1.6597
 9385SOL    HW239618   2.621   4.599   7.779 -0.5440 -0.2583  2.1416
 9386SOL     OW39619   0.036   1.370  10.574  0.1615 -0.0619 -0.7201
 9386SOL    HW139620   0.037   1.312  10.650  0.7743 -0.9231 -1.3967
 9386SOL    HW239621   4.673   1.345  10.545 -0.9145  1.6855  1.0021
 9387SOL     OW39622   0.339   0.201  17.304 -0.4427  0.3307  0.0337
 9387SOL    HW139623   0.354   0.196  17.210 -2.0003  0.7874 -0.2395
 9387SOL    HW239624   0.414   0.147  17.329 -0.4051 -0.5272 -1.9281
 9388SOL     OW39625   1.985   0.920   7.118 -0.1933 -0.0248  0.4231
 9388SOL    HW139626   2.033   0.922   7.201 -0.6290 -0.2559  0.6804
 9388SOL    HW239627   1.897   0.897   7.147  0.2506 -0.4781  1.4183
 9389SOL     OW39628   3.880   3.135   3.629  0.3632  0.0890  0.1174
 9389SOL    HW139629   3.948   3.069   3.618 -1.0766 -1.3596 -0.0692
 9389SOL    HW239630   3.800   3.095   3.595  0.9804 -0.9265 -0.1174
 9390SOL     OW39631   4.004   4.260   5.435  0.2725  0.5706 -0.2836
 9390SOL    HW139632   4.089   4.301   5.447 -0.1362  0.5483  2.5836
 9390SOL    HW239633   3.966   4.263   5.522  1.0661  0.9501  0.0520
 9391SOL     OW39634   0.750   3.241  13.917 -0.0957 -0.0064 -0.1098
 9391SOL    HW139635   0.837   3.268  13.889 -0.0812  1.6155  1.4444
 9391SOL    HW239636   0.721   3.176  13.854 -0.4771 -0.1835  0.2452
 9392SOL     OW39637   3.284   3.567   4.327  0.1374  0.4379 -0.1211
 9392SOL    HW139638   3.307   3.485   4.372 -0.7055 -0.8364 -1.9771
 9392SOL    HW239639   3.208   3.603   4.373 -2.1219 -2.5129 -1.5014
 9393SOL     OW39640   4.113   2.854   4.236  0.1431 -0.4258  0.3468
 9393SOL    HW139641   4.150   2.915   4.173 -0.7853 -1.0329 -0.7969
 9393SOL    HW239642   4.197   2.845   4.281 -0.8822  1.8595  2.6880
 9394SOL     OW39643   1.144   2.676   9.178  0.7527 -0.0631  0.0616
 9394SOL    HW139644   1.217   2.629   9.138  0.2113 -0.6294 -0.2484
 9394SOL    HW239645   1.097   2.616   9.235  0.5222 -1.5232 -1.6707
 9395SOL     OW39646   3.139   0.526   4.863 -0.0720 -0.4890  0.0249
 9395SOL    HW139647   3.082   0.452   4.843 -0.1848 -0.0542 -1.2883
 9395SOL    HW239648   3.093   0.600   4.822 -1.9872 -1.4505  0.4372
 9396SOL     OW39649   0.114   3.321   7.480 -0.0583 -0.8072  0.2889
 9396SOL    HW139650   0.158   3.295   7.561  1.6277  0.7104 -0.1619
 9396SOL    HW239651   0.073   3.403   7.508  1.2061  0.7689 -2.4895
 9397SOL     OW39652   4.721   2.689   5.319  0.1749  0.4763  0.5193
 9397SOL    HW139653   0.065   2.630   5.286 -1.4113 -0.8639 -0.3954
 9397SOL    HW239654   4.688   2.732   5.240  1.7896 -0.9781 -0.9411
 9398SOL     OW39655   2.395   4.333   2.166  0.2648  0.0881 -0.4708
 9398SOL    HW139656   2.469   4.346   2.107  0.8473  0.5423  0.3677
 9398SOL    HW239657   2.338   4.271   2.118 -0.5018 -1.3730  2.3377
 9399SOL     OW39658   4.500   4.127   3.935  0.4700 -0.3739 -0.1422
 9399SOL    HW139659   4.455   4.094   3.857 -2.0542  2.5094  0.0803
 9399SOL    HW239660   4.505   4.047   3.987 -1.9672 -1.2154 -1.2005
 9400SOL     OW39661   0.979   3.215   7.447  0.0689  0.3180  0.0253
 9400SOL    HW139662   0.920   3.230   7.520  0.3193 -0.2690  0.3526
 9400SOL    HW239663   1.046   3.280   7.468 -1.5117  2.5088 -1.7008
 9401SOL     OW39664   0.306   2.694   7.106  0.7043  0.3172  0.3433
 9401SOL    HW139665   0.308   2.788   7.091 -0.4101  0.1752 -0.6605
 9401SOL    HW239666   0.212   2.685   7.090  0.6549 -0.5225  1.0481
 9402SOL     OW39667   3.190   3.304   7.595 -0.0019  0.1405 -0.2434
 9402SOL    HW139668   3.267   3.336   7.643 -2.2599  3.0958  1.3871
 9402SOL    HW239669   3.215   3.215   7.568  0.4147  0.6027 -1.3508
 9403SOL     OW39670   3.217   1.553   2.508  0.2244  0.4896  0.3527
 9403SOL    HW139671   3.188   1.463   2.500  0.2435  0.7854 -3.2866
 9403SOL    HW239672   3.181   1.584   2.591 -0.7181 -0.6435  0.3532
 9404SOL     OW39673   0.019   2.314   9.366 -0.0733  0.0133 -0.1470
 9404SOL    HW139674   0.030   2.220   9.351 -0.4961  0.0439 -0.6303
 9404SOL    HW239675   0.101   2.318   9.416 -0.1394 -0.2135 -0.0206
 9405SOL     OW39676   2.471   1.396   9.041 -0.6740 -0.0250  0.4377
 9405SOL    HW139677   2.440   1.356   8.960  0.2822 -0.0159  0.0717
 9405SOL    HW239678   2.397   1.421   9.096 -0.0602 -1.1540  1.7902
 9406SOL     OW39679   2.022   3.617   1.454  0.5323 -0.0327 -0.2164
 9406SOL    HW139680   2.028   3.698   1.503  0.2328  0.4410 -0.9582
 9406SOL    HW239681   2.004   3.549   1.519  0.5168 -0.8635 -1.0842
 9407SOL     OW39682   1.146   4.006   9.323 -0.0199 -0.6096  0.0181
 9407SOL    HW139683   1.206   4.025   9.395 -1.4788 -2.0175  1.5813
 9407SOL    HW239684   1.075   3.972   9.376 -0.3574 -1.6845 -1.1174
 9408SOL     OW39685   2.488   3.249   5.454  0.1640 -0.0387  0.7084
 9408SOL    HW139686   2.455   3.323   5.402  0.4126  0.0428  0.6700
 9408SOL    HW239687   2.462   3.181   5.392 -0.9125  0.4619  0.5950
 9409SOL     OW39688   1.830   0.582   6.477  0.0636 -0.2434 -0.0915
 9409SOL    HW139689   1.771   0.612   6.546 -1.8290 -2.9138 -0.5387
 9409SOL    HW239690   1.887   0.522   6.526  0.0808  0.9082  1.2761
 9410SOL     OW39691   0.798   1.818  14.115 -0.2241 -0.3015 -0.6992
 9410SOL    HW139692   0.854   1.752  14.156  1.7512  2.8707  1.6936
 9410SOL    HW239693   0.737   1.832  14.188  1.9941  0.7375  0.9709
 9411SOL     OW39694   0.595   0.758  17.395 -0.8335  0.4833  0.3670
 9411SOL    HW139695   0.633   0.678  17.429 -1.5528 -0.2937 -0.6573
 9411SOL    HW239696   0.671   0.814  17.408 -0.0524 -0.1084 -1.6180
 9412SOL     OW39697   1.022   3.532  13.996  0.2824  0.0824  0.7117
 9412SOL    HW139698   1.117   3.538  14.001  0.1831  2.3653 -0.0853
 9412SOL    HW239699   1.010   3.615  13.950  2.5584  0.8065  1.4432
 9413SOL     OW39700   3.145   4.313   2.540  0.0143 -0.8587 -0.1061
 9413SOL    HW139701   3.129   4.251   2.468 -0.0076 -0.4065 -0.4884
 9413SOL    HW239702   3.176   4.385   2.485 -1.8855 -1.2374 -1.7109
 9414SOL     OW39703   3.093   0.664   7.868 -0.4906  0.2023  0.1764
 9414SOL    HW139704   3.155   0.735   7.885 -1.4796  0.9079  0.8526
 9414SOL    HW239705   3.142   0.591   7.905 -1.5259 -0.2442  0.6438
 9415SOL     OW39706   1.180   4.638   9.815 -0.0919 -0.1360  0.4031
 9415SOL    HW139707   1.226   4.682   9.887  2.0206 -0.5106 -0.7061
 9415SOL    HW239708   1.217   4.550   9.826  2.6661  1.0161  0.4098
 9416SOL     OW39709   4.378   1.532  10.450 -0.1537 -0.4895 -0.3754
 9416SOL    HW139710   4.432   1.608  10.473 -0.1079 -0.2244 -1.3535
 9416SOL    HW239711   4.382   1.485  10.534  2.3524 -1.0299 -0.7981
 9417SOL     OW39712   1.559   3.313   7.816 -0.0219  0.6530  0.5716
 9417SOL    HW139713   1.573   3.234   7.763 -0.9881  0.0850  1.1708
 9417SOL    HW239714   1.540   3.376   7.747 -0.3902  1.7568  1.6989
 9418SOL     OW39715   3.173   2.208   2.989  0.2545  0.0059 -0.1624
 9418SOL    HW139716   3.175   2.277   3.056  0.7573 -0.4850  0.3255
 9418SOL    HW239717   3.127   2.136   3.032 -2.3665  1.3501 -0.6725
 9419SOL     OW39718   3.834   1.611   1.742 -0.6283  0.4126  0.1272
 9419SOL    HW139719   3.876   1.657   1.815 -0.3912  0.8257 -0.2692
 9419SOL    HW239720   3.759   1.586   1.796  0.0219 -1.2589  0.2542
 9420SOL     OW39721   3.388   2.573   8.149 -0.2272  0.2256  0.1235
 9420SOL    HW139722   3.341   2.579   8.066  0.9583  1.1029 -0.4810
 9420SOL    HW239723   3.307   2.587   8.199 -0.4988  0.6193 -0.4226
 9421SOL     OW39724   4.348   0.312   6.241  0.5895 -0.0800 -0.5548
 9421SOL    HW139725   4.346   0.272   6.328 -1.0672 -0.6547 -0.8676
 9421SOL    HW239726   4.422   0.372   6.253 -0.6741  1.6376 -1.3017
 9422SOL     OW39727   0.711   4.101   9.539  0.5223 -0.1450 -0.0622
 9422SOL    HW139728   0.735   4.184   9.498 -1.1882  1.4923  2.1799
 9422SOL    HW239729   0.627   4.079   9.499  1.0681 -1.4226 -0.5080
 9423SOL     OW39730   3.987   2.971  17.378 -0.2379 -0.1594 -0.3902
 9423SOL    HW139731   3.923   3.016  17.434 -0.9064 -0.4732 -0.9014
 9423SOL    HW239732   4.004   3.042  17.316  0.3455 -2.6788 -3.1111
 9424SOL     OW39733   4.166   3.897  11.050 -0.1841  0.0306 -0.2671
 9424SOL    HW139734   4.257   3.919  11.069  0.0125 -0.0315 -1.1354
 9424SOL    HW239735   4.150   3.841  11.125 -1.8091  3.3087  1.8355
 9425SOL     OW39736   1.684   4.169   5.199  0.1841 -0.1150 -0.3416
 9425SOL    HW139737   1.667   4.259   5.229  0.6223 -0.0158 -0.3996
 9425SOL    HW239738   1.690   4.190   5.106  1.6565 -0.5945 -0.3436
 9426SOL     OW39739   1.489   2.431   8.860  0.3131  0.1486  0.4488
 9426SOL    HW139740   1.563   2.371   8.866  0.4274  0.2359 -0.1043
 9426SOL    HW239741   1.510   2.468   8.774 -0.2107 -0.0246  0.2425
 9427SOL     OW39742   2.490   0.550  12.942 -0.2695  0.2424  0.2089
 9427SOL    HW139743   2.460   0.521  13.028  1.2965  1.3855  1.1348
 9427SOL    HW239744   2.583   0.567  12.959  0.2874 -0.5643 -1.9772
 9428SOL     OW39745   2.290   1.419   7.350  0.3124  0.4967 -0.1874
 9428SOL    HW139746   2.267   1.429   7.443  0.1444 -0.0581 -0.1689
 9428SOL    HW239747   2.220   1.472   7.311  1.2875  1.5792 -0.4524
 9429SOL     OW39748   2.856   2.877   5.247 -0.1583  0.2335 -0.2264
 9429SOL    HW139749   2.911   2.819   5.299  1.6456  0.4485 -1.8882
 9429SOL    HW239750   2.914   2.883   5.170 -0.0422  1.2957 -0.0595
 9430SOL     OW39751   1.286   1.477   5.540  0.0459 -0.1528  0.1003
 9430SOL    HW139752   1.294   1.557   5.489 -2.2924  0.2033  0.3399
 9430SOL    HW239753   1.216   1.504   5.599  1.0543  0.4338  1.0296
 9431SOL     OW39754   1.452   1.170  16.182 -0.0274  0.4288 -0.4966
 9431SOL    HW139755   1.422   1.114  16.253  1.4395 -0.3457 -0.4907
 9431SOL    HW239756   1.390   1.243  16.184 -1.1318 -0.5532  1.5075
 9432SOL     OW39757   1.438   1.793   2.496 -0.2234 -0.1732 -0.3757
 9432SOL    HW139758   1.488   1.870   2.522 -0.9555  0.3889 -0.6268
 9432SOL    HW239759   1.388   1.835   2.426  0.5060  2.9690  1.0207
 9433SOL     OW39760   2.268   0.765   5.977 -0.8504  0.1776  0.4558
 9433SOL    HW139761   2.338   0.702   5.965 -0.5802  0.7539 -0.9292
 9433SOL    HW239762   2.305   0.845   5.938  0.5112 -0.7447 -0.1308
 9434SOL     OW39763   1.496   3.273  16.231 -0.4791  0.0338 -0.1926
 9434SOL    HW139764   1.488   3.292  16.324  2.0852 -1.0576  0.2474
 9434SOL    HW239765   1.591   3.263  16.221 -0.6063  1.9234 -3.3967
 9435SOL     OW39766   0.142   0.267   7.753 -0.0536  0.3384 -0.5134
 9435SOL    HW139767   0.197   0.344   7.765 -0.1419 -0.0130  2.0196
 9435SOL    HW239768   0.162   0.246   7.662  0.5277  0.3428 -0.3863
 9436SOL     OW39769   3.409   4.261   6.206  0.3439  0.1919 -0.8945
 9436SOL    HW139770   3.346   4.193   6.228 -0.8897  0.7808 -2.6238
 9436SOL    HW239771   3.407   4.256   6.110 -0.3476 -0.2440 -0.8541
 9437SOL     OW39772   3.193   0.545   5.337  0.4154 -0.2890  0.2103
 9437SOL    HW139773   3.248   0.575   5.265 -0.0750  0.8795  0.3154
 9437SOL    HW239774   3.197   0.450   5.329  0.1873 -0.3885  1.2138
 9438SOL     OW39775   3.812   3.710   1.710  0.0715 -0.7055 -0.1604
 9438SOL    HW139776   3.834   3.782   1.651  2.6690 -1.6656 -0.3455
 9438SOL    HW239777   3.721   3.731   1.734  0.3182  0.7426 -0.5322
 9439SOL     OW39778   0.773   1.181  12.938 -0.2275  0.1396 -0.2416
 9439SOL    HW139779   0.830   1.147  12.870 -2.5511  0.5981 -2.3928
 9439SOL    HW239780   0.801   1.137  13.018  0.3459  1.0684  0.0660
 9440SOL     OW39781   2.423   0.797   1.829  0.7376 -0.0233  0.4976
 9440SOL    HW139782   2.495   0.760   1.879  0.7112  1.7210  1.8414
 9440SOL    HW239783   2.435   0.742   1.752 -0.0442  0.8703 -0.2710
 9441SOL     OW39784   0.934   3.299   6.327 -0.4888  0.3531  0.6303
 9441SOL    HW139785   1.010   3.357   6.319 -1.2072  1.3277  0.8457
 9441SOL    HW239786   0.869   3.342   6.382 -1.0637  2.4812 -1.6888
 9442SOL     OW39787   0.472   1.086   2.650 -0.0562  0.3399 -0.3231
 9442SOL    HW139788   0.432   1.094   2.737  0.0566  1.4756 -0.3689
 9442SOL    HW239789   0.396   1.045   2.609 -0.2076 -0.7296  1.0250
 9443SOL     OW39790   0.887   2.939  13.661  0.7916 -0.3359 -0.8165
 9443SOL    HW139791   0.796   2.968  13.664  0.7206 -0.4616 -1.5966
 9443SOL    HW239792   0.930   3.005  13.714 -0.4648  0.6217 -0.9883
 9444SOL     OW39793   4.473   4.217   6.720 -0.2806  0.0899  0.2186
 9444SOL    HW139794   4.437   4.155   6.656  0.0448  0.1707 -0.0469
 9444SOL    HW239795   4.563   4.184   6.715 -0.1985  0.8093 -3.4399
 9445SOL     OW39796   3.319   1.201  10.607  0.5057  0.3558  0.8172
 9445SOL    HW139797   3.352   1.182  10.695 -1.4021 -0.8692  1.2743
 9445SOL    HW239798   3.248   1.137  10.601  0.2831  0.8381 -1.7660
 9446SOL     OW39799   3.229   3.943   3.689 -0.3526 -0.2908 -0.3968
 9446SOL    HW139800   3.190   4.010   3.746  1.7556  0.9646 -0.3836
 9446SOL    HW239801   3.323   3.949   3.706 -0.0063  0.5177 -2.5667
 9447SOL     OW39802   2.109   0.512   7.644 -0.5785  0.0686 -0.4508
 9447SOL    HW139803   2.189   0.505   7.696 -2.0173  0.0087  1.8030
 9447SOL    HW239804   2.100   0.608   7.643 -1.5512 -0.0731 -4.4903
 9448SOL     OW39805   0.255   0.457  15.077 -0.2844 -0.1370 -0.3705
 9448SOL    HW139806   0.240   0.384  15.016 -0.1893 -2.0994  1.9394
 9448SOL    HW239807   0.283   0.406  15.153  1.1721 -2.0514 -2.1595
 9449SOL     OW39808   1.109   3.294  16.659 -1.1025 -0.2085 -0.2068
 9449SOL    HW139809   1.096   3.379  16.617  1.3759  0.0246 -0.4676
 9449SOL    HW239810   1.024   3.250  16.650 -0.8903 -0.9703  1.4145
 9450SOL     OW39811   4.222   1.748   5.924 -0.0604  0.2137 -0.0076
 9450SOL    HW139812   4.240   1.772   5.833 -2.2030  3.7240  0.5002
 9450SOL    HW239813   4.218   1.835   5.964  0.3418 -0.4091  1.3730
 9451SOL     OW39814   2.725   1.453   9.135 -0.2920  0.3224  0.2538
 9451SOL    HW139815   2.750   1.364   9.160  1.1505  0.6102 -0.2198
 9451SOL    HW239816   2.634   1.441   9.108 -0.5722  1.5996  0.5871
 9452SOL     OW39817   3.373   0.099   5.040 -0.3321 -0.3809  0.1499
 9452SOL    HW139818   3.409   0.049   5.113  0.8842 -0.7837 -0.7110
 9452SOL    HW239819   3.348   0.179   5.084 -0.9448 -0.5009  0.0157
 9453SOL     OW39820   1.608   4.608  11.206  0.3789  0.1737  0.1936
 9453SOL    HW139821   1.577   4.574  11.290 -0.5561 -0.6420 -0.4746
 9453SOL    HW239822   1.697   4.640  11.221  1.4040 -2.4090 -0.2425
 9454SOL     OW39823   2.283   2.211   8.174  0.2158  0.5330 -1.0542
 9454SOL    HW139824   2.330   2.136   8.211 -2.3842 -1.1397 -1.1198
 9454SOL    HW239825   2.351   2.272   8.203 -0.2244  0.7114 -0.4121
 9455SOL     OW39826   1.034   4.206   7.342  0.2399  0.5289  0.4191
 9455SOL    HW139827   0.970   4.268   7.309  0.0204 -0.2804 -0.6747
 9455SOL    HW239828   1.118   4.233   7.305  0.3987 -2.2506 -1.2342
 9456SOL     OW39829   3.763   0.275  12.322 -0.6118  0.2866 -0.1368
 9456SOL    HW139830   3.830   0.241  12.263 -1.2212 -1.1103 -0.0434
 9456SOL    HW239831   3.785   0.367  12.314 -1.3160  0.4140 -0.5516
 9457SOL     OW39832   3.779   3.748  17.378 -0.4439  0.4212  0.3428
 9457SOL    HW139833   3.873   3.745  17.396 -0.8562 -0.7205  2.3268
 9457SOL    HW239834   3.747   3.667  17.417  0.6276  0.2118  0.7883
 9458SOL     OW39835   2.734   3.493   1.974 -0.0434  0.3179  0.0832
 9458SOL    HW139836   2.731   3.406   2.014 -1.2969 -0.3978 -1.5551
 9458SOL    HW239837   2.789   3.474   1.898 -0.7087 -2.4148  0.2577
 9459SOL     OW39838   2.713   3.568   9.260 -0.1891 -0.0804  0.4816
 9459SOL    HW139839   2.724   3.519   9.342 -0.2344 -0.1690  0.4337
 9459SOL    HW239840   2.730   3.493   9.204 -1.2696 -0.3413  0.5093
 9460SOL     OW39841   0.033   3.214   0.139  0.5144 -0.0152 -0.6394
 9460SOL    HW139842   0.014   3.174   0.224  1.0719  0.9766 -0.0583
 9460SOL    HW239843   0.118   3.173   0.124  0.9909  0.5711  0.5097
 9461SOL     OW39844   2.553   2.833  12.876  0.4361  0.4653  0.3713
 9461SOL    HW139845   2.643   2.867  12.872  0.5693  0.1677  0.8209
 9461SOL    HW239846   2.514   2.884  12.947  1.6709  1.4597  0.3415
 9462SOL     OW39847   2.324   4.158   2.806  0.1655 -0.0945  0.0766
 9462SOL    HW139848   2.268   4.086   2.777  0.6979 -1.1297  1.6149
 9462SOL    HW239849   2.288   4.227   2.750  1.0366 -0.1794 -0.5919
 9463SOL     OW39850   0.162   4.424   7.417  1.0068  0.2374  0.7116
 9463SOL    HW139851   0.152   4.346   7.363  0.1939  0.1636  0.9693
 9463SOL    HW239852   0.183   4.381   7.500 -0.4521  0.2364  1.0691
 9464SOL     OW39853   4.602   0.598   6.278 -0.0612 -0.3280 -0.0472
 9464SOL    HW139854   4.663   0.672   6.268 -2.3593  1.8467  2.1850
 9464SOL    HW239855   4.620   0.541   6.203  1.7205 -0.3290  0.3663
 9465SOL     OW39856   0.742   3.386   6.127 -0.3300  0.0942  0.2205
 9465SOL    HW139857   0.823   3.353   6.166 -0.2050  0.0407 -0.0865
 9465SOL    HW239858   0.679   3.337   6.180 -0.5702  0.8389  0.6079
 9466SOL     OW39859   3.802   3.644  15.855 -0.3921  0.2448  0.1405
 9466SOL    HW139860   3.819   3.720  15.911 -0.7825 -1.1644  2.1638
 9466SOL    HW239861   3.882   3.595  15.874 -1.9554 -2.8629 -1.1885
 9467SOL     OW39862   0.355   1.264   5.814  0.5577 -0.9728 -0.1322
 9467SOL    HW139863   0.358   1.299   5.902  1.7359 -1.8648  0.1873
 9467SOL    HW239864   0.277   1.295   5.768  0.0466  0.4952  1.7443
 9468SOL     OW39865   0.657   0.832   7.370  0.2154  0.2107  0.6284
 9468SOL    HW139866   0.629   0.779   7.445  1.9051 -0.1611  0.9998
 9468SOL    HW239867   0.741   0.791   7.350  0.8232  2.6633 -1.7355
 9469SOL     OW39868   1.045   4.241   8.925 -0.2379 -0.2796  0.3757
 9469SOL    HW139869   1.101   4.230   9.001 -0.0491  1.0459  0.4356
 9469SOL    HW239870   0.990   4.163   8.930 -0.7837  0.0436 -0.4607
 9470SOL     OW39871   3.559   3.105   3.852 -0.2916 -0.0505 -0.6078
 9470SOL    HW139872   3.559   3.114   3.757 -0.4720 -0.8905 -0.6896
 9470SOL    HW239873   3.614   3.026   3.860 -1.1082 -0.3176  2.2986
 9471SOL     OW39874   2.712   0.443   6.215 -0.1543  0.0492  0.1303
 9471SOL    HW139875   2.786   0.388   6.241  1.4985  2.6665  0.9775
 9471SOL    HW239876   2.751   0.527   6.239 -0.9622  0.6337 -0.6093
 9472SOL     OW39877   3.181   0.013  12.928 -0.4367  0.1282  0.2634
 9472SOL    HW139878   3.121   4.718  12.855  0.3878 -2.9005  0.3743
 9472SOL    HW239879   3.115   0.035  12.993 -1.8588 -1.0085 -0.7795
 9473SOL     OW39880   2.334   3.569   4.251  0.1635  0.3250  0.4514
 9473SOL    HW139881   2.348   3.631   4.322 -1.7728  0.8040  0.4088
 9473SOL    HW239882   2.384   3.622   4.189 -0.2502  0.6949  0.4342
 9474SOL     OW39883   1.929   4.243  13.059  0.1808  0.7045  0.7915
 9474SOL    HW139884   1.955   4.304  13.128  0.4236  2.6210 -1.0034
 9474SOL    HW239885   2.005   4.185  13.049 -1.2664 -1.0570  0.1487
 9475SOL     OW39886   1.215   3.700   0.677 -0.2199  0.2848  0.4041
 9475SOL    HW139887   1.178   3.708   0.765 -2.2019 -0.7675 -0.3346
 9475SOL    HW239888   1.146   3.728   0.617 -0.8897  0.1484  1.1111
 9476SOL     OW39889   3.469   0.187   2.885 -0.2437 -0.6250 -0.1196
 9476SOL    HW139890   3.448   0.106   2.838 -1.3226 -1.4703  1.8372
 9476SOL    HW239891   3.563   0.169   2.894  0.0127  0.1809 -1.1479
 9477SOL     OW39892   0.853   3.161  16.691  0.2109 -0.2842 -0.0048
 9477SOL    HW139893   0.867   3.067  16.682  0.5123 -0.2006 -0.4292
 9477SOL    HW239894   0.773   3.162  16.743 -0.1121  1.0975 -0.5374
 9478SOL     OW39895   2.681   2.258  15.170 -0.2659 -0.4407 -0.4833
 9478SOL    HW139896   2.740   2.211  15.229  0.4379  0.3195 -0.5800
 9478SOL    HW239897   2.601   2.205  15.171  0.1994 -1.0798  1.7032
 9479SOL     OW39898   1.876   0.151   5.542  0.2503 -0.5687  0.2169
 9479SOL    HW139899   1.940   0.181   5.478 -0.6395 -0.0832 -0.4419
 9479SOL    HW239900   1.883   0.056   5.529 -0.7892 -0.7901  1.2254
 9480SOL     OW39901   4.202   3.988   4.217 -0.5555 -0.6189  0.9055
 9480SOL    HW139902   4.237   4.076   4.203 -1.2353 -0.2232  1.6453
 9480SOL    HW239903   4.263   3.958   4.284 -1.8999 -0.8731  2.0200
 9481SOL     OW39904   3.349   1.158   7.668  0.4730  0.4891  0.3313
 9481SOL    HW139905   3.356   1.129   7.759 -1.5962  1.4167  0.7992
 9481SOL    HW239906   3.336   1.078   7.617 -0.8530 -0.3900  2.0379
 9482SOL     OW39907   3.551   3.248  14.488  0.2747 -0.3014 -0.5532
 9482SOL    HW139908   3.484   3.315  14.475 -0.9384 -1.3198  0.5031
 9482SOL    HW239909   3.595   3.262  14.404  0.5145 -1.5900 -0.6418
 9483SOL     OW39910   2.534   0.093   3.269 -0.5431  0.2350 -0.2942
 9483SOL    HW139911   2.623   0.085   3.303 -1.8001  0.3036  3.0158
 9483SOL    HW239912   2.546   0.171   3.214  1.8129 -0.3082 -0.5431
 9484SOL     OW39913   4.230   0.524   7.562 -0.0096  0.0491 -0.1427
 9484SOL    HW139914   4.196   0.559   7.644  0.8580 -1.0644  0.6813
 9484SOL    HW239915   4.188   0.438   7.558  1.2705 -0.7406  4.0994
 9485SOL     OW39916   0.236   4.211   2.477  0.0972  0.2885 -0.2981
 9485SOL    HW139917   0.221   4.124   2.513  0.6289  0.2603 -0.1425
 9485SOL    HW239918   0.195   4.208   2.391  1.3388  1.4590 -0.9391
 9486SOL     OW39919   2.477   4.324   4.057 -0.4139  0.4325 -0.0061
 9486SOL    HW139920   2.407   4.382   4.083 -0.5592  0.7721 -1.1395
 9486SOL    HW239921   2.522   4.300   4.138 -2.8190  0.0927  1.2223
 9487SOL     OW39922   3.892   1.362   9.144 -0.4624  0.2568 -0.1548
 9487SOL    HW139923   3.857   1.408   9.221 -0.3604 -0.8285  0.5413
 9487SOL    HW239924   3.857   1.426   9.082  0.2056  0.5030 -0.2773
 9488SOL     OW39925   0.051   0.068   5.006  0.1801 -0.1803  0.6656
 9488SOL    HW139926   0.090   0.005   4.945  0.3006 -0.3615  0.9274
 9488SOL    HW239927   4.703   0.100   4.953 -0.6185  0.8143  2.3314
 9489SOL     OW39928   2.481   3.972   3.900  0.0190 -0.3719  0.7060
 9489SOL    HW139929   2.474   4.014   3.814 -1.8204  0.7410  1.4174
 9489SOL    HW239930   2.573   3.983   3.923  0.2406  1.0824 -0.9203
 9490SOL     OW39931   2.338   0.666   6.235 -0.1830 -0.1003  0.7143
 9490SOL    HW139932   2.395   0.599   6.197  0.1342  0.0757  0.8821
 9490SOL    HW239933   2.314   0.720   6.160  1.3532 -2.0728 -1.2255
 9491SOL     OW39934   1.882   0.004   3.479  0.4058 -0.0805 -0.5676
 9491SOL    HW139935   1.838   4.644   3.471  0.1817  0.1343 -1.6106
 9491SOL    HW239936   1.816   0.067   3.449  0.1264 -1.2523 -2.4078
 9492SOL     OW39937   0.565   0.670   0.540  0.3180  0.1204 -0.3679
 9492SOL    HW139938   0.525   0.599   0.590 -0.1859 -0.0656 -1.0400
 9492SOL    HW239939   0.647   0.674   0.590  0.2577  1.7370 -0.4088
 9493SOL     OW39940   4.248   2.394   2.822 -0.2705 -0.2867  0.5016
 9493SOL    HW139941   4.259   2.390   2.727 -3.7104 -0.6704  0.1391
 9493SOL    HW239942   4.282   2.483   2.831 -1.7187  0.5531 -2.2412
 9494SOL     OW39943   3.643   2.991   0.587 -0.5173  0.1450 -0.3108
 9494SOL    HW139944   3.651   3.015   0.679  0.2929  0.8960 -0.5704
 9494SOL    HW239945   3.673   2.901   0.597 -0.9319  0.0231 -0.1449
 9495SOL     OW39946   1.005   1.878   7.579  0.1840  0.5670  0.2390
 9495SOL    HW139947   1.075   1.941   7.594 -0.8827  1.8841 -0.3256
 9495SOL    HW239948   0.982   1.905   7.490 -1.2890  1.3356  0.8493
 9496SOL     OW39949   2.115   1.822   7.762 -0.3143 -0.1425 -0.0580
 9496SOL    HW139950   2.188   1.780   7.807  1.1756  0.5176 -1.8905
 9496SOL    HW239951   2.062   1.880   7.817  1.9339  1.4350  0.4095
 9497SOL     OW39952   2.939   4.029   7.002  0.5206  0.7463 -0.4117
 9497SOL    HW139953   2.860   4.011   6.950  0.0178 -0.7855  0.9124
 9497SOL    HW239954   2.934   4.125   7.009 -0.2474  0.7619 -1.0482
 9498SOL     OW39955   2.264   4.280  10.201 -0.1945  0.1139 -0.5705
 9498SOL    HW139956   2.274   4.270  10.106  1.7742  0.4280 -0.4031
 9498SOL    HW239957   2.216   4.200  10.220 -1.2750  0.7532 -0.5737
 9499SOL     OW39958   1.739   1.122  17.205 -0.5037  0.4734  0.0247
 9499SOL    HW139959   1.670   1.066  17.171  0.5115  1.3728 -3.5672
 9499SOL    HW239960   1.770   1.057  17.269 -1.0568  1.3631  1.1820
 9500SOL     OW39961   0.742   4.414  16.946 -0.7378  0.3386  0.9590
 9500SOL    HW139962   0.692   4.339  16.914  0.0270  0.6034 -0.8351
 9500SOL    HW239963   0.820   4.390  16.896 -0.8207 -1.6153  1.7514
 9501SOL     OW39964   3.172   3.444  10.114 -0.9861 -0.5943 -0.5264
 9501SOL    HW139965   3.221   3.525  10.106 -1.2353 -0.4133 -0.2211
 9501SOL    HW239966   3.207   3.409  10.196  1.8618  1.2234 -0.9758
 9502SOL     OW39967   0.006   1.037   0.937 -0.4628 -0.0439  0.2409
 9502SOL    HW139968   0.049   0.996   1.012  2.0846  2.1357 -0.0270
 9502SOL    HW239969   0.029   0.984   0.861 -2.1953  0.8119 -0.8894
 9503SOL     OW39970   0.908   0.651   8.916  0.0223  0.2427  0.3757
 9503SOL    HW139971   0.996   0.689   8.913  0.0269  0.1486 -0.7607
 9503SOL    HW239972   0.941   0.561   8.924  1.3338  0.8791  2.1898
 9504SOL     OW39973   2.755   0.205  11.087 -0.5490 -0.3830 -0.0478
 9504SOL    HW139974   2.836   0.154  11.089 -1.1650 -1.3892 -1.0852
 9504SOL    HW239975   2.776   0.274  11.150  1.1666 -0.5277 -0.4453
 9505SOL     OW39976   1.488   2.085  15.666  0.0109  0.0485 -0.7427
 9505SOL    HW139977   1.471   1.991  15.668 -0.4202  0.1023 -1.9836
 9505SOL    HW239978   1.458   2.115  15.580  0.2846 -2.1261 -1.5902
 9506SOL     OW39979   3.505   2.538   5.692 -0.5119 -0.0194  0.2217
 9506SOL    HW139980   3.537   2.451   5.717 -0.5490 -0.0318  0.2266
 9506SOL    HW239981   3.564   2.562   5.620  0.1094  0.4609  0.9005
 9507SOL     OW39982   3.998   0.149   2.883  0.8200 -0.2338  0.1537
 9507SOL    HW139983   4.016   0.070   2.831 -2.3058  0.1741 -1.4914
 9507SOL    HW239984   4.018   0.215   2.817 -2.6823  0.2513 -0.3780
 9508SOL     OW39985   0.163   2.044   0.852 -0.1433  0.5256  0.0490
 9508SOL    HW139986   0.105   1.969   0.843 -1.2534  1.6456 -1.9444
 9508SOL    HW239987   0.244   2.010   0.891  0.2035  2.0705  0.7127
 9509SOL     OW39988   4.584   2.155  16.882 -0.5587 -0.5256 -0.0253
 9509SOL    HW139989   4.664   2.146  16.831 -0.8739 -1.6651 -0.3158
 9509SOL    HW239990   4.607   2.229  16.938 -0.3156  1.1886 -2.3993
 9510SOL     OW39991   3.265   0.345   7.023  0.2323  0.7882 -0.3163
 9510SOL    HW139992   3.247   0.356   6.930  0.7240  0.0712 -0.5000
 9510SOL    HW239993   3.326   0.271   7.021 -1.3583 -0.5326  0.1667
 9511SOL     OW39994   2.246   1.298   3.593  0.0834 -0.1449 -0.2494
 9511SOL    HW139995   2.225   1.273   3.503  0.6721  2.0285 -1.0088
 9511SOL    HW239996   2.206   1.229   3.646 -0.1041  1.1334  1.2646
 9512SOL     OW39997   2.858   3.632   3.613 -0.4115 -0.1174  0.3666
 9512SOL    HW139998   2.785   3.575   3.589 -0.0551 -0.4111 -0.0294
 9512SOL    HW239999   2.913   3.569   3.660  0.1644 -1.2124 -1.7594
 9513SOL     OW40000   4.060   1.699   9.703 -0.0222 -0.0835  0.9554
 9513SOL    HW140001   4.096   1.726   9.788 -0.4015 -0.1845  1.1519
 9513SOL    HW240002   4.069   1.604   9.711 -1.0366 -0.1170  1.7960
 9514SOL     OW40003   0.247   0.920  13.865 -0.6737  0.4962  0.0652
 9514SOL    HW140004   0.237   0.998  13.810 -2.8096 -1.0838 -1.8136
 9514SOL    HW240005   0.328   0.881  13.833 -0.8790 -1.6216  2.1201
 9515SOL     OW40006   0.254   3.817   2.071  0.8609 -0.2848  0.1528
 9515SOL    HW140007   0.337   3.770   2.060  1.1645  0.2115  0.3371
 9515SOL    HW240008   0.253   3.834   2.165  3.4174  2.0415 -0.2467
 9516SOL     OW40009   3.568   1.169   6.129  0.9069  0.0909  0.5682
 9516SOL    HW140010   3.587   1.100   6.066 -0.7718 -0.1596  0.3453
 9516SOL    HW240011   3.612   1.247   6.096 -2.6306  0.0649 -4.1084
 9517SOL     OW40012   3.996   0.607   5.795 -0.0969  0.0534  0.2622
 9517SOL    HW140013   4.052   0.654   5.857  3.7116 -1.8226 -1.7924
 9517SOL    HW240014   3.994   0.668   5.721  2.0936 -0.7140 -0.3992
 9518SOL     OW40015   1.380   2.276   4.690  0.0539  0.2579  0.4293
 9518SOL    HW140016   1.354   2.184   4.684 -1.7798  0.7452  0.7317
 9518SOL    HW240017   1.315   2.310   4.752 -0.8637  0.1849 -0.4779
 9519SOL     OW40018   0.120   1.109   7.051  0.1132  0.6219  0.1135
 9519SOL    HW140019   0.024   1.108   7.059  0.0315 -0.8050 -0.9693
 9519SOL    HW240020   0.139   1.181   6.990 -0.1281  1.1861  0.7077
 9520SOL     OW40021   1.815   3.609   6.347 -0.2732 -0.1036 -0.2902
 9520SOL    HW140022   1.859   3.665   6.283 -1.9293 -1.0610 -2.2612
 9520SOL    HW240023   1.886   3.554   6.381  0.1738 -1.3116 -3.1535
 9521SOL     OW40024   4.625   3.864   6.914 -0.1290  0.1563  0.2263
 9521SOL    HW140025   4.664   3.807   6.849 -1.7396  3.2807 -3.4629
 9521SOL    HW240026   4.600   3.801   6.982 -1.2408  1.2455  0.8422
 9522SOL     OW40027   4.378   2.251   4.020 -0.4786  0.1165  0.7631
 9522SOL    HW140028   4.387   2.250   3.924 -0.0922 -0.4589  0.8055
 9522SOL    HW240029   4.459   2.214   4.053 -1.5362 -0.8369  2.2630
 9523SOL     OW40030   0.545   2.465   7.397  0.2247  0.1060  0.0679
 9523SOL    HW140031   0.636   2.436   7.390  0.3939  0.9449 -1.0694
 9523SOL    HW240032   0.548   2.553   7.360 -1.2791  0.0986 -0.0680
 9524SOL     OW40033   4.278   3.085   1.903 -0.2082 -0.3746  0.3421
 9524SOL    HW140034   4.365   3.121   1.918 -0.0301 -0.7976  0.3007
 9524SOL    HW240035   4.302   3.000   1.940 -1.6246 -0.5395  0.8941
 9525SOL     OW40036   1.521   1.959  14.279  0.1426  0.7701 -0.2309
 9525SOL    HW140037   1.545   1.873  14.246  0.3952  1.3271 -1.5037
 9525SOL    HW240038   1.432   1.937  14.304  0.0722  2.1863  0.7708
 9526SOL     OW40039   3.550   2.442   3.844 -0.3336 -0.8239 -0.6384
 9526SOL    HW140040   3.542   2.384   3.920  0.0588 -0.6092 -0.4319
 9526SOL    HW240041   3.550   2.525   3.893 -2.8602 -0.1054 -1.8324
 9527SOL     OW40042   3.974   0.647   7.392  0.3720 -0.2562 -0.0347
 9527SOL    HW140043   3.928   0.573   7.431 -0.4260 -0.6042 -1.6417
 9527SOL    HW240044   3.913   0.668   7.322 -0.6503  1.2283  1.2780
 9528SOL     OW40045   1.193   1.807  14.805  0.4713  0.2214 -0.3052
 9528SOL    HW140046   1.214   1.899  14.790  0.4933 -0.2727 -3.1715
 9528SOL    HW240047   1.281   1.774  14.825 -0.2974 -0.1516  2.4550
 9529SOL     OW40048   3.611   1.911   5.334 -0.2250 -0.6475  0.1990
 9529SOL    HW140049   3.673   1.851   5.292 -0.6718 -1.4377  0.6654
 9529SOL    HW240050   3.563   1.950   5.261  1.2740 -0.2070 -0.5396
 9530SOL     OW40051   4.669   2.141   0.389 -0.5357  0.2672  0.4798
 9530SOL    HW140052   4.650   2.048   0.384  0.1919  0.1254  0.4101
 9530SOL    HW240053   4.683   2.146   0.484 -1.6412  1.0259  0.6127
 9531SOL     OW40054   2.892   3.325   3.346  0.0301  0.5577 -0.5815
 9531SOL    HW140055   2.973   3.317   3.396 -0.1615  1.1125 -0.1803
 9531SOL    HW240056   2.916   3.382   3.273 -0.6726  0.9925 -0.4716
 9532SOL     OW40057   4.001   4.558   5.514 -0.0905 -0.2935 -0.0741
 9532SOL    HW140058   4.088   4.519   5.506  0.0195 -0.0848  0.0989
 9532SOL    HW240059   3.946   4.522   5.445 -1.3412 -0.5512  1.0703
 9533SOL     OW40060   2.961   1.715   1.700 -0.9169  0.3082 -0.0245
 9533SOL    HW140061   2.910   1.636   1.719 -0.3493 -0.2362 -0.8025
 9533SOL    HW240062   2.944   1.764   1.781 -3.3058 -1.2227  0.4148
 9534SOL     OW40063   4.723   3.377   2.298 -0.4131 -0.2066  0.2615
 9534SOL    HW140064   0.092   3.399   2.303 -0.4774  0.7563 -2.3762
 9534SOL    HW240065   4.688   3.466   2.284 -0.3146 -0.0297  1.1680
 9535SOL     OW40066   1.461   2.331   3.218 -0.2483 -0.1342 -0.2609
 9535SOL    HW140067   1.422   2.253   3.256 -1.2310  0.4566 -0.0662
 9535SOL    HW240068   1.482   2.285   3.137 -0.7946 -0.2667 -0.3248
 9536SOL     OW40069   1.012   0.452  16.705 -0.1603 -0.1837  0.1351
 9536SOL    HW140070   0.943   0.509  16.672 -0.3292  0.6476  1.9293
 9536SOL    HW240071   1.064   0.522  16.746  0.9842 -0.0243 -1.5756
 9537SOL     OW40072   2.441   2.951  10.301 -0.1345 -0.8985  0.6199
 9537SOL    HW140073   2.368   2.934  10.361 -0.2582  0.0202  0.7397
 9537SOL    HW240074   2.484   2.868  10.285  0.3594 -0.8097  1.4572
 9538SOL     OW40075   1.421   1.236   8.909 -0.6198 -0.5183  0.5192
 9538SOL    HW140076   1.460   1.311   8.955  0.5298  0.7391 -2.5235
 9538SOL    HW240077   1.495   1.196   8.863 -0.4213 -0.1359  0.5028
 9539SOL     OW40078   3.165   4.680   4.518 -0.1385 -0.7049  0.2734
 9539SOL    HW140079   3.222   4.669   4.594 -0.4721 -1.8149  0.3618
 9539SOL    HW240080   3.090   4.624   4.539 -0.5020 -0.0534  0.7107
 9540SOL     OW40081   1.314   1.805   2.766 -0.1961  0.2342 -0.1372
 9540SOL    HW140082   1.308   1.726   2.819 -0.0446 -0.0500 -0.5492
 9540SOL    HW240083   1.409   1.816   2.761  0.1670 -1.9310  1.9989
 9541SOL     OW40084   2.107   2.990   7.737  0.4082 -0.0545  0.4223
 9541SOL    HW140085   2.202   2.987   7.728  0.2048 -3.0329 -0.9447
 9541SOL    HW240086   2.097   2.940   7.818 -2.0231 -0.2373  0.0358
 9542SOL     OW40087   2.546   0.931   8.479  0.3129  0.3005 -0.6437
 9542SOL    HW140088   2.496   0.859   8.441  3.1746 -0.6589 -2.5531
 9542SOL    HW240089   2.521   0.928   8.571  0.9403  4.3270 -0.3407
 9543SOL     OW40090   0.861   0.665   7.259 -0.0488  0.1538 -0.5669
 9543SOL    HW140091   0.802   0.637   7.189 -0.3717 -1.4978  0.3699
 9543SOL    HW240092   0.878   0.577   7.292  1.9842 -0.3713 -3.0023
 9544SOL     OW40093   2.121   0.154   2.860  0.0222  0.1912  0.4058
 9544SOL    HW140094   2.185   0.167   2.931  0.5629 -0.2012 -0.0115
 9544SOL    HW240095   2.174   0.132   2.784 -1.1885  0.0499 -0.3863
 9545SOL     OW40096   2.917   2.484   1.318  0.5080 -0.5766  0.2971
 9545SOL    HW140097   2.905   2.413   1.382 -2.0385  0.5218  1.0420
 9545SOL    HW240098   2.999   2.460   1.276  1.2549  0.8099  0.9848
 9546SOL     OW40099   1.731   0.794   7.246  0.2291  0.0338 -0.4216
 9546SOL    HW140100   1.690   0.876   7.273  0.1533  0.5673 -2.1397
 9546SOL    HW240101   1.672   0.766   7.176  2.4149 -1.4044 -1.7193
 9547SOL     OW40102   3.615   3.088   3.588 -0.1171 -0.7098 -0.0276
 9547SOL    HW140103   3.521   3.099   3.574 -0.2436  1.7641  2.6503
 9547SOL    HW240104   3.615   2.993   3.598  2.2952 -0.8725 -1.4531
 9548SOL     OW40105   0.406   0.894   6.201  0.0484  0.1998 -0.1933
 9548SOL    HW140106   0.413   0.947   6.280  1.3932 -1.3394  0.7243
 9548SOL    HW240107   0.337   0.830   6.221  0.7448 -0.1028  1.1687
 9549SOL     OW40108   1.628   0.393   4.740 -0.5272  0.4306  0.4693
 9549SOL    HW140109   1.539   0.365   4.720 -0.9324  1.4834  0.7777
 9549SOL    HW240110   1.661   0.305   4.757 -0.6559  0.2424 -0.2623
 9550SOL     OW40111   4.368   4.057   4.868 -0.1371 -0.2108  0.1347
 9550SOL    HW140112   4.447   4.007   4.892  0.4382  0.4070 -0.4888
 9550SOL    HW240113   4.316   4.042   4.947 -1.1296  1.5048 -0.2073
 9551SOL     OW40114   3.391   1.578  10.655  0.5098 -0.4461  0.6755
 9551SOL    HW140115   3.412   1.666  10.688 -0.6922 -0.3884  1.2910
 9551SOL    HW240116   3.302   1.560  10.685  0.6965  0.4032  1.7349
 9552SOL     OW40117   1.565   0.380  11.828  0.0639  0.5309 -0.1673
 9552SOL    HW140118   1.593   0.357  11.740 -0.6668  0.5583 -0.4055
 9552SOL    HW240119   1.622   0.323  11.880 -0.0306 -0.5265 -1.2316
 9553SOL     OW40120   3.346   4.132   4.828  0.0053 -0.1984  0.0116
 9553SOL    HW140121   3.357   4.116   4.921 -0.2802 -3.4544 -0.5004
 9553SOL    HW240122   3.301   4.215   4.818  0.9962  0.3466  0.0492
 9554SOL     OW40123   4.298   4.362   1.335  0.4617  0.1273 -0.6607
 9554SOL    HW140124   4.328   4.276   1.365 -0.2930 -0.3752 -1.3470
 9554SOL    HW240125   4.374   4.418   1.345 -0.8046  1.5427  1.0067
 9555SOL     OW40126   1.033   0.261   6.241  0.5319  0.4890  0.3892
 9555SOL    HW140127   1.033   0.170   6.210  2.4897 -0.3219  2.7210
 9555SOL    HW240128   0.987   0.304   6.169 -0.1255 -0.8981 -0.0185
 9556SOL     OW40129   1.087   2.972   3.994  0.6405  0.4300 -0.3642
 9556SOL    HW140130   1.105   2.991   3.902  3.0387 -1.1221 -0.2038
 9556SOL    HW240131   1.019   2.905   3.987  2.0125 -1.1407  1.4996
 9557SOL     OW40132   0.626   1.528  10.222  0.0708 -0.6101  0.5631
 9557SOL    HW140133   0.641   1.478  10.143 -2.1049 -1.9060  0.9687
 9557SOL    HW240134   0.596   1.610  10.182  0.6591  0.2774  1.8979
 9558SOL     OW40135   4.350   3.027  13.067  0.4416 -0.6190  0.2801
 9558SOL    HW140136   4.385   3.113  13.045 -1.4421  0.2938  0.8939
 9558SOL    HW240137   4.395   2.968  13.006  0.4079  0.9613 -1.2875
 9559SOL     OW40138   4.584   1.660   3.550 -0.0805 -0.3142  0.5295
 9559SOL    HW140139   4.639   1.620   3.483  0.1367  0.7016  0.1070
 9559SOL    HW240140   4.655   1.696   3.603 -2.7258  2.6576  2.0256
 9560SOL     OW40141   4.443   0.692   2.549 -0.2037 -0.4613  0.3959
 9560SOL    HW140142   4.424   0.637   2.625  0.7276  0.5975  1.3906
 9560SOL    HW240143   4.427   0.777   2.589  0.6098  0.2047 -0.6875
 9561SOL     OW40144   0.030   3.908   2.292 -0.1631 -0.1660  0.4607
 9561SOL    HW140145   4.682   3.953   2.337  0.8226  0.1196  1.7506
 9561SOL    HW240146   0.084   3.961   2.233  0.2565 -0.4691  0.5753
 9562SOL     OW40147   1.274   2.465   7.903 -0.2972  0.1154 -0.7724
 9562SOL    HW140148   1.220   2.526   7.954 -0.2554  1.0033 -1.7955
 9562SOL    HW240149   1.340   2.526   7.870  0.0151  0.3300  0.2320
 9563SOL     OW40150   1.895   2.332   4.714  0.0964  0.2599  0.1178
 9563SOL    HW140151   1.875   2.258   4.770 -0.9675  0.2731 -0.2510
 9563SOL    HW240152   1.969   2.366   4.764 -0.6941 -0.6166  1.8592
 9564SOL     OW40153   3.902   1.181  10.700  0.1282 -0.2828 -0.5024
 9564SOL    HW140154   3.948   1.165  10.783 -0.3095  0.8913 -0.0265
 9564SOL    HW240155   3.896   1.276  10.713 -1.6931 -0.3819 -0.5641
 9565SOL     OW40156   0.870   0.080   4.495  0.1584  0.5410  0.1912
 9565SOL    HW140157   0.961   0.094   4.520  0.4014  0.2576 -0.5135
 9565SOL    HW240158   0.864   4.709   4.483  4.2027  0.2845  0.1684
 9566SOL     OW40159   1.629   0.124  11.963 -0.4244 -0.8503  0.6271
 9566SOL    HW140160   1.706   0.080  11.927 -0.7330  1.1511 -2.4663
 9566SOL    HW240161   1.656   0.123  12.055 -0.0137  0.2479  0.5213
 9567SOL     OW40162   3.218   2.436   4.480  0.3184 -0.0053  0.8092
 9567SOL    HW140163   3.126   2.452   4.456  0.1067 -0.3154  1.4226
 9567SOL    HW240164   3.211   2.341   4.480  1.2411 -0.0655  1.7709
 9568SOL     OW40165   1.736   0.273   5.216  0.5370 -0.4388 -0.6096
 9568SOL    HW140166   1.695   0.358   5.202 -1.0219 -0.7485  2.0109
 9568SOL    HW240167   1.665   0.217   5.247 -0.4042 -0.0147 -1.9993
   4.72403   4.72403  17.69777
