Membrane in water
40167
    1TCq1    O1    1   2.999   3.353  11.456  0.1986  0.1164 -0.1065
    1TCq1    C1    2   2.945   3.308  11.573 -0.0404 -0.7778 -0.3055
    1TCq1    O2    3   2.940   3.358  11.686 -0.3822 -0.3263 -0.0249
    1TCq1    C2    4   2.904   3.175  11.550 -0.4690  0.1208 -0.1745
    1TCq1    C3    5   2.864   3.131  11.425  0.1287 -0.3568 -0.1454
    1TCq1    C4    6   2.851   3.003  11.402 -0.1166  0.0412  0.3266
    1TCq1    C5    7   2.871   2.904  11.494  0.2068  0.7600 -0.1725
    1TCq1    C6    8   2.907   2.948  11.621 -0.5213 -0.6160 -0.0697
    1TCq1    C7    9   2.918   3.087  11.653 -0.5250 -0.4951 -0.2135
    1TCq1    C8   10   2.937   2.849  11.714 -0.5183 -0.4341  0.6841
    1TCq1    O4   11   2.956   2.891  11.828 -0.2037  0.1397 -0.2631
    1TCq1    C9   12   2.801   2.975  11.271 -0.3016 -0.5500  0.5262
    1TCq1    O5   13   2.732   3.059  11.213 -0.1670  0.1152  0.5165
    1TCq1    O6   14   2.794   2.853  11.239  0.2823  0.3904  0.1634
    1TCq1    H1   15   3.009   3.281  11.390 -0.4416 -0.7975  0.7791
    1TCq1    H2   16   2.854   3.194  11.337 -1.1204 -0.6222 -0.1860
    1TCq1    H3   17   2.859   2.799  11.472 -3.2191  0.5706  2.7648
    1TCq1    H4   18   2.944   3.133  11.748 -0.1189  1.7709 -1.4258
    2MPD2     C   19   3.049   2.356  11.834 -0.2391  0.0046  0.3082
    2MPD2    C1   20   2.964   2.450  11.889 -0.0521 -0.1225 -0.0104
    2MPD2    C2   21   2.956   2.582  11.839  0.6016  0.0263  0.0901
    2MPD2    C3   22   3.022   2.616  11.725 -0.0538 -0.3539  0.0076
    2MPD2    C4   23   3.100   2.519  11.661 -0.0962  0.1878 -0.1719
    2MPD2    C5   24   3.107   2.390  11.716 -0.6703  0.1828 -0.1690
    2MPD2     H   25   2.896   2.657  11.890 -1.8745 -1.5526 -0.5108
    2MPD2    H1   26   3.141   2.531  11.561  1.4546  1.5841  0.6272
    2MPD2    H2   27   3.055   2.251  11.858 -1.9690  0.1114  1.2272
    2MPD2    H3   28   3.167   2.311  11.671  0.2029  0.6202  0.2265
    2MPD2     N   29   2.992   2.737  11.658 -0.1206  0.2673  0.3673
    2MPD2    H5   30   3.021   2.747  11.561 -0.5692  2.2366  0.4193
    2MPD2    N1   31   2.894   2.419  12.009  0.4920  0.2566  0.4119
    2MPD2    H7   32   2.843   2.490  12.062 -0.9719  0.2681 -1.0182
    3TCq1    O1   33   2.778   3.360  10.561  0.2707  0.7130  0.3612
    3TCq1    C1   34   2.650   3.309  10.562  0.2468 -0.2414  0.3173
    3TCq1    O2   35   2.597   3.204  10.524  0.2924  0.1963 -0.9462
    3TCq1    C2   36   2.557   3.415  10.608  0.1809 -0.7570 -0.0499
    3TCq1    C3   37   2.588   3.550  10.591 -0.1385 -0.2923  1.0899
    3TCq1    C4   38   2.506   3.651  10.634 -0.5034  0.6940  0.1948
    3TCq1    C5   39   2.398   3.613  10.713  0.1381  0.2157  0.4814
    3TCq1    C6   40   2.382   3.486  10.751  0.2419 -0.8950 -0.4545
    3TCq1    C7   41   2.449   3.384  10.690 -0.2288  0.1075  0.1069
    3TCq1    C8   42   2.260   3.450  10.819  0.2216 -0.3502  0.0586
    3TCq1    O4   43   2.217   3.338  10.798  0.0657  0.1510  0.1348
    3TCq1    C9   44   2.527   3.792  10.593  0.1131 -0.1663 -0.0375
    3TCq1    O5   45   2.456   3.874  10.652 -0.1149  0.5251 -0.9663
    3TCq1    O6   46   2.624   3.822  10.517  0.1946  0.1996  0.0305
    3TCq1    H1   47   2.798   3.432  10.624  0.5614  0.9629 -0.0163
    3TCq1    H2   48   2.682   3.582  10.547  0.5061 -4.0697 -0.2157
    3TCq1    H3   49   2.316   3.683  10.716  1.7728  2.2094 -0.7729
    3TCq1    H4   50   2.432   3.280  10.717  0.9869 -0.6142 -1.8855
    4MPD2     C   51   1.862   3.591  11.120 -0.1842  1.0191 -0.4578
    4MPD2    C1   52   1.954   3.694  11.123 -0.6469 -0.4561  0.0265
    4MPD2    C2   53   2.079   3.678  11.060 -0.3428 -0.0314 -0.2309
    4MPD2    C3   54   2.101   3.562  10.975 -0.1556  0.3942  0.6920
    4MPD2    C4   55   2.005   3.463  10.973  1.4343 -0.3320 -0.1831
    4MPD2    C5   56   1.890   3.479  11.049 -0.4214  0.0005 -0.0222
    4MPD2     H   57   2.158   3.752  11.063 -0.6213  0.2596 -0.0622
    4MPD2    H1   58   2.008   3.363  10.932 -1.7862 -0.6827  0.3937
    4MPD2    H2   59   1.764   3.593  11.166 -0.7296 -1.0228 -1.5634
    4MPD2    H3   60   1.828   3.390  11.057  1.4746 -1.6214 -3.2285
    4MPD2     N   61   2.225   3.549  10.905  0.0421 -0.3365  0.5142
    4MPD2    H5   62   2.293   3.625  10.915 -0.0716 -0.0258 -1.0567
    4MPD2    N1   63   1.940   3.816  11.192 -0.3925 -0.0279  0.1343
    4MPD2    H7   64   2.008   3.889  11.175 -0.1642 -0.9497 -2.8884
    5TCq1    O1   65   3.721   1.081  11.731  0.1241 -0.6407  0.0879
    5TCq1    C1   66   3.641   0.986  11.785 -0.1415 -0.1639  0.2454
    5TCq1    O2   67   3.687   0.883  11.822 -0.1808  0.3086  0.0190
    5TCq1    C2   68   3.504   1.013  11.750  0.4155 -0.4995  0.6380
    5TCq1    C3   69   3.464   1.144  11.778  0.3005 -0.7606  0.6070
    5TCq1    C4   70   3.327   1.171  11.769 -0.1910 -0.1161 -0.2885
    5TCq1    C5   71   3.236   1.075  11.736 -0.6353  0.3058 -0.3900
    5TCq1    C6   72   3.288   0.946  11.711 -0.3081  0.2953  0.1304
    5TCq1    C7   73   3.417   0.911  11.718 -0.1048 -0.1039 -0.1601
    5TCq1    C8   74   3.215   0.840  11.638  0.6200  0.5164  0.1215
    5TCq1    O4   75   3.251   0.719  11.644 -0.1841 -0.1765  0.4187
    5TCq1    C9   76   3.275   1.302  11.783 -0.4848 -0.1626 -0.6303
    5TCq1    O5   77   3.159   1.322  11.744  0.2999 -0.5293 -0.1056
    5TCq1    O6   78   3.357   1.383  11.817  0.6840  0.5674  0.2871
    5TCq1    H1   79   3.676   1.139  11.666  1.2309 -1.0542 -1.0679
    5TCq1    H2   80   3.533   1.218  11.816  0.4697 -1.0001  0.7733
    5TCq1    H3   81   3.131   1.096  11.726 -0.5669  2.1570  3.2553
    5TCq1    H4   82   3.462   0.817  11.689 -0.3977 -0.1473 -0.4678
    6MPD2     C   83   2.967   0.899  11.359 -0.2740 -0.6523  0.0332
    6MPD2    C1   84   3.052   0.828  11.443  0.1308 -0.8881 -0.1105
    6MPD2    C2   85   3.074   0.692  11.420 -0.3100 -0.5778  0.5439
    6MPD2    C3   86   2.999   0.628  11.318 -0.6753  0.1909 -0.4134
    6MPD2    C4   87   2.915   0.703  11.232  0.5136  0.1322  0.4219
    6MPD2    C5   88   2.896   0.835  11.257 -0.7319  0.1277 -0.7355
    6MPD2     H   89   3.136   0.626  11.479  0.7820 -0.3463 -0.3578
    6MPD2    H1   90   2.858   0.651  11.157 -1.0403  1.1247  0.9135
    6MPD2    H2   91   2.957   1.007  11.357 -0.0956 -0.6284  0.4550
    6MPD2    H3   92   2.824   0.897  11.205 -1.0523 -0.8505 -1.4620
    6MPD2     N   93   3.019   0.488  11.307 -0.8622  0.0467  0.3318
    6MPD2    H5   94   3.075   0.437  11.375 -0.0472  0.9863  0.3670
    6MPD2    N1   95   3.124   0.896  11.544  0.3226  0.8432  0.5257
    6MPD2    H7   96   3.104   0.996  11.549 -0.3405  0.6187  2.7596
    7TCq1    O1   97   4.103   0.024  13.438 -0.6614 -0.1065 -0.3040
    7TCq1    C1   98   4.109   4.626  13.382  0.3418  0.4456 -0.3044
    7TCq1    O2   99   4.046   4.595  13.283 -0.1392  0.3517  0.1394
    7TCq1    C2  100   4.244   4.577  13.400  0.4645 -0.6749 -0.7200
    7TCq1    C3  101   4.342   4.664  13.442  0.0611  0.4158  0.4088
    7TCq1    C4  102   4.473   4.643  13.402  0.2757  0.2627 -0.0789
    7TCq1    C5  103   4.507   4.536  13.327  0.2244  0.8030  0.1556
    7TCq1    C6  104   4.409   4.446  13.292  0.2653 -0.0369 -0.1108
    7TCq1    C7  105   4.275   4.469  13.322 -0.0353  0.4160  0.8621
    7TCq1    C8  106   4.439   4.301  13.259  0.5190 -0.4388  0.7818
    7TCq1    O4  107   4.344   4.223  13.251 -0.0031 -0.7208 -0.5632
    7TCq1    C9  108   4.571   4.723  13.466  0.2435  0.0089  0.1906
    7TCq1    O5  109   4.681   4.662  13.477 -0.2862  0.6834 -0.1853
    7TCq1    O6  110   4.537   0.108  13.512 -0.2633  0.6080  0.0016
    7TCq1    H1  111   4.153   0.024  13.523 -0.6739  1.3991 -0.2957
    7TCq1    H2  112   4.324   0.031  13.497  0.7373  1.8206 -1.6787
    7TCq1    H3  113   4.613   4.520  13.311 -0.2894 -1.2398 -1.2261
    7TCq1    H4  114   4.198   4.413  13.270 -0.7708  0.9148  1.4056
    8MPD2     C  115   0.033   3.909  13.268  0.1650 -0.3098  0.7674
    8MPD2    C1  116   4.624   3.916  13.292 -0.3943 -0.6192 -0.3003
    8MPD2    C2  117   4.565   4.038  13.295 -0.4263  0.2030  0.5380
    8MPD2    C3  118   4.632   4.149  13.248 -0.6408 -0.2286  0.0867
    8MPD2    C4  119   0.040   4.137  13.216  0.1907  0.0754  0.0482
    8MPD2    C5  120   0.101   4.017  13.236 -0.0128 -0.2777 -0.2047
    8MPD2     H  121   4.461   4.043  13.326  0.4357  2.3020  3.0924
    8MPD2    H1  122   0.098   4.222  13.180 -0.0355 -0.1122 -0.7721
    8MPD2    H2  123   0.084   3.814  13.252 -0.0887 -0.2734 -0.2465
    8MPD2    H3  124   0.201   4.011  13.196  0.0368 -0.2256 -0.0904
    8MPD2     N  125   4.574   4.275  13.235 -0.3264 -0.8242 -0.3590
    8MPD2    H5  126   4.632   4.358  13.229 -1.7867  0.1132 -1.4547
    8MPD2    N1  127   4.550   3.805  13.334  0.4692  0.4807 -0.6552
    8MPD2    H7  128   4.608   3.725  13.357  1.6351  1.5492  0.1520
    9TCq1    O1  129   3.207   3.104  10.521  0.0832 -0.1596  0.2538
    9TCq1    C1  130   3.236   3.136  10.650 -0.2829 -0.5690  0.1534
    9TCq1    O2  131   3.342   3.165  10.702  0.4426 -0.3190 -0.1042
    9TCq1    C2  132   3.111   3.153  10.725  0.2770 -0.3030 -0.3877
    9TCq1    C3  133   3.023   3.045  10.708 -0.3673 -0.2265 -0.4039
    9TCq1    C4  134   2.903   3.051  10.782  0.2500 -0.1752  0.0662
    9TCq1    C5  135   2.869   3.166  10.860 -0.8306 -0.1569 -0.3682
    9TCq1    C6  136   2.966   3.261  10.875  0.0518  0.7045  0.7497
    9TCq1    C7  137   3.091   3.248  10.814 -0.4249  0.3656  0.2292
    9TCq1    C8  138   2.954   3.375  10.964  0.3013  0.4572  0.6254
    9TCq1    O4  139   3.024   3.472  10.942  0.3252 -0.3807 -0.1838
    9TCq1    C9  140   2.829   2.927  10.795  0.0127  0.3591 -1.2795
    9TCq1    O5  141   2.899   2.822  10.779  0.1625  0.3042 -0.1926
    9TCq1    O6  142   2.724   2.932  10.864  0.1731  0.1062  0.5834
    9TCq1    H1  143   3.112   3.088  10.504 -0.0984 -0.2746  1.3819
    9TCq1    H2  144   3.047   2.957  10.649  0.7533 -0.1884 -0.0091
    9TCq1    H3  145   2.784   3.162  10.926 -1.4120 -3.0409 -1.2855
    9TCq1    H4  146   3.162   3.329  10.828 -0.5145  0.3123  1.0153
   10MPD2     C  147   2.884   3.574  11.185 -0.1464 -0.5274 -0.1073
   10MPD2    C1  148   2.826   3.449  11.163 -0.2693 -0.2163 -0.1954
   10MPD2    C2  149   2.722   3.410  11.244  0.2544 -0.1079  0.1783
   10MPD2    C3  150   2.705   3.486  11.365  1.1719 -0.6810 -0.5307
   10MPD2    C4  151   2.773   3.603  11.394 -0.6217  0.3785 -0.5272
   10MPD2    C5  152   2.855   3.655  11.296 -0.3120  0.1602 -0.4375
   10MPD2     H  153   2.675   3.314  11.227  2.3195 -0.8579 -1.2471
   10MPD2    H1  154   2.755   3.651  11.490  0.8435 -2.5078  1.2068
   10MPD2    H2  155   2.964   3.620  11.127 -0.7459  1.4406  0.6637
   10MPD2    H3  156   2.906   3.747  11.319 -1.6660  1.3294 -2.1174
   10MPD2     N  157   2.614   3.446  11.467 -0.2690 -0.5066  0.3209
   10MPD2    H5  158   2.604   3.501  11.552  2.6473  1.1034 -0.3892
   10MPD2    N1  159   2.861   3.355  11.057 -0.0586  0.2583 -0.4940
   10MPD2    H7  160   2.823   3.261  11.064  0.0212  0.2397 -0.3104
   11TCq1    O1  161   2.669   4.113  14.082  0.2774 -0.4876 -0.6876
   11TCq1    C1  162   2.598   4.002  14.099 -0.2285 -0.5620 -0.4206
   11TCq1    O2  163   2.474   4.008  14.100 -0.4331  0.0171  0.5513
   11TCq1    C2  164   2.686   3.888  14.129  0.4313 -0.1470 -0.9494
   11TCq1    C3  165   2.806   3.866  14.064 -0.7716 -0.1337  0.2941
   11TCq1    C4  166   2.913   3.804  14.133 -0.3820  0.0008 -0.2032
   11TCq1    C5  167   2.887   3.734  14.252 -0.8423 -0.0961 -0.2501
   11TCq1    C6  168   2.768   3.761  14.309  0.0830 -0.0396 -0.3975
   11TCq1    C7  169   2.671   3.842  14.256  0.1056  0.7882 -0.0032
   11TCq1    C8  170   2.727   3.685  14.428  0.9833  0.4412 -0.6970
   11TCq1    O4  171   2.661   3.745  14.509  0.4016  0.4455 -0.0868
   11TCq1    C9  172   3.029   3.766  14.048  0.2878 -0.2315  0.2864
   11TCq1    O5  173   3.039   3.822  13.936  0.4373 -0.0328 -0.1742
   11TCq1    O6  174   3.078   3.650  14.072 -0.6063  0.2200  0.0029
   11TCq1    H1  175   2.763   4.085  14.088  0.2871 -0.5801 -1.2942
   11TCq1    H2  176   2.810   3.903  13.962 -2.0344  2.1275  1.0761
   11TCq1    H3  177   2.964   3.667  14.290 -0.5318  1.2792  1.5612
   11TCq1    H4  178   2.574   3.855  14.302 -0.0215  0.3945 -0.1569
   12MPD2     C  179   2.622   3.465  14.616 -0.3201 -0.1359 -0.1663
   12MPD2    C1  180   2.696   3.449  14.499  0.1381 -0.2487 -0.8143
   12MPD2    C2  181   2.710   3.316  14.457  0.1629  0.1307 -0.2719
   12MPD2    C3  182   2.663   3.207  14.525 -0.2357  0.4484 -0.3116
   12MPD2    C4  183   2.619   3.229  14.655 -0.2276 -0.6984  0.8596
   12MPD2    C5  184   2.590   3.358  14.686 -0.6205  0.7178 -0.0386
   12MPD2     H  185   2.745   3.304  14.355  2.9183 -3.4893  1.1135
   12MPD2    H1  186   2.574   3.151  14.715  0.6239 -0.2180  2.1204
   12MPD2    H2  187   2.586   3.565  14.640  1.6061  0.5693 -0.2010
   12MPD2    H3  188   2.520   3.372  14.767  1.9279 -1.5065  2.5445
   12MPD2     N  189   2.660   3.084  14.457  0.0100 -0.6279  0.2579
   12MPD2    H5  190   2.709   3.077  14.368  0.8456 -2.2252  0.8338
   12MPD2    N1  191   2.732   3.549  14.407 -0.0392  0.3597  0.1843
   12MPD2    H7  192   2.782   3.524  14.323 -1.9418  0.5079 -0.9736
   13TCq1    O1  193   2.748   2.984  10.482 -0.0653  0.2096  0.0242
   13TCq1    C1  194   2.697   2.896  10.384 -1.1434 -0.1469 -0.2372
   13TCq1    O2  195   2.756   2.806  10.326  0.2008 -0.1352  0.3553
   13TCq1    C2  196   2.557   2.920  10.372 -0.2365 -0.5614 -0.4612
   13TCq1    C3  197   2.505   2.904  10.251  0.8053  0.6806 -0.1316
   13TCq1    C4  198   2.375   2.927  10.239 -0.2458 -0.1540  0.3603
   13TCq1    C5  199   2.290   2.956  10.352  0.2425 -0.9163  0.0309
   13TCq1    C6  200   2.355   2.952  10.472  0.0348 -0.1058  0.0514
   13TCq1    C7  201   2.488   2.933  10.489  0.9263 -0.8358  0.0706
   13TCq1    C8  202   2.285   2.983  10.596 -0.2769 -0.1915  0.1435
   13TCq1    O4  203   2.354   3.014  10.694 -0.3584 -0.4825  0.5561
   13TCq1    C9  204   2.305   2.908  10.111  0.0443 -0.2381 -0.2011
   13TCq1    O5  205   2.177   2.901  10.125 -0.2722 -0.3673  0.2727
   13TCq1    O6  206   2.370   2.936  10.007  0.0771  0.2024  0.1008
   13TCq1    H1  207   2.684   3.057  10.496  1.3991  1.5246 -0.1792
   13TCq1    H2  208   2.573   2.887  10.168  1.7064 -0.7217  0.8817
   13TCq1    H3  209   2.188   2.989  10.331 -0.1770 -2.1483  0.1218
   13TCq1    H4  210   2.526   2.934  10.590  1.1230  0.8494 -0.0245
   14MPD2     C  211   1.919   2.953  10.637  0.2585 -0.0356  0.3576
   14MPD2    C1  212   2.046   2.989  10.677  0.0955  0.0309  0.0288
   14MPD2    C2  213   2.061   3.026  10.808 -0.3546 -0.2261 -0.1485
   14MPD2    C3  214   1.954   3.019  10.900 -1.0612  0.3084 -0.0104
   14MPD2    C4  215   1.828   2.982  10.855  0.3271  0.1902 -0.2092
   14MPD2    C5  216   1.822   2.945  10.725 -0.2613  1.0691  0.1600
   14MPD2     H  217   2.161   3.047  10.846 -1.5066  0.6198  2.3859
   14MPD2    H1  218   1.736   2.966  10.910 -0.5238 -0.3908 -1.7945
   14MPD2    H2  219   1.895   2.916  10.538  1.2383  0.1794  0.0400
   14MPD2    H3  220   1.725   2.914  10.686  0.8405 -0.3955 -1.4186
   14MPD2     N  221   1.982   3.054  11.031 -0.6238  0.3536  0.3142
   14MPD2    H5  222   2.074   3.085  11.060 -0.0970 -1.5135  0.6450
   14MPD2    N1  223   2.146   2.982  10.577 -0.0711 -0.3307 -0.0325
   14MPD2    H7  224   2.116   2.950  10.486 -0.4483  1.5843 -0.5844
   15TCq1    O1  225   3.978   2.155   1.991 -0.0591  0.2909 -0.2353
   15TCq1    C1  226   4.005   2.049   1.911 -0.1933 -0.5653  0.3148
   15TCq1    O2  227   4.110   2.024   1.851  0.0201  0.2409 -0.2416
   15TCq1    C2  228   3.869   2.009   1.865  0.1276 -1.0005 -0.2394
   15TCq1    C3  229   3.775   2.102   1.851  0.1974  0.1725  0.5765
   15TCq1    C4  230   3.675   2.082   1.764  0.2775 -0.0297 -0.5671
   15TCq1    C5  231   3.677   1.969   1.684 -0.1604  0.2349  0.4335
   15TCq1    C6  232   3.775   1.875   1.698  0.1973 -0.3934 -0.2707
   15TCq1    C7  233   3.870   1.890   1.791 -1.0939 -0.4226  0.3476
   15TCq1    C8  234   3.780   1.764   1.599  0.0499 -0.7344 -0.3181
   15TCq1    O4  235   3.852   1.675   1.635  0.1037 -0.6009 -0.2857
   15TCq1    C9  236   3.572   2.180   1.744 -0.9508  0.4661  0.0358
   15TCq1    O5  237   3.493   2.160   1.647  0.1011  0.1823 -0.2067
   15TCq1    O6  238   3.574   2.282   1.817  0.1932 -0.6707 -0.7090
   15TCq1    H1  239   3.894   2.131   2.037  0.5924  1.6687  1.6591
   15TCq1    H2  240   3.764   2.198   1.901  1.4526  0.4021  0.4223
   15TCq1    H3  241   3.590   1.940   1.626 -0.5823  0.6140  0.8849
   15TCq1    H4  242   3.947   1.816   1.805 -0.9883 -0.6634 -1.4717
   16MPD2     C  243   3.683   1.784   1.253  0.1810 -0.3738  0.8342
   16MPD2    C1  244   3.725   1.719   1.369 -0.3843  0.1807 -0.0293
   16MPD2    C2  245   3.774   1.585   1.365 -0.4715 -0.3847  0.2363
   16MPD2    C3  246   3.794   1.527   1.241  0.3289  1.3091 -0.2462
   16MPD2    C4  247   3.758   1.602   1.126 -0.7209 -0.0218  0.2432
   16MPD2    C5  248   3.694   1.721   1.134 -0.5318  0.1647 -0.5805
   16MPD2     H  249   3.797   1.534   1.458  0.1343 -1.0596 -0.2862
   16MPD2    H1  250   3.778   1.565   1.026 -1.8037 -0.0917  0.0578
   16MPD2    H2  251   3.629   1.877   1.261  0.3480 -0.0035 -2.2806
   16MPD2    H3  252   3.660   1.781   1.051 -0.0528 -1.2423 -1.7808
   16MPD2     N  253   3.841   1.394   1.236 -0.7469 -0.5338 -0.5638
   16MPD2    H5  254   3.881   1.357   1.321 -1.1366 -0.9166 -0.5478
   16MPD2    N1  255   3.719   1.796   1.485  0.5672  0.0527  0.1343
   16MPD2    H7  256   3.668   1.883   1.474  2.4484  1.0537 -0.5335
   17TCq1    O1  257   2.031   2.656  11.329  0.5571  0.1987 -0.1144
   17TCq1    C1  258   1.979   2.671  11.212 -0.2367 -0.1928 -0.2593
   17TCq1    O2  259   1.872   2.624  11.171  0.3981 -0.1146  0.4719
   17TCq1    C2  260   2.094   2.713  11.133  0.1952 -0.6038 -0.9037
   17TCq1    C3  261   2.182   2.798  11.187  0.2694  0.0532 -0.7915
   17TCq1    C4  262   2.281   2.843  11.101 -0.4622  0.3200 -1.0973
   17TCq1    C5  263   2.291   2.806  10.968  0.8631  0.0532  0.2655
   17TCq1    C6  264   2.193   2.716  10.924 -0.0780 -0.2234  0.1831
   17TCq1    C7  265   2.093   2.669  11.008  0.6873  0.5351  0.0508
   17TCq1    C8  266   2.168   2.693  10.783 -0.1023 -0.2414 -0.0489
   17TCq1    O4  267   2.055   2.663  10.754 -0.0971  0.6053  0.3988
   17TCq1    C9  268   2.379   2.935  11.148 -0.1606 -0.2385  0.1539
   17TCq1    O5  269   2.367   2.978  11.266  0.7367 -0.5455 -0.3472
   17TCq1    O6  270   2.482   2.941  11.082 -0.5349 -0.3911  0.2212
   17TCq1    H1  271   2.116   2.704  11.343  0.6642  0.4824 -1.8360
   17TCq1    H2  272   2.171   2.843  11.285  0.2094  0.2521 -0.8897
   17TCq1    H3  273   2.355   2.858  10.897 -1.4440  1.5631 -0.7322
   17TCq1    H4  274   2.004   2.617  10.976  0.7808 -1.5028  3.0863
   18MPD2     C  275   2.191   2.612  10.499 -0.1982 -0.2242  0.2079
   18MPD2    C1  276   2.301   2.635  10.583 -0.6447  0.0836  0.0194
   18MPD2    C2  277   2.428   2.608  10.533 -0.0987 -0.0589  0.5857
   18MPD2    C3  278   2.444   2.545  10.407 -0.1144 -0.0916 -0.1238
   18MPD2    C4  279   2.329   2.518  10.326 -0.5334  0.4515 -0.3246
   18MPD2    C5  280   2.202   2.550  10.371  0.3285  0.0765  0.3005
   18MPD2     H  281   2.517   2.619  10.593  1.1501 -1.3212 -1.0278
   18MPD2    H1  282   2.334   2.456  10.237  0.3318  1.8337 -1.2393
   18MPD2    H2  283   2.089   2.632  10.529 -0.5525 -1.4294 -0.2005
   18MPD2    H3  284   2.113   2.538  10.311 -0.7333  0.3908  1.8215
   18MPD2     N  285   2.575   2.514  10.358  0.1230  0.0091 -0.0651
   18MPD2    H5  286   2.584   2.480  10.263 -1.0150  0.7965 -0.4527
   18MPD2    N1  287   2.284   2.677  10.713  0.2811 -0.4639 -0.1627
   18MPD2    H7  288   2.371   2.695  10.762  0.5400  0.5702 -0.9993
   19TMC2    C1  289   4.118   2.802  14.035 -0.2839  0.7173 -0.7418
   19TMC2    C2  290   4.109   2.868  13.911  0.3877  0.0935  0.3889
   19TMC2    C3  291   3.979   2.903  13.876 -0.1073 -0.3221 -1.4051
   19TMC2    C4  292   4.015   2.752  14.107  0.8963 -0.1028 -0.2440
   19TMC2    C5  293   3.890   2.782  14.058  0.3445 -0.3653  0.1253
   19TMC2    C6  294   3.871   2.862  13.952  0.3614  0.0904  0.6299
   19TMC2     C  295   4.252   2.793  14.088  0.1177 -0.7569 -0.2538
   19TMC2     O  296   4.331   2.842  14.015  0.3222 -0.2451 -1.0081
   19TMC2     H  297   4.187   2.904  13.844 -0.2880  1.0332  0.0993
   19TMC2    H1  298   4.020   2.699  14.201  1.5675 -0.6475 -0.5886
   19TMC2    H2  299   3.773   2.891  13.916  0.5832  1.0128  0.7634
   19TMC2    C7  300   3.773   2.720  14.111 -0.2553 -0.0227 -0.0224
   19TMC2    C8  301   3.962   3.012  13.778 -0.2415  0.4198 -0.2438
   19TMC2    O1  302   3.793   2.600  14.136 -0.0819  0.1718 -0.4285
   19TMC2    O2  303   4.006   3.007  13.667 -0.4316 -0.2088  0.3188
   19TMC2    O5  304   3.952   3.130  13.843  0.2923 -0.2301 -0.1515
   19TMC2    H5  305   3.922   3.127  13.936 -0.1755 -0.3111 -0.3053
   20MPD2     C  306   4.517   2.742  14.208  0.1063 -0.0626  0.0235
   20MPD2    C1  307   4.400   2.683  14.251  0.2950 -0.9140 -0.5841
   20MPD2    C2  308   4.401   2.590  14.351 -0.4032 -0.6970 -0.7324
   20MPD2    C3  309   4.517   2.552  14.409  0.2493  0.0886  0.0466
   20MPD2    C4  310   4.635   2.597  14.354  0.0943 -0.1444  0.2259
   20MPD2    C5  311   4.635   2.690  14.257  0.0052 -0.3672 -0.2737
   20MPD2     H  312   4.307   2.547  14.384  0.0151 -0.8783  0.2200
   20MPD2    H1  313   0.003   2.553  14.389 -0.8840 -1.9191  0.5710
   20MPD2    H2  314   4.523   2.821  14.134 -0.8530  1.6638  1.8174
   20MPD2    H3  315   0.000   2.743  14.228 -0.2813 -0.3771 -1.1684
   20MPD2     N  316   4.517   2.447  14.506 -0.5989  0.5885  0.8121
   20MPD2    H5  317   4.611   2.420  14.533  0.4125  2.3992 -0.7827
   20MPD2    N1  318   4.271   2.709  14.195  1.2033 -0.2055  0.3103
   20MPD2    H7  319   4.194   2.649  14.223 -0.0198  1.0311 -0.4354
   21MPD2     C  320   1.566   3.729  14.672  0.2796  0.1604  0.1182
   21MPD2    C1  321   1.648   3.616  14.703 -0.2762  0.9697  0.1307
   21MPD2    C2  322   1.597   3.524  14.789  0.2783  0.1642 -0.1757
   21MPD2    C3  323   1.462   3.517  14.815  0.2030  0.5793  0.5701
   21MPD2    C4  324   1.384   3.623  14.777  0.4209  0.4804 -0.4342
   21MPD2    C5  325   1.434   3.737  14.714 -0.0984  0.0492  0.3070
   21MPD2     H  326   1.667   3.445  14.815  1.0323  0.1566 -2.2412
   21MPD2    H1  327   1.281   3.623  14.810  1.2688 -0.5516  2.2050
   21MPD2    H2  328   1.594   3.814  14.611 -0.5243  0.4710  0.1890
   21MPD2    H3  329   1.368   3.817  14.682 -0.9571 -0.4895  0.7457
   21MPD2     N  330   1.404   3.410  14.888  0.1832  0.4675 -0.2286
   21MPD2    H5  331   1.323   3.429  14.947  0.8566  2.9173 -0.0924
   21MPD2    N1  332   1.773   3.589  14.635 -0.0945  0.3373 -0.1557
   21MPD2    H7  333   1.825   3.507  14.662  0.2627 -0.1969 -2.4586
   22TCq2    C1  334   1.457   3.284  14.900  0.0310  0.2002  0.3249
   22TCq2    O2  335   1.562   3.245  14.853 -0.4166 -0.6140  0.8301
   22TCq2    C2  336   1.377   3.207  15.002 -0.0291 -0.1881 -0.1790
   22TCq2    C3  337   1.449   3.165  15.106  0.4156 -0.7877  0.0643
   22TCq2    C4  338   1.380   3.129  15.216  0.2165  0.3358  0.3419
   22TCq2    C5  339   1.244   3.123  15.222 -0.6280  0.2311 -0.4841
   22TCq2    C6  340   1.176   3.166  15.113 -0.2678  0.4067  0.2204
   22TCq2    C7  341   1.237   3.213  15.001  0.6786  0.3972  0.2140
   22TCq2    C8  342   1.028   3.170  15.117  0.0123 -0.4697 -0.5716
   22TCq2    O4  343   0.966   3.095  15.196 -0.1469 -0.4857 -0.0303
   22TCq2    C9  344   1.453   3.101  15.342  0.8736  0.4071  0.3132
   22TCq2    O5  345   1.575   3.103  15.339 -0.7144  0.1970  0.8716
   22TCq2    O6  346   1.392   3.115  15.453  0.3067 -0.1409  0.1716
   22TCq2    H2  347   1.557   3.173  15.109  0.3073  1.2574 -1.7604
   22TCq2    H3  348   1.190   3.090  15.310  1.9119  0.5406  1.2102
   22TCq2    H4  349   1.185   3.223  14.907 -0.9003  0.9822  1.1427
   23MPD2     C  350   3.376   3.746  14.878  0.1204 -0.2738  0.6405
   23MPD2    C1  351   3.324   3.845  14.957 -0.2440  0.8826 -0.4028
   23MPD2    C2  352   3.288   3.964  14.889  0.0581  0.0268  0.1863
   23MPD2    C3  353   3.310   3.982  14.755  0.0633 -0.2888  0.6162
   23MPD2    C4  354   3.378   3.887  14.685 -0.5821 -0.2152 -0.6564
   23MPD2    C5  355   3.404   3.766  14.743  0.2395  0.0774  0.1437
   23MPD2     H  356   3.236   4.042  14.943 -2.4409 -0.0371 -2.1120
   23MPD2    H1  357   3.413   3.894  14.583  1.5998 -0.9408  0.0461
   23MPD2    H2  358   3.407   3.648  14.912  3.5503  0.6645  0.2837
   23MPD2    H3  359   3.465   3.699  14.683  0.2225 -1.1457  1.4878
   23MPD2     N  360   3.278   4.099  14.689 -0.9406 -0.8442 -0.3494
   23MPD2    H5  361   3.323   4.106  14.598 -0.8817 -4.5760 -0.5860
   23MPD2    N1  362   3.306   3.828  15.096  0.3786 -0.3125 -0.0339
   23MPD2    H7  363   3.302   3.916  15.147  1.7818  0.5305 -1.3890
   24TCq2    C1  364   3.204   4.202  14.733  0.3838 -0.2668 -0.7357
   24TCq2    O2  365   3.124   4.195  14.825  0.2929  0.2696 -0.2957
   24TCq2    C2  366   3.175   4.291  14.624 -0.0864 -0.2745 -0.2561
   24TCq2    C3  367   3.274   4.328  14.538  0.1195 -0.4013  0.0313
   24TCq2    C4  368   3.238   4.415  14.440 -0.1917 -0.0379  0.7715
   24TCq2    C5  369   3.110   4.461  14.421 -0.2293 -0.2683 -0.4785
   24TCq2    C6  370   3.018   4.410  14.502 -0.3464  1.5421 -0.4504
   24TCq2    C7  371   3.045   4.329  14.610 -0.7102 -0.0282 -0.2655
   24TCq2    C8  372   2.875   4.427  14.472  0.4697 -0.2513 -0.2385
   24TCq2    O4  373   2.838   4.529  14.416 -0.3244  0.7805  0.0288
   24TCq2    C9  374   3.340   4.466  14.346 -0.3485  0.7043 -0.4900
   24TCq2    O5  375   3.306   4.537  14.247 -0.4368 -0.3327 -0.1091
   24TCq2    O6  376   3.456   4.435  14.380  0.1178 -0.8314  0.6958
   24TCq2    H2  377   3.379   4.309  14.554 -0.0676 -1.3457  0.1420
   24TCq2    H3  378   3.081   4.532  14.345  0.8072  1.0212  0.3165
   24TCq2    H4  379   2.969   4.283  14.672 -0.2761 -0.2144  0.1301
   25TMC2    C1  380   2.455   1.752  11.580 -0.1605  0.4124 -0.2864
   25TMC2    C2  381   2.535   1.856  11.541  0.0262  0.4626  0.3724
   25TMC2    C3  382   2.539   1.972  11.609  0.3764  0.7400  0.0062
   25TMC2    C4  383   2.396   1.749  11.703 -0.1763  0.1199  0.1006
   25TMC2    C5  384   2.410   1.868  11.773 -0.7626 -0.3012 -0.6744
   25TMC2    C6  385   2.474   1.984  11.724  0.3268 -0.0944 -0.3485
   25TMC2     C  386   2.414   1.665  11.473  0.0101 -0.4049  0.1979
   25TMC2     O  387   2.478   1.673  11.368  0.0164 -0.0538 -0.1482
   25TMC2     H  388   2.596   1.848  11.452  0.1820  1.9736  0.3422
   25TMC2    H1  389   2.350   1.658  11.740 -0.4845  1.3255  2.6793
   25TMC2    H2  390   2.455   2.082  11.768 -0.4630 -0.0935 -0.6974
   25TMC2    C7  391   2.340   1.877  11.903  0.6937 -0.4452  0.7920
   25TMC2    C8  392   2.569   2.100  11.544  0.1321 -0.5235 -0.6628
   25TMC2    O1  393   2.277   1.775  11.934 -0.0143  0.2377 -0.3969
   25TMC2    O2  394   2.542   2.131  11.429  0.0959 -0.3627 -0.0044
   25TMC2    O5  395   2.647   2.167  11.633  0.3498  0.7345 -0.4488
   25TMC2    H5  396   2.682   2.119  11.711 -0.2572  2.1168  0.6817
   26MPD2     C  397   2.083   1.406  11.189  0.4854 -0.0671 -0.7638
   26MPD2    C1  398   2.025   1.433  11.308  0.6719  0.0269 -0.5231
   26MPD2    C2  399   2.088   1.510  11.404  0.2338 -0.9505  0.2006
   26MPD2    C3  400   2.218   1.549  11.380 -0.5845  0.2750 -0.0856
   26MPD2    C4  401   2.282   1.508  11.265 -0.8999 -0.4297  0.5699
   26MPD2    C5  402   2.217   1.431  11.173 -0.7723 -0.2667 -0.0518
   26MPD2     H  403   2.038   1.537  11.495 -1.1317  2.2665 -1.5194
   26MPD2    H1  404   2.378   1.546  11.234 -1.3067  1.0704  1.1191
   26MPD2    H2  405   2.026   1.362  11.108 -1.5054  1.3272 -0.1392
   26MPD2    H3  406   2.269   1.407  11.081  0.4785  1.6417  0.1577
   26MPD2     N  407   2.286   1.616  11.483 -0.0932 -0.3330 -0.0864
   26MPD2    H5  408   2.229   1.639  11.564 -0.9812 -0.4449 -0.6734
   26MPD2    N1  409   1.887   1.395  11.320  0.2521  0.1657  0.7583
   26MPD2    H7  410   1.845   1.362  11.233  0.1925  0.6193  0.6139
   27TMC2    C1  411   1.014   3.928  12.266  0.1526  0.8668 -0.0527
   27TMC2    C2  412   0.924   3.990  12.186 -0.3074  0.6214  0.5528
   27TMC2    C3  413   0.956   4.112  12.140 -0.2239  0.7727 -0.4969
   27TMC2    C4  414   1.141   3.975  12.287  0.1804 -1.0890 -0.4146
   27TMC2    C5  415   1.161   4.104  12.258 -1.0504  0.0404  0.8899
   27TMC2    C6  416   1.074   4.164  12.172  0.1129 -0.4853  0.0944
   27TMC2     C  417   0.962   3.823  12.363  0.5969  0.6669 -0.0905
   27TMC2     O  418   1.049   3.748  12.402 -0.5828  0.3065  0.2740
   27TMC2     H  419   0.828   3.941  12.170  0.8752 -1.3435 -0.4490
   27TMC2    H1  420   1.204   3.925  12.360  0.6487  0.8755  0.5409
   27TMC2    H2  421   1.096   4.263  12.132  3.5323 -1.4642 -0.5035
   27TMC2    C7  422   1.178   4.179  12.383 -0.7366 -0.1691 -0.2839
   27TMC2    C8  423   0.893   4.153  12.022  0.1649  0.1266 -0.4590
   27TMC2    O1  424   1.218   4.120  12.481 -0.9678  0.4296  0.1990
   27TMC2    O2  425   0.936   4.252  11.962  0.3784  0.3514 -0.6425
   27TMC2    O5  426   0.872   4.034  11.962 -0.2204  0.2858 -0.0878
   27TMC2    H5  427   0.886   4.025  11.865 -0.8650  1.1163 -0.2616
   28MPD2     C  428   0.601   3.634  12.677 -0.5961  0.0312 -0.0819
   28MPD2    C1  429   0.546   3.750  12.622 -0.3518 -0.4609  0.0085
   28MPD2    C2  430   0.624   3.818  12.531 -0.8476  0.9215  0.0249
   28MPD2    C3  431   0.747   3.773  12.489 -0.1817 -0.0332  0.0477
   28MPD2    C4  432   0.793   3.647  12.536 -0.3865 -0.1761 -0.6491
   28MPD2    C5  433   0.720   3.587  12.632 -0.0415 -0.3123 -0.6695
   28MPD2     H  434   0.592   3.915  12.493  0.6419  0.2813 -2.9088
   28MPD2    H1  435   0.890   3.599  12.525 -0.6737 -0.5263 -1.6727
   28MPD2    H2  436   0.554   3.586  12.762 -3.1632  0.2470 -1.3994
   28MPD2    H3  437   0.769   3.511  12.692  0.3150  0.2639 -0.2197
   28MPD2     N  438   0.825   3.845  12.395 -0.7392 -0.2460  0.7027
   28MPD2    H5  439   0.788   3.939  12.383  1.7716  0.4664 -1.3853
   28MPD2    N1  440   0.431   3.799  12.687  0.1560  0.3040  0.2296
   28MPD2    H7  441   0.397   3.743  12.765  3.3853 -0.6289  0.9365
   29MPD2     C  442   4.497   1.203  14.250 -0.6247  0.0130 -0.0155
   29MPD2    C1  443   4.625   1.175  14.276 -0.0443 -0.0199 -0.4579
   29MPD2    C2  444   4.710   1.275  14.320 -0.1902 -0.2692 -0.4107
   29MPD2    C3  445   4.659   1.404  14.334  0.4426  0.0863 -0.2455
   29MPD2    C4  446   4.524   1.434  14.308  0.3149 -0.1189 -0.0944
   29MPD2    C5  447   4.446   1.325  14.266  0.0534 -0.8298 -0.9672
   29MPD2     H  448   0.091   1.257  14.338  0.3469  0.3520 -2.9040
   29MPD2    H1  449   4.485   1.534  14.319  0.8717  0.2426 -1.4234
   29MPD2    H2  450   4.435   1.122  14.213 -0.0601 -1.1362  1.5513
   29MPD2    H3  451   4.341   1.339  14.244  0.2765  2.1515 -0.1603
   29MPD2     N  452   0.014   1.511  14.357  0.6287 -0.0119  0.5504
   29MPD2    H5  453   4.695   1.593  14.399  1.6427  1.6370 -1.6039
   29MPD2    N1  454   4.688   1.047  14.272 -0.2597 -0.2852 -0.1365
   29MPD2    H7  455   0.065   1.047  14.269 -0.2199  1.2129  1.3644
   30TCq2    C1  456   0.154   1.506  14.345  0.3786 -0.1896 -0.0180
   30TCq2    O2  457   0.228   1.427  14.282 -0.9544 -0.4019  0.4188
   30TCq2    C2  458   0.221   1.610  14.411 -0.2150 -0.1410 -0.6411
   30TCq2    C3  459   0.188   1.639  14.537  0.0688  0.7277  0.4659
   30TCq2    C4  460   0.254   1.741  14.593  0.6955 -0.4836 -0.6234
   30TCq2    C5  461   0.354   1.801  14.527 -0.0279 -0.7986 -0.1874
   30TCq2    C6  462   0.404   1.749  14.408  0.2604  0.2355  0.0647
   30TCq2    C7  463   0.336   1.648  14.354  0.3809  0.1176  0.5029
   30TCq2    C8  464   0.537   1.776  14.355  0.4751 -0.4430 -0.6144
   30TCq2    O4  465   0.565   1.711  14.251  0.3566 -0.1007 -0.2173
   30TCq2    C9  466   0.209   1.786  14.721 -0.3582  0.1545  0.7538
   30TCq2    O5  467   0.290   1.854  14.792 -0.4778 -0.7624 -0.4628
   30TCq2    O6  468   0.090   1.758  14.763  0.0436  0.8191 -0.3933
   30TCq2    H2  469   0.105   1.599  14.594 -1.0009  1.4992 -0.5670
   30TCq2    H3  470   0.398   1.884  14.581 -1.4517  1.2210 -2.1349
   30TCq2    H4  471   0.376   1.591  14.270  0.5029  1.8920 -0.6507
   31MPD2     C  472   2.601   0.355  14.882  0.0130 -0.3186  0.2921
   31MPD2    C1  473   2.475   0.407  14.899 -0.3699 -0.3310 -0.5061
   31MPD2    C2  474   2.390   0.359  14.997  0.2441 -0.4220  0.3174
   31MPD2    C3  475   2.430   0.255  15.080  0.1387 -0.3646 -0.1196
   31MPD2    C4  476   2.554   0.208  15.060 -0.2511  1.2694  0.1560
   31MPD2    C5  477   2.642   0.259  14.964  0.0386  0.7166  0.0118
   31MPD2     H  478   2.301   0.419  15.013  0.7967  0.8263 -1.2613
   31MPD2    H1  479   2.587   0.127  15.125 -2.6897 -1.3735 -1.8773
   31MPD2    H2  480   2.665   0.387  14.801 -0.1418 -1.1764 -0.1701
   31MPD2    H3  481   2.743   0.220  14.957 -0.3432 -0.1408 -0.7661
   31MPD2     N  482   2.353   0.206  15.189 -0.6546  0.2157  1.3920
   31MPD2    H5  483   2.401   0.137  15.245  0.2286  0.8131  1.3660
   31MPD2    N1  484   2.434   0.506  14.807 -0.1345 -0.3301  0.3100
   31MPD2    H7  485   2.494   0.516  14.725  0.9186 -2.8404  0.7539
   32TCq2    C1  486   2.223   0.240  15.220 -0.3428  0.6722 -0.1589
   32TCq2    O2  487   2.143   0.302  15.153 -0.2310  0.0823 -0.7723
   32TCq2    C2  488   2.183   0.182  15.350  0.7158 -0.3087 -0.5999
   32TCq2    C3  489   2.053   0.198  15.392 -0.4109  0.1426 -0.3116
   32TCq2    C4  490   2.013   0.150  15.510  0.5269 -0.4391 -0.0870
   32TCq2    C5  491   2.096   0.082  15.588  0.3084 -0.0134  0.7584
   32TCq2    C6  492   2.225   0.068  15.553  0.7735  0.4155  0.2482
   32TCq2    C7  493   2.275   0.112  15.433 -0.7571  0.2045 -0.2925
   32TCq2    C8  494   2.323   0.017  15.651  0.4493  0.2063 -0.3530
   32TCq2    O4  495   2.427   4.718  15.598  0.2297 -0.2851 -0.1393
   32TCq2    C9  496   1.873   0.165  15.559 -0.3773  0.2583 -0.2021
   32TCq2    O5  497   1.795   0.221  15.473 -0.0936 -0.2124 -0.6895
   32TCq2    O6  498   1.828   0.089  15.651  0.5723  0.1595  0.1669
   32TCq2    H2  499   1.992   0.268  15.336  0.9200  0.6700 -1.0968
   32TCq2    H3  500   2.061   0.051  15.686  0.5200  1.1101  1.1897
   32TCq2    H4  501   2.378   0.103  15.403 -0.1797  1.2768  1.3795
   33MPD2     C  502   2.938   2.944  10.058  0.1203  0.2114  0.0633
   33MPD2    C1  503   3.007   2.830  10.042  0.1784  0.7507 -0.1078
   33MPD2    C2  504   3.115   2.827   9.955 -0.3570 -0.1923 -0.5494
   33MPD2    C3  505   3.150   2.941   9.883  1.1345 -0.4661 -0.0700
   33MPD2    C4  506   3.089   3.059   9.918 -0.2886 -0.3357  0.0566
   33MPD2    C5  507   2.987   3.058  10.008  0.2366 -0.7426  0.3123
   33MPD2     H  508   3.182   2.742   9.950 -0.3458 -0.1496 -1.1679
   33MPD2    H1  509   3.119   3.156   9.879  1.3281 -1.3761 -1.2871
   33MPD2    H2  510   2.850   2.950  10.122 -0.3166  0.6950 -0.5809
   33MPD2    H3  511   2.936   3.152  10.027 -2.2245 -1.2558 -3.6811
   33MPD2     N  512   3.259   2.944   9.798 -0.1410  0.5118  0.1315
   33MPD2    H5  513   3.288   3.035   9.765 -0.1862  0.8573  1.0358
   33MPD2    N1  514   2.964   2.713  10.112 -0.1564 -0.2023  0.0974
   33MPD2    H7  515   2.889   2.721  10.179 -1.1424 -0.0396 -1.0303
   34TCq2    C1  516   3.307   2.827   9.740  0.4096  0.2421 -0.4244
   34TCq2    O2  517   3.250   2.720   9.719 -0.0754  0.3678  0.1959
   34TCq2    C2  518   3.434   2.833   9.657  0.0980  0.2421 -0.3698
   34TCq2    C3  519   3.480   2.710   9.604 -0.5741  0.3946  0.2358
   34TCq2    C4  520   3.607   2.694   9.561  0.4988  0.0651 -0.6925
   34TCq2    C5  521   3.691   2.801   9.560  0.0076  0.3007  0.6732
   34TCq2    C6  522   3.645   2.923   9.612  0.6217  0.5130 -0.1972
   34TCq2    C7  523   3.521   2.944   9.665 -0.0968  0.0381  0.1685
   34TCq2    C8  524   3.724   3.049   9.596  0.6512 -0.4141  0.1867
   34TCq2    O4  525   3.688   3.143   9.665  0.1257 -0.0483 -0.3444
   34TCq2    C9  526   3.656   2.565   9.518 -0.4618  0.1470  0.6039
   34TCq2    O5  527   3.773   2.565   9.468  0.6132  0.5777  0.0834
   34TCq2    O6  528   3.578   2.466   9.528 -0.1312  0.4339  0.3582
   34TCq2    H2  529   3.422   2.619   9.607  0.8738 -0.4427  2.9413
   34TCq2    H3  530   3.791   2.791   9.520  0.1987 -1.4268  1.5878
   34TCq2    H4  531   3.488   3.041   9.699 -1.0000  0.3370 -1.5942
   35MPD2     C  532   0.243   4.464  12.177 -0.4700  0.1633 -0.4029
   35MPD2    C1  533   0.158   4.354  12.155 -0.3677  1.3302  0.4293
   35MPD2    C2  534   0.082   4.346  12.042  0.3126  0.1632  0.5720
   35MPD2    C3  535   0.096   4.435  11.939  0.1378  0.6541 -0.4210
   35MPD2    C4  536   0.185   4.536  11.953  0.2039 -0.3800 -0.2336
   35MPD2    C5  537   0.252   4.553  12.072  0.2619 -0.1867 -0.6740
   35MPD2     H  538   0.022   4.260  12.017  2.0788 -0.5683 -1.1871
   35MPD2    H1  539   0.201   4.620  11.886 -0.7481 -0.5734 -0.6952
   35MPD2    H2  540   0.306   4.484  12.263 -0.0920  0.5272 -0.7669
   35MPD2    H3  541   0.305   4.647  12.083  0.3054 -0.0335 -2.2777
   35MPD2     N  542   0.017   4.408  11.824  0.0955  0.0104 -0.0435
   35MPD2    H5  543   4.667   4.339  11.828  1.7113 -1.8305 -1.9869
   35MPD2    N1  544   0.146   4.272  12.264 -0.4010  0.2226  0.4167
   35MPD2    H7  545   0.186   4.298  12.354  1.1516  1.4600 -0.6480
   36TCq2    C1  546   0.044   4.458  11.701  0.6637 -0.2265  0.0837
   36TCq2    O2  547   0.132   4.536  11.669  0.0103 -0.1223 -0.1151
   36TCq2    C2  548   4.696   4.394  11.592  0.6203 -0.2604  0.0110
   36TCq2    C3  549   4.714   4.457  11.473 -0.1848  0.4774 -0.1163
   36TCq2    C4  550   4.668   4.404  11.352 -0.0549  0.0213  0.0841
   36TCq2    C5  551   4.583   4.298  11.364 -0.3671 -0.7116  0.2198
   36TCq2    C6  552   4.544   4.245  11.484 -0.4343  0.5675  0.4511
   36TCq2    C7  553   4.597   4.298  11.605  0.3132 -0.1723 -0.3256
   36TCq2    C8  554   4.435   4.153  11.491  0.7546  0.8173 -0.5075
   36TCq2    O4  555   4.427   4.078  11.590  0.2825  0.1848 -0.6755
   36TCq2    C9  556   4.672   4.481  11.229 -0.6045 -0.5146  0.1558
   36TCq2    O5  557   0.018   4.583  11.229  0.0301 -0.2983 -0.2532
   36TCq2    O6  558   4.578   4.459  11.148  1.0701  0.5481  0.2411
   36TCq2    H2  559   0.053   4.544  11.463 -0.2790  0.6318  0.6122
   36TCq2    H3  560   4.543   4.268  11.268  0.9377 -0.9272 -0.2581
   36TCq2    H4  561   4.578   4.259  11.704 -1.9337 -1.3657 -1.2287
   37TMC2    C1  562   2.152   3.859  12.098 -1.0366  0.3240  0.2340
   37TMC2    C2  563   2.187   3.892  11.965 -0.5374  0.1907 -0.7059
   37TMC2    C3  564   2.317   3.919  11.935  0.5962  0.1426 -0.3350
   37TMC2    C4  565   2.247   3.866  12.202 -0.1486 -0.1213  0.1488
   37TMC2    C5  566   2.372   3.910  12.164 -0.2228  1.3440 -0.6982
   37TMC2    C6  567   2.411   3.933  12.036  0.7774  0.5638 -0.1657
   37TMC2     C  568   2.012   3.842  12.127 -0.0498 -0.0618 -0.3817
   37TMC2     O  569   1.944   3.811  12.029 -0.1362 -0.0439  0.1664
   37TMC2     H  570   2.116   3.892  11.883 -0.9825 -1.3604 -0.3203
   37TMC2    H1  571   2.221   3.858  12.306  0.3380  0.4831  0.3186
   37TMC2    H2  572   2.514   3.959  12.015  0.8950  0.6850  0.5772
   37TMC2    C7  573   2.466   3.940  12.266  0.6923  0.6032 -0.1729
   37TMC2    C8  574   2.352   3.919  11.795 -0.1064 -0.3506 -0.2379
   37TMC2    O1  575   2.446   3.889  12.375 -0.0653  0.3468 -0.1430
   37TMC2    O2  576   2.274   3.956  11.708 -0.2489 -0.8745 -0.8714
   37TMC2    O5  577   2.489   3.934  11.783  0.0229 -0.6559 -0.0748
   37TMC2    H5  578   2.528   3.879  11.854 -0.6649  2.2807  2.5860
   38MPD2     C  579   1.582   3.810  12.404  0.4070  0.0385 -0.3888
   38MPD2    C1  580   1.687   3.777  12.482  0.4193 -0.0193 -0.0085
   38MPD2    C2  581   1.819   3.800  12.442 -0.5074  0.0800 -0.2938
   38MPD2    C3  582   1.847   3.846  12.314  0.1168 -0.9463  0.3907
   38MPD2    C4  583   1.740   3.880  12.231  0.0557  0.4196  0.5237
   38MPD2    C5  584   1.614   3.853  12.277  0.6463 -0.9100  0.4277
   38MPD2     H  585   1.907   3.770  12.498 -1.4967 -1.2489  0.5271
   38MPD2    H1  586   1.763   3.914  12.131 -2.1711 -1.7779 -0.7573
   38MPD2    H2  587   1.478   3.794  12.430  0.5967 -2.3091 -1.0339
   38MPD2    H3  588   1.536   3.873  12.204  1.0389 -0.0876  0.2372
   38MPD2     N  589   1.977   3.841  12.259  0.0682 -0.5435  0.5050
   38MPD2    H5  590   2.043   3.809  12.329 -1.2183 -2.6818  0.7125
   38MPD2    N1  591   1.683   3.724  12.606 -0.2772  0.2494  0.4017
   38MPD2    H7  592   1.769   3.702  12.656 -0.4427  0.7297  0.8899
   39MPD2     C  593   4.559   0.570   1.255 -0.6392  0.2801 -0.0191
   39MPD2    C1  594   4.472   0.583   1.362  0.5797  0.1391  0.1692
   39MPD2    C2  595   4.344   0.635   1.338  0.2774  0.2688 -0.0195
   39MPD2    C3  596   4.288   0.655   1.209  0.0351  0.2075 -0.4685
   39MPD2    C4  597   4.373   0.631   1.108 -0.1854 -0.1000 -0.1261
   39MPD2    C5  598   4.501   0.582   1.131  0.5030 -0.0219 -0.0731
   39MPD2     H  599   4.281   0.652   1.424 -1.4232 -1.1096 -0.9756
   39MPD2    H1  600   4.333   0.626   1.007 -0.9536  2.0104  0.0876
   39MPD2    H2  601   4.659   0.531   1.268 -0.7329  0.5422  1.4622
   39MPD2    H3  602   4.576   0.560   1.056  1.1394 -0.1943  0.6192
   39MPD2     N  603   4.162   0.705   1.193  0.0424  0.4261 -0.0146
   39MPD2    H5  604   4.125   0.709   1.098 -0.2326 -0.4984  0.0499
   39MPD2    N1  605   4.520   0.545   1.488  0.6936  0.2160 -0.3164
   39MPD2    H7  606   4.617   0.515   1.494  0.8289  0.6404 -0.3372
   40TCq2    C1  607   4.449   0.554   1.603  0.0178 -0.1791 -0.2921
   40TCq2    O2  608   4.328   0.571   1.627 -0.2634  0.4044 -0.1009
   40TCq2    C2  609   4.529   0.515   1.719  0.1495 -0.3385 -0.1720
   40TCq2    C3  610   4.461   0.455   1.821  0.2200 -0.0437  0.3690
   40TCq2    C4  611   4.540   0.389   1.919  0.5121 -0.4586  0.6831
   40TCq2    C5  612   4.674   0.399   1.917  0.3623 -1.0695 -1.0115
   40TCq2    C6  613   0.014   0.466   1.815 -0.8424  0.3609 -0.3027
   40TCq2    C7  614   4.664   0.525   1.710 -0.8773  0.0959  0.2076
   40TCq2    C8  615   0.153   0.447   1.815 -0.8096 -0.1269  0.9510
   40TCq2    O4  616   0.217   0.362   1.887  0.0069  0.0669  0.6924
   40TCq2    C9  617   4.472   0.345   2.040 -0.5273  0.0502 -0.0775
   40TCq2    O5  618   4.538   0.280   2.126  0.1136  0.1737 -0.0621
   40TCq2    O6  619   4.355   0.386   2.059  0.7684  0.3218 -0.2600
   40TCq2    H2  620   4.354   0.440   1.825  0.3579 -0.8589  1.0782
   40TCq2    H3  621   0.010   0.356   1.996  0.6550  1.1235 -0.0445
   40TCq2    H4  622   4.703   0.573   1.622 -0.2644  0.5703  0.7400
   41TMC2    C1  623   3.685   3.945  14.967  0.1083  0.3293  0.2972
   41TMC2    C2  624   3.629   4.068  14.961  0.0597  0.7985  0.0066
   41TMC2    C3  625   3.640   4.134  14.846 -0.8443  0.9788  0.3807
   41TMC2    C4  626   3.733   3.874  14.864 -0.3284 -0.6683 -0.2988
   41TMC2    C5  627   3.742   3.948  14.746  0.9160  0.0982 -0.7486
   41TMC2    C6  628   3.697   4.079  14.738 -0.0157 -0.2709  0.0046
   41TMC2     C  629   3.666   3.872  15.093  0.6567  0.2961 -0.0483
   41TMC2     O  630   3.670   3.745  15.081 -1.0780  0.1342 -0.6097
   41TMC2     H  631   3.560   4.100  15.038  1.7823 -0.3318  2.0120
   41TMC2    H1  632   3.781   3.777  14.870  0.3176 -0.2078  1.9000
   41TMC2    H2  633   3.718   4.141  14.652 -0.3236 -1.9801 -1.3015
   41TMC2    C7  634   3.855   3.901  14.667 -0.5358  0.1644 -0.0332
   41TMC2    C8  635   3.577   4.259  14.829 -0.5067  0.4719  0.3169
   41TMC2    O1  636   3.928   3.807  14.704 -0.1920 -0.0935 -0.1411
   41TMC2    O2  637   3.565   4.321  14.720  0.0138  0.0765  0.3111
   41TMC2    O5  638   3.584   4.319  14.951 -0.1497 -0.2997 -0.1141
   41TMC2    H5  639   3.628   4.271  15.024  0.0607 -2.7413 -1.8538
   42MPD2     C  640   3.641   3.784  15.376 -0.8839  0.3195 -0.1726
   42MPD2    C1  641   3.651   3.917  15.337 -0.4023  0.2972  0.3759
   42MPD2    C2  642   3.671   4.009  15.438 -0.0093  0.3601  0.1340
   42MPD2    C3  643   3.677   3.978  15.578  0.0981 -0.1682  0.0780
   42MPD2    C4  644   3.675   3.848  15.611  0.2466 -0.0669  0.3006
   42MPD2    C5  645   3.652   3.757  15.509 -0.2075 -0.4948  0.0441
   42MPD2     H  646   3.669   4.112  15.405  0.4419  0.0027 -1.0140
   42MPD2    H1  647   3.688   3.815  15.714  1.7292 -3.1162 -0.8841
   42MPD2    H2  648   3.612   3.700  15.314 -2.9389 -0.0076  1.2304
   42MPD2    H3  649   3.627   3.654  15.533 -0.7866 -0.4113 -0.1808
   42MPD2     N  650   3.688   4.069  15.682  0.2625 -0.2390 -0.2636
   42MPD2    H5  651   3.709   4.036  15.776  0.2860 -2.2464 -0.9747
   42MPD2    N1  652   3.661   3.961  15.197  0.3200  0.5597 -0.3915
   42MPD2    H7  653   3.682   4.056  15.170  0.3155  0.6637 -0.0265
   43MPD2     C  654   4.530   1.947   0.813 -0.0176  0.7389  0.5015
   43MPD2    C1  655   4.661   1.974   0.786 -0.1177  0.3466  0.4913
   43MPD2    C2  656   4.705   2.091   0.832 -0.7785  0.5323  0.2931
   43MPD2    C3  657   4.628   2.180   0.911  0.3249 -0.1450 -0.0540
   43MPD2    C4  658   4.500   2.140   0.935 -0.0431  0.1204  1.2540
   43MPD2    C5  659   4.449   2.028   0.881 -0.5262  0.7534  0.4944
   43MPD2     H  660   0.087   2.105   0.819 -0.6215 -3.0864 -2.3464
   43MPD2    H1  661   4.426   2.200   0.987 -1.3256  0.1196 -0.5847
   43MPD2    H2  662   4.482   1.858   0.775  2.0159  0.1132 -0.6267
   43MPD2    H3  663   4.347   2.003   0.908 -0.6912 -1.6739 -2.4291
   43MPD2     N  664   4.669   2.310   0.953 -0.5358  0.1495  0.1988
   43MPD2    H5  665   4.597   2.365   0.999 -2.2002 -0.8860 -1.1790
   43MPD2    N1  666   0.030   1.879   0.743  0.1856 -0.3602  0.5584
   43MPD2    H7  667   0.127   1.904   0.730 -0.2480  0.5107 -0.9829
   44TCq2    C1  668   0.276   2.571   1.313 -0.0417 -0.1003 -0.6548
   44TCq2    O2  669   0.368   2.495   1.299 -0.1476  0.3936  0.6681
   44TCq2    C2  670   0.184   2.586   1.205  0.1628 -0.1837 -0.1335
   44TCq2    C3  671   0.088   2.682   1.216 -0.0389  0.1970  0.1411
   44TCq2    C4  672   4.711   2.669   1.126 -0.5149 -0.1452 -0.1943
   44TCq2    C5  673   4.711   2.580   1.024  0.6621 -0.2890  0.0654
   44TCq2    C6  674   0.081   2.480   1.019  0.2869  0.2660  0.9583
   44TCq2    C7  675   0.176   2.477   1.117  0.6553  0.6854  0.0983
   44TCq2    C8  676   0.071   2.365   0.941  0.0052 -0.7543 -0.6763
   44TCq2    O4  677   0.174   2.310   0.903  0.4425  0.4946 -0.1316
   44TCq2    C9  678   4.601   2.768   1.125  0.1818 -0.0162  0.2575
   44TCq2    O5  679   4.517   2.757   1.033 -0.4051  0.0302  0.4811
   44TCq2    O6  680   4.602   2.864   1.208  0.4240 -0.1955  0.4689
   44TCq2    H2  681   0.080   2.762   1.288  1.4885 -0.6038  1.1899
   44TCq2    H3  682   4.638   2.586   0.945  0.1522  0.4288  0.5868
   44TCq2    H4  683   0.256   2.405   1.106 -0.0548 -0.0222 -0.4173
   45TMC2    C1  684   1.611   4.635   9.676 -0.4168  0.0403 -0.1602
   45TMC2    C2  685   1.599   4.644   9.541 -0.7406  0.1335  0.0695
   45TMC2    C3  686   1.598   0.037   9.480 -0.6313  0.4160 -0.0266
   45TMC2    C4  687   1.601   0.028   9.752 -0.1928  0.0813  1.1778
   45TMC2    C5  688   1.601   0.143   9.683 -0.1592 -0.1026  0.4121
   45TMC2    C6  689   1.603   0.153   9.547 -0.2771 -0.8874 -0.0989
   45TMC2     C  690   1.599   4.507   9.742  0.3073  0.7394 -0.2730
   45TMC2     O  691   1.619   4.511   9.865 -0.0484  0.1678  0.1124
   45TMC2     H  692   1.600   4.551   9.486 -0.1437  0.8824 -1.1868
   45TMC2    H1  693   1.599   0.030   9.860  1.6953 -1.0527  1.2445
   45TMC2    H2  694   1.581   0.244   9.493 -0.4334  0.4298  2.1761
   45TMC2    C7  695   1.570   0.266   9.767 -0.0045  0.1913  0.0101
   45TMC2    C8  696   1.584   0.053   9.337  0.2869  0.6056  0.3021
   45TMC2    O1  697   1.524   0.245   9.883  0.2957  0.5878  0.0047
   45TMC2    O2  698   1.523   0.140   9.281  0.9937  0.1098 -0.1618
   45TMC2    O5  699   1.688   4.708   9.287  0.2707  0.0224  0.4260
   45TMC2    H5  700   1.730   4.654   9.357  2.0531 -0.8513 -1.3218
   46MPD2     C  701   1.565   4.229   9.828 -0.4753 -0.1486  0.6629
   46MPD2    C1  702   1.535   4.278   9.702  0.5464  0.7767  0.3267
   46MPD2    C2  703   1.459   4.190   9.619  0.4556 -0.8083  0.2791
   46MPD2    C3  704   1.418   4.068   9.658 -0.4510  0.1847  0.4613
   46MPD2    C4  705   1.459   4.017   9.780 -0.3071  0.0752 -0.3786
   46MPD2    C5  706   1.531   4.097   9.862  0.4477 -1.3798 -0.4278
   46MPD2     H  707   1.433   4.232   9.522 -1.5757 -0.6724  0.8754
   46MPD2    H1  708   1.434   3.916   9.812 -1.6652  0.9670  1.3755
   46MPD2    H2  709   1.612   4.286   9.908  0.2208 -1.2205  1.0153
   46MPD2    H3  710   1.562   4.066   9.961 -0.1867 -2.3438 -0.5353
   46MPD2     N  711   1.317   4.009   9.575 -0.2578 -0.0329  0.6203
   46MPD2    H5  712   1.279   4.070   9.503  0.1179 -1.3847 -0.7246
   46MPD2    N1  713   1.552   4.408   9.658 -0.0667 -0.0337 -0.0719
   46MPD2    H7  714   1.525   4.429   9.562  0.9017 -2.2755 -0.8463
   47TMC2    C1  715   0.047   0.438   9.173  0.6657 -0.3512  0.5506
   47TMC2    C2  716   0.074   0.492   9.051  0.8115  0.1376  0.5905
   47TMC2    C3  717   4.704   0.504   8.958  0.6230  0.1798 -0.4536
   47TMC2    C4  718   4.644   0.395   9.204 -0.6223 -0.4606 -0.2213
   47TMC2    C5  719   4.556   0.389   9.106 -0.2905 -0.2065 -0.8634
   47TMC2    C6  720   4.579   0.445   8.983 -0.3620 -0.5074  0.3718
   47TMC2     C  721   0.151   0.434   9.270  0.1593  0.1636 -0.2611
   47TMC2     O  722   0.245   0.511   9.255  0.0858 -0.0833  0.0512
   47TMC2     H  723   0.171   0.513   9.009 -1.4779  2.2556 -3.6645
   47TMC2    H1  724   4.627   0.344   9.298 -1.1295  0.3613  0.1351
   47TMC2    H2  725   4.500   0.457   8.910  0.4005 -0.9116 -0.5086
   47TMC2    C7  726   4.420   0.361   9.140  0.8282  0.1130  0.2048
   47TMC2    C8  727   0.015   0.545   8.822  0.2161 -0.7647  0.3431
   47TMC2    O1  728   4.347   0.319   9.053  0.6050  0.1533  0.3192
   47TMC2    O2  729   0.126   0.557   8.778  0.0516 -0.1649 -0.0487
   47TMC2    O5  730   4.627   0.586   8.754  0.4443 -0.2024  0.9523
   47TMC2    H5  731   4.568   0.633   8.817 -0.5684 -2.4151  1.6718
   48MPD2     C  732   0.310   0.410   9.506 -0.2443  0.5940  0.5063
   48MPD2    C1  733   0.211   0.319   9.476  0.3548 -0.2199  0.1021
   48MPD2    C2  734   0.180   0.213   9.563 -0.2271  0.4223  0.3839
   48MPD2    C3  735   0.235   0.207   9.687  0.6358 -0.2462 -0.0020
   48MPD2    C4  736   0.338   0.298   9.711 -0.4750 -0.2329 -0.4523
   48MPD2    C5  737   0.369   0.395   9.628 -0.3691  0.7522 -0.1354
   48MPD2     H  738   0.103   0.140   9.542  0.4709 -0.0707 -0.4685
   48MPD2    H1  739   0.393   0.298   9.804 -1.9178 -0.5767  0.3920
   48MPD2    H2  740   0.348   0.493   9.448 -2.4810  0.3098 -1.3706
   48MPD2    H3  741   0.452   0.458   9.658 -0.4581 -0.5616  2.8280
   48MPD2     N  742   0.193   0.106   9.775 -0.0647 -0.4025  0.0624
   48MPD2    H5  743   0.132   0.041   9.726  0.5521  1.3878 -3.1023
   48MPD2    N1  744   0.133   0.334   9.359 -0.3971  0.1252 -0.0461
   48MPD2    H7  745   0.049   0.278   9.349 -0.1533  0.1565 -2.4042
   49MPD2     C  746   2.259   2.136  10.321  0.0656  0.0751 -0.0055
   49MPD2    C1  747   2.154   2.164  10.401 -0.4611 -0.5862  0.9611
   49MPD2    C2  748   2.185   2.221  10.525  0.6519 -0.2079 -0.0257
   49MPD2    C3  749   2.317   2.242  10.564  0.9350  1.3057 -0.1138
   49MPD2    C4  750   2.419   2.229  10.477  1.1116  0.0964 -0.0304
   49MPD2    C5  751   2.383   2.176  10.356  0.3862 -0.3891  0.0620
   49MPD2     H  752   2.102   2.254  10.587  1.4071 -1.0065  1.4138
   49MPD2    H1  753   2.517   2.270  10.498  0.8904  2.3160 -3.3870
   49MPD2    H2  754   2.256   2.107  10.216 -0.9724 -1.4936  0.4496
   49MPD2    H3  755   2.466   2.164  10.287  0.3028 -1.6459  0.1790
   49MPD2     N  756   2.348   2.299  10.686 -0.4316  0.1104  0.2714
   49MPD2    H5  757   2.443   2.335  10.692 -0.1018 -0.4384 -1.8106
   49MPD2    N1  758   2.015   2.148  10.366 -0.5469  0.1965 -0.2490
   49MPD2    H7  759   1.941   2.180  10.428 -2.1043 -1.8551 -1.0365
   50TCq2    C1  760   1.978   2.098  10.246  0.1786 -0.0542 -0.1075
   50TCq2    O2  761   2.047   2.058  10.153 -0.3910 -0.1460  0.6897
   50TCq2    C2  762   1.834   2.114  10.220 -0.9997  0.0548 -1.0581
   50TCq2    C3  763   1.757   2.193  10.298 -0.0272 -0.2001  0.5541
   50TCq2    C4  764   1.634   2.221  10.253  0.4457 -0.1104 -0.7091
   50TCq2    C5  765   1.584   2.183  10.133 -0.0476  0.3204 -0.3483
   50TCq2    C6  766   1.660   2.093  10.065 -0.0849  0.1508 -0.4525
   50TCq2    C7  767   1.780   2.051  10.109  0.5441 -0.2472 -0.8655
   50TCq2    C8  768   1.612   2.027   9.943  0.1865  0.6213  0.3696
   50TCq2    O4  769   1.681   1.950   9.879 -0.2824 -0.6431 -0.3446
   50TCq2    C9  770   1.555   2.298  10.345 -1.4282  0.0321 -0.0306
   50TCq2    O5  771   1.435   2.305  10.323  0.1417 -0.3380 -0.6677
   50TCq2    O6  772   1.618   2.365  10.425  0.3640 -0.2065  0.1123
   50TCq2    H2  773   1.795   2.222  10.396  0.4033  1.9748 -0.2507
   50TCq2    H3  774   1.483   2.215  10.108 -0.4856 -2.1951 -1.8224
   50TCq2    H4  775   1.838   1.973  10.061  2.0983 -1.7096  3.4830
   51MPD2     C  776   2.064   4.627   1.796  0.6437 -0.5403  0.6272
   51MPD2    C1  777   2.109   4.670   1.675  0.0103 -0.0063  0.1799
   51MPD2    C2  778   2.110   0.077   1.651  0.3709  0.2404 -0.2935
   51MPD2    C3  779   2.087   0.174   1.751  0.0400 -0.3529  0.1681
   51MPD2    C4  780   2.040   0.132   1.873 -0.1565  0.2482  0.4978
   51MPD2    C5  781   2.028   4.721   1.890 -0.1940 -0.4096 -0.0971
   51MPD2     H  782   2.148   0.101   1.553 -0.2538  0.2064 -0.5391
   51MPD2    H1  783   2.031   0.202   1.956 -1.0583  0.9799 -0.2284
   51MPD2    H2  784   2.063   4.524   1.831  0.8351  0.2990  3.1360
   51MPD2    H3  785   2.005   4.694   1.993 -2.8566  0.0777 -0.5838
   51MPD2     N  786   2.114   0.315   1.744 -0.6845 -0.1905  0.0795
   51MPD2    H5  787   2.092   0.363   1.831  2.6585  0.6627  0.4779
   51MPD2    N1  788   2.151   4.583   1.568  0.4258  0.8975 -0.2524
   51MPD2    H7  789   2.189   4.624   1.483  1.8495 -1.0746 -0.5827
   52TCq2    C1  790   2.155   0.382   1.633 -0.2392 -0.5035 -0.2340
   52TCq2    O2  791   2.190   0.330   1.528  0.6519  0.3871 -0.0545
   52TCq2    C2  792   2.143   0.523   1.646  0.0845 -0.2628 -0.3070
   52TCq2    C3  793   2.090   0.596   1.535 -0.4227 -0.0733  0.2536
   52TCq2    C4  794   2.080   0.733   1.554  0.2626  0.5564 -0.4096
   52TCq2    C5  795   2.084   0.784   1.678  0.1033  0.3082 -0.2838
   52TCq2    C6  796   2.135   0.712   1.787 -0.3023 -0.9127  0.8988
   52TCq2    C7  797   2.165   0.583   1.770 -0.2030 -0.2765  0.2370
   52TCq2    C8  798   2.179   0.793   1.898  0.3911  1.0402 -0.0693
   52TCq2    O4  799   2.209   0.912   1.878 -0.7753  0.0058 -0.3320
   52TCq2    C9  800   2.025   0.815   1.447  0.2301  0.0805 -0.5293
   52TCq2    O5  801   1.999   0.759   1.337  0.0908  0.2978 -0.6231
   52TCq2    O6  802   1.977   0.928   1.474  0.2520  0.7112 -0.0254
   52TCq2    H2  803   2.084   0.563   1.432 -0.2215  2.5760 -0.6176
   52TCq2    H3  804   2.056   0.887   1.698  2.6349  0.6624  1.4738
   52TCq2    H4  805   2.217   0.534   1.851  0.6715  2.3237  1.2342
   53TMC2    C1  806   2.928   3.861  12.843  0.1882  0.3701 -0.3427
   53TMC2    C2  807   2.986   3.927  12.951 -0.0645  0.7279  0.4797
   53TMC2    C3  808   2.918   3.942  13.067 -0.3676 -0.2591 -0.4334
   53TMC2    C4  809   2.800   3.810  12.860 -1.0264 -0.5651  0.3066
   53TMC2    C5  810   2.734   3.832  12.968  0.0585  0.3162 -0.0305
   53TMC2    C6  811   2.785   3.912  13.074  0.4512  0.0544 -0.1893
   53TMC2     C  812   2.965   3.914  12.711 -0.0364 -0.8227  0.3262
   53TMC2     O  813   3.072   3.973  12.705 -0.1264 -0.7113 -0.4972
   53TMC2     H  814   3.076   3.987  12.937 -0.1906  0.5293 -1.1894
   53TMC2    H1  815   2.754   3.745  12.787 -1.3242 -1.2943  1.1497
   53TMC2    H2  816   2.729   3.936  13.164  2.7663  3.0233  0.4465
   53TMC2    C7  817   2.589   3.843  12.956  0.1130  0.0244  0.3469
   53TMC2    C8  818   2.974   4.044  13.158  0.1673  0.2133  0.6267
   53TMC2    O1  819   2.549   3.848  12.841 -0.2458 -0.4652  0.4112
   53TMC2    O2  820   3.061   4.119  13.114 -0.3782  0.1772  0.1360
   53TMC2    O5  821   2.948   4.017  13.286  0.0982  0.1981 -0.0288
   53TMC2    H5  822   2.885   3.944  13.305 -0.2003  0.4073 -0.2175
   54MPD2     C  823   2.943   4.076  12.448 -0.5457 -0.5505  0.5231
   54MPD2    C1  824   2.847   3.990  12.498 -0.2257  0.3319 -0.9078
   54MPD2    C2  825   2.727   3.966  12.432 -0.2536  0.8445 -0.2407
   54MPD2    C3  826   2.704   4.026  12.310 -0.8033 -1.3572  0.8002
   54MPD2    C4  827   2.799   4.119  12.269  0.3870  0.0802  0.5069
   54MPD2    C5  828   2.918   4.140  12.335  0.0571 -0.1186 -0.0714
   54MPD2     H  829   2.650   3.906  12.480 -1.2473  1.6372 -0.8322
   54MPD2    H1  830   2.786   4.166  12.172  0.5331  0.6114  0.7469
   54MPD2    H2  831   3.034   4.098  12.503 -0.6768  0.4494  0.3358
   54MPD2    H3  832   2.994   4.209  12.302 -0.8378  0.4659 -0.9000
   54MPD2     N  833   2.583   4.014  12.238 -0.0475  0.1237 -0.1211
   54MPD2    H5  834   2.576   4.080  12.162 -0.5459  0.9924  0.6790
   54MPD2    N1  835   2.863   3.910  12.618 -0.0815 -0.0398 -0.3397
   54MPD2    H7  836   2.776   3.864  12.642  0.6482 -0.9479  0.5635
   55MPD2     C  837   2.966   1.664  17.667 -0.5357  0.4810  0.0032
   55MPD2    C1  838   2.899   1.610   0.080  0.2240  0.2469  0.8312
   55MPD2    C2  839   2.831   1.688   0.168 -0.0202 -0.3913  0.2488
   55MPD2    C3  840   2.805   1.819   0.134  0.5177  0.1946 -0.4276
   55MPD2    C4  841   2.857   1.870   0.015  0.0040  0.0679  0.6545
   55MPD2    C5  842   2.948   1.796  17.643 -0.1454 -0.0735 -0.0859
   55MPD2     H  843   2.809   1.666   0.271 -0.2053 -1.4402 -0.0183
   55MPD2    H1  844   2.843   1.975  17.692 -2.0162 -0.3921 -0.2621
   55MPD2    H2  845   3.020   1.609  17.591  0.5325  0.5277  0.7302
   55MPD2    H3  846   3.001   1.833  17.556 -2.5009  3.2348 -0.1060
   55MPD2     N  847   2.746   1.908   0.232 -0.1652 -0.1101 -0.0314
   55MPD2    H5  848   2.709   1.868   0.318 -0.9514  2.4916  0.8491
   55MPD2    N1  849   2.937   1.474   0.112 -0.7075  0.0246 -0.0369
   55MPD2    H7  850   3.023   1.446   0.066 -0.4362  1.4480 -0.3864
   56TCq2    C1  851   2.910   1.407   0.225  0.3156  0.6951 -0.7865
   56TCq2    O2  852   2.835   1.438   0.313 -0.0474 -0.2072 -0.1945
   56TCq2    C2  853   2.995   1.295   0.244  0.4422 -0.1252 -0.2609
   56TCq2    C3  854   3.072   1.255   0.136  0.8009  0.3836  0.1190
   56TCq2    C4  855   3.158   1.154   0.163 -1.0972 -0.1132  0.4912
   56TCq2    C5  856   3.174   1.099   0.291  0.2111 -0.6035  0.1054
   56TCq2    C6  857   3.098   1.148   0.392  0.4444  0.5785 -0.2176
   56TCq2    C7  858   3.007   1.246   0.371 -0.0844 -0.7612 -0.0386
   56TCq2    C8  859   3.090   1.071   0.518 -0.4125 -0.2947 -0.0763
   56TCq2    O4  860   3.139   0.959   0.519 -0.4257 -0.6402  0.1724
   56TCq2    C9  861   3.228   1.087   0.054  0.0764  0.0799 -0.5474
   56TCq2    O5  862   3.307   0.999   0.087  0.6239  0.0703  0.1513
   56TCq2    O6  863   3.245   1.161  17.650  0.3814 -0.1070  0.0402
   56TCq2    H2  864   3.048   1.276   0.032 -1.1499 -2.7961 -0.0887
   56TCq2    H3  865   3.236   1.014   0.318 -0.2378 -0.6420  1.0106
   56TCq2    H4  866   2.958   1.288   0.458 -0.8621  0.3344 -1.0044
   57TMC2    C1  867   1.619   2.900  13.945  0.0325 -0.8082 -0.3340
   57TMC2    C2  868   1.674   2.776  13.942 -0.2966 -0.6654 -0.6176
   57TMC2    C3  869   1.713   2.729  13.826  0.2017  0.5593  0.0085
   57TMC2    C4  870   1.583   2.971  13.832  0.0619  0.4547 -0.8146
   57TMC2    C5  871   1.636   2.926  13.715 -0.5253 -0.1696 -0.7239
   57TMC2    C6  872   1.692   2.804  13.709  0.0888  0.3981 -0.2408
   57TMC2     C  873   1.613   2.981  14.070 -0.5351  0.8560 -0.1382
   57TMC2     O  874   1.541   3.083  14.072 -0.5414 -0.0568  0.2237
   57TMC2     H  875   1.705   2.727  14.034  1.1357  0.6557 -0.3979
   57TMC2    H1  876   1.561   3.077  13.839 -2.1763 -0.0659  0.1807
   57TMC2    H2  877   1.718   2.753  13.617 -1.1395  0.9860 -0.9057
   57TMC2    C7  878   1.701   3.027  13.632  0.3427 -0.2968  0.4980
   57TMC2    C8  879   1.754   2.591  13.825  0.1724 -0.2256  0.6772
   57TMC2    O1  880   1.670   3.147  13.655  0.6020 -0.0214 -0.2307
   57TMC2    O2  881   1.815   2.540  13.916 -0.2242 -0.0164 -0.6403
   57TMC2    O5  882   1.732   2.538  13.702  0.0825  0.7535 -0.5950
   57TMC2    H5  883   1.660   2.591  13.661 -0.9965  0.1360  0.4745
   58MPD2     C  884   1.630   3.035  14.591 -0.0873  0.7582 -0.3643
   58MPD2    C1  885   1.558   3.106  14.493 -0.6036  0.0706  0.8923
   58MPD2    C2  886   1.563   3.058  14.361 -0.3495  0.5031 -0.1378
   58MPD2    C3  887   1.652   2.956  14.324  0.6788 -0.8441 -0.0074
   58MPD2    C4  888   1.721   2.890  14.425  0.2905 -1.3214 -0.0437
   58MPD2    C5  889   1.707   2.923  14.554 -0.4210  0.1152  0.5712
   58MPD2     H  890   1.503   3.106  14.285 -2.2660  1.4396  1.9920
   58MPD2    H1  891   1.774   2.796  14.414 -1.0177 -1.9565 -0.9920
   58MPD2    H2  892   1.615   3.054  14.696  2.6849 -0.1799  0.2103
   58MPD2    H3  893   1.760   2.861  14.626 -1.0187 -1.7240 -0.5753
   58MPD2     N  894   1.666   2.914  14.183  0.0650 -0.2495  0.3995
   58MPD2    H5  895   1.730   2.836  14.169 -0.9646 -0.8468 -0.9826
   58MPD2    N1  896   1.477   3.217  14.532  0.0645 -0.0608  0.0018
   58MPD2    H7  897   1.480   3.234  14.632  2.1746  0.6324 -0.1837
   59MPD2     C  898   4.430   3.280  13.432 -0.0504 -0.2155 -0.0253
   59MPD2    C1  899   4.528   3.320  13.342 -0.5700  0.1244 -0.5393
   59MPD2    C2  900   4.635   3.399  13.389 -0.4128 -0.4634  0.0427
   59MPD2    C3  901   4.645   3.432  13.523 -0.6286 -0.2461 -0.4788
   59MPD2    C4  902   4.553   3.373  13.614  0.5324  0.3486  0.3290
   59MPD2    C5  903   4.448   3.297  13.569 -0.0740 -0.0508  0.5389
   59MPD2     H  904   4.710   3.438  13.320  0.3635  0.0154  1.1576
   59MPD2    H1  905   4.562   3.371  13.722  1.6623 -0.0686  0.2274
   59MPD2    H2  906   4.338   3.229  13.405  0.3093 -0.2037 -1.2595
   59MPD2    H3  907   4.384   3.253  13.645  0.3726 -1.3841  0.1387
   59MPD2     N  908   0.022   3.518  13.581 -0.1025  0.3448  0.1528
   59MPD2    H5  909   0.014   3.521  13.682 -2.0057 -0.7010  0.0419
   59MPD2    N1  910   4.525   3.282  13.205  0.0215 -0.2020 -0.2674
   59MPD2    H7  911   4.611   3.299  13.154  0.3315  0.4541  0.4740
   60TCq2    C1  912   4.426   3.206  13.145  0.1408  0.3003  0.5949
   60TCq2    O2  913   4.313   3.182  13.186 -0.0228  0.4909  0.4214
   60TCq2    C2  914   4.474   3.144  13.023  0.3083  0.0530  0.3305
   60TCq2    C3  915   4.443   3.014  13.016 -0.7947  0.2052 -0.2577
   60TCq2    C4  916   4.518   2.936  12.929  0.1291 -0.1757  0.3339
   60TCq2    C5  917   4.625   2.989  12.870  0.2962 -0.9729  0.5281
   60TCq2    C6  918   4.656   3.125  12.882 -0.7616  0.0413  0.8124
   60TCq2    C7  919   4.575   3.205  12.951 -0.1475  0.3963  0.1205
   60TCq2    C8  920   0.051   3.181  12.821 -0.3750  0.6145 -0.3031
   60TCq2    O4  921   0.143   3.108  12.787  0.3554  0.1118  0.2015
   60TCq2    C9  922   4.508   2.791  12.937 -0.0983  0.0513  0.0892
   60TCq2    O5  923   4.538   2.721  12.835 -0.3568  0.1160  0.0714
   60TCq2    O6  924   4.439   2.754  13.036 -0.1059 -0.0916  0.3326
   60TCq2    H2  925   4.360   2.981  13.077  0.4698  0.5987  1.6819
   60TCq2    H3  926   4.672   2.923  12.798  2.2996 -0.7297  1.6160
   60TCq2    H4  927   4.595   3.311  12.962  2.4829  0.0646 -1.4334
   61MPD2     C  928   3.629   4.551  15.296 -0.0278 -0.3888  0.7694
   61MPD2    C1  929   3.747   4.606  15.242 -0.0671  0.3244  0.1479
   61MPD2    C2  930   3.741   4.673  15.123  1.0606 -0.4092 -0.5874
   61MPD2    C3  931   3.625   4.709  15.063 -0.0690  1.1499 -0.0910
   61MPD2    C4  932   3.510   4.661  15.109 -0.7866 -0.9527  0.2596
   61MPD2    C5  933   3.516   4.581  15.221  0.5261  0.0417  0.4590
   61MPD2     H  934   3.832   4.711  15.078  1.8047 -2.6960 -1.0356
   61MPD2    H1  935   3.417   4.690  15.063  0.4374  2.8768  0.2395
   61MPD2    H2  936   3.623   4.492  15.387  2.8311 -1.2089  0.4220
   61MPD2    H3  937   3.421   4.543  15.257  0.5236 -1.5482 -1.2123
   61MPD2     N  938   3.619   0.077  14.949  0.0556  0.3233 -0.4472
   61MPD2    H5  939   3.539   0.069  14.887 -0.1292  1.5137 -0.3768
   61MPD2    N1  940   3.873   4.585  15.301  0.2424  0.0708 -0.3500
   61MPD2    H7  941   3.953   4.603  15.240  0.0215 -2.1107 -1.2809
   62TCq2    C1  942   3.901   4.541  15.427 -0.7931  0.0122 -0.7447
   62TCq2    O2  943   3.830   4.541  15.528  0.1867  0.0181 -0.2762
   62TCq2    C2  944   4.041   4.546  15.461  0.2045 -0.3793 -0.3502
   62TCq2    C3  945   4.115   4.527  15.353  0.6849  0.6393 -0.9170
   62TCq2    C4  946   4.239   4.589  15.342 -0.0649 -0.8788  0.0610
   62TCq2    C5  947   4.275   4.668  15.441  0.7262 -0.1519  1.0049
   62TCq2    C6  948   4.195   4.682  15.549  0.8694  0.4376 -0.0426
   62TCq2    C7  949   4.081   4.624  15.568 -0.2703 -0.3363  0.0099
   62TCq2    C8  950   4.170   0.096  15.575  0.1619 -1.4462  0.5912
   62TCq2    O4  951   4.204   0.176  15.488  0.1942  0.7136 -0.1785
   62TCq2    C9  952   4.325   4.559  15.235  0.0062  0.0397  0.2180
   62TCq2    O5  953   4.276   4.497  15.136 -0.7119 -0.2463  0.0839
   62TCq2    O6  954   4.440   4.609  15.242 -0.1752 -0.2837 -0.1968
   62TCq2    H2  955   4.096   4.454  15.276 -0.3692 -0.0633  0.0161
   62TCq2    H3  956   4.362   0.008  15.435  0.5320 -0.0503 -0.8254
   62TCq2    H4  957   4.017   4.628  15.656 -1.1333 -0.2724 -0.6180
   63TMC2    C1  958   4.036   0.035  11.165  0.0209  0.0180  0.4014
   63TMC2    C2  959   4.054   0.062  11.294  0.1087  0.2453 -0.2273
   63TMC2    C3  960   4.171   0.116  11.334 -1.3282 -0.1375 -0.5379
   63TMC2    C4  961   4.127   0.057  11.066  0.6637  0.1603  0.2991
   63TMC2    C5  962   4.236   0.125  11.108  0.4823  0.2827 -0.0664
   63TMC2    C6  963   4.259   0.160  11.246 -0.1826 -0.0038 -0.2829
   63TMC2     C  964   3.903   4.707  11.129 -0.2993 -0.3875 -0.3700
   63TMC2     O  965   3.818   4.706  11.216  0.2099 -0.9141  0.0557
   63TMC2     H  966   3.979   0.039  11.369  1.5409 -1.0013  0.8137
   63TMC2    H1  967   4.111   0.036  10.961  1.0728 -1.4135  0.5483
   63TMC2    H2  968   4.347   0.220  11.267 -1.0815  0.1202  3.1375
   63TMC2    C7  969   4.318   0.177  11.002 -0.2155 -0.4064  0.2242
   63TMC2    C8  970   4.183   0.151  11.477 -0.2852 -0.2209  0.8288
   63TMC2    O1  971   4.276   0.182  10.891  0.0343  0.3556  0.0140
   63TMC2    O2  972   4.092   0.131  11.556 -0.1611  0.2969 -0.1726
   63TMC2    O5  973   4.300   0.192  11.517 -0.6888  0.7178  0.0470
   63TMC2    H5  974   4.360   0.229  11.448 -0.9391  1.3755  0.1917
   64MPD2     C  975   3.585   4.412  10.877 -0.0459  0.3200 -0.1301
   64MPD2    C1  976   3.712   4.390  10.819  0.3260  0.1789 -0.0461
   64MPD2    C2  977   3.811   4.480  10.860 -0.0412 -0.0040 -0.1850
   64MPD2    C3  978   3.784   4.585  10.950  0.4804 -0.2210 -0.1121
   64MPD2    C4  979   3.656   4.597  11.004 -0.0125 -0.0559  0.4238
   64MPD2    C5  980   3.562   4.512  10.967  0.4134 -0.2098 -0.8519
   64MPD2     H  981   3.913   4.472  10.823  0.1357 -1.0874  0.5329
   64MPD2    H1  982   3.633   4.676  11.075  0.5500  0.0036  0.5396
   64MPD2    H2  983   3.508   4.337  10.865 -0.2018  0.7176 -1.6149
   64MPD2    H3  984   3.462   4.508  11.011  0.6937 -5.8819 -0.7357
   64MPD2     N  985   3.892   4.664  10.996  0.1594  0.0137 -0.1502
   64MPD2    H5  986   3.973   4.675  10.935 -0.6672 -1.6553 -1.5629
   64MPD2    N1  987   3.749   4.284  10.741  0.7427  0.3370  0.2199
   64MPD2    H7  988   3.848   4.277  10.721  1.2605  0.4950  2.7992
   65MPD2     C  989   0.001   4.191  16.133  0.4019  0.1307 -0.2392
   65MPD2    C1  990   0.033   4.143  16.010 -0.4533  0.4953 -0.2681
   65MPD2    C2  991   0.016   4.007  15.986  0.5766 -0.0881  0.5187
   65MPD2    C3  992   4.697   3.915  16.083 -0.2853  0.7134  0.3739
   65MPD2    C4  993   4.684   3.969  16.209 -0.5391  0.4957  0.3524
   65MPD2    C5  994   4.688   4.107  16.230 -0.7775 -0.1022  0.1893
   65MPD2     H  995   0.029   3.981  15.881  1.5373 -1.7053  1.0226
   65MPD2    H1  996   4.653   3.898  16.285 -0.6061 -0.3738 -0.4834
   65MPD2    H2  997   0.006   4.295  16.162 -1.2149  0.4265 -1.0153
   65MPD2    H3  998   4.659   4.142  16.328  0.2041 -0.2134  0.5223
   65MPD2     N  999   4.677   3.776  16.068 -0.0297  0.4927 -0.0087
   65MPD2    H5 1000   4.655   3.714  16.145  2.9714  1.1029  1.3633
   65MPD2    N1 1001   0.076   4.228  15.907 -0.2502  0.3246 -0.4081
   65MPD2    H7 1002   0.109   4.188  15.820  0.1273 -0.0883 -0.0742
   66TCq2    C1 1003   0.106   4.366  15.910 -0.3557 -0.2127 -0.7598
   66TCq2    O2 1004   0.102   4.441  16.009 -0.0199  0.0179 -0.4628
   66TCq2    C2 1005   0.140   4.424  15.783  0.3785 -0.8856 -0.0643
   66TCq2    C3 1006   0.104   4.355  15.673  0.3076  0.2059  0.2749
   66TCq2    C4 1007   0.110   4.426  15.554 -0.9678  0.4142  0.5711
   66TCq2    C5 1008   0.172   4.553  15.539 -0.1394 -0.2215  1.0890
   66TCq2    C6 1009   0.214   4.608  15.657  0.1765 -0.8846  0.6396
   66TCq2    C7 1010   0.198   4.548  15.780 -0.4799 -0.2576 -0.7937
   66TCq2    C8 1011   0.181   0.023  15.657  0.1685  0.3592 -0.4455
   66TCq2    O4 1012   0.197   0.084  15.556 -0.2972  0.3498 -0.4216
   66TCq2    C9 1013   0.049   4.369  15.429  0.0068  0.3749 -0.3036
   66TCq2    O5 1014   0.048   4.243  15.417 -0.0732  0.3338 -0.9827
   66TCq2    O6 1015   0.026   4.458  15.336 -0.0078  0.1096 -0.5400
   66TCq2    H2 1016   0.020   4.287  15.680  1.2924 -1.0152  0.2785
   66TCq2    H3 1017   0.193   4.595  15.442  1.7640 -2.4602  0.5199
   66TCq2    H4 1018   0.216   4.600  15.874 -0.7002  2.9921 -2.5662
   67MPD2     C 1019   4.282   3.508  14.308  0.0509  0.4290  0.1634
   67MPD2    C1 1020   4.206   3.538  14.419 -0.7657 -0.6651 -0.1796
   67MPD2    C2 1021   4.068   3.546  14.410  0.1140  0.9784 -0.6942
   67MPD2    C3 1022   4.003   3.488  14.305 -0.2140  0.4893  1.0321
   67MPD2    C4 1023   4.079   3.453  14.199  0.0971 -0.8740  0.6012
   67MPD2    C5 1024   4.214   3.469  14.194 -0.1714 -0.2227  0.2655
   67MPD2     H 1025   4.023   3.595  14.496  0.3001 -0.4214  0.2013
   67MPD2    H1 1026   4.035   3.408  14.110  0.0464  0.2278  0.0674
   67MPD2    H2 1027   4.390   3.514  14.298  0.0144 -1.1621 -1.3779
   67MPD2    H3 1028   4.273   3.455  14.104  1.2277  2.0713  0.8312
   67MPD2     N 1029   3.863   3.500  14.285 -0.0317  0.0490 -0.1795
   67MPD2    H5 1030   3.821   3.466  14.199  1.6351 -3.0985  0.2490
   67MPD2    N1 1031   4.274   3.570  14.542 -0.4902 -0.1590 -0.3912
   67MPD2    H7 1032   4.223   3.587  14.628 -1.3406  1.4971 -1.2223
   68TCq2    C1 1033   4.408   3.556  14.575  0.9552 -0.1585  0.5721
   68TCq2    O2 1034   4.496   3.505  14.513 -0.7125 -0.4140 -0.2662
   68TCq2    C2 1035   4.451   3.623  14.700  0.0669  1.3448  0.6580
   68TCq2    C3 1036   4.393   3.736  14.738  0.6879 -0.7535  0.4296
   68TCq2    C4 1037   4.446   3.802  14.837 -0.2261 -0.8866 -0.0860
   68TCq2    C5 1038   4.569   3.767  14.892  0.5455 -0.3056  0.0576
   68TCq2    C6 1039   4.631   3.651  14.851 -0.1280 -0.4009 -0.7654
   68TCq2    C7 1040   4.576   3.582  14.745  0.3576  0.2336 -0.4082
   68TCq2    C8 1041   0.022   3.591  14.911  0.1624 -0.6198 -0.1872
   68TCq2    O4 1042   0.085   3.513  14.839  0.1561  0.2717 -0.1695
   68TCq2    C9 1043   4.380   3.929  14.879 -0.0670  0.0929  0.0725
   68TCq2    O5 1044   4.286   3.968  14.804 -0.3392  0.1124 -0.0878
   68TCq2    O6 1045   4.405   3.983  14.991  0.1271 -0.2028 -0.1997
   68TCq2    H2 1046   4.307   3.778  14.686  1.9873  0.8541 -0.4392
   68TCq2    H3 1047   4.606   3.827  14.974 -0.0748 -1.2665  1.0499
   68TCq2    H4 1048   4.615   3.490  14.703 -3.1430 -1.0669 -0.8054
   69TMC2    C1 1049   1.732   4.513  12.192 -0.6748  0.0505 -0.0710
   69TMC2    C2 1050   1.633   4.604  12.177 -0.0538 -0.5657  0.1859
   69TMC2    C3 1051   1.642   4.684  12.070  0.2548  0.2028 -0.1390
   69TMC2    C4 1052   1.809   4.474  12.091  0.1727 -0.7472  0.6242
   69TMC2    C5 1053   1.814   4.551  11.980 -0.2689  1.1092  0.4783
   69TMC2    C6 1054   1.725   4.656  11.964  0.3578  0.0027 -0.5738
   69TMC2     C 1055   1.790   4.510  12.324  0.4126 -0.0770  0.6512
   69TMC2     O 1056   1.720   4.530  12.423  0.2352 -0.4788  0.1104
   69TMC2     H 1057   1.555   4.618  12.251 -0.8048  1.4704 -0.9989
   69TMC2    H1 1058   1.878   4.391  12.102  3.9277  2.0742 -1.4232
   69TMC2    H2 1059   1.724   4.715  11.874 -0.9780 -1.1300 -1.3095
   69TMC2    C7 1060   1.959   4.586  11.966  1.0038  0.5816 -0.5351
   69TMC2    C8 1061   1.557   0.072  12.038  0.1507  0.3389 -0.5587
   69TMC2    O1 1062   2.010   4.567  12.075  0.4357 -0.0547  0.1846
   69TMC2    O2 1063   1.518   0.091  11.924  0.4119  0.3707 -0.1476
   69TMC2    O5 1064   1.576   0.161  12.137 -0.1683 -0.3169  0.0772
   69TMC2    H5 1065   1.635   0.142  12.213  0.1880 -2.3235 -0.7002
   70MPD2     C 1066   2.150   4.525  12.388  0.2559  0.5997  0.1405
   70MPD2    C1 1067   2.018   4.499  12.424  0.1954  0.6644  0.9025
   70MPD2    C2 1068   1.981   4.470  12.558 -0.1950  0.6103  0.8075
   70MPD2    C3 1069   2.086   4.475  12.653 -0.2617 -0.2576  0.5252
   70MPD2    C4 1070   2.213   4.502  12.618  0.3953  0.3005  0.3336
   70MPD2    C5 1071   2.244   4.530  12.485 -0.1070 -0.4343  0.2864
   70MPD2     H 1072   1.877   4.445  12.579 -1.2197  4.2104  0.1626
   70MPD2    H1 1073   2.291   4.490  12.692 -0.7237 -0.4874  1.3991
   70MPD2    H2 1074   2.182   4.544  12.287 -0.5290 -0.6348 -0.3356
   70MPD2    H3 1075   2.348   4.547  12.458 -1.1883  3.0730 -1.7364
   70MPD2     N 1076   2.065   4.432  12.783 -0.7012  0.3214  0.2290
   70MPD2    H5 1077   2.146   4.434  12.845 -0.1763 -1.0792 -0.4097
   70MPD2    N1 1078   1.925   4.502  12.321  0.0123  0.3145  0.2697
   70MPD2    H7 1079   1.955   4.520  12.225  0.7022 -0.7070  0.2898
   71TMC2    C1 1080   4.116   4.187   1.481 -0.3946  0.2526 -0.1025
   71TMC2    C2 1081   4.217   4.111   1.532 -0.0469  0.8058  0.9672
   71TMC2    C3 1082   4.184   4.020   1.633 -0.2799 -0.3379 -0.2743
   71TMC2    C4 1083   3.989   4.166   1.518  0.0112 -0.0788 -0.5222
   71TMC2    C5 1084   3.962   4.087   1.627 -0.4289 -0.4427 -0.5410
   71TMC2    C6 1085   4.057   4.006   1.685  0.4344 -0.0549  1.0326
   71TMC2     C 1086   4.144   4.273   1.365 -0.1832 -0.1023 -0.5940
   71TMC2     O 1087   4.049   4.299   1.296 -0.1972  0.4083 -0.7917
   71TMC2     H 1088   4.316   4.119   1.491 -0.4084 -0.4800 -0.1696
   71TMC2    H1 1089   3.910   4.206   1.456  1.5096  0.5725 -1.9963
   71TMC2    H2 1090   4.035   3.967   1.783  0.1505 -0.3872  0.8381
   71TMC2    C7 1091   3.822   4.062   1.655  0.1712 -0.1680 -0.2958
   71TMC2    C8 1092   4.288   3.924   1.679 -0.7166 -0.2868 -0.6322
   71TMC2    O1 1093   3.804   4.019   1.767 -0.1843 -0.3343 -0.1660
   71TMC2    O2 1094   4.408   3.914   1.650 -0.3819 -0.1141 -0.0744
   71TMC2    O5 1095   4.235   3.843   1.773 -0.2511  0.4005 -0.4178
   71TMC2    H5 1096   4.137   3.832   1.780 -0.1851  0.2754  0.3173
   72MPD2     C 1097   4.432   4.630   1.121  0.1755  0.5537  0.0991
   72MPD2    C1 1098   4.295   4.603   1.105  0.3971  0.1150 -0.2014
   72MPD2    C2 1099   4.243   4.495   1.175 -0.7072  0.2657  0.4295
   72MPD2    C3 1100   4.319   4.424   1.270  0.1503  0.1637 -0.3985
   72MPD2    C4 1101   4.450   4.455   1.276  0.1488 -0.3221 -0.2301
   72MPD2    C5 1102   4.510   4.561   1.212  0.4695  0.9653  0.8177
   72MPD2     H 1103   4.137   4.479   1.160 -1.0050  2.0811  0.5835
   72MPD2    H1 1104   4.518   4.400   1.340 -0.1240 -0.0791  0.2682
   72MPD2    H2 1105   4.477   4.706   1.059  2.0353  1.2039  2.2514
   72MPD2    H3 1106   4.617   4.576   1.217  0.3347  2.6277 -1.5109
   72MPD2     N 1107   4.270   4.325   1.357 -0.1360  0.5515 -0.4784
   72MPD2    H5 1108   4.336   4.301   1.430  0.3242  1.1555 -0.6868
   72MPD2    N1 1109   4.211   4.679   1.017 -0.4691 -0.6334 -0.4873
   72MPD2    H7 1110   4.125   4.638   0.982 -1.3743  1.7689 -1.0914
   73TMC2    C1 1111   3.869   2.144  14.098 -0.7385  0.1734 -0.0213
   73TMC2    C2 1112   3.796   2.223  14.181  0.7400  0.7225  0.0052
   73TMC2    C3 1113   3.819   2.191  14.315 -0.3342  0.1909  0.8624
   73TMC2    C4 1114   3.954   2.046  14.144  1.2139 -0.0999  0.2957
   73TMC2    C5 1115   3.971   2.033  14.277 -0.1902 -1.0756 -0.4633
   73TMC2    C6 1116   3.909   2.104  14.368  0.3755 -0.1248  0.4419
   73TMC2     C 1117   3.911   2.216  13.980  0.0138  0.2458 -0.5788
   73TMC2     O 1118   4.030   2.191  13.963 -0.2460 -0.3534 -0.7071
   73TMC2     H 1119   3.740   2.309  14.146 -0.9693 -1.7736 -3.3892
   73TMC2    H1 1120   4.019   1.990  14.078  0.7560  0.4505 -0.6328
   73TMC2    H2 1121   3.928   2.103  14.475  2.7824  0.2555  0.0203
   73TMC2    C7 1122   4.119   2.041  14.307 -0.3993  0.0988  0.8997
   73TMC2    C8 1123   3.733   2.248  14.414 -0.3664 -0.5505  0.2232
   73TMC2    O1 1124   4.158   2.009  14.420 -0.0639 -1.0222  0.2048
   73TMC2    O2 1125   3.611   2.251  14.403 -0.1191  0.1573 -0.7238
   73TMC2    O5 1126   3.801   2.357  14.465  0.2148 -0.1120  0.7032
   73TMC2    H5 1127   3.897   2.360  14.445 -0.1616 -0.1654 -1.1355
   74MPD2     C 1128   3.954   2.641  13.691 -0.1536  1.0017  0.1442
   74MPD2    C1 1129   4.046   2.549  13.735 -0.6099  0.8810  0.5348
   74MPD2    C2 1130   4.011   2.438  13.804  0.4285 -0.0452  0.6175
   74MPD2    C3 1131   3.876   2.416  13.837  0.4643  0.7268  0.0152
   74MPD2    C4 1132   3.781   2.512  13.797  0.2788  0.4174 -0.1513
   74MPD2    C5 1133   3.817   2.619  13.717  0.1191 -0.2676 -0.0371
   74MPD2     H 1134   4.085   2.360  13.819  1.6880  1.0937  0.2511
   74MPD2    H1 1135   3.676   2.498  13.821  0.9581 -0.2817  2.4600
   74MPD2    H2 1136   3.983   2.726  13.631  2.7069 -0.4179 -0.4613
   74MPD2    H3 1137   3.740   2.687  13.683 -0.6990  0.3932  3.0637
   74MPD2     N 1138   3.827   2.313  13.925  0.1181 -0.2693 -0.2640
   74MPD2    H5 1139   3.728   2.316  13.945 -0.2957  1.9681 -2.6461
   74MPD2    N1 1140   4.179   2.583  13.711  0.0663 -0.7398 -0.3117
   74MPD2    H7 1141   4.209   2.663  13.656  0.0955 -1.7951 -1.8401
   75TCq2    C1 1142   3.767   3.527  14.382  0.1748  0.3123 -0.1747
   75TCq2    O2 1143   3.768   3.543  14.501 -0.4151 -0.0931  0.1869
   75TCq2    C2 1144   3.649   3.564  14.316 -0.0335  0.5052  0.4261
   75TCq2    C3 1145   3.533   3.480  14.323  0.1067 -0.0300 -0.0732
   75TCq2    C4 1146   3.455   3.464  14.211  0.7561 -0.4119 -0.2092
   75TCq2    C5 1147   3.481   3.538  14.099  0.9962 -0.2887 -0.6410
   75TCq2    C6 1148   3.588   3.623  14.100  0.0187  0.3355  0.5074
   75TCq2    C7 1149   3.672   3.646  14.213  0.0965  0.5358  0.0043
   75TCq2    C8 1150   3.625   3.691  13.976  0.3616  0.1222  0.0897
   75TCq2    O4 1151   3.555   3.682  13.875 -0.1882 -0.2727 -0.2621
   75TCq2    C9 1152   3.339   3.375  14.212 -0.9135 -0.3068 -0.0621
   75TCq2    O5 1153   3.326   3.297  14.312 -0.0484 -0.2703  0.1885
   75TCq2    O6 1154   3.268   3.380  14.107  0.2143  0.2339 -0.5828
   75TCq2    H2 1155   3.531   3.409  14.404 -1.0107  0.2726  0.1674
   75TCq2    H3 1156   3.425   3.522  14.008 -0.3279  0.3097  0.0623
   75TCq2    H4 1157   3.746   3.724  14.228 -1.3783  2.2745 -1.8481
   76MPD2     C 1158   2.868   4.352  12.696  0.0749  0.3046 -0.2473
   76MPD2    C1 1159   2.940   4.418  12.600 -0.5287 -1.1906 -1.0634
   76MPD2    C2 1160   3.077   4.403  12.594  0.5253 -0.0762  0.2674
   76MPD2    C3 1161   3.139   4.323  12.688 -0.9801 -0.6566 -0.5588
   76MPD2    C4 1162   3.068   4.258  12.790  0.1630  0.5132 -0.0345
   76MPD2    C5 1163   2.928   4.274  12.794  0.8628  0.0917  0.4884
   76MPD2     H 1164   3.134   4.468  12.528 -0.1949  1.3527  1.0731
   76MPD2    H1 1165   3.120   4.199  12.864 -1.1978 -0.6854 -0.0478
   76MPD2    H2 1166   2.761   4.352  12.712  0.1378  0.6622  0.1830
   76MPD2    H3 1167   2.878   4.238  12.884  0.2172  0.3425  0.2310
   76MPD2     N 1168   3.275   4.288  12.684 -0.1430  0.1563  0.0204
   76MPD2    H5 1169   3.306   4.233  12.763 -0.6068  0.6760  0.5592
   76MPD2    N1 1170   2.878   4.484  12.495 -0.0018  0.6901  0.8758
   76MPD2    H7 1171   2.940   4.533  12.431 -0.7790 -1.3680 -1.4629
   77TCq2    C1 1172   3.370   4.330  12.601 -0.0574  0.0758 -0.1131
   77TCq2    O2 1173   3.361   4.403  12.507  0.6478 -0.3719 -0.0465
   77TCq2    C2 1174   3.494   4.274  12.648  0.0761 -0.9037  0.5627
   77TCq2    C3 1175   3.603   4.277  12.561 -0.0754  0.0206 -0.0783
   77TCq2    C4 1176   3.723   4.222  12.605  0.1623  0.8250  0.9657
   77TCq2    C5 1177   3.737   4.183  12.737 -0.7593  0.2590 -0.1882
   77TCq2    C6 1178   3.633   4.196  12.822 -0.0957  0.0373  0.4825
   77TCq2    C7 1179   3.508   4.236  12.782  0.7553 -1.2398  0.0710
   77TCq2    C8 1180   3.646   4.155  12.963  0.3377  0.6761 -0.4269
   77TCq2    O4 1181   3.758   4.162  13.012 -0.1863  0.3856 -0.0286
   77TCq2    C9 1182   3.827   4.223  12.512  0.2828  0.0486  0.1935
   77TCq2    O5 1183   3.924   4.156  12.554  0.0368  0.1368  0.0221
   77TCq2    O6 1184   3.806   4.273  12.401  0.4828  0.6093  0.4974
   77TCq2    H2 1185   3.587   4.306  12.458  1.1590  1.5806  0.1748
   77TCq2    H3 1186   3.829   4.134  12.763  0.0535  1.0789 -1.5213
   77TCq2    H4 1187   3.438   4.269  12.858  1.0217  0.2874 -0.3415
   78MPD1     C 1188   2.379   2.805   2.103  0.0386 -0.1758 -0.2412
   78MPD1    C1 1189   2.321   2.689   2.064  0.0975  0.1065  0.1451
   78MPD1    C2 1190   2.186   2.677   2.080  0.5690  0.0580  0.2088
   78MPD1    C3 1191   2.105   2.768   2.139 -1.1328 -0.3314 -0.2096
   78MPD1    C4 1192   2.161   2.891   2.175  0.9670  0.9007  0.6701
   78MPD1    C5 1193   2.294   2.907   2.145  0.0496 -0.0889 -0.3091
   78MPD1     H 1194   2.138   2.594   2.029  0.0514  1.1977 -1.1325
   78MPD1    H1 1195   2.104   2.978   2.208 -1.2110  0.4494 -1.8902
   78MPD1    H2 1196   2.481   2.842   2.095  0.3698 -1.3135 -1.3319
   78MPD1    H3 1197   2.332   3.005   2.173  0.8757 -0.1795 -1.0948
   78MPD1     N 1198   1.968   2.762   2.148 -0.5682  0.5512  0.3034
   78MPD1    H5 1199   1.928   2.847   2.187 -1.6677  0.6814 -1.0985
   78MPD1    N1 1200   2.396   2.585   1.994 -0.4982  0.1567 -0.2540
   78MPD1    H6 1201   2.493   2.581   2.026 -0.7127  0.9271  0.4902
   78MPD1    H7 1202   2.355   2.494   2.014 -0.9500  1.2042  3.7219
   79TCq2    C1 1203   1.885   2.661   2.118 -0.3848 -0.4555 -0.9461
   79TCq2    O2 1204   1.909   2.544   2.104  0.7134  0.2667 -0.1165
   79TCq2    C2 1205   1.747   2.696   2.149 -0.4703  0.2776 -0.3949
   79TCq2    C3 1206   1.659   2.589   2.144  0.0357  0.4492  0.6039
   79TCq2    C4 1207   1.548   2.608   2.221  0.1081  0.1599 -0.2600
   79TCq2    C5 1208   1.514   2.732   2.279 -0.3483 -0.0548  0.2219
   79TCq2    C6 1209   1.598   2.837   2.255  0.2615  0.3131  0.6381
   79TCq2    C7 1210   1.721   2.820   2.202  0.5882 -0.3201  0.2558
   79TCq2    C8 1211   1.545   2.974   2.252 -0.0239  0.1673  0.4570
   79TCq2    O4 1212   1.612   3.063   2.207  0.0581  0.1110  0.0926
   79TCq2    C9 1213   1.466   2.490   2.241  0.4407 -0.1457  0.4575
   79TCq2    O5 1214   1.392   2.482   2.343  0.0928 -0.1396 -0.0614
   79TCq2    O6 1215   1.472   2.405   2.151  0.2781 -0.1509  0.6093
   79TCq2    H2 1216   1.683   2.496   2.093  2.5966  1.2275  0.3963
   79TCq2    H3 1217   1.428   2.738   2.345  0.0316 -1.2351  0.8315
   79TCq2    H4 1218   1.787   2.902   2.177  0.0612 -0.2233 -0.8277
   80MPD2     C 1219   2.466   3.558  12.781 -0.1080 -0.1081 -0.6679
   80MPD2    C1 1220   2.372   3.563  12.676 -0.4425 -0.3756  0.4790
   80MPD2    C2 1221   2.237   3.563  12.716 -0.6613  0.3048 -0.0834
   80MPD2    C3 1222   2.202   3.573  12.853  0.8451 -0.6379  0.1134
   80MPD2    C4 1223   2.301   3.556  12.948  0.0002  0.2841 -0.3175
   80MPD2    C5 1224   2.429   3.546  12.909 -0.8038 -0.2603  0.0398
   80MPD2     H 1225   2.158   3.567  12.642  0.7122  1.1224 -1.5164
   80MPD2    H1 1226   2.288   3.553  13.056  1.0784 -1.0026 -0.2210
   80MPD2    H2 1227   2.572   3.571  12.761 -0.0495  0.6374  0.1104
   80MPD2    H3 1228   2.499   3.532  12.990  0.1331 -0.7919 -0.8593
   80MPD2     N 1229   2.068   3.574  12.899  0.0396 -0.1738  0.1721
   80MPD2    H5 1230   2.055   3.514  12.980 -0.5170  0.4373  0.5285
   80MPD2    N1 1231   2.408   3.564  12.542 -0.1956 -0.6382 -0.2079
   80MPD2    H7 1232   2.331   3.557  12.476 -0.8299  0.6485  0.3834
   81TCq2    C1 1233   2.535   3.581  12.485  0.3973 -0.2135 -0.1433
   81TCq2    O2 1234   2.635   3.626  12.545  0.3834  0.1440 -0.5985
   81TCq2    C2 1235   2.532   3.561  12.340 -0.0418 -0.1125 -0.1603
   81TCq2    C3 1236   2.614   3.646  12.256  0.4823  0.0433  0.0927
   81TCq2    C4 1237   2.581   3.656  12.119  0.7808  0.0623  0.3231
   81TCq2    C5 1238   2.481   3.580  12.069 -0.1211  0.1337 -0.1305
   81TCq2    C6 1239   2.420   3.486  12.143  0.0526  0.9050  0.5514
   81TCq2    C7 1240   2.447   3.475  12.280 -0.3482 -0.0628  0.4291
   81TCq2    C8 1241   2.332   3.386  12.085  0.2822  0.2849 -0.0913
   81TCq2    O4 1242   2.323   3.376  11.962  0.1984  0.2744 -0.5484
   81TCq2    C9 1243   2.656   3.738  12.028  0.0093  0.0068  0.5012
   81TCq2    O5 1244   2.606   3.748  11.914 -0.5393  0.4421 -0.5700
   81TCq2    O6 1245   2.776   3.747  12.063 -0.0252 -0.1673 -0.2211
   81TCq2    H2 1246   2.691   3.709  12.300  0.6898  0.9967 -1.6361
   81TCq2    H3 1247   2.444   3.580  11.967  3.8119 -0.8024 -1.6011
   81TCq2    H4 1248   2.417   3.393  12.345 -1.2442  0.7979  1.1015
   82MPD2     C 1249   1.096   3.680  10.924  0.4458 -0.4489 -0.4754
   82MPD2    C1 1250   1.000   3.658  11.015 -0.1803  0.2044  0.0807
   82MPD2    C2 1251   1.043   3.582  11.120  0.0683  0.1875 -0.2564
   82MPD2    C3 1252   1.174   3.533  11.141 -1.0476  0.1263  0.0060
   82MPD2    C4 1253   1.269   3.569  11.041  0.1603 -0.3124 -0.3691
   82MPD2    C5 1254   1.225   3.640  10.931 -0.1541  0.3542  0.3683
   82MPD2     H 1255   0.966   3.563  11.194  1.4924 -1.7068  0.7070
   82MPD2    H1 1256   1.372   3.536  11.043  0.4050  0.4504 -0.5261
   82MPD2    H2 1257   1.063   3.734  10.835 -0.9027 -0.0834  0.2556
   82MPD2    H3 1258   1.294   3.678  10.856  0.0787  1.1903  0.9976
   82MPD2     N 1259   1.214   3.449  11.253  0.5442  0.6182  0.0199
   82MPD2    H5 1260   1.313   3.424  11.249  0.1413 -0.8304 -0.7661
   82MPD2    N1 1261   0.868   3.693  10.965  0.0402  0.1118  0.1738
   82MPD2    H7 1262   0.863   3.737  10.874 -3.2782 -1.3113 -0.3610
   83TCq2    C1 1263   1.132   3.400  11.354  0.1546 -0.1481  0.2880
   83TCq2    O2 1264   1.033   3.455  11.400  0.1494 -0.2627 -0.6743
   83TCq2    C2 1265   1.155   3.250  11.378  0.5527 -0.1656  0.4805
   83TCq2    C3 1266   1.261   3.192  11.316  0.7260  0.1064 -0.7715
   83TCq2    C4 1267   1.243   3.071  11.255  0.1458  0.2931 -0.2188
   83TCq2    C5 1268   1.120   3.008  11.257 -0.1003  0.4735  0.1369
   83TCq2    C6 1269   1.019   3.067  11.324 -0.4290  0.2114 -0.4831
   83TCq2    C7 1270   1.035   3.182  11.390 -0.6801  0.0558 -0.3997
   83TCq2    C8 1271   0.907   2.986  11.373  0.0233 -0.6134 -0.2847
   83TCq2    O4 1272   0.855   3.027  11.478 -0.1090  0.8730  0.4505
   83TCq2    C9 1273   1.362   3.007  11.200  0.2128 -0.0076 -0.4846
   83TCq2    O5 1274   1.353   2.889  11.158  0.0621 -0.2275  0.6293
   83TCq2    O6 1275   1.477   3.050  11.233  0.4381 -0.8652 -0.4898
   83TCq2    H2 1276   1.362   3.232  11.309  0.1942  1.7121  0.7052
   83TCq2    H3 1277   1.116   2.904  11.226 -0.6449  0.8639 -1.0919
   83TCq2    H4 1278   0.964   3.220  11.463  0.2517  1.3199 -0.1417
   84TCq2    C1 1279   2.256   2.302  10.794 -0.4494 -0.5655  0.3739
   84TCq2    O2 1280   2.145   2.246  10.802 -0.2955  0.8162 -0.2024
   84TCq2    C2 1281   2.305   2.360  10.913 -0.2333  0.6666 -0.5503
   84TCq2    C3 1282   2.423   2.428  10.921  0.2697  0.2260  0.3147
   84TCq2    C4 1283   2.463   2.476  11.042 -0.2799 -0.2411  0.4773
   84TCq2    C5 1284   2.395   2.449  11.154  0.1360  1.2423 -0.2142
   84TCq2    C6 1285   2.274   2.385  11.147 -0.0682 -0.4718  0.8397
   84TCq2    C7 1286   2.221   2.346  11.024  0.1399 -0.4385 -0.2638
   84TCq2    C8 1287   2.193   2.356  11.265 -0.2312 -0.6137 -0.4864
   84TCq2    O4 1288   2.081   2.311  11.251 -0.2249  0.4389  0.3388
   84TCq2    C9 1289   2.584   2.551  11.055 -0.8382  0.4607  0.7902
   84TCq2    O5 1290   2.607   2.613  11.162  0.4808  0.7351 -0.2181
   84TCq2    O6 1291   2.663   2.552  10.955  0.1760  0.2990  1.4667
   84TCq2    H2 1292   2.496   2.438  10.842 -0.5614 -1.9878 -0.7466
   84TCq2    H3 1293   2.433   2.478  11.251  1.9296  0.9094 -0.8137
   84TCq2    H4 1294   2.118   2.313  11.023 -0.5292  1.6701  0.5995
   85MPD2     C 1295   1.847   0.538  16.429  0.3259 -0.3894  0.8160
   85MPD2    C1 1296   1.914   0.462  16.334 -0.5029 -0.1598 -0.8703
   85MPD2    C2 1297   1.972   0.514  16.224  0.0910 -0.3561 -0.0508
   85MPD2    C3 1298   1.963   0.648  16.200 -0.0603 -0.3454  0.5012
   85MPD2    C4 1299   1.889   0.726  16.283 -0.1525 -0.0201 -0.3799
   85MPD2    C5 1300   1.841   0.675  16.400 -0.4599  0.7555  0.9025
   85MPD2     H 1301   2.025   0.457  16.149 -0.0305 -0.8396  0.2266
   85MPD2    H1 1302   1.882   0.833  16.264  1.1253 -0.0619 -1.0782
   85MPD2    H2 1303   1.793   0.503  16.515  1.2550 -0.5370  1.3331
   85MPD2    H3 1304   1.788   0.739  16.470  1.4158  2.0079  1.1863
   85MPD2     N 1305   2.026   0.697  16.084  1.0651  0.1871  0.6016
   85MPD2    H5 1306   2.080   0.633  16.027  1.1933 -2.6983  3.9933
   85MPD2    N1 1307   1.898   0.317  16.344 -0.0190  0.8770 -0.5924
   85MPD2    H7 1308   1.932   0.261  16.266  0.2740 -0.5565  0.5605
   86TCq2    C1 1309   2.009   0.818  16.026  0.2795  1.0818  0.3102
   86TCq2    O2 1310   1.921   0.897  16.044 -0.2591  0.2685 -0.1523
   86TCq2    C2 1311   2.101   0.844  15.912 -0.1190 -0.0367 -0.7632
   86TCq2    C3 1312   2.078   0.950  15.834 -0.3665  0.0991 -0.1617
   86TCq2    C4 1313   2.160   0.990  15.730 -0.0992 -0.3278  0.3682
   86TCq2    C5 1314   2.277   0.918  15.706 -0.0456 -0.0817  0.2821
   86TCq2    C6 1315   2.295   0.808  15.789 -0.0622  0.1992 -1.2638
   86TCq2    C7 1316   2.211   0.766  15.892 -0.0121 -0.4073 -0.6051
   86TCq2    C8 1317   2.391   0.715  15.751 -0.5221 -0.3971 -0.4033
   86TCq2    O4 1318   2.444   0.645  15.835 -0.1992 -0.0510 -0.3338
   86TCq2    C9 1319   2.132   1.111  15.657 -0.8710  0.1924 -0.3502
   86TCq2    O5 1320   2.038   1.181  15.708 -0.3710  0.0899  0.4169
   86TCq2    O6 1321   2.200   1.134  15.554 -0.6211  0.0038 -0.4971
   86TCq2    H2 1322   1.983   0.999  15.856 -0.1891  0.1762  0.4395
   86TCq2    H3 1323   2.347   0.954  15.631 -0.4971 -1.0941 -0.6337
   86TCq2    H4 1324   2.245   0.679  15.948 -1.9449 -1.6688 -1.4213
   87MPD2     C 1325   4.684   3.325   1.579 -0.0703  0.3411  0.5196
   87MPD2    C1 1326   0.024   3.437   1.531  0.8622  0.2626  0.1663
   87MPD2    C2 1327   4.679   3.535   1.468  0.3353  0.1706 -0.7478
   87MPD2    C3 1328   4.540   3.521   1.431  0.2980 -0.1617 -0.2288
   87MPD2    C4 1329   4.482   3.406   1.480  0.6067 -0.3628  0.2290
   87MPD2    C5 1330   4.546   3.318   1.556  0.8449  0.1504  0.1445
   87MPD2     H 1331   0.010   3.625   1.445 -0.7091  0.9578 -0.1628
   87MPD2    H1 1332   4.377   3.379   1.476  0.1844  1.0010  2.1555
   87MPD2    H2 1333   0.006   3.247   1.639 -2.3863  1.1565  3.3729
   87MPD2    H3 1334   4.487   3.243   1.608  1.2047 -1.2434 -1.4258
   87MPD2     N 1335   4.466   3.624   1.368 -0.1874  0.6067 -0.9237
   87MPD2    H5 1336   4.369   3.610   1.340  0.3241 -1.3887 -1.6596
   87MPD2    N1 1337   0.159   3.464   1.555  0.3789  0.7388 -0.6718
   87MPD2    H7 1338   0.199   3.539   1.500  0.2773  1.2179 -0.0929
   88TCq2    C1 1339   0.239   3.387   1.641  0.4481  0.1683  0.2033
   88TCq2    O2 1340   0.206   3.303   1.722  0.2076 -0.4478  0.4220
   88TCq2    C2 1341   0.379   3.408   1.617  0.2546 -0.4209 -0.0770
   88TCq2    C3 1342   0.463   3.361   1.718  0.1731 -0.2810 -0.5040
   88TCq2    C4 1343   0.596   3.385   1.707 -0.5133 -0.4270  0.0381
   88TCq2    C5 1344   0.647   3.435   1.590  0.4706  0.8261  0.7430
   88TCq2    C6 1345   0.565   3.460   1.485 -0.5529  0.2383 -0.4864
   88TCq2    C7 1346   0.427   3.464   1.502  0.1111 -0.7344  0.4569
   88TCq2    C8 1347   0.619   3.530   1.371 -0.0219 -0.3233  0.1016
   88TCq2    O4 1348   0.741   3.522   1.362  0.2988  0.2578  0.0874
   88TCq2    C9 1349   0.686   3.365   1.824 -0.4641  0.2113 -1.0721
   88TCq2    O5 1350   0.632   3.350   1.935  0.3358  0.2725  0.2978
   88TCq2    O6 1351   0.812   3.387   1.807 -0.0876 -0.0940  0.0134
   88TCq2    H2 1352   0.410   3.335   1.810 -1.5117  0.9740 -1.1153
   88TCq2    H3 1353   0.755   3.440   1.583  0.4855  0.1264  0.3952
   88TCq2    H4 1354   0.363   3.497   1.422  1.5841  0.3794 -0.2661
   89MPD2     C 1355   0.446   0.490   1.728 -0.5031  0.1983 -0.9743
   89MPD2    C1 1356   0.345   0.582   1.714 -0.8519 -0.0600  0.1013
   89MPD2    C2 1357   0.382   0.699   1.648 -0.4111 -0.2711  0.0597
   89MPD2    C3 1358   0.512   0.731   1.603  0.4057  0.4652 -0.5874
   89MPD2    C4 1359   0.604   0.636   1.617  0.1192  0.1176  0.0654
   89MPD2    C5 1360   0.572   0.516   1.681 -0.1538  0.0019 -0.3970
   89MPD2     H 1361   0.305   0.775   1.642 -0.0953  0.0396 -0.0887
   89MPD2    H1 1362   0.710   0.647   1.598  0.2266  1.9420  1.7719
   89MPD2    H2 1363   0.419   0.394   1.772  0.1054  0.3516 -0.2587
   89MPD2    H3 1364   0.652   0.450   1.712  0.8995  0.8577 -1.2511
   89MPD2     N 1365   0.530   0.854   1.538  0.1058 -0.6473 -0.4052
   89MPD2    H5 1366   0.447   0.913   1.530  1.5807  1.3493 -1.0684
   89MPD2    N1 1367   0.209   0.553   1.750  0.0811 -0.2580  0.2045
   89MPD2    H7 1368   0.145   0.630   1.735  1.1793  0.2443 -1.9396
   90TCq2    C1 1369   0.642   0.892   1.469  0.1213 -0.3274 -0.4618
   90TCq2    O2 1370   0.741   0.823   1.445 -0.4916  0.4148 -0.0120
   90TCq2    C2 1371   0.628   1.024   1.408  0.0969 -0.1049  1.2125
   90TCq2    C3 1372   0.556   1.124   1.474 -0.4572  0.3569  0.0976
   90TCq2    C4 1373   0.534   1.249   1.418 -0.4638 -0.0949  0.5254
   90TCq2    C5 1374   0.587   1.275   1.296 -0.2491  0.2919 -0.2010
   90TCq2    C6 1375   0.668   1.181   1.241  0.8689  0.0902 -0.5682
   90TCq2    C7 1376   0.701   1.064   1.301 -0.1976 -0.0747 -0.0777
   90TCq2    C8 1377   0.737   1.223   1.119 -0.2259 -0.1855 -0.3739
   90TCq2    O4 1378   0.838   1.157   1.097  0.0081  0.8935 -0.1435
   90TCq2    C9 1379   0.438   1.327   1.483  0.8280 -0.3135  0.3769
   90TCq2    O5 1380   0.394   1.433   1.427 -0.1826  0.4328  0.1325
   90TCq2    O6 1381   0.378   1.270   1.571 -0.5590  0.0867 -0.1889
   90TCq2    H2 1382   0.517   1.095   1.571 -2.3135  1.1074 -0.4220
   90TCq2    H3 1383   0.578   1.375   1.254 -1.7549  0.5598  0.7509
   90TCq2    H4 1384   0.754   0.992   1.239  1.9220 -0.4669  2.1812
   91TMC2    C1 1385   2.063   1.388  16.609 -0.2269  0.2474 -0.2859
   91TMC2    C2 1386   2.085   1.469  16.499  0.2221 -0.2144 -0.1346
   91TMC2    C3 1387   1.980   1.507  16.433  0.0623 -0.0009  0.8961
   91TMC2    C4 1388   1.932   1.364  16.649 -1.4841 -0.0082 -0.0249
   91TMC2    C5 1389   1.825   1.410  16.573 -0.0811  0.0029 -0.4838
   91TMC2    C6 1390   1.849   1.487  16.463 -0.1514  0.4061 -0.8614
   91TMC2     C 1391   2.169   1.301  16.662 -0.5840 -0.5298  0.6752
   91TMC2     O 1392   2.149   1.213  16.744 -0.3888  0.1240 -0.3325
   91TMC2     H 1393   2.181   1.488  16.452  0.7062 -0.0447  0.9059
   91TMC2    H1 1394   1.920   1.292  16.729 -1.7060 -1.4849 -1.3926
   91TMC2    H2 1395   1.771   1.527  16.398 -2.0872  0.2133  1.3554
   91TMC2    C7 1396   1.697   1.342  16.595  0.4235 -0.0578  0.1579
   91TMC2    C8 1397   2.011   1.589  16.317  0.0548  0.2124  1.0702
   91TMC2    O1 1398   1.674   1.286  16.703 -0.0062  0.1924  0.8590
   91TMC2    O2 1399   1.932   1.680  16.293 -0.0367 -0.0469  0.4552
   91TMC2    O5 1400   2.065   1.514  16.213 -0.3937 -0.2136  0.1030
   91TMC2    H5 1401   2.090   1.424  16.243  3.1724 -0.3832 -3.4231
   92MPD2     C 1402   2.414   1.161  16.709  0.1891  0.3996 -0.2585
   92MPD2    C1 1403   2.411   1.301  16.679  0.0608 -0.3745 -0.6161
   92MPD2    C2 1404   2.524   1.379  16.671  0.3510 -0.2164  0.2740
   92MPD2    C3 1405   2.649   1.321  16.692  0.0571 -0.6531  0.5315
   92MPD2    C4 1406   2.655   1.189  16.717 -0.2990 -0.0312  0.2855
   92MPD2    C5 1407   2.540   1.111  16.715 -0.3128  0.3144  0.6758
   92MPD2     H 1408   2.529   1.484  16.644  0.6485 -0.7072 -1.5737
   92MPD2    H1 1409   2.750   1.138  16.725 -0.0422  0.2463 -0.9978
   92MPD2    H2 1410   2.330   1.094  16.699  0.9240 -0.7767  1.3831
   92MPD2    H3 1411   2.554   1.003  16.712  0.0400  0.4500 -2.3193
   92MPD2     N 1412   2.765   1.406  16.688 -0.1528  0.5201  0.2116
   92MPD2    H5 1413   2.745   1.499  16.653  1.4547  0.8956  0.3136
   92MPD2    N1 1414   2.289   1.360  16.641  0.0147 -0.1551 -0.0369
   92MPD2    H7 1415   2.291   1.459  16.619 -1.3109 -0.2203 -0.4605
   93MPD2     C 1416   3.216   1.662  14.215  0.4738 -0.6397  0.3842
   93MPD2    C1 1417   3.258   1.682  14.085 -0.3680 -0.8552 -0.4486
   93MPD2    C2 1418   3.171   1.716  13.992 -0.4937 -0.4624 -0.4167
   93MPD2    C3 1419   3.033   1.723  14.010  0.2620 -0.7367  0.6014
   93MPD2    C4 1420   2.988   1.689  14.132 -0.3245  0.4750  0.7301
   93MPD2    C5 1421   3.082   1.664  14.231  0.1114  0.1548 -0.3959
   93MPD2     H 1422   3.214   1.720  13.893 -1.3036  2.3229 -0.6595
   93MPD2    H1 1423   2.885   1.668  14.158 -0.0868  0.0142  1.2739
   93MPD2    H2 1424   3.289   1.623  14.284  1.1706  3.3164  1.8770
   93MPD2    H3 1425   3.043   1.636  14.328  3.2952 -0.3328  0.7432
   93MPD2     N 1426   2.948   1.746  13.902 -0.2203  0.1721  0.6392
   93MPD2    H5 1427   2.848   1.743  13.922 -0.4109  0.4866 -0.3040
   93MPD2    N1 1428   3.398   1.654  14.059 -0.6992 -0.3110  0.0248
   93MPD2    H7 1429   3.426   1.678  13.964 -0.1935 -0.5069  0.1240
   94TCq2    C1 1430   3.505   1.614  14.144 -0.0250 -0.7164  0.4110
   94TCq2    O2 1431   3.523   1.611  14.267  0.0567 -0.1604 -0.8614
   94TCq2    C2 1432   3.615   1.584  14.064  0.4217 -0.4195 -0.0427
   94TCq2    C3 1433   3.591   1.526  13.941 -0.8471  0.5893  1.2043
   94TCq2    C4 1434   3.692   1.535  13.847  0.8708  0.6426 -0.8181
   94TCq2    C5 1435   3.812   1.577  13.876 -0.0076 -0.0564 -0.3212
   94TCq2    C6 1436   3.838   1.617  14.000 -0.3336 -0.2373 -0.3654
   94TCq2    C7 1437   3.740   1.620  14.099  0.0148 -0.1464 -0.0118
   94TCq2    C8 1438   3.973   1.661  14.032 -0.7351  0.2612  0.4533
   94TCq2    O4 1439   4.053   1.671  13.936 -0.2595  0.4115  0.0861
   94TCq2    C9 1440   3.667   1.471  13.717 -0.2332  0.3552  0.1859
   94TCq2    O5 1441   3.766   1.477  13.640  0.7243  0.1140  0.4823
   94TCq2    O6 1442   3.563   1.405  13.704  0.1155  0.5410 -0.5754
   94TCq2    H2 1443   3.500   1.475  13.912 -0.5364 -0.2779  1.7563
   94TCq2    H3 1444   3.887   1.561  13.799 -0.5032  1.4958 -1.1208
   94TCq2    H4 1445   3.754   1.672  14.193  2.2788 -0.2179 -0.3004
   95TMC2    C1 1446   3.970   2.893  16.320  0.4407 -0.7745  0.5412
   95TMC2    C2 1447   3.852   2.923  16.379 -0.0464  0.4314 -0.8505
   95TMC2    C3 1448   3.751   2.824  16.377  0.0538  0.0562 -0.0827
   95TMC2    C4 1449   3.977   2.780  16.243  0.5470  0.4559  0.1630
   95TMC2    C5 1450   3.874   2.693  16.227  0.3263  0.4245  0.0269
   95TMC2    C6 1451   3.757   2.714  16.292 -0.5881  1.1378  0.0788
   95TMC2     C 1452   4.047   3.014  16.285  0.6335  0.0929 -0.0966
   95TMC2     O 1453   4.120   3.001  16.188 -0.3465 -0.2234  0.5232
   95TMC2     H 1454   3.839   3.009  16.443  0.9268 -1.1955  1.5175
   95TMC2    H1 1455   4.074   2.761  16.197 -0.1591  2.5653 -2.2055
   95TMC2    H2 1456   3.676   2.644  16.305  0.3562 -0.1288 -0.9012
   95TMC2    C7 1457   3.863   2.634  16.096 -0.2895  0.7697  0.1081
   95TMC2    C8 1458   3.664   2.823  16.494 -0.1420 -0.6001  0.0221
   95TMC2    O1 1459   3.954   2.577  16.048 -0.5146  0.3315  0.3489
   95TMC2    O2 1460   3.608   2.723  16.532  0.2260  0.1258  0.0072
   95TMC2    O5 1461   3.594   2.944  16.492 -1.2911 -0.0150 -0.4682
   95TMC2    H5 1462   3.617   3.013  16.428  2.1767 -1.4035 -0.7252
   96MPD2     C 1463   4.182   3.510  16.329 -0.0351  0.8302  0.5732
   96MPD2    C1 1464   4.225   3.409  16.248  0.3653 -0.0367 -0.1730
   96MPD2    C2 1465   4.176   3.281  16.264 -0.2402  0.8774 -0.4021
   96MPD2    C3 1466   4.084   3.249  16.359 -0.4604  1.1845 -0.6863
   96MPD2    C4 1467   4.040   3.351  16.440 -0.3075  0.1978  0.0470
   96MPD2    C5 1468   4.091   3.477  16.429  0.1467 -0.7774 -0.7235
   96MPD2     H 1469   4.220   3.205  16.201  0.7929  0.7548  0.4627
   96MPD2    H1 1470   3.971   3.334  16.522 -0.4916  0.1951 -0.1078
   96MPD2    H2 1471   4.215   3.613  16.329  3.0596 -0.1501  1.9000
   96MPD2    H3 1472   4.045   3.556  16.488  0.3193 -1.3304  0.1494
   96MPD2     N 1473   4.024   3.117  16.375  0.5814 -1.0009 -0.5402
   96MPD2    H5 1474   3.973   3.104  16.461  0.3408  1.7119 -0.2776
   96MPD2    N1 1475   4.315   3.451  16.147 -0.2042  0.6326  0.3309
   96MPD2    H7 1476   4.335   3.551  16.144  0.2086  0.4282 -4.0923
   97MPD2     C 1477   1.627   0.504   0.806  0.9191  0.0815  0.5805
   97MPD2    C1 1478   1.514   0.450   0.754 -0.5679 -0.0349  0.0259
   97MPD2    C2 1479   1.484   0.451   0.615  0.7233 -0.5506  0.0981
   97MPD2    C3 1480   1.578   0.518   0.539  0.3688  0.5810 -0.8072
   97MPD2    C4 1481   1.691   0.575   0.590 -0.5631  0.0476  0.1424
   97MPD2    C5 1482   1.715   0.559   0.723  0.0807 -0.5406  0.2568
   97MPD2     H 1483   1.397   0.399   0.578  0.9354 -1.1767  0.4861
   97MPD2    H1 1484   1.761   0.623   0.522 -2.0053 -0.9082 -2.0126
   97MPD2    H2 1485   1.643   0.508   0.914 -1.7759  2.9178  0.8810
   97MPD2    H3 1486   1.810   0.591   0.763  1.1248 -2.6581 -0.5546
   97MPD2     N 1487   1.558   0.537   0.401 -0.1395  0.5498 -0.3296
   97MPD2    H5 1488   1.602   0.619   0.362  0.6854  0.2782  0.0277
   97MPD2    N1 1489   1.439   0.370   0.841 -0.1362  0.1496 -0.3823
   97MPD2    H7 1490   1.469   0.362   0.938  0.1770 -1.2174 -0.5928
   98TCq2    C1 1491   1.463   0.476   0.324 -0.1983  0.0538  0.4234
   98TCq2    O2 1492   1.407   0.372   0.341  0.5831  0.0314 -0.2641
   98TCq2    C2 1493   1.438   0.521   0.186 -0.2007 -0.2141 -0.1229
   98TCq2    C3 1494   1.365   0.441   0.102  0.0732  0.3065  0.1590
   98TCq2    C4 1495   1.307   0.498  17.690 -0.6573 -0.4919 -0.0424
   98TCq2    C5 1496   1.342   0.624  17.651  0.4748  0.2352 -0.0100
   98TCq2    C6 1497   1.427   0.698   0.029 -0.0788  0.6174 -0.0543
   98TCq2    C7 1498   1.466   0.647   0.154  0.3343  0.9041 -0.8625
   98TCq2    C8 1499   1.432   0.838  17.692 -0.8185  0.3515 -0.0908
   98TCq2    O4 1500   1.362   0.877  17.597 -0.7314 -0.1699  0.0253
   98TCq2    C9 1501   1.229   0.423  17.603 -0.6817  0.0631 -0.0053
   98TCq2    O5 1502   1.247   0.297  17.618  0.1739 -0.6790 -0.0460
   98TCq2    O6 1503   1.164   0.474  17.510  0.2604 -0.3112  0.0840
   98TCq2    H2 1504   1.325   0.345   0.130 -0.5709  0.9975  1.5636
   98TCq2    H3 1505   1.304   0.664  17.557 -1.8763 -1.5273  0.2030
   98TCq2    H4 1506   1.530   0.713   0.211  0.3289  0.0662  0.1136
   99MPD2     C 1507   0.399   2.590   1.806  0.1069  0.2472  0.3513
   99MPD2    C1 1508   0.261   2.613   1.800 -0.1040  0.2786  0.5831
   99MPD2    C2 1509   0.206   2.615   1.669  0.5606  0.0039 -1.1537
   99MPD2    C3 1510   0.280   2.605   1.556  0.2580  0.1868  0.1790
   99MPD2    C4 1511   0.414   2.591   1.567  0.0626 -0.6016 -0.0783
   99MPD2    C5 1512   0.470   2.587   1.691  0.2582 -0.3745  0.5605
   99MPD2     H 1513   0.100   2.640   1.669 -0.1145 -2.8621  0.0342
   99MPD2    H1 1514   0.488   2.574   1.490 -0.5388  1.5814 -1.1365
   99MPD2    H2 1515   0.451   2.570   1.899  1.4471 -0.7647 -0.6200
   99MPD2    H3 1516   0.573   2.554   1.706  0.3176 -0.7575 -0.6756
   99MPD2     N 1517   0.218   2.611   1.429 -0.2050  0.3087 -0.1528
   99MPD2    H5 1518   0.120   2.634   1.427 -0.7664 -2.2156 -1.4110
   99MPD2    N1 1519   0.178   2.647   1.911 -0.2877  0.0958  0.0262
   99MPD2    H7 1520   0.078   2.640   1.897 -0.0151 -2.5726 -0.6023
  100TCq2    C1 1521   0.221   2.681   2.034 -0.3607  0.2006 -0.5741
  100TCq2    O2 1522   0.337   2.694   2.067  0.1379 -0.1847 -0.5180
  100TCq2    C2 1523   0.123   2.736   2.123 -0.4046 -0.8234  0.0999
  100TCq2    C3 1524   0.169   2.766   2.247 -0.9015 -0.4932  0.1200
  100TCq2    C4 1525   0.080   2.785   2.351  0.7669  0.1386 -0.1256
  100TCq2    C5 1526   4.667   2.759   2.333  0.6974  0.0708 -0.9194
  100TCq2    C6 1527   4.623   2.725   2.205  0.6745  0.6193 -0.3956
  100TCq2    C7 1528   4.715   2.712   2.101 -0.1374 -0.1089  0.0361
  100TCq2    C8 1529   4.476   2.711   2.197 -0.0199  0.1697  0.2375
  100TCq2    O4 1530   4.418   2.777   2.279  0.3939  0.1375 -0.1976
  100TCq2    C9 1531   0.123   2.823   2.476 -0.2153  0.3614 -0.4785
  100TCq2    O5 1532   0.244   2.861   2.490  0.4448  0.3231  0.1631
  100TCq2    O6 1533   0.031   2.870   2.546  0.3647 -0.0306 -0.1988
  100TCq2    H2 1534   0.272   2.798   2.262 -1.6893  0.9202  2.5254
  100TCq2    H3 1535   4.600   2.774   2.417 -0.9882  2.5625 -2.6904
  100TCq2    H4 1536   4.688   2.664   2.008  1.2607 -1.0879  0.1383
  101MPD2     C 1537   0.354   4.424  13.299 -0.3623  0.1059  0.0285
  101MPD2    C1 1538   0.456   4.344  13.278 -0.0677 -0.2354 -0.2218
  101MPD2    C2 1539   0.453   4.216  13.329 -0.1525  0.4005 -0.6205
  101MPD2    C3 1540   0.360   4.179  13.413  0.2296 -0.9479 -0.0775
  101MPD2    C4 1541   0.254   4.260  13.446 -0.0645 -0.1236  0.3265
  101MPD2    C5 1542   0.255   4.384  13.388 -0.5731 -0.3066  0.1220
  101MPD2     H 1543   0.536   4.151  13.302  1.3861  1.3531  1.9112
  101MPD2    H1 1544   0.177   4.244  13.521 -0.4723  0.6536  0.0786
  101MPD2    H2 1545   0.346   4.511  13.236  0.8042 -1.0769 -1.7714
  101MPD2    H3 1546   0.176   4.453  13.417 -1.2277 -0.0125 -2.3878
  101MPD2     N 1547   0.357   4.048  13.469 -0.1002  0.0450 -0.3236
  101MPD2    H5 1548   0.397   3.965  13.425  1.0046  0.3695  0.0623
  101MPD2    N1 1549   0.551   4.381  13.177  0.1150 -0.4830  0.1810
  101MPD2    H7 1550   0.541   4.475  13.140 -1.4726 -1.0056 -0.7324
  102TCq2    C1 1551   1.098   4.427  12.916 -0.4072 -0.7202 -0.0086
  102TCq2    O2 1552   1.173   4.361  12.985  0.0535  0.0443 -0.6750
  102TCq2    C2 1553   0.958   4.463  12.955  0.2054 -0.4444 -0.3693
  102TCq2    C3 1554   0.893   4.574  12.901 -0.1405 -0.4188 -0.1644
  102TCq2    C4 1555   0.762   4.590  12.914 -0.1234  0.1988  0.1332
  102TCq2    C5 1556   0.681   4.505  12.990  0.6640 -0.0530 -0.4479
  102TCq2    C6 1557   0.742   4.392  13.044 -0.0401 -0.3324  0.3604
  102TCq2    C7 1558   0.879   4.368  13.023 -0.2293  0.4049  0.0785
  102TCq2    C8 1559   0.668   4.318  13.145  0.3747 -0.2842  0.1448
  102TCq2    O4 1560   0.732   4.239  13.210  0.8970  0.3715  0.6422
  102TCq2    C9 1561   0.692   4.693  12.845 -0.9010  0.0620  0.4509
  102TCq2    O5 1562   0.757   0.046  12.775 -0.3659  0.2759 -0.1640
  102TCq2    O6 1563   0.566   4.696  12.849 -0.6326  0.8744  0.7529
  102TCq2    H2 1564   0.952   4.656  12.862  0.6896 -1.2675 -0.6991
  102TCq2    H3 1565   0.577   4.531  13.007  0.5322  0.8312 -2.5765
  102TCq2    H4 1566   0.927   4.278  13.059  0.6664  1.9950  2.8152
  103TMC2    C1 1567   3.748   4.166  13.699 -0.7930 -0.0950 -0.4135
  103TMC2    C2 1568   3.843   4.249  13.655  0.0273  0.2330  1.2895
  103TMC2    C3 1569   3.949   4.275  13.737  0.3912  0.3567 -0.3117
  103TMC2    C4 1570   3.748   4.118  13.828 -0.8780  0.1722 -0.0998
  103TMC2    C5 1571   3.859   4.142  13.908  0.4147 -0.4213 -0.0141
  103TMC2    C6 1572   3.964   4.216  13.861  0.5766  0.7490 -0.1635
  103TMC2     C 1573   3.644   4.109  13.616 -0.2090 -0.3085  0.0134
  103TMC2     O 1574   3.557   4.045  13.676 -1.0656 -0.3083  0.4695
  103TMC2     H 1575   3.829   4.295  13.558 -1.5056  0.6259  1.7044
  103TMC2    H1 1576   3.673   4.056  13.875 -0.9333 -0.7550 -1.4088
  103TMC2    H2 1577   4.047   4.228  13.929  0.6513  1.0993 -0.3151
  103TMC2    C7 1578   3.851   4.108  14.046  0.0635  0.1309  0.4307
  103TMC2    C8 1579   4.069   4.302  13.653 -0.0896  0.3776 -0.6211
  103TMC2    O1 1580   3.743   4.110  14.097  0.0467 -0.2103 -0.7258
  103TMC2    O2 1581   4.070   4.248  13.543  0.4130 -0.4046  0.1302
  103TMC2    O5 1582   4.176   4.304  13.730  0.7021 -0.3057 -0.4142
  103TMC2    H5 1583   4.166   4.353  13.814  3.6861 -1.3027  0.5352
  104MPD2     C 1584   3.437   4.056  13.412  0.4894 -1.1504 -0.3874
  104MPD2    C1 1585   3.560   4.094  13.383  0.5174 -0.3248  0.0001
  104MPD2    C2 1586   3.603   4.116  13.249 -0.2255 -0.1783  0.3727
  104MPD2    C3 1587   3.510   4.080  13.148  0.6407 -0.5634  0.8966
  104MPD2    C4 1588   3.383   4.039  13.186 -0.0970  0.7233  0.2462
  104MPD2    C5 1589   3.344   4.021  13.315  0.7146 -0.2929 -0.3431
  104MPD2     H 1590   3.698   4.165  13.235 -0.9206  1.1103  0.1947
  104MPD2    H1 1591   3.315   4.006  13.109 -1.0291  1.7595  0.6146
  104MPD2    H2 1592   3.402   4.044  13.514 -0.0367 -1.7922 -0.6387
  104MPD2    H3 1593   3.244   3.990  13.343  0.9130 -1.5108 -0.9760
  104MPD2     N 1594   3.529   4.108  13.014 -0.1181 -0.4499 -0.0715
  104MPD2    H5 1595   3.458   4.075  12.950 -0.9949  1.7976 -0.2708
  104MPD2    N1 1596   3.660   4.123  13.480 -0.1970 -1.0067  1.1073
  104MPD2    H7 1597   3.753   4.143  13.444 -0.9804 -0.8088 -0.8036
  105MPD2     C 1598   1.126   3.336  17.698  0.0171  0.6375  0.2130
  105MPD2    C1 1599   1.071   3.464   0.011 -0.4199 -0.7848  0.6213
  105MPD2    C2 1600   1.075   3.528   0.137  0.1027 -0.6020 -0.1266
  105MPD2    C3 1601   1.126   3.462   0.247  0.2603  0.1304 -1.2177
  105MPD2    C4 1602   1.184   3.343   0.224  0.8339  0.0887  0.9138
  105MPD2    C5 1603   1.194   3.282   0.099 -0.3405 -0.3042  0.0561
  105MPD2     H 1604   1.035   3.628   0.147 -3.3649 -1.8438 -1.1864
  105MPD2    H1 1605   1.236   3.293   0.305  0.4983  0.3094  1.2672
  105MPD2    H2 1606   1.119   3.272  17.611 -2.4668 -1.1410  1.7341
  105MPD2    H3 1607   1.237   3.184   0.084  1.3818  0.6791 -1.3566
  105MPD2     N 1608   1.117   3.531   0.368  0.4982  0.4389  0.1078
  105MPD2    H5 1609   1.084   3.627   0.364  1.7796  0.9515  1.8159
  105MPD2    N1 1610   0.992   3.528  17.614  0.0557 -0.3874  0.3913
  105MPD2    H7 1611   0.946   3.611  17.651  2.9848  0.6107  1.7510
  106TCq2    C1 1612   1.150   3.477   0.496 -0.7690 -0.5340 -0.0217
  106TCq2    O2 1613   1.182   3.366   0.529 -0.2299 -0.4250 -0.1864
  106TCq2    C2 1614   1.147   3.568   0.610 -0.1648 -0.7958 -0.4929
  106TCq2    C3 1615   1.231   3.541   0.707 -0.7173  0.1535 -0.4316
  106TCq2    C4 1616   1.206   3.586   0.833  0.1584  0.5119  0.1185
  106TCq2    C5 1617   1.096   3.666   0.864 -0.1736 -0.8543  0.6945
  106TCq2    C6 1618   1.012   3.702   0.760  0.2161  0.0366 -0.2902
  106TCq2    C7 1619   1.039   3.660   0.630  0.4195 -1.0670 -0.4166
  106TCq2    C8 1620   0.880   3.758   0.800  1.2868 -0.0333 -0.1373
  106TCq2    O4 1621   0.805   3.795   0.712 -0.1649  0.0168 -0.1085
  106TCq2    C9 1622   1.287   3.541   0.942 -0.2572  0.8962  0.0895
  106TCq2    O5 1623   1.405   3.510   0.909 -0.7133 -0.8400  0.9875
  106TCq2    O6 1624   1.255   3.572   1.060 -0.5546 -0.0132 -0.3164
  106TCq2    H2 1625   1.317   3.478   0.692 -1.9221 -1.4401 -0.6460
  106TCq2    H3 1626   1.078   3.695   0.966  0.6403  0.1327  0.5603
  106TCq2    H4 1627   0.962   3.670   0.555  0.3583 -2.5080 -0.5500
  107TMC2    C1 1628   1.563   2.516  11.878  0.3352  0.1614 -0.4954
  107TMC2    C2 1629   1.507   2.527  11.754  0.3756  0.2008 -0.1826
  107TMC2    C3 1630   1.562   2.450  11.659  0.1460 -0.1091  0.2416
  107TMC2    C4 1631   1.666   2.426  11.905  0.2782  0.5644 -0.1684
  107TMC2    C5 1632   1.703   2.340  11.806  0.2443 -1.1074 -0.4529
  107TMC2    C6 1633   1.655   2.353  11.679  0.4325 -0.3045  0.2617
  107TMC2     C 1634   1.519   2.607  11.980  0.3598 -0.3302 -0.0574
  107TMC2     O 1635   1.548   2.576  12.094  0.2031 -0.2061  0.2857
  107TMC2     H 1636   1.414   2.580  11.733  0.0861 -0.0196  0.5406
  107TMC2    H1 1637   1.688   2.417  12.011 -2.1674  1.4680  0.4353
  107TMC2    H2 1638   1.686   2.291  11.595  0.1585 -1.9669  1.3692
  107TMC2    C7 1639   1.837   2.294  11.818  0.0083  0.1036 -0.4489
  107TMC2    C8 1640   1.508   2.451  11.528  0.3079 -0.2741  0.1767
  107TMC2    O1 1641   1.888   2.247  11.919 -0.0289 -0.2573  0.2531
  107TMC2    O2 1642   1.515   2.350  11.458 -0.2182 -0.3376  0.2702
  107TMC2    O5 1643   1.515   2.576  11.487  0.1449  0.2051 -0.5923
  107TMC2    H5 1644   1.545   2.628  11.564  1.1108 -0.0156 -0.8261
  108MPD2     C 1645   1.447   2.954  11.929 -0.2442  0.6554  0.2794
  108MPD2    C1 1646   1.437   2.837  11.999  0.0959 -0.3254  0.1912
  108MPD2    C2 1647   1.382   2.832  12.127  0.3515 -0.7824 -0.0138
  108MPD2    C3 1648   1.328   2.947  12.185 -0.4229 -0.2171 -0.4770
  108MPD2    C4 1649   1.342   3.063  12.108 -0.3291 -0.2523  0.2466
  108MPD2    C5 1650   1.406   3.069  11.986  0.0310  1.1513 -0.2130
  108MPD2     H 1651   1.385   2.743  12.189  1.7804  0.0773  1.1186
  108MPD2    H1 1652   1.315   3.161  12.147 -0.2186  0.2549 -0.9572
  108MPD2    H2 1653   1.482   2.963  11.827 -0.8128  2.2089  0.2156
  108MPD2    H3 1654   1.411   3.167  11.940 -0.8173  0.4983 -1.7205
  108MPD2     N 1655   1.259   2.965  12.309 -0.0512 -0.2437  0.2341
  108MPD2    H5 1656   1.224   3.060  12.322 -1.1380 -0.3181 -1.9816
  108MPD2    N1 1657   1.489   2.727  11.927  0.6536  0.1811  0.4448
  108MPD2    H7 1658   1.507   2.730  11.827 -0.0202 -0.1969  0.3060
  109MPD2     C 1659   2.006   3.732   1.894  0.0131  0.7288 -0.3325
  109MPD2    C1 1660   1.897   3.816   1.877 -0.7612  0.1929  0.5866
  109MPD2    C2 1661   1.900   3.911   1.773 -0.0345  0.0290  0.4968
  109MPD2    C3 1662   2.006   3.915   1.688 -0.2528 -0.4217  0.1364
  109MPD2    C4 1663   2.108   3.828   1.702 -0.3294  0.3134  0.3140
  109MPD2    C5 1664   2.108   3.741   1.803  0.6178  0.3292 -0.1908
  109MPD2     H 1665   1.808   3.961   1.745  0.4054  0.9026  0.6046
  109MPD2    H1 1666   2.192   3.822   1.634 -0.1547  3.0785  0.2796
  109MPD2    H2 1667   2.028   3.669   1.979  1.4036  0.5954 -0.7817
  109MPD2    H3 1668   2.188   3.668   1.806  0.0900 -0.3064 -1.5659
  109MPD2     N 1669   1.989   4.001   1.577 -0.0342 -0.1548  0.5102
  109MPD2    H5 1670   1.906   4.058   1.573  1.3095  1.7114 -0.8387
  109MPD2    N1 1671   1.796   3.798   1.975 -0.3858 -0.3715 -0.5556
  109MPD2    H7 1672   1.803   3.718   2.036 -1.1606  1.0064  1.3269
  110TCq2    C1 1673   2.081   4.019   1.475  0.6902  0.5880  0.5635
  110TCq2    O2 1674   2.188   3.969   1.460  0.7725  0.0312 -0.1519
  110TCq2    C2 1675   2.031   4.113   1.374 -0.1557 -0.2187  0.3747
  110TCq2    C3 1676   2.105   4.110   1.258  0.2836  0.3860  0.5163
  110TCq2    C4 1677   2.067   4.187   1.151  0.4210 -0.3273 -0.0329
  110TCq2    C5 1678   1.949   4.261   1.161 -0.3996  0.0244 -0.2781
  110TCq2    C6 1679   1.881   4.263   1.285  0.2738 -0.1318  0.0708
  110TCq2    C7 1680   1.919   4.195   1.392  0.0982  0.0932 -0.3318
  110TCq2    C8 1681   1.763   4.353   1.287 -0.5278 -0.4924 -0.2918
  110TCq2    O4 1682   1.768   4.449   1.212  0.2673  0.1764 -0.0526
  110TCq2    C9 1683   2.144   4.179   1.023  0.7563 -0.1270  0.5580
  110TCq2    O5 1684   2.110   4.252   0.931 -0.4511  0.3669 -0.0183
  110TCq2    O6 1685   2.241   4.103   1.017 -0.5783  0.3805 -0.4307
  110TCq2    H2 1686   2.197   4.054   1.251 -0.7389 -1.1770 -0.4528
  110TCq2    H3 1687   1.915   4.310   1.071  0.9968  2.7158  0.6567
  110TCq2    H4 1688   1.877   4.197   1.492 -1.3749  1.1424 -0.9565
  111TMC2    C1 1689   1.954   4.367  11.604  0.3323 -0.9719  0.1599
  111TMC2    C2 1690   2.069   4.406  11.543  0.5401 -0.6101  0.7825
  111TMC2    C3 1691   2.184   4.358  11.586  0.0183 -0.0888  0.5410
  111TMC2    C4 1692   1.960   4.296  11.726 -0.6569 -0.4317  0.6200
  111TMC2    C5 1693   2.084   4.271  11.774 -0.4330  0.7539 -0.1694
  111TMC2    C6 1694   2.198   4.295  11.705  0.8680  0.3096 -0.4898
  111TMC2     C 1695   1.837   4.440  11.579 -0.0103  0.1957  0.3637
  111TMC2     O 1696   1.848   4.533  11.502 -0.6875 -0.0764 -0.4079
  111TMC2     H 1697   2.061   4.477  11.461  2.3908 -1.3339 -0.0079
  111TMC2    H1 1698   1.874   4.258  11.780 -0.9525 -1.5340 -0.6457
  111TMC2    H2 1699   2.295   4.260  11.740 -0.8038 -1.8620  1.9463
  111TMC2    C7 1700   2.094   4.205  11.902 -0.2806  0.1297 -0.2170
  111TMC2    C8 1701   2.302   4.415  11.528  0.6561 -0.5004 -0.3224
  111TMC2    O1 1702   1.993   4.144  11.944  0.0461 -0.1008 -0.1394
  111TMC2    O2 1703   2.405   4.442  11.590  0.1258  0.0713  0.3797
  111TMC2    O5 1704   2.288   4.415  11.395 -0.4517  0.3341  0.1687
  111TMC2    H5 1705   2.206   4.369  11.367 -1.5169  2.2649  0.1452
  112MPD2     C 1706   1.371   4.606  11.698  0.2242 -0.4644 -0.1997
  112MPD2    C1 1707   1.466   4.660  11.609  0.3228  0.1736  0.1340
  112MPD2    C2 1708   1.591   4.603  11.615 -0.4001  0.2222  0.2968
  112MPD2    C3 1709   1.621   4.489  11.686  0.1996 -0.5305  0.4506
  112MPD2    C4 1710   1.531   4.452  11.778 -0.0346  0.0534 -0.0747
  112MPD2    C5 1711   1.402   4.512  11.791  0.0070 -0.7166  0.2647
  112MPD2     H 1712   1.654   4.631  11.531 -0.6845  1.5316  0.5230
  112MPD2    H1 1713   1.568   4.377  11.847  0.3183  2.0090  1.8370
  112MPD2    H2 1714   1.266   4.630  11.686  0.5141  1.2889  0.7588
  112MPD2    H3 1715   1.321   4.476  11.854 -0.9967 -0.2864 -0.7815
  112MPD2     N 1716   1.739   4.411  11.670 -0.3281  0.1249  0.2518
  112MPD2    H5 1717   1.739   4.329  11.729 -1.1645  0.1282  0.2449
  112MPD2    N1 1718   1.434   0.029  11.506  0.1420  0.1541  0.1756
  112MPD2    H7 1719   1.496   0.034  11.426 -1.2189 -1.8912 -1.0103
  113MPD2     C 1720   4.082   2.478   1.300  0.4540  0.1224 -0.7766
  113MPD2    C1 1721   3.987   2.581   1.303 -0.1948 -0.2657 -0.6978
  113MPD2    C2 1722   3.891   2.578   1.200 -0.2820 -0.6568  0.4593
  113MPD2    C3 1723   3.873   2.468   1.121 -0.7932 -0.6226  0.4580
  113MPD2    C4 1724   3.964   2.365   1.131 -0.9274  0.5939  0.1076
  113MPD2    C5 1725   4.065   2.369   1.221  0.5514 -0.2897 -0.8059
  113MPD2     H 1726   3.820   2.660   1.199 -0.5061 -0.8549 -0.4517
  113MPD2    H1 1727   3.949   2.268   1.085  0.1001 -0.5279  2.1363
  113MPD2    H2 1728   4.161   2.479   1.375  0.6115 -0.9048 -0.9388
  113MPD2    H3 1729   4.133   2.285   1.226 -1.1844 -1.5548  2.4685
  113MPD2     N 1730   3.749   2.446   1.049  0.6334 -0.3866  0.2988
  113MPD2    H5 1731   3.740   2.354   1.007  0.3739 -0.2029 -0.0549
  113MPD2    N1 1732   3.995   2.689   1.398  0.6377  0.2506  0.2091
  113MPD2    H7 1733   3.919   2.756   1.393  2.3193  2.2261  1.1197
  114TCq2    C1 1734   3.659   2.536   0.997  0.3805  0.5503  0.0569
  114TCq2    O2 1735   3.657   2.651   1.034 -0.5593 -0.1700  0.4463
  114TCq2    C2 1736   3.580   2.491   0.889 -0.3121 -0.0715 -0.0907
  114TCq2    C3 1737   3.531   2.577   0.803 -0.3627 -0.9500 -0.4441
  114TCq2    C4 1738   3.469   2.539   0.686 -0.3656  0.1088  0.2849
  114TCq2    C5 1739   3.437   2.407   0.667  0.3842 -0.4900 -0.1396
  114TCq2    C6 1740   3.470   2.323   0.768 -0.0245  0.2828  1.0427
  114TCq2    C7 1741   3.558   2.361   0.866 -0.2174 -0.1235  0.1759
  114TCq2    C8 1742   3.454   2.181   0.742 -0.0848 -0.1478 -0.3118
  114TCq2    O4 1743   3.471   2.151   0.626  0.4775  0.2901 -0.2977
  114TCq2    C9 1744   3.422   2.627   0.584 -0.4715 -0.4185  0.5491
  114TCq2    O5 1745   3.456   2.749   0.583 -0.2651  0.1353  0.3973
  114TCq2    O6 1746   3.352   2.575   0.494  0.4790  0.2345 -0.3197
  114TCq2    H2 1747   3.520   2.680   0.835 -1.6532 -1.7479  1.7517
  114TCq2    H3 1748   3.368   2.377   0.589  0.3224 -1.9144  0.4603
  114TCq2    H4 1749   3.605   2.280   0.920 -1.2555 -1.3596 -0.7719
  115TMC2    C1 1750   4.499   0.705   0.261 -0.5333  0.5358 -1.1640
  115TMC2    C2 1751   4.547   0.757   0.376 -0.1586  0.6506 -0.0745
  115TMC2    C3 1752   4.535   0.888   0.401 -0.0162  0.9611 -0.5173
  115TMC2    C4 1753   4.427   0.796   0.180 -0.6669 -0.0187 -0.1468
  115TMC2    C5 1754   4.436   0.928   0.196 -0.1049 -0.2529  0.6809
  115TMC2    C6 1755   4.487   0.982   0.308  0.2483 -0.6151 -0.0665
  115TMC2     C 1756   4.487   0.561   0.231  0.4099 -0.6704  1.4039
  115TMC2     O 1757   4.412   0.534   0.134 -0.1871 -0.5175 -0.1114
  115TMC2     H 1758   4.593   0.691   0.449  0.0448  1.2963  0.3821
  115TMC2    H1 1759   4.386   0.754   0.089  0.2427 -1.9039  0.3225
  115TMC2    H2 1760   4.497   1.090   0.313  2.0772 -0.8222  0.6153
  115TMC2    C7 1761   4.381   1.013   0.094 -0.3954 -0.2373 -0.0306
  115TMC2    C8 1762   4.593   0.936   0.519  0.1319 -0.4608 -0.0927
  115TMC2    O1 1763   4.294   0.973   0.023 -0.0212  0.2631  0.4639
  115TMC2    O2 1764   4.656   0.865   0.595  0.1556 -0.1581  0.0467
  115TMC2    O5 1765   4.504   1.039   0.559  0.5401  0.7745  0.3522
  115TMC2    H5 1766   4.521   1.058   0.653  0.6803  2.6324 -0.0547
  116MPD2     C 1767   4.646   0.073   0.240  0.5188  0.2701  0.3790
  116MPD2    C1 1768   4.557   0.134   0.161  0.2513 -0.5816 -0.3548
  116MPD2    C2 1769   4.527   0.269   0.185 -0.0839 -0.0949  0.7222
  116MPD2    C3 1770   4.594   0.338   0.290  0.3761 -0.4577  0.2647
  116MPD2    C4 1771   4.669   0.267   0.377  0.1213  0.5145 -0.0493
  116MPD2    C5 1772   4.698   0.129   0.350 -0.2450  0.4385 -0.8211
  116MPD2     H 1773   4.458   0.323   0.121 -1.6049 -0.9643  1.6430
  116MPD2    H1 1774   4.714   0.312   0.465  0.5371 -0.2941  0.1573
  116MPD2    H2 1775   4.658   4.690   0.231 -0.5879  0.1624  0.1691
  116MPD2    H3 1776   0.028   0.071   0.423  0.1364 -0.4382 -1.7847
  116MPD2     N 1777   4.575   0.482   0.305 -0.1476  0.3984  0.1755
  116MPD2    H5 1778   4.638   0.524   0.372  0.4812  1.3979 -1.0603
  116MPD2    N1 1779   4.499   0.055   0.056  0.1573 -0.4852 -0.5756
  116MPD2    H7 1780   4.530   4.685   0.037 -0.3719 -0.7063 -0.3442
  117TMC2    C1 1781   3.286   2.119  14.340  0.2141 -0.3679  0.3002
  117TMC2    C2 1782   3.380   2.014  14.333  0.1148  0.3548 -0.3349
  117TMC2    C3 1783   3.473   2.006  14.234  0.3366  0.0794  0.7379
  117TMC2    C4 1784   3.298   2.218  14.248  0.9066  0.0067  0.5712
  117TMC2    C5 1785   3.392   2.219  14.151 -0.4162  0.9737  0.0804
  117TMC2    C6 1786   3.481   2.115  14.147  0.3938  0.3819  0.9737
  117TMC2     C 1787   3.172   2.122  14.435  0.2659 -0.2899 -0.4651
  117TMC2     O 1788   3.175   2.026  14.513  0.1166  0.6293  0.0047
  117TMC2     H 1789   3.376   1.936  14.408  0.2326  1.4482  0.8196
  117TMC2    H1 1790   3.236   2.300  14.280  0.1299  0.5140 -2.2368
  117TMC2    H2 1791   3.557   2.118  14.070  1.2271 -0.7431  1.7535
  117TMC2    C7 1792   3.417   2.328  14.068 -0.1267 -0.1068 -0.1683
  117TMC2    C8 1793   3.592   1.934  14.265  0.1317 -0.7197 -0.8935
  117TMC2    O1 1794   3.521   2.323  14.004  0.4355 -0.4427  0.2778
  117TMC2    O2 1795   3.636   1.932  14.379  0.1294  0.2904 -0.0489
  117TMC2    O5 1796   3.663   1.925  14.151  0.4497 -0.2437 -0.3433
  117TMC2    H5 1797   3.619   1.937  14.064 -0.6997  3.2642  0.7408
  118MPD2     C 1798   3.255   2.654  14.065 -0.1402  0.0482 -0.8110
  118MPD2    C1 1799   3.363   2.564  14.072  0.2821  0.2688 -0.9476
  118MPD2    C2 1800   3.493   2.611  14.083 -0.2714  0.5554  0.4080
  118MPD2    C3 1801   3.519   2.750  14.093  0.0650 -0.3018  0.0730
  118MPD2    C4 1802   3.409   2.835  14.081 -0.2062 -0.5873 -0.1990
  118MPD2    C5 1803   3.281   2.786  14.071  0.4278  0.7074 -0.1219
  118MPD2     H 1804   3.572   2.537  14.080  0.3022  1.1857  0.0491
  118MPD2    H1 1805   3.419   2.942  14.092 -0.8948 -0.4361 -1.0828
  118MPD2    H2 1806   3.151   2.626  14.049  0.3636 -0.7914 -2.5857
  118MPD2    H3 1807   3.197   2.854  14.081 -0.9953 -1.0449 -0.0221
  118MPD2     N 1808   3.657   2.799  14.103  1.0563  0.3476 -0.5299
  118MPD2    H5 1809   3.667   2.900  14.096 -1.3234  0.7217  1.2024
  118MPD2    N1 1810   3.325   2.432  14.073 -0.0759  0.4439  0.2692
  118MPD2    H7 1811   3.227   2.410  14.086  0.4758 -2.2009  0.0062
  119MPD2     C 1812   1.452   3.783  14.041  1.4955 -0.6141 -0.3603
  119MPD2    C1 1813   1.342   3.778  14.125 -0.2345 -0.4388  1.1024
  119MPD2    C2 1814   1.223   3.820  14.069  0.8180  0.1065  0.3378
  119MPD2    C3 1815   1.209   3.870  13.939 -0.3330  0.1301 -0.1630
  119MPD2    C4 1816   1.322   3.873  13.858 -0.6280 -0.4219 -0.6729
  119MPD2    C5 1817   1.438   3.828  13.912 -0.3014  0.1126  0.7987
  119MPD2     H 1818   1.132   3.813  14.126  0.4362  2.3152 -0.0338
  119MPD2    H1 1819   1.322   3.898  13.752  0.0936 -0.5884 -0.7102
  119MPD2    H2 1820   1.550   3.744  14.064  1.6788 -0.1584 -0.3651
  119MPD2    H3 1821   1.524   3.822  13.846 -1.0894 -1.4918 -0.0798
  119MPD2     N 1822   1.087   3.891  13.868  0.0207 -0.7512 -0.4841
  119MPD2    H5 1823   1.085   3.908  13.768  0.2411 -0.2613 -0.4028
  119MPD2    N1 1824   1.360   3.721  14.250 -0.2142  0.1337 -0.3987
  119MPD2    H7 1825   1.436   3.654  14.255 -1.7299 -1.3617  2.5396
  120TCq2    C1 1826   0.961   3.897  13.918  0.4135  0.2553 -0.0177
  120TCq2    O2 1827   0.932   3.895  14.038 -0.1742  0.1485 -0.0989
  120TCq2    C2 1828   0.850   3.893  13.815  0.5426 -0.5535  0.1096
  120TCq2    C3 1829   0.879   3.929  13.683  0.4813  0.6601  1.0618
  120TCq2    C4 1830   0.810   3.882  13.578 -0.9835 -0.0705  0.1921
  120TCq2    C5 1831   0.708   3.801  13.602 -0.8574 -0.5811 -0.3992
  120TCq2    C6 1832   0.674   3.756  13.726  0.0157 -0.0270  0.1337
  120TCq2    C7 1833   0.750   3.796  13.837  0.0251 -0.0813  0.3834
  120TCq2    C8 1834   0.584   3.641  13.738  0.9568 -0.6084  0.8105
  120TCq2    O4 1835   0.511   3.613  13.642  0.3116 -0.0488  0.0698
  120TCq2    C9 1836   0.840   3.929  13.442  0.2393 -0.1686  0.3172
  120TCq2    O5 1837   0.961   3.956  13.431 -0.4175  0.3592 -0.1831
  120TCq2    O6 1838   0.774   3.881  13.344 -0.1833 -0.6680 -0.2661
  120TCq2    H2 1839   0.939   4.017  13.661  0.3294  0.6858  0.7553
  120TCq2    H3 1840   0.658   3.751  13.520 -2.8438  0.6391  0.0553
  120TCq2    H4 1841   0.732   3.761  13.938 -1.2814 -2.0766 -0.5483
  121TMC2    C1 1842   2.781   0.730  14.241  0.1293  0.8222 -0.0527
  121TMC2    C2 1843   2.752   0.650  14.350 -0.7960 -0.9528  0.6814
  121TMC2    C3 1844   2.640   0.568  14.344  0.1001 -0.5231 -0.2292
  121TMC2    C4 1845   2.697   0.743  14.135  0.6415  0.3101  0.3085
  121TMC2    C5 1846   2.579   0.673  14.139  0.3238 -0.1895  0.3839
  121TMC2    C6 1847   2.549   0.583  14.240  0.0389 -0.2543  0.2981
  121TMC2     C 1848   2.904   0.806  14.254 -0.0875 -0.1470 -0.3361
  121TMC2     O 1849   2.941   0.828  14.366 -0.0948 -0.0024  0.0819
  121TMC2     H 1850   2.812   0.648  14.440  1.0961 -0.5627 -0.5721
  121TMC2    H1 1851   2.708   0.814  14.054  1.3335 -2.2470 -1.8332
  121TMC2    H2 1852   2.455   0.530  14.235 -0.2649  0.2003  1.2299
  121TMC2    C7 1853   2.501   0.678  14.019 -1.0855 -0.3130  0.4152
  121TMC2    C8 1854   2.587   0.500  14.462  0.1791 -0.0015 -0.3257
  121TMC2    O1 1855   2.545   0.754  13.939  0.4407 -0.1810  0.1944
  121TMC2    O2 1856   2.468   0.499  14.484  0.4463  0.6218 -0.3353
  121TMC2    O5 1857   2.680   0.419  14.513  0.0258 -0.1821 -0.0370
  121TMC2    H5 1858   2.765   0.418  14.464  0.1088 -0.2693  0.1076
  122MPD2     C 1859   3.187   0.889  14.211  0.3476  0.2880  0.0352
  122MPD2    C1 1860   3.091   0.874  14.105 -0.8635  0.4344 -0.1632
  122MPD2    C2 1861   3.134   0.899  13.981 -0.5062  0.8105 -0.1798
  122MPD2    C3 1862   3.264   0.948  13.956  0.4645 -0.6576  0.9032
  122MPD2    C4 1863   3.356   0.944  14.065  0.4230  0.1783  0.3031
  122MPD2    C5 1864   3.316   0.917  14.190 -0.2095 -0.1352 -0.1257
  122MPD2     H 1865   3.072   0.884  13.893 -1.1780  3.4818 -0.1548
  122MPD2    H1 1866   3.456   0.984  14.055 -0.2725  1.8746  0.1000
  122MPD2    H2 1867   3.159   0.869  14.313 -0.7631 -0.0319 -0.3221
  122MPD2    H3 1868   3.384   0.938  14.272 -0.5832  0.6230 -0.0077
  122MPD2     N 1869   3.304   0.991  13.828  0.8820 -0.8922  0.0790
  122MPD2    H5 1870   3.404   1.005  13.817  0.5286  2.8864  1.6555
  122MPD2    N1 1871   2.965   0.827  14.128  0.6325  0.6433 -0.4203
  122MPD2    H7 1872   2.911   0.799  14.047 -0.9638 -0.8444  1.1834
  123MPD2     C 1873   0.951   3.729   9.803  0.3785  0.0723 -0.1691
  123MPD2    C1 1874   0.990   3.596   9.793 -0.2586  0.4249 -0.1806
  123MPD2    C2 1875   0.890   3.507   9.757  0.2349  0.7167  0.1059
  123MPD2    C3 1876   0.763   3.548   9.718 -0.0836  0.0530  0.2934
  123MPD2    C4 1877   0.727   3.678   9.733  0.4368  1.4205 -0.4492
  123MPD2    C5 1878   0.818   3.762   9.784  0.0642  0.1518 -0.1689
  123MPD2     H 1879   0.914   3.401   9.748 -0.7209  0.4627  0.5656
  123MPD2    H1 1880   0.632   3.722   9.708 -0.4215 -0.4000 -0.4012
  123MPD2    H2 1881   1.026   3.798   9.840  2.3496 -0.6470 -2.8178
  123MPD2    H3 1882   0.785   3.865   9.795  1.5736  0.6727 -0.4928
  123MPD2     N 1883   0.667   3.444   9.675  0.1308 -0.6383 -0.4060
  123MPD2    H5 1884   0.703   3.349   9.669  2.2883  0.1768 -0.5216
  123MPD2    N1 1885   1.130   3.567   9.815 -0.4873  0.8670  0.1732
  123MPD2    H7 1886   1.199   3.638   9.799  1.2423 -0.6980  0.6800
  124TCq2    C1 1887   0.542   3.469   9.627 -0.0103 -0.1326  0.5076
  124TCq2    O2 1888   0.475   3.576   9.622 -0.4179 -0.3663  0.1453
  124TCq2    C2 1889   0.478   3.356   9.559  0.2230  0.3687  0.1895
  124TCq2    C3 1890   0.373   3.387   9.479  0.4904  0.0475  0.1590
  124TCq2    C4 1891   0.312   3.293   9.401  0.2127  0.0299 -0.7797
  124TCq2    C5 1892   0.362   3.168   9.391  0.1097  0.5383 -0.3563
  124TCq2    C6 1893   0.471   3.135   9.466  0.1130 -0.3819 -0.4656
  124TCq2    C7 1894   0.530   3.231   9.546 -0.2451  0.6815 -0.1895
  124TCq2    C8 1895   0.454   3.011   9.531  0.4608  0.1662  0.0473
  124TCq2    O4 1896   0.546   2.940   9.572 -0.0646 -0.0821 -0.1777
  124TCq2    C9 1897   0.196   3.331   9.320 -0.1086 -0.1236  0.4252
  124TCq2    O5 1898   0.106   3.247   9.290  0.5009  0.1441  0.1447
  124TCq2    O6 1899   0.177   3.456   9.313  0.6093  0.3502  0.4554
  124TCq2    H2 1900   0.343   3.490   9.463  0.8738 -0.2856 -2.7339
  124TCq2    H3 1901   0.310   3.097   9.328 -0.0057 -0.4503  0.8362
  124TCq2    H4 1902   0.610   3.195   9.610  0.9064  1.2027 -1.3340
  125TMC2    C1 1903   3.918   4.454   9.102 -0.6795 -0.8162  1.0163
  125TMC2    C2 1904   3.787   4.414   9.095  0.1376 -0.0060  0.1213
  125TMC2    C3 1905   3.704   4.469   9.188 -0.0878  0.3936  0.2914
  125TMC2    C4 1906   3.958   4.565   9.179 -0.0779  0.0682 -1.0761
  125TMC2    C5 1907   3.869   4.615   9.269  0.0587  0.5772  0.5582
  125TMC2    C6 1908   3.739   4.570   9.279  0.2594 -0.0811 -0.8009
  125TMC2     C 1909   4.017   4.400   9.015  0.0208  0.6377  0.2052
  125TMC2     O 1910   4.112   4.471   8.991 -0.3333 -0.0517 -0.2702
  125TMC2     H 1911   3.755   4.368   9.003  0.0822 -0.8309  0.5529
  125TMC2    H1 1912   4.062   4.593   9.180 -0.1778  0.4608 -1.5346
  125TMC2    H2 1913   3.666   4.617   9.344  0.3476 -1.4306  0.2725
  125TMC2    C7 1914   3.896   0.017   9.344  0.2621 -0.1267  0.4704
  125TMC2    C8 1915   3.564   4.445   9.178 -0.1655  0.4761  0.2525
  125TMC2    O1 1916   3.803   0.072   9.404 -0.1736  0.0816 -0.4644
  125TMC2    O2 1917   3.478   4.511   9.241 -0.5144 -0.5689  0.0537
  125TMC2    O5 1918   3.551   4.311   9.150 -0.6712 -0.8999 -0.7505
  125TMC2    H5 1919   3.625   4.259   9.113 -0.4075 -1.2593  0.2821
  126MPD1     C 1920   4.197   4.046   8.693 -0.2840  0.5467  0.3497
  126MPD1    C1 1921   4.067   4.019   8.718  0.4748  0.0137  0.2112
  126MPD1    C2 1922   3.994   4.107   8.793  0.9723  0.5875 -0.1940
  126MPD1    C3 1923   4.059   4.205   8.869  0.0667  0.1472  0.4322
  126MPD1    C4 1924   4.191   4.234   8.846  0.3758 -0.3958 -1.2538
  126MPD1    C5 1925   4.252   4.160   8.748 -0.2575 -0.2354 -0.1447
  126MPD1     H 1926   3.887   4.093   8.804  0.7830  2.2709  0.0509
  126MPD1    H1 1927   4.245   4.313   8.898  0.7983 -1.4309 -0.1032
  126MPD1    H2 1928   4.253   3.996   8.615 -1.2172 -0.2770  0.2050
  126MPD1    H3 1929   4.355   4.183   8.724 -0.4101 -0.6904 -1.1886
  126MPD1     N 1930   3.979   4.284   8.956  0.1968  0.6569 -0.0570
  126MPD1    H5 1931   3.884   4.252   8.969  0.6314 -0.3535  0.6372
  126MPD1    N1 1932   4.009   3.909   8.658 -0.5990  0.2502 -0.7330
  126MPD1    H6 1933   4.067   3.826   8.671  0.7270  0.8645 -2.5206
  126MPD1    H7 1934   3.925   3.887   8.711 -0.6128  1.5921 -0.2204
  127MPD2     C 1935   4.704   3.915   9.589 -0.4920  0.3889  0.5294
  127MPD2    C1 1936   4.636   3.954   9.701  0.7172 -0.4450 -0.0277
  127MPD2    C2 1937   4.685   4.066   9.780  0.1712  0.2886 -0.2670
  127MPD2    C3 1938   0.067   4.139   9.730 -0.3489  0.1045 -0.8557
  127MPD2    C4 1939   0.137   4.097   9.614  0.7352  0.0104  0.4680
  127MPD2    C5 1940   0.097   3.982   9.552  0.5927 -0.2671  0.2567
  127MPD2     H 1941   4.632   4.094   9.871  1.3135 -0.8663  0.7608
  127MPD2    H1 1942   0.220   4.152   9.572 -1.0225  3.9501  2.1794
  127MPD2    H2 1943   4.675   3.832   9.525 -1.7281  0.9418  0.3628
  127MPD2    H3 1944   0.149   3.955   9.461  1.7578 -0.4035  0.9615
  127MPD2     N 1945   0.110   4.250   9.804  0.3353  0.0712  0.7225
  127MPD2    H5 1946   0.057   4.263   9.890  1.5011 -0.5760  1.5207
  127MPD2    N1 1947   4.522   3.876   9.733  0.3390 -0.1205  0.3390
  127MPD2    H7 1948   4.509   3.785   9.689  1.2085 -0.3641  0.5766
  128TCq2    C1 1949   4.438   3.897   9.840 -0.0682  0.8935  1.2593
  128TCq2    O2 1950   4.425   4.005   9.905 -0.1113 -0.0986  0.0389
  128TCq2    C2 1951   4.325   3.800   9.831  0.0655 -0.1193 -0.2144
  128TCq2    C3 1952   4.219   3.812   9.919 -0.2364 -0.1109 -0.9570
  128TCq2    C4 1953   4.119   3.723   9.917  0.5133 -0.2534 -0.4553
  128TCq2    C5 1954   4.113   3.623   9.823  0.1942 -0.2051 -0.3149
  128TCq2    C6 1955   4.220   3.609   9.737 -0.2791 -1.1104 -0.1217
  128TCq2    C7 1956   4.326   3.695   9.743 -0.7093  0.2894  0.1790
  128TCq2    C8 1957   4.202   3.515   9.628 -0.0536 -0.5639 -0.2189
  128TCq2    O4 1958   4.277   3.534   9.534  0.1286 -0.3411 -0.0348
  128TCq2    C9 1959   4.017   3.737  10.016 -0.4719  0.0157  0.6469
  128TCq2    O5 1960   4.008   3.844  10.082  0.4619 -0.2721  0.5471
  128TCq2    O6 1961   3.936   3.642  10.036 -0.0780 -0.1513  0.0174
  128TCq2    H2 1962   4.206   3.897   9.984  0.0054  0.1716 -1.2774
  128TCq2    H3 1963   4.022   3.564   9.833 -1.0180  1.3970 -1.8686
  128TCq2    H4 1964   4.415   3.670   9.687  0.1277  0.6617  1.3574
  129MPD2     C 1965   2.653   3.705   1.561  0.5888  0.5074 -0.0648
  129MPD2    C1 1966   2.551   3.752   1.643  0.6409  0.5569 -0.2773
  129MPD2    C2 1967   2.499   3.878   1.620 -0.1053 -0.2425 -0.3329
  129MPD2    C3 1968   2.525   3.948   1.502 -0.1433  0.0214  0.0493
  129MPD2    C4 1969   2.615   3.890   1.415  0.0001 -0.4427 -0.1299
  129MPD2    C5 1970   2.673   3.772   1.443  0.4061  0.4768 -0.2407
  129MPD2     H 1971   2.428   3.928   1.685 -1.0791 -0.8482 -0.9255
  129MPD2    H1 1972   2.652   3.944   1.328 -0.6762 -1.7838 -1.2470
  129MPD2    H2 1973   2.696   3.606   1.576 -1.2581  0.1235  2.7454
  129MPD2    H3 1974   2.737   3.719   1.373  0.6558  2.7913 -1.7818
  129MPD2     N 1975   2.456   4.068   1.476  0.2235 -0.0534  0.4907
  129MPD2    H5 1976   2.388   4.093   1.548 -0.5598 -1.7952  0.3623
  129MPD2    N1 1977   2.516   3.685   1.762 -0.3804 -0.3362 -0.1849
  129MPD2    H7 1978   2.463   3.741   1.829 -0.0406  0.9261 -0.9747
  130TCq2    C1 1979   2.541   3.553   1.788 -0.8232  0.5247  0.6605
  130TCq2    O2 1980   2.564   3.460   1.712 -0.5550  0.0639 -0.6283
  130TCq2    C2 1981   2.472   3.524   1.912  0.0426  1.1125 -0.0038
  130TCq2    C3 1982   2.469   3.618   2.004  0.3023 -0.3420  0.5282
  130TCq2    C4 1983   2.360   3.622   2.090  0.4473 -0.6044  0.0730
  130TCq2    C5 1984   2.264   3.520   2.080  0.4979  0.0820  0.2467
  130TCq2    C6 1985   2.273   3.427   1.978 -0.1005 -0.7870 -0.4043
  130TCq2    C7 1986   2.372   3.433   1.888  0.2372 -0.4456  0.4206
  130TCq2    C8 1987   2.153   3.346   1.952  0.0113  0.2294  1.0688
  130TCq2    O4 1988   2.047   3.388   1.996 -0.0664 -0.4604 -1.2156
  130TCq2    C9 1989   2.362   3.721   2.195  0.0015  0.2744  0.6467
  130TCq2    O5 1990   2.450   3.812   2.188 -0.0256  0.0320 -0.4013
  130TCq2    O6 1991   2.268   3.715   2.278 -0.1171 -0.2646  0.8375
  130TCq2    H2 1992   2.551   3.688   2.015  1.4401 -1.4584 -0.8900
  130TCq2    H3 1993   2.179   3.517   2.148  0.9644  2.2826  0.9345
  130TCq2    H4 1994   2.391   3.365   1.806  0.3482 -0.2762  0.3065
  131MPD2     C 1995   1.755   3.951   9.413 -1.0930  0.1799  0.9012
  131MPD2    C1 1996   1.773   3.968   9.549  0.0616  0.5736 -0.1549
  131MPD2    C2 1997   1.721   3.880   9.641  0.4529 -0.0034  0.0397
  131MPD2    C3 1998   1.660   3.762   9.606  0.6292  0.5842 -0.1257
  131MPD2    C4 1999   1.635   3.751   9.469 -0.4344  0.4606 -0.1991
  131MPD2    C5 2000   1.678   3.842   9.379  0.1138  0.0791  0.0706
  131MPD2     H 2001   1.737   3.888   9.748  3.1375  1.0593 -0.4313
  131MPD2    H1 2002   1.556   3.685   9.436 -0.9570  0.2669  1.4148
  131MPD2    H2 2003   1.791   4.017   9.335  1.3271 -0.7591  1.2276
  131MPD2    H3 2004   1.672   3.820   9.273  0.3727  2.1701 -0.3960
  131MPD2     N 2005   1.601   3.667   9.690  0.1195 -0.0183 -0.5075
  131MPD2    H5 2006   1.535   3.604   9.646  0.1126 -0.7912  0.6097
  131MPD2    N1 2007   1.849   4.081   9.587 -0.0679 -0.0302  0.2826
  131MPD2    H7 2008   1.864   4.154   9.517 -0.8798  0.8181  0.9935
  132TCq2    C1 2009   2.034   4.493   9.980  0.0808  0.7509  0.6105
  132TCq2    O2 2010   2.025   4.416  10.078 -0.0194 -0.1305  0.7146
  132TCq2    C2 2011   1.965   4.450   9.862 -0.1118 -0.5880 -0.1944
  132TCq2    C3 2012   1.967   4.534   9.752  0.8883 -0.8528 -0.9855
  132TCq2    C4 2013   1.922   4.493   9.636 -0.3908  0.1559 -0.1076
  132TCq2    C5 2014   1.893   4.359   9.610  0.1491 -0.6034 -0.4647
  132TCq2    C6 2015   1.903   4.272   9.718 -0.3824  0.1796  0.5268
  132TCq2    C7 2016   1.941   4.313   9.845  0.1796  0.5129 -0.1420
  132TCq2    C8 2017   1.872   4.129   9.719  0.3150 -0.5557 -0.4588
  132TCq2    O4 2018   1.874   4.067   9.826 -1.3000 -0.2261 -0.2158
  132TCq2    C9 2019   1.914   4.587   9.527  0.9509 -0.2477  0.0780
  132TCq2    O5 2020   1.984   4.694   9.531  0.5428  0.5201 -0.4675
  132TCq2    O6 2021   1.835   4.555   9.436 -0.4535  0.0770  0.4477
  132TCq2    H2 2022   1.982   4.640   9.770  0.3495 -0.2844 -3.9909
  132TCq2    H3 2023   1.865   4.329   9.509 -0.0238 -0.8407 -0.3463
  132TCq2    H4 2024   1.938   4.246   9.930 -1.0519  1.1583  0.3315
  133MPD2     C 2025   0.553   3.316   9.181  0.1052 -0.0133 -0.4205
  133MPD2    C1 2026   0.684   3.282   9.220 -0.0612  0.5438 -0.2157
  133MPD2    C2 2027   0.772   3.379   9.269 -0.6047 -0.0955  0.4765
  133MPD2    C3 2028   0.724   3.516   9.268  1.1596 -0.2425  0.2137
  133MPD2    C4 2029   0.597   3.545   9.213 -0.6874  0.0313 -0.1618
  133MPD2    C5 2030   0.518   3.450   9.164 -0.5544  1.0056  0.6638
  133MPD2     H 2031   0.870   3.344   9.298  0.2886 -0.5420 -3.0802
  133MPD2    H1 2032   0.564   3.649   9.212 -0.5189  0.0743 -1.1483
  133MPD2    H2 2033   0.496   3.230   9.148 -1.6067  0.6472  0.8319
  133MPD2    H3 2034   0.429   3.478   9.108  0.4568 -0.1651 -1.5160
  133MPD2     N 2035   0.807   3.622   9.302  0.6572 -0.5696 -0.7684
  133MPD2    H5 2036   0.765   3.713   9.292  0.1149 -0.7484 -0.1254
  133MPD2    N1 2037   0.715   3.148   9.209 -0.4024 -0.0953  0.4281
  133MPD2    H7 2038   0.643   3.094   9.163  0.7723  0.0605 -1.5873
  134TCq2    C1 2039   0.822   3.086   9.271 -0.0292 -0.5573 -0.3330
  134TCq2    O2 2040   0.912   3.116   9.346  0.5491  0.7586  0.3874
  134TCq2    C2 2041   0.841   2.949   9.237  0.2304 -1.3653  0.2562
  134TCq2    C3 2042   0.962   2.902   9.212  0.3592 -0.4337  0.3187
  134TCq2    C4 2043   0.985   2.765   9.200  0.1940  0.1662 -0.3694
  134TCq2    C5 2044   0.883   2.676   9.205  0.3156  0.3948 -0.9287
  134TCq2    C6 2045   0.762   2.725   9.239  0.6128 -0.2347  0.1166
  134TCq2    C7 2046   0.739   2.863   9.252  0.1524  0.7430  0.4166
  134TCq2    C8 2047   0.647   2.631   9.251 -0.7807 -0.1647 -1.0267
  134TCq2    O4 2048   0.678   2.515   9.257  0.4862  0.8835  0.2263
  134TCq2    C9 2049   1.109   2.710   9.150  0.2820  0.6401 -0.7666
  134TCq2    O5 2050   1.127   2.583   9.160 -0.3060  0.3737 -0.5035
  134TCq2    O6 2051   1.198   2.794   9.125  0.4547  0.0746  0.1756
  134TCq2    H2 2052   1.055   2.956   9.196 -1.0907  1.3845 -1.9713
  134TCq2    H3 2053   0.902   2.573   9.178  0.5418  0.3563 -0.6162
  134TCq2    H4 2054   0.646   2.902   9.292  0.6750  0.4274  1.9494
  135MPD2     C 2055   0.182   0.763   9.474 -0.2856  0.1251  0.4183
  135MPD2    C1 2056   0.059   0.792   9.520 -0.8561  0.2477 -0.1091
  135MPD2    C2 2057   0.044   0.821   9.650  0.2929  0.3582  0.4140
  135MPD2    C3 2058   0.149   0.797   9.743  0.5667 -0.0176 -0.0974
  135MPD2    C4 2059   0.281   0.771   9.697  0.1755  0.3407 -0.2541
  135MPD2    C5 2060   0.290   0.746   9.564  0.1500  0.2569  0.5669
  135MPD2     H 2061   4.669   0.861   9.669  0.1674  0.7421 -1.0228
  135MPD2    H1 2062   0.374   0.768   9.754  0.4460 -2.4251 -0.8580
  135MPD2    H2 2063   0.200   0.755   9.368 -0.0368  3.1617  0.2387
  135MPD2    H3 2064   0.390   0.721   9.529 -0.1365 -1.7378  1.1647
  135MPD2     N 2065   0.141   0.832   9.880 -0.0049 -0.3227 -0.5437
  135MPD2    H5 2066   0.231   0.828   9.927 -0.5575 -0.8345  0.4810
  135MPD2    N1 2067   4.667   0.791   9.443 -0.1026 -0.4897  0.3730
  135MPD2    H7 2068   4.585   0.809   9.500 -0.8327 -0.9861 -0.5292
  136TCq2    C1 2069   4.648   0.782   9.307 -0.4049  0.6241 -0.2968
  136TCq2    O2 2070   0.012   0.773   9.226 -0.4305  0.1420 -0.1667
  136TCq2    C2 2071   4.512   0.747   9.273  0.1068 -0.0413 -0.4937
  136TCq2    C3 2072   4.492   0.726   9.140  0.3470  0.2657 -0.5623
  136TCq2    C4 2073   4.367   0.700   9.099  0.4359  0.1573 -0.3636
  136TCq2    C5 2074   4.260   0.692   9.188 -0.4820 -0.4274 -0.0637
  136TCq2    C6 2075   4.284   0.718   9.319  0.1985 -0.4020 -0.4084
  136TCq2    C7 2076   4.409   0.756   9.359  0.0001 -0.8417 -0.0613
  136TCq2    C8 2077   4.171   0.745   9.414 -0.7325 -0.0891 -0.4627
  136TCq2    O4 2078   4.195   0.768   9.534 -0.1136 -0.5250  0.1939
  136TCq2    C9 2079   4.350   0.687   8.961 -0.0686  0.2595  0.0188
  136TCq2    O5 2080   4.231   0.689   8.917 -0.4502  0.1302 -0.2605
  136TCq2    O6 2081   4.448   0.704   8.884 -0.0600 -0.4650  0.0114
  136TCq2    H2 2082   4.569   0.727   9.065  1.6794  0.0844  0.8008
  136TCq2    H3 2083   4.163   0.662   9.151  0.2495 -0.6756 -1.8046
  136TCq2    H4 2084   4.415   0.787   9.463 -1.1377 -1.5035  0.2082
  137MPD2     C 2085   4.107   4.084   9.223 -0.1048  0.1872  0.0168
  137MPD2    C1 2086   4.015   4.125   9.313  0.8451  0.6376 -0.6757
  137MPD2    C2 2087   4.037   4.245   9.377  0.2006  0.4875 -0.0827
  137MPD2    C3 2088   4.148   4.322   9.349 -0.0761  0.5121  0.6440
  137MPD2    C4 2089   4.229   4.284   9.253  0.6426  0.0474  0.0713
  137MPD2    C5 2090   4.212   4.162   9.190  0.2803  0.2782  0.7222
  137MPD2     H 2091   3.967   4.275   9.455 -1.3066 -2.0199 -0.4546
  137MPD2    H1 2092   4.317   4.339   9.224  0.1965  0.8934  0.3370
  137MPD2    H2 2093   4.105   3.987   9.175 -0.8328  1.0061 -1.6320
  137MPD2    H3 2094   4.290   4.124   9.126  0.9933  0.1287  1.6755
  137MPD2     N 2095   4.160   4.436   9.442 -0.4032 -0.5479  0.1869
  137MPD2    H5 2096   4.085   4.448   9.509  0.8747  0.2483  1.4766
  137MPD2    N1 2097   3.892   4.058   9.325 -0.2460 -0.1062  0.3252
  137MPD2    H7 2098   3.887   3.974   9.269  2.9092  0.6394 -1.0487
  138TCq2    C1 2099   3.781   4.112   9.389 -0.3000  0.4708 -0.5036
  138TCq2    O2 2100   3.748   4.224   9.418  0.3441 -0.3879 -0.0131
  138TCq2    C2 2101   3.670   4.019   9.359 -0.2428  0.6382 -0.2197
  138TCq2    C3 2102   3.692   3.880   9.351 -0.1943 -0.1798 -0.6556
  138TCq2    C4 2103   3.581   3.804   9.309 -0.1884  0.6272  0.1864
  138TCq2    C5 2104   3.457   3.854   9.293  0.1720  0.1443 -0.0966
  138TCq2    C6 2105   3.437   3.983   9.328 -0.2091 -0.0903  0.0630
  138TCq2    C7 2106   3.543   4.073   9.358  0.2550 -0.1127 -0.1623
  138TCq2    C8 2107   3.305   4.027   9.310  0.5094 -0.4048 -0.1318
  138TCq2    O4 2108   3.244   3.985   9.215  0.0895 -0.8508 -0.5898
  138TCq2    C9 2109   3.607   3.666   9.280 -0.1240 -0.6897  0.0770
  138TCq2    O5 2110   3.725   3.624   9.290 -0.5418 -0.2157 -0.4001
  138TCq2    O6 2111   3.510   3.586   9.258 -0.0880  0.1761  0.3452
  138TCq2    H2 2112   3.790   3.841   9.372  0.1176  0.7455 -0.3990
  138TCq2    H3 2113   3.375   3.798   9.250  1.2702 -2.7125  1.5503
  138TCq2    H4 2114   3.529   4.180   9.372 -1.5148 -0.5967  1.7538
  139TMC2    C1 2115   3.068   3.213  13.752  0.4634 -0.2446  0.3300
  139TMC2    C2 2116   3.155   3.315  13.744  0.0534  0.5950 -1.0166
  139TMC2    C3 2117   3.114   3.438  13.779 -0.3838  0.1124 -0.0233
  139TMC2    C4 2118   2.932   3.225  13.780 -0.0084 -0.5769  0.2520
  139TMC2    C5 2119   2.901   3.354  13.808 -0.1837 -0.0489 -0.1097
  139TMC2    C6 2120   2.985   3.460  13.814 -0.1223 -0.0355 -0.7220
  139TMC2     C 2121   3.098   3.093  13.678 -0.2715 -0.0771 -0.5763
  139TMC2     O 2122   3.019   3.041  13.603 -0.1806  0.4181 -0.0126
  139TMC2     H 2123   3.249   3.309  13.689 -0.4404 -0.6210 -1.7295
  139TMC2    H1 2124   2.865   3.140  13.780 -0.7590  0.0164 -2.4878
  139TMC2    H2 2125   2.960   3.559  13.850 -1.3939 -0.6845  0.1577
  139TMC2    C7 2126   2.765   3.394  13.838  0.1284 -0.2607  0.0144
  139TMC2    C8 2127   3.187   3.555  13.735  0.7848  0.4359 -0.2920
  139TMC2    O1 2128   2.744   3.503  13.892  0.3833  0.1090  0.1008
  139TMC2    O2 2129   3.263   3.534  13.643  0.1967  0.2064  0.1265
  139TMC2    O5 2130   3.229   3.620  13.850  0.1942 -0.1482 -0.3168
  139TMC2    H5 2131   3.173   3.616  13.931  0.1713 -0.5289 -0.3489
  140MPD2     C 2132   3.376   2.860  13.743  0.3227 -0.2875  0.0736
  140MPD2    C1 2133   3.280   2.922  13.672  0.2510 -0.8414 -0.2742
  140MPD2    C2 2134   3.253   2.876  13.547  0.1743  0.3502 -0.0602
  140MPD2    C3 2135   3.332   2.784  13.482  0.1206  0.2719  0.1889
  140MPD2    C4 2136   3.435   2.729  13.557 -0.2436 -0.4680  0.8434
  140MPD2    C5 2137   3.450   2.760  13.689  0.2279  0.3517 -0.2557
  140MPD2     H 2138   3.187   2.931  13.481  0.7019  0.1877 -0.7156
  140MPD2    H1 2139   3.508   2.659  13.517 -1.7639 -0.8083 -1.3148
  140MPD2    H2 2140   3.388   2.885  13.848  0.1190 -0.9299  0.2518
  140MPD2    H3 2141   3.532   2.715  13.744 -1.5637 -1.0386  1.3088
  140MPD2     N 2142   3.323   2.755  13.344  0.3123 -0.4169  0.2237
  140MPD2    H5 2143   3.253   2.816  13.302  1.5730  0.4016 -0.6572
  140MPD2    N1 2144   3.219   3.040  13.726  0.4251  0.2855 -0.1832
  140MPD2    H7 2145   3.246   3.079  13.816  0.3881 -1.7971  0.7169
  141TCq2    C1 2146   3.667   4.206  15.658 -1.1404 -0.7617 -0.3604
  141TCq2    O2 2147   3.608   4.254  15.570 -0.1210  0.0432 -0.1166
  141TCq2    C2 2148   3.711   4.298  15.758  0.3788  0.6327 -0.1246
  141TCq2    C3 2149   3.776   4.255  15.865  0.7992 -0.2228 -0.0977
  141TCq2    C4 2150   3.796   4.340  15.969  0.7515  0.5549 -0.0797
  141TCq2    C5 2151   3.736   4.458  15.970 -0.1784 -0.7501 -0.1307
  141TCq2    C6 2152   3.671   4.499  15.860  0.8214 -0.1137 -1.0157
  141TCq2    C7 2153   3.648   4.419  15.752 -0.6369  0.1984 -0.2100
  141TCq2    C8 2154   3.660   4.637  15.838 -0.1948  0.7419  0.5126
  141TCq2    O4 2155   3.656   4.710  15.936 -1.0707  0.6689 -0.0630
  141TCq2    C9 2156   3.905   4.316  16.055 -0.1621 -0.3292 -0.4836
  141TCq2    O5 2157   3.920   4.392  16.152 -0.2067  0.4544 -0.0982
  141TCq2    O6 2158   3.979   4.221  16.022  0.0542  0.3249 -0.0616
  141TCq2    H2 2159   3.837   4.165  15.855  2.2771  0.5582  2.0415
  141TCq2    H3 2160   3.754   4.523  16.054  1.0177  0.2380 -1.1526
  141TCq2    H4 2161   3.576   4.449  15.677 -2.6853 -0.0507  1.6681
  142MPD2     C 2162   1.123   2.261  10.094 -0.4175 -0.4525 -0.3297
  142MPD2    C1 2163   1.081   2.140  10.046 -0.2958  0.3037  0.5863
  142MPD2    C2 2164   0.972   2.132   9.955  0.5173  0.7337  0.2772
  142MPD2    C3 2165   0.920   2.249   9.901  0.0648  0.4745  1.0445
  142MPD2    C4 2166   0.969   2.370   9.947  0.3064 -1.5025  0.2443
  142MPD2    C5 2167   1.052   2.370  10.054  0.5437 -0.1155 -0.5631
  142MPD2     H 2168   0.927   2.038   9.926  0.1947  0.3265  2.1067
  142MPD2    H1 2169   0.929   2.465   9.915  1.8573 -0.9158  0.0535
  142MPD2    H2 2170   1.203   2.253  10.167  1.8356  1.2506 -2.6156
  142MPD2    H3 2171   1.065   2.471  10.093  2.7731 -1.5006  2.3342
  142MPD2     N 2172   0.804   2.250   9.816 -0.0661 -0.2133  0.7819
  142MPD2    H5 2173   0.770   2.342   9.788 -0.1329  0.1460  2.0793
  142MPD2    N1 2174   1.159   2.025  10.080  0.2044  0.1228  0.3707
  142MPD2    H7 2175   1.223   2.033  10.159  1.4983  1.9191 -0.8677
  143TCq2    C1 2176   0.728   2.140   9.777 -0.0604 -0.8270 -0.1694
  143TCq2    O2 2177   0.746   2.021   9.796  0.4818  0.0977  0.0254
  143TCq2    C2 2178   0.616   2.172   9.684  1.0264 -0.4442  0.5485
  143TCq2    C3 2179   0.513   2.078   9.673  0.1119 -0.4132 -0.8530
  143TCq2    C4 2180   0.400   2.113   9.607  0.6438  0.1777 -0.6600
  143TCq2    C5 2181   0.377   2.244   9.574  0.5449 -0.3979  0.3368
  143TCq2    C6 2182   0.477   2.335   9.597  0.3540 -0.1558 -0.5282
  143TCq2    C7 2183   0.597   2.300   9.641 -0.3353  0.2644 -0.1425
  143TCq2    C8 2184   0.452   2.473   9.575 -0.1234  0.1118  0.1557
  143TCq2    O4 2185   0.550   2.549   9.573 -0.7640  0.5917 -0.6465
  143TCq2    C9 2186   0.292   2.019   9.603 -0.1522 -0.3050 -0.1814
  143TCq2    O5 2187   0.178   2.060   9.574 -0.1718  0.0073 -0.1090
  143TCq2    O6 2188   0.329   1.895   9.603 -0.3805 -0.1550 -0.5692
  143TCq2    H2 2189   0.528   1.972   9.693  0.7392 -0.4102 -1.3285
  143TCq2    H3 2190   0.292   2.264   9.511  0.5318 -1.8088 -0.0920
  143TCq2    H4 2191   0.677   2.370   9.661  0.7878 -0.7552 -1.1151
  144MPD2     C 2192   3.742   1.790   0.686 -0.5619  0.3715  0.4045
  144MPD2    C1 2193   3.755   1.656   0.650 -1.0478  0.3304  0.8396
  144MPD2    C2 2194   3.859   1.586   0.699  0.1458 -0.2530  0.0063
  144MPD2    C3 2195   3.937   1.634   0.799  0.3375 -0.1710  0.1555
  144MPD2    C4 2196   3.903   1.755   0.854  0.0387  0.1020 -0.7908
  144MPD2    C5 2197   3.803   1.831   0.804  0.3187 -0.2210 -0.3797
  144MPD2     H 2198   3.880   1.494   0.645 -1.0688 -0.3983 -0.2099
  144MPD2    H1 2199   3.952   1.797   0.941 -0.2680  0.5559 -0.8355
  144MPD2    H2 2200   3.670   1.854   0.637 -0.3347  0.8683  0.7083
  144MPD2    H3 2201   3.778   1.929   0.844  0.9717  0.0981 -0.7574
  144MPD2     N 2202   4.037   1.551   0.856 -0.1031  0.0763 -1.0412
  144MPD2    H5 2203   4.069   1.598   0.940  3.2249 -1.2920 -1.5527
  144MPD2    N1 2204   3.678   1.591   0.550 -0.9908  0.0356 -0.2144
  144MPD2    H7 2205   3.705   1.496   0.529 -2.6829 -0.7128  0.9617
  145TCq2    C1 2206   4.103   1.439   0.813  0.4069 -0.0834  0.3445
  145TCq2    O2 2207   4.086   1.379   0.709 -0.2141 -0.0825 -0.2350
  145TCq2    C2 2208   4.201   1.383   0.909 -0.1303  1.0036  0.6259
  145TCq2    C3 2209   4.281   1.286   0.860  0.0517 -0.5911 -0.5395
  145TCq2    C4 2210   4.381   1.232   0.943 -0.1037 -0.1797  0.5891
  145TCq2    C5 2211   4.402   1.286   1.065  0.0002 -0.0145  0.5920
  145TCq2    C6 2212   4.316   1.394   1.113 -0.2826 -0.1783  0.2011
  145TCq2    C7 2213   4.215   1.443   1.038 -0.4535  0.0660  0.4302
  145TCq2    C8 2214   4.338   1.448   1.244  0.2115  0.3300 -0.4798
  145TCq2    O4 2215   4.408   1.382   1.321 -0.2906 -0.0429 -0.3347
  145TCq2    C9 2216   4.462   1.122   0.910  0.3102  0.1679  0.4880
  145TCq2    O5 2217   4.480   1.036   1.001 -0.2186 -0.4910  0.2741
  145TCq2    O6 2218   4.508   1.125   0.790 -0.1745  0.5549 -0.0367
  145TCq2    H2 2219   4.263   1.237   0.765  0.7119 -1.8580 -0.0123
  145TCq2    H3 2220   4.470   1.240   1.136  0.1578  1.3891  1.3373
  145TCq2    H4 2221   4.132   1.496   1.083  0.1454  1.2982  0.0767
  146TMC2    C1 2222   1.445   0.481  11.937  0.1104  0.6460  0.5081
  146TMC2    C2 2223   1.404   0.512  11.812  0.3425 -0.5211  0.4169
  146TMC2    C3 2224   1.493   0.491  11.713 -0.5961 -0.1634 -0.2413
  146TMC2    C4 2225   1.570   0.434  11.971 -0.1125 -0.4549 -0.0508
  146TMC2    C5 2226   1.658   0.420  11.868  0.0360  0.2425  0.0053
  146TMC2    C6 2227   1.622   0.446  11.735 -0.7825 -0.0691 -0.5071
  146TMC2     C 2228   1.345   0.494  12.040 -0.2480 -0.1198  0.0346
  146TMC2     O 2229   1.256   0.575  12.022  0.1926  0.3119 -0.3962
  146TMC2     H 2230   1.302   0.546  11.797  1.4204  1.7151 -1.7760
  146TMC2    H1 2231   1.594   0.413  12.074 -2.7220 -2.0280  0.2185
  146TMC2    H2 2232   1.690   0.443  11.652  2.7397  1.2798  2.3507
  146TMC2    C7 2233   1.789   0.360  11.885 -0.4971  0.5414  0.5619
  146TMC2    C8 2234   1.465   0.508  11.570 -0.6701 -0.0595 -0.0878
  146TMC2    O1 2235   1.862   0.363  11.789  0.2557 -0.4180 -0.0665
  146TMC2    O2 2236   1.529   0.448  11.486 -0.1378 -0.6267 -0.0832
  146TMC2    O5 2237   1.425   0.634  11.562  0.1894 -0.2368 -0.2707
  146TMC2    H5 2238   1.400   0.667  11.651 -0.7553 -1.1215 -0.2094
  147MPD2     C 2239   2.188   0.168  12.135  0.0901  0.0079 -0.1049
  147MPD2    C1 2240   2.094   0.170  12.230  0.0015 -0.3421  0.4282
  147MPD2    C2 2241   1.969   0.217  12.182  0.2982  0.3360 -0.3885
  147MPD2    C3 2242   1.943   0.267  12.050  0.1338 -0.0640  0.0250
  147MPD2    C4 2243   2.053   0.271  11.971 -0.6078  0.3669 -0.5247
  147MPD2    C5 2244   2.170   0.220  12.014 -0.5640  0.1476 -0.3454
  147MPD2     H 2245   1.887   0.230  12.252  0.6938  1.4202 -0.1254
  147MPD2    H1 2246   2.063   0.305  11.868 -0.8352  3.2597  0.4156
  147MPD2    H2 2247   2.284   0.123  12.155 -0.2865 -0.0557  1.6316
  147MPD2    H3 2248   2.254   0.224  11.945  0.5697 -0.8218  0.9843
  147MPD2     N 2249   1.816   0.325  12.010  0.0328 -0.4907  0.3947
  147MPD2    H5 2250   1.744   0.341  12.081 -0.5729  2.6569 -0.9364
  147MPD2    N1 2251   2.134   0.135  12.359  0.2111 -0.5246 -0.6341
  147MPD2    H7 2252   2.232   0.113  12.374  0.4193  0.0314 -1.1557
  148MPD2     C 2253   1.190   4.426  10.491 -0.4820 -0.0643  0.1979
  148MPD2    C1 2254   1.203   4.327  10.588  0.8186  0.4657 -0.4922
  148MPD2    C2 2255   1.129   4.208  10.566  0.8173  1.1246 -0.0589
  148MPD2    C3 2256   1.074   4.175  10.438  0.6547 -0.0855  0.4526
  148MPD2    C4 2257   1.074   4.273  10.342 -0.7615  0.3921  0.0394
  148MPD2    C5 2258   1.125   4.400  10.372  0.3450  0.6400  0.2291
  148MPD2     H 2259   1.146   4.133  10.643  2.9749 -0.3730 -2.0018
  148MPD2    H1 2260   1.027   4.255  10.246 -0.4694 -0.5379  0.0805
  148MPD2    H2 2261   1.237   4.523  10.502  1.5691 -0.5914 -3.8977
  148MPD2    H3 2262   1.115   4.483  10.304 -1.8871 -0.8741 -1.2733
  148MPD2     N 2263   1.028   4.050  10.404  0.1706 -0.1251 -0.2790
  148MPD2    H5 2264   0.988   4.042  10.311 -0.3434 -1.1397  0.0290
  148MPD2    N1 2265   1.271   4.351  10.706  0.3307 -0.1929  0.6596
  148MPD2    H7 2266   1.245   4.290  10.783  0.2001 -2.5949 -1.3174
  149TCq2    C1 2267   1.346   4.460  10.743  0.4078 -1.1089  0.1210
  149TCq2    O2 2268   1.381   4.554  10.679 -0.0715  0.4622 -0.1958
  149TCq2    C2 2269   1.419   4.448  10.875  0.6631 -1.0429  1.0363
  149TCq2    C3 2270   1.515   4.547  10.890  0.2341  1.1396  0.4199
  149TCq2    C4 2271   1.619   4.525  10.976 -0.4895  0.2916  0.0264
  149TCq2    C5 2272   1.658   4.403  11.013  0.1254  0.2383 -0.4728
  149TCq2    C6 2273   1.567   4.298  10.995 -0.1467 -0.1912  0.4662
  149TCq2    C7 2274   1.451   4.320  10.929 -0.0327 -0.3091 -0.0347
  149TCq2    C8 2275   1.625   4.162  10.981 -0.3556  0.5971  0.1069
  149TCq2    O4 2276   1.542   4.072  10.994 -0.3235 -0.4774  0.0666
  149TCq2    C9 2277   1.722   4.622  10.971  0.0461  0.1184 -0.2018
  149TCq2    O5 2278   1.771   4.642  10.856  0.0238 -1.0082 -0.8543
  149TCq2    O6 2279   1.788   4.639  11.077  0.1146  0.1357 -0.0514
  149TCq2    H2 2280   1.495   4.650  10.864  0.4300  1.5470  1.9043
  149TCq2    H3 2281   1.747   4.384  11.072 -0.8789 -0.6041  0.7853
  149TCq2    H4 2282   1.388   4.242  10.887  1.5511 -0.6651 -1.7688
  150MPD2     C 2283   2.723   3.242  12.308  0.2089 -0.6571  0.0512
  150MPD2    C1 2284   2.751   3.314  12.192 -0.5372 -0.2755  0.5201
  150MPD2    C2 2285   2.837   3.419  12.197  0.1117 -0.0850 -0.1385
  150MPD2    C3 2286   2.893   3.460  12.316 -0.3565  0.3449  0.7126
  150MPD2    C4 2287   2.865   3.390  12.432  0.2920  0.7611  0.3993
  150MPD2    C5 2288   2.779   3.284  12.426 -1.3348  0.1612  0.0394
  150MPD2     H 2289   2.859   3.480  12.111  0.6625 -0.4226 -0.2336
  150MPD2    H1 2290   2.920   3.424  12.519  1.3973 -0.4438  0.1713
  150MPD2    H2 2291   2.654   3.159  12.313  1.4991 -1.6326  1.6636
  150MPD2    H3 2292   2.766   3.230  12.519 -2.7736 -1.1485 -0.9259
  150MPD2     N 2293   2.972   3.580  12.308 -0.1780  0.2470  0.8085
  150MPD2    H5 2294   2.975   3.626  12.218  0.7448 -1.2444  0.0816
  150MPD2    N1 2295   2.681   3.272  12.078 -0.4038 -0.2904  0.2436
  150MPD2    H7 2296   2.607   3.203  12.087 -1.0374  0.6437  2.2801
  151TCq2    C1 2297   3.045   3.646  12.410 -0.0076 -0.3218  0.2243
  151TCq2    O2 2298   3.070   3.606  12.521  0.1594 -0.3563 -0.4451
  151TCq2    C2 2299   3.119   3.766  12.371  0.2133  0.4728  0.3541
  151TCq2    C3 2300   3.080   3.825  12.256  0.0641 -0.2175  0.6349
  151TCq2    C4 2301   3.171   3.915  12.204  0.1453 -0.4972  0.3978
  151TCq2    C5 2302   3.287   3.941  12.270  0.0090  0.4105 -0.4213
  151TCq2    C6 2303   3.324   3.875  12.382 -0.4797  0.3955  0.0863
  151TCq2    C7 2304   3.233   3.795  12.436 -0.1887  0.1744 -0.3419
  151TCq2    C8 2305   3.458   3.878  12.425  0.4668  0.0768 -0.6806
  151TCq2    O4 2306   3.523   3.971  12.379  0.3755  0.1064 -0.2411
  151TCq2    C9 2307   3.146   3.986  12.079  0.5904  0.0627  0.2758
  151TCq2    O5 2308   3.081   3.920  11.994  0.4984 -0.3920  0.0141
  151TCq2    O6 2309   3.200   4.099  12.067  0.9631  1.0974 -0.0108
  151TCq2    H2 2310   2.982   3.817  12.210 -0.4085 -3.8119  2.2750
  151TCq2    H3 2311   3.358   4.002  12.215 -1.0077 -0.5912 -2.8807
  151TCq2    H4 2312   3.253   3.766  12.539  0.1554 -1.9905 -1.0366
  152MPD2     C 2313   2.774   2.692  12.893 -0.2683 -0.1279  0.9600
  152MPD2    C1 2314   2.710   2.806  12.844 -0.3602 -0.5486  0.2922
  152MPD2    C2 2315   2.574   2.813  12.833  0.4994 -0.8034  0.8143
  152MPD2    C3 2316   2.496   2.706  12.854  0.2986  0.0242 -0.2293
  152MPD2    C4 2317   2.558   2.583  12.893  0.2642  0.0875 -0.9846
  152MPD2    C5 2318   2.697   2.580  12.919 -0.3524  0.4360 -0.3062
  152MPD2     H 2319   2.533   2.898  12.779  0.4791  1.1542  3.8707
  152MPD2    H1 2320   2.495   2.496  12.905 -0.7517  0.8912 -0.5140
  152MPD2    H2 2321   2.880   2.688  12.913  0.2584  1.4318 -1.5894
  152MPD2    H3 2322   2.737   2.482  12.943  1.8505  1.4568  0.1911
  152MPD2     N 2323   2.360   2.725  12.821  0.0844 -0.5738  0.0022
  152MPD2    H5 2324   2.328   2.819  12.797  1.0238 -0.3414 -0.3421
  152MPD2    N1 2325   2.799   2.920  12.821  0.1017 -0.1126  0.3901
  152MPD2    H7 2326   2.898   2.901  12.816 -0.0448 -0.5652 -0.7423
  153TCq2    C1 2327   2.755   3.050  12.826  0.1853 -0.1881  0.1427
  153TCq2    O2 2328   2.649   3.100  12.855  0.2331 -0.0332 -0.3673
  153TCq2    C2 2329   2.863   3.143  12.808 -0.4489  0.6777 -0.0366
  153TCq2    C3 2330   2.956   3.122  12.712  0.2377  0.7861  0.0251
  153TCq2    C4 2331   3.057   3.215  12.710  0.5345  0.2025 -0.1441
  153TCq2    C5 2332   3.050   3.329  12.777  0.1938  0.3682 -0.2367
  153TCq2    C6 2333   2.938   3.361  12.856 -0.1223 -0.8471 -0.0696
  153TCq2    C7 2334   2.851   3.260  12.876 -0.2248 -0.5669  0.2470
  153TCq2    C8 2335   2.948   3.467  12.963  1.0480  0.2193 -0.4712
  153TCq2    O4 2336   2.847   3.506  13.025  0.1226  0.0770  0.3146
  153TCq2    C9 2337   3.174   3.184  12.630 -0.0172  0.6542  0.3640
  153TCq2    O5 2338   3.153   3.104  12.536  0.3389  0.4742  0.5059
  153TCq2    O6 2339   3.276   3.253  12.651  0.7827 -0.0857  0.5319
  153TCq2    H2 2340   2.967   3.034  12.650 -3.4646 -1.8285  3.1083
  153TCq2    H3 2341   3.123   3.405  12.753  2.0665 -1.0768  0.8661
  153TCq2    H4 2342   2.772   3.283  12.947  0.3266 -0.1403  0.7250
  154MPD2     C 2343   4.134   3.235   0.406 -0.4349 -0.0156 -1.2672
  154MPD2    C1 2344   4.113   3.349   0.473  0.4022  0.1564 -0.0611
  154MPD2    C2 2345   4.018   3.348   0.571  0.3186 -0.0890 -0.3752
  154MPD2    C3 2346   3.923   3.250   0.577  0.4056  0.1953  0.1705
  154MPD2    C4 2347   3.938   3.137   0.502 -0.2420  0.2898 -0.1082
  154MPD2    C5 2348   4.040   3.134   0.416  0.1131  0.5786  0.6039
  154MPD2     H 2349   3.997   3.430   0.639 -1.7424  0.5298 -1.7567
  154MPD2    H1 2350   3.872   3.051   0.497  1.0776 -0.7382  0.3576
  154MPD2    H2 2351   4.216   3.226   0.337 -0.2181  1.0959 -1.1459
  154MPD2    H3 2352   4.050   3.048   0.350  1.0437  2.1003 -1.2216
  154MPD2     N 2353   3.820   3.276   0.664 -0.6731 -0.4044  0.2078
  154MPD2    H5 2354   3.824   3.370   0.702  1.8760 -0.3041 -0.2509
  154MPD2    N1 2355   4.201   3.452   0.450  0.1061 -0.5185 -0.0671
  154MPD2    H7 2356   4.278   3.430   0.387 -0.2119 -2.7121  0.3127
  155TCq2    C1 2357   4.182   3.584   0.489  0.1948  0.0074  0.0699
  155TCq2    O2 2358   4.096   3.630   0.556 -0.4555 -0.2311 -0.1172
  155TCq2    C2 2359   4.271   3.681   0.429 -0.2102  0.1508  0.5082
  155TCq2    C3 2360   4.392   3.642   0.390 -0.7527  0.1253 -0.0601
  155TCq2    C4 2361   4.456   3.714   0.294  1.1224  0.1982 -0.1831
  155TCq2    C5 2362   4.401   3.830   0.247  0.4869 -0.0796  0.8242
  155TCq2    C6 2363   4.275   3.866   0.285  0.2711  0.5145  0.2966
  155TCq2    C7 2364   4.209   3.795   0.382  0.0744 -0.8853  0.0427
  155TCq2    C8 2365   4.199   3.952   0.199  0.0477 -0.4346 -0.2965
  155TCq2    O4 2366   4.254   4.000   0.103  0.4263 -0.1366 -0.1360
  155TCq2    C9 2367   4.583   3.673   0.238 -0.5314 -0.1171  0.1624
  155TCq2    O5 2368   4.655   3.752   0.172 -0.8719 -0.7164 -0.1208
  155TCq2    O6 2369   4.606   3.546   0.240  0.7798 -0.1330  0.1307
  155TCq2    H2 2370   4.436   3.565   0.453 -0.0276  0.4149 -0.2075
  155TCq2    H3 2371   4.461   3.887   0.177  0.1866  1.5719  1.8906
  155TCq2    H4 2372   4.109   3.821   0.416 -0.0590  0.2742 -1.2524
  156MPD2     C 2373   3.210   0.527  12.297  0.0555  0.2451  1.0217
  156MPD2    C1 2374   3.157   0.619  12.211 -0.5543  0.7403 -0.5445
  156MPD2    C2 2375   3.120   0.739  12.271  0.1951  0.2248  0.3177
  156MPD2    C3 2376   3.106   0.760  12.407  0.4747 -0.2490 -0.4961
  156MPD2    C4 2377   3.154   0.665  12.490 -0.3083 -0.1607 -0.6713
  156MPD2    C5 2378   3.206   0.546  12.432  0.3578  0.4444  1.0498
  156MPD2     H 2379   3.087   0.824  12.212  1.6539  0.5920  0.0268
  156MPD2    H1 2380   3.144   0.664  12.598  0.1110  3.3820 -0.5877
  156MPD2    H2 2381   3.246   0.429  12.265 -0.1957  0.1344  1.0827
  156MPD2    H3 2382   3.237   0.463  12.494  1.2602  2.1687  2.9355
  156MPD2     N 2383   3.043   0.880  12.447  0.3393 -0.3966  0.0917
  156MPD2    H5 2384   3.023   0.943  12.370  1.0994  1.8570  1.7692
  156MPD2    N1 2385   3.134   0.596  12.075  0.3251  0.3791 -0.1143
  156MPD2    H7 2386   3.139   0.500  12.043  1.6284 -0.0351  1.3674
  157TCq2    C1 2387   3.080   0.689  11.989  0.1611  0.6373  0.3523
  157TCq2    O2 2388   3.111   0.806  11.972 -0.0188 -0.9875  0.1843
  157TCq2    C2 2389   2.990   0.630  11.886  0.2531 -0.0031 -0.1727
  157TCq2    C3 2390   2.957   0.493  11.895 -0.1213  0.3134 -0.4784
  157TCq2    C4 2391   2.861   0.452  11.805  0.3905 -0.2288  0.2321
  157TCq2    C5 2392   2.809   0.542  11.711 -0.0528  0.3525  0.0913
  157TCq2    C6 2393   2.847   0.674  11.713 -0.3103  0.0363  0.1626
  157TCq2    C7 2394   2.934   0.721  11.800 -0.4402 -0.1260 -0.3534
  157TCq2    C8 2395   2.760   0.773  11.644 -0.4666 -0.8956  0.0161
  157TCq2    O4 2396   2.767   0.888  11.687  0.3622 -0.1617 -0.1358
  157TCq2    C9 2397   2.809   0.317  11.813  0.4604  0.0463 -0.3274
  157TCq2    O5 2398   2.705   0.290  11.750 -0.4064  0.1700  0.2661
  157TCq2    O6 2399   2.870   0.238  11.893 -0.6547 -0.4478  0.3259
  157TCq2    H2 2400   2.998   0.424  11.967  1.4267 -0.3239 -1.9796
  157TCq2    H3 2401   2.728   0.501  11.651  1.8256 -1.9415 -0.8809
  157TCq2    H4 2402   2.961   0.825  11.814  2.0309 -0.8367  0.1326
  158TMC2    C1 2403   3.025   4.336  14.108 -0.5762 -0.0222  0.4576
  158TMC2    C2 2404   3.145   4.392  14.065  0.4005  0.6214  0.4338
  158TMC2    C3 2405   3.130   4.485  13.966  0.5594  0.2040  0.3495
  158TMC2    C4 2406   2.902   4.386  14.064 -0.0969  0.7125  0.3020
  158TMC2    C5 2407   2.899   4.492  13.967 -0.6745 -0.2276  0.4094
  158TMC2    C6 2408   3.018   4.533  13.905  0.1313  0.1735  0.4832
  158TMC2     C 2409   3.036   4.210  14.177  0.3905  0.0323  0.5829
  158TMC2     O 2410   2.927   4.168  14.213 -0.2435  0.1937 -0.0622
  158TMC2     H 2411   3.243   4.357  14.098  0.3620 -1.4083 -1.6351
  158TMC2    H1 2412   2.817   4.332  14.103  0.4384  0.7192  1.4790
  158TMC2    H2 2413   3.022   4.622  13.843  0.4579 -1.2917 -1.5768
  158TMC2    C7 2414   2.777   4.511  13.886  0.8103  0.0935 -0.5957
  158TMC2    C8 2415   3.251   4.527  13.902 -0.1795 -0.3833 -0.7469
  158TMC2    O1 2416   2.775   4.577  13.783  0.8079  0.5574 -0.7077
  158TMC2    O2 2417   3.265   4.522  13.784  0.0706 -0.2230  0.2732
  158TMC2    O5 2418   3.345   4.541  13.990 -0.1997  0.3767 -0.3334
  158TMC2    H5 2419   3.306   4.546  14.080  0.6631  1.6874 -0.0226
  159MPD2     C 2420   3.245   3.789  14.369  0.0474  0.2175 -0.3605
  159MPD2    C1 2421   3.144   3.870  14.412  0.4770  0.5240  0.4805
  159MPD2    C2 2422   3.118   3.985  14.341  0.8039  0.4795 -0.3350
  159MPD2    C3 2423   3.181   4.020  14.221  0.3305  0.1176  0.3425
  159MPD2    C4 2424   3.286   3.938  14.182 -0.1256 -0.0790  0.8914
  159MPD2    C5 2425   3.311   3.828  14.259  0.1929 -0.7985 -0.3614
  159MPD2     H 2426   3.038   4.050  14.374  0.0167  0.6696 -2.6495
  159MPD2    H1 2427   3.344   3.961  14.093 -0.0004  2.3573  1.6117
  159MPD2    H2 2428   3.268   3.689  14.403 -2.9018  0.1447  1.4261
  159MPD2    H3 2429   3.394   3.764  14.232  0.2065 -0.5698 -0.8528
  159MPD2     N 2430   3.150   4.141  14.155 -0.2305 -0.2059 -0.2046
  159MPD2    H5 2431   3.218   4.168  14.085  0.0664 -0.7987 -0.1480
  159MPD2    N1 2432   3.082   3.831  14.534  0.3876 -0.4418 -1.0425
  159MPD2    H7 2433   3.102   3.744  14.580 -1.5306  0.1965  1.0145
  160TMC2    C1 2434   2.941   1.721   1.276  0.4638 -0.6229 -0.6672
  160TMC2    C2 2435   2.999   1.599   1.285 -0.4727 -0.3909  0.2739
  160TMC2    C3 2436   3.057   1.537   1.180 -0.2447  0.0410 -0.4092
  160TMC2    C4 2437   2.954   1.794   1.163  0.3593 -0.3159  0.5740
  160TMC2    C5 2438   3.022   1.732   1.059 -0.2880  0.3493  0.1266
  160TMC2    C6 2439   3.073   1.601   1.062  0.2194  0.2918 -0.5832
  160TMC2     C 2440   2.879   1.778   1.395  0.5026 -0.2406 -0.8767
  160TMC2     O 2441   2.869   1.708   1.497  0.3075  0.0438 -0.5451
  160TMC2     H 2442   2.980   1.548   1.379 -0.6886 -1.3573 -0.2820
  160TMC2    H1 2443   2.898   1.886   1.146  0.2068 -0.1645  1.8929
  160TMC2    H2 2444   3.101   1.551   0.971  0.3408  1.0833 -0.9770
  160TMC2    C7 2445   3.032   1.796   0.925  0.3186  0.4549  0.8064
  160TMC2    C8 2446   3.033   1.390   1.183  0.5847 -0.2216  0.1734
  160TMC2    O1 2447   3.055   1.732   0.820  0.6019 -0.1288  0.0694
  160TMC2    O2 2448   2.938   1.350   1.252 -0.0117  0.1130 -0.3838
  160TMC2    O5 2449   3.065   1.341   1.063 -0.1624  0.0041  0.4286
  160TMC2    H5 2450   3.147   1.378   1.024 -1.1218  1.6672 -0.0346
  161MPD2     C 2451   2.755   1.965   1.600  0.0252 -0.2530 -0.3393
  161MPD2    C1 2452   2.801   2.004   1.477 -0.2150  0.2244 -0.0549
  161MPD2    C2 2453   2.777   2.132   1.431  0.2095 -0.6459  0.0471
  161MPD2    C3 2454   2.687   2.211   1.503 -0.2856  0.7175 -0.0851
  161MPD2    C4 2455   2.640   2.168   1.625 -0.3261 -0.2309 -0.1059
  161MPD2    C5 2456   2.682   2.055   1.678 -0.9398  0.0289  0.3302
  161MPD2     H 2457   2.823   2.172   1.342 -2.0307  2.1447  0.1092
  161MPD2    H1 2458   2.559   2.215   1.681  0.1446  0.7339 -0.2319
  161MPD2    H2 2459   2.775   1.872   1.652 -0.0097  0.5975  1.2146
  161MPD2    H3 2460   2.637   2.021   1.770  0.9310 -1.2881  0.7560
  161MPD2     N 2461   2.620   2.326   1.440  0.2447 -0.2252 -0.3207
  161MPD2    H5 2462   2.526   2.350   1.471  0.5202  0.8561 -0.3284
  161MPD2    N1 2463   2.861   1.915   1.381 -0.8158  0.2649  0.8327
  161MPD2    H7 2464   2.883   1.952   1.289  0.3461  0.1841  1.0745
  162TMC2    C1 2465   0.906   3.925   1.322 -0.7012 -0.0877  0.5375
  162TMC2    C2 2466   0.792   3.912   1.397  0.5197 -1.0686  0.4201
  162TMC2    C3 2467   0.801   3.878   1.529  0.3800  0.2693 -0.1264
  162TMC2    C4 2468   1.031   3.899   1.371  0.2344 -0.6126 -0.3277
  162TMC2    C5 2469   1.033   3.860   1.503  0.0378 -0.5028 -0.2378
  162TMC2    C6 2470   0.922   3.844   1.580  0.5483  0.4418 -0.4624
  162TMC2     C 2471   0.888   3.997   1.200 -0.7464 -0.0998  0.0984
  162TMC2     O 2472   0.784   4.057   1.191  0.1631  0.5224 -0.2276
  162TMC2     H 2473   0.696   3.911   1.347  0.7571  0.9957 -0.0681
  162TMC2    H1 2474   1.124   3.901   1.315  0.3191 -1.4804 -0.2143
  162TMC2    H2 2475   0.937   3.802   1.678  0.8953 -1.0387 -1.1438
  162TMC2    C7 2476   1.168   3.846   1.561  0.3782 -0.5295  0.1211
  162TMC2    C8 2477   0.683   3.814   1.586  0.0201  0.0548 -0.6461
  162TMC2    O1 2478   1.255   3.911   1.510  0.0654 -0.1074  0.0599
  162TMC2    O2 2479   0.568   3.841   1.550 -0.3470 -0.1181  0.0540
  162TMC2    O5 2480   0.717   3.718   1.671 -0.0707  0.3981 -0.3139
  162TMC2    H5 2481   0.812   3.702   1.689 -0.1504  0.2785 -0.0002
  163MPD2     C 2482   1.002   4.171   0.743 -0.0211  0.3865  0.5423
  163MPD2    C1 2483   1.114   4.102   0.790 -0.3170  0.2747  0.3258
  163MPD2    C2 2484   1.118   4.039   0.917 -0.4599  0.3650  0.1042
  163MPD2    C3 2485   0.999   4.057   0.988 -0.1472  0.0513 -0.2308
  163MPD2    C4 2486   0.890   4.130   0.942 -0.4686  0.1019  0.3688
  163MPD2    C5 2487   0.888   4.194   0.822  0.0739  0.6222 -0.2957
  163MPD2     H 2488   1.206   4.002   0.968 -0.8133 -1.1059 -0.3523
  163MPD2    H1 2489   0.796   4.140   0.996 -0.8037 -0.3287 -0.1309
  163MPD2    H2 2490   1.009   4.216   0.645  0.2504  0.0124  0.3882
  163MPD2    H3 2491   0.796   4.249   0.804  0.0543  0.9162  0.7138
  163MPD2     N 2492   0.994   3.991   1.111 -0.0844 -0.3741 -0.4574
  163MPD2    H5 2493   1.067   3.922   1.127  1.7162  1.7619  0.6676
  163MPD2    N1 2494   1.217   4.098   0.695 -0.4796  0.6012 -0.1812
  163MPD2    H7 2495   1.210   4.162   0.616 -1.1956 -0.8042 -1.2688
  164TCq2    C1 2496   1.837   3.841  11.278 -0.0447 -0.0024 -0.2396
  164TCq2    O2 2497   1.764   3.761  11.330 -0.0034  0.3577  0.4735
  164TCq2    C2 2498   1.813   3.982  11.287  1.0795  0.5351  0.0194
  164TCq2    C3 2499   1.902   4.079  11.265 -0.1322 -0.5871 -0.0781
  164TCq2    C4 2500   1.873   4.207  11.289 -0.4542 -0.2598  0.9610
  164TCq2    C5 2501   1.754   4.249  11.333  0.3198  0.2766 -0.0384
  164TCq2    C6 2502   1.659   4.158  11.344  0.1294  0.2974 -0.1387
  164TCq2    C7 2503   1.691   4.022  11.326 -0.4625  0.3332 -0.2701
  164TCq2    C8 2504   1.536   4.185  11.408  0.3592 -0.6522  0.1854
  164TCq2    O4 2505   1.459   4.257  11.347  0.0908 -0.0664 -0.2350
  164TCq2    C9 2506   1.968   4.313  11.253 -0.1890 -0.0406  0.1692
  164TCq2    O5 2507   1.913   4.425  11.247  0.2140 -0.4793 -0.3125
  164TCq2    O6 2508   2.095   4.290  11.256 -0.0326  0.3228  0.1222
  164TCq2    H2 2509   1.994   4.061  11.212  0.3316  1.0253  0.1891
  164TCq2    H3 2510   1.725   4.352  11.353 -0.9319  0.0933 -0.8709
  164TCq2    H4 2511   1.611   3.952  11.344 -1.6686  1.3105 -1.7961
  165MPD2     C 2512   2.243   0.677   2.244 -0.7354  0.0238 -0.2616
  165MPD2    C1 2513   2.249   0.762   2.134 -0.0228 -1.2670  0.4198
  165MPD2    C2 2514   2.308   0.884   2.161 -0.6417 -0.0443  0.4048
  165MPD2    C3 2515   2.363   0.916   2.280  0.7275 -0.3920 -0.2912
  165MPD2    C4 2516   2.364   0.822   2.381  0.2113  0.0118 -0.3540
  165MPD2    C5 2517   2.295   0.702   2.365 -0.1843  0.2211 -0.7853
  165MPD2     H 2518   2.306   0.954   2.078 -1.7918 -1.4199 -0.7400
  165MPD2    H1 2519   2.407   0.840   2.479  1.1647  1.3175 -1.0148
  165MPD2    H2 2520   2.211   0.575   2.225 -0.0685 -0.8714  3.3001
  165MPD2    H3 2521   2.287   0.633   2.448 -1.8661  1.5178  0.1197
  165MPD2     N 2522   2.436   1.031   2.303 -0.6170  0.7728 -0.1736
  165MPD2    H5 2523   2.471   1.039   2.398  2.6921 -1.4274 -1.2016
  165MPD2    N1 2524   2.196   0.716   2.011  0.5005  0.6664 -0.4973
  165MPD2    H7 2525   2.159   0.622   2.022  0.3714  0.8479  0.5794
  166TCq2    C1 2526   2.454   1.137   2.218 -0.0719  0.5492 -0.5448
  166TCq2    O2 2527   2.422   1.157   2.106  0.1947  0.1473 -0.0811
  166TCq2    C2 2528   2.531   1.244   2.270 -0.1393  0.1865 -0.3970
  166TCq2    C3 2529   2.503   1.282   2.396  0.4421  0.2023  0.7019
  166TCq2    C4 2530   2.554   1.395   2.441 -0.1711  0.3404  0.0747
  166TCq2    C5 2531   2.615   1.483   2.354  0.5649 -0.2987 -0.0751
  166TCq2    C6 2532   2.630   1.445   2.220 -0.4908  0.6227 -0.2174
  166TCq2    C7 2533   2.591   1.321   2.178 -0.7501 -0.4777 -0.0598
  166TCq2    C8 2534   2.705   1.526   2.119  0.2557  0.1153  0.2305
  166TCq2    O4 2535   2.770   1.463   2.033 -0.1921  0.1498 -0.6367
  166TCq2    C9 2536   2.543   1.431   2.579  0.0103  0.1243  0.9251
  166TCq2    O5 2537   2.574   1.546   2.612  0.2331 -0.5745  0.2867
  166TCq2    O6 2538   2.505   1.347   2.661 -0.2294 -0.5133 -0.4060
  166TCq2    H2 2539   2.451   1.218   2.467  0.5773  0.0469  0.6593
  166TCq2    H3 2540   2.658   1.575   2.391 -1.1015 -0.1501  1.4928
  166TCq2    H4 2541   2.595   1.289   2.074  0.8060  1.6188 -0.6342
  167TMC2    C1 2542   0.687   3.959  12.898 -0.1314 -0.6417  0.9499
  167TMC2    C2 2543   0.582   3.949  12.982 -0.4456 -0.3698  0.3788
  167TMC2    C3 2544   0.595   3.863  13.088 -0.2089  0.3602 -0.5316
  167TMC2    C4 2545   0.772   3.852  12.887  0.3106  0.5822 -0.2264
  167TMC2    C5 2546   0.782   3.764  12.994  0.4720 -0.4417  0.3816
  167TMC2    C6 2547   0.700   3.772  13.102  0.3482 -0.0346  0.0187
  167TMC2     C 2548   0.695   4.081  12.824 -0.5842 -0.1079  0.3683
  167TMC2     O 2549   0.591   4.146  12.818  0.0901 -0.1204  0.1093
  167TMC2     H 2550   0.498   4.013  12.959 -1.2112 -1.1763  0.9306
  167TMC2    H1 2551   0.830   3.849  12.796 -0.4973 -0.2315 -0.7062
  167TMC2    H2 2552   0.711   3.702  13.184  2.0425  0.2808  0.0495
  167TMC2    C7 2553   0.876   3.648  12.991  0.2973 -0.0124 -0.0177
  167TMC2    C8 2554   0.484   3.841  13.187 -1.0116 -0.4703  1.4223
  167TMC2    O1 2555   0.885   3.583  13.095  0.2866  0.2515 -0.1685
  167TMC2    O2 2556   0.369   3.846  13.154 -0.4417 -0.4071  0.4049
  167TMC2    O5 2557   0.528   3.848  13.313 -0.0418  0.2437 -0.0813
  167TMC2    H5 2558   0.625   3.853  13.326  0.0839 -2.0721 -0.2201
  168MPD2     C 2559   0.773   4.320  12.667 -0.0161  0.4983 -0.6922
  168MPD2    C1 2560   0.845   4.201  12.663  0.5306  0.3961 -0.5322
  168MPD2    C2 2561   0.954   4.199  12.579  0.0576 -0.3391 -0.5156
  168MPD2    C3 2562   0.980   4.292  12.482 -0.1485 -0.0048  0.2569
  168MPD2    C4 2563   0.897   4.402  12.477  0.8879 -0.0822 -0.3706
  168MPD2    C5 2564   0.806   4.415  12.579 -0.2757  0.2400 -0.3377
  168MPD2     H 2565   1.009   4.106  12.573 -1.3013 -1.3032  1.7973
  168MPD2    H1 2566   0.913   4.487  12.411 -1.1461  1.1840  0.7594
  168MPD2    H2 2567   0.690   4.332  12.736  1.1599  0.4106  0.7357
  168MPD2    H3 2568   0.751   4.509  12.584  0.2550  0.4040  2.2659
  168MPD2     N 2569   1.086   4.276  12.384  0.0326  0.1090 -0.3345
  168MPD2    H5 2570   1.064   4.326  12.298  2.2971 -0.5606 -1.2896
  168MPD2    N1 2571   0.811   4.093  12.747 -0.0326 -0.7409  0.1509
  168MPD2    H7 2572   0.878   4.017  12.742  2.0242  0.9338  1.9938
  169MPD1     C 2573   4.491   2.535   9.064  0.8480 -0.3961 -0.1786
  169MPD1    C1 2574   4.449   2.666   9.041  0.0173  0.0207  0.6589
  169MPD1    C2 2575   4.434   2.746   9.156 -0.1339  0.5024  0.5361
  169MPD1    C3 2576   4.461   2.696   9.281 -0.4021  0.2115  0.4706
  169MPD1    C4 2577   4.494   2.563   9.296 -0.2369  0.1591 -0.5030
  169MPD1    C5 2578   4.510   2.483   9.188 -0.2399 -0.4002 -0.4355
  169MPD1     H 2579   4.401   2.848   9.143 -0.5331  0.3158  0.0986
  169MPD1    H1 2580   4.505   2.518   9.394  0.0736 -0.5972 -0.8834
  169MPD1    H2 2581   4.501   2.459   8.987 -1.0417  0.7785 -1.5833
  169MPD1    H3 2582   4.544   2.381   9.204  1.8118  0.2986 -0.2860
  169MPD1     N 2583   4.456   2.785   9.391  0.3473  0.2359  0.8149
  169MPD1    H5 2584   4.460   2.884   9.370  2.2916  0.0381  0.2139
  169MPD1    N1 2585   4.400   2.702   8.923  0.4987 -0.4828  0.4410
  169MPD1    H6 2586   4.414   2.796   8.885 -0.7443 -0.3432  0.3353
  169MPD1    H7 2587   4.410   2.632   8.850  0.6751 -0.9957  0.9602
  170MPD1     C 2588   0.902   1.460  12.916  0.0055 -0.1654  0.1553
  170MPD1    C1 2589   1.009   1.538  12.893 -0.5802 -0.6194  0.0655
  170MPD1    C2 2590   1.098   1.564  13.001  0.8723  0.1764  0.0308
  170MPD1    C3 2591   1.072   1.517  13.134 -0.7017  0.3847 -0.5988
  170MPD1    C4 2592   0.960   1.437  13.151 -0.6224 -0.1639 -1.0075
  170MPD1    C5 2593   0.877   1.423  13.046  0.1689 -0.4556  0.6211
  170MPD1     H 2594   1.187   1.623  12.987  1.7068 -1.2548 -0.7854
  170MPD1    H1 2595   0.936   1.394  13.248  0.3617 -0.2415 -0.7977
  170MPD1    H2 2596   0.833   1.431  12.838  1.0901 -3.2057  0.3279
  170MPD1    H3 2597   0.786   1.367  13.060  0.0338 -0.5756 -0.7136
  170MPD1     N 2598   1.168   1.543  13.235 -0.2642  0.7325  1.0516
  170MPD1    H5 2599   1.253   1.590  13.206 -1.0470 -0.4318 -3.1375
  170MPD1    N1 2600   1.042   1.569  12.762 -0.3410  0.3160  0.4089
  170MPD1    H6 2601   0.969   1.582  12.693 -0.7007  1.0157  0.9229
  170MPD1    H7 2602   1.100   1.653  12.765  3.2343 -2.1585  0.3359
  171MPD1     C 2603   4.389   2.953  15.707  0.1184 -0.2372 -0.3345
  171MPD1    C1 2604   4.398   2.866  15.605 -0.1142 -0.3531 -0.1068
  171MPD1    C2 2605   4.486   2.758  15.617  0.0398  0.4605  0.1204
  171MPD1    C3 2606   4.571   2.746  15.725 -0.2053 -0.7314  0.0436
  171MPD1    C4 2607   4.572   2.849  15.818 -0.2079 -0.1444  0.2273
  171MPD1    C5 2608   4.479   2.954  15.813 -0.2448 -0.0013 -0.2436
  171MPD1     H 2609   4.503   2.687  15.536 -3.8664  0.8859 -1.0635
  171MPD1    H1 2610   4.653   2.852  15.890  2.8975  0.5532 -3.3399
  171MPD1    H2 2611   4.311   3.028  15.705 -1.3701 -1.7164  2.0778
  171MPD1    H3 2612   4.474   3.027  15.893 -1.8995  0.4376 -0.7271
  171MPD1     N 2613   4.661   2.639  15.757  0.0555 -0.0325  0.3659
  171MPD1    H5 2614   4.701   2.640  15.850  0.8275  0.9667  0.0276
  171MPD1    N1 2615   4.291   2.854  15.517 -0.0192  0.6479 -0.4227
  171MPD1    H6 2616   4.258   2.947  15.495 -1.1484  0.3317 -0.0825
  171MPD1    H7 2617   4.305   2.806  15.428  0.0184 -1.7426  0.8473
  172MPD1     C 2618   4.036   1.043   0.361 -0.6803  1.0838  0.2483
  172MPD1    C1 2619   3.954   1.133   0.305 -0.6196  0.1125 -0.4603
  172MPD1    C2 2620   3.980   1.265   0.327  0.6236 -0.0974  0.1079
  172MPD1    C3 2621   4.094   1.315   0.397  0.2840 -0.3861 -0.0129
  172MPD1    C4 2622   4.182   1.220   0.447 -0.2981 -0.0965  0.1051
  172MPD1    C5 2623   4.145   1.090   0.436  0.4459 -0.1559 -0.8935
  172MPD1     H 2624   3.913   1.338   0.283  1.3219 -0.0542 -0.8813
  172MPD1    H1 2625   4.268   1.255   0.503  0.7786 -1.0645 -0.9310
  172MPD1    H2 2626   4.039   0.936   0.340  1.9145  1.0903  0.4962
  172MPD1    H3 2627   4.217   1.019   0.476 -0.4472 -0.0589  0.8685
  172MPD1     N 2628   4.118   1.452   0.416 -0.8946  0.8620  0.3946
  172MPD1    H5 2629   4.199   1.466   0.476 -0.3172  2.3496 -0.7465
  172MPD1    N1 2630   3.838   1.093   0.241  0.2396  0.4507  0.0797
  172MPD1    H6 2631   3.815   1.156   0.164  0.4089  0.9500  0.4339
  172MPD1    H7 2632   3.845   0.997   0.208  0.1543  0.3280  0.4185
  173MPD1     C 2633   1.267   1.777  14.018  0.0845  0.0858  0.3868
  173MPD1    C1 2634   1.150   1.786  13.950 -0.1127  0.4386 -0.7884
  173MPD1    C2 2635   1.043   1.719  14.003 -0.0450 -0.4944  0.3380
  173MPD1    C3 2636   1.057   1.641  14.113  0.0673  0.4783 -0.1357
  173MPD1    C4 2637   1.176   1.640  14.187  0.5249 -0.1453  0.4442
  173MPD1    C5 2638   1.284   1.709  14.140 -0.4724  0.6901  0.5791
  173MPD1     H 2639   0.939   1.726  13.973  0.3808  0.5500 -0.8968
  173MPD1    H1 2640   1.200   1.572  14.268  1.0841  0.9020  1.1583
  173MPD1    H2 2641   1.353   1.828  13.976 -0.1605  0.8504  0.8199
  173MPD1    H3 2642   1.375   1.705  14.198 -0.8655  2.1508  1.2918
  173MPD1     N 2643   0.950   1.557  14.143  0.1683  0.1593  0.1322
  173MPD1    H5 2644   0.863   1.561  14.091 -0.4620  0.8975  1.2563
  173MPD1    N1 2645   1.133   1.884  13.845  0.6080  0.3152  0.3386
  173MPD1    H6 2646   1.226   1.896  13.807  0.0840  2.0301 -0.3804
  173MPD1    H7 2647   1.073   1.840  13.776  1.5349 -0.1787 -0.1492
  174MPD1     C 2648   0.127   1.144  13.824 -0.6572 -0.6274 -0.7121
  174MPD1    C1 2649   0.261   1.120  13.794  0.5204  0.0655  0.0868
  174MPD1    C2 2650   0.351   1.154  13.895  0.0739 -0.5218 -0.3708
  174MPD1    C3 2651   0.320   1.241  13.999 -0.5710  1.0737 -0.8315
  174MPD1    C4 2652   0.185   1.278  14.010 -0.1953  0.2965  0.1473
  174MPD1    C5 2653   0.092   1.227  13.924 -0.3877  0.1903  0.3305
  174MPD1     H 2654   0.448   1.110  13.874  0.3234 -0.9568  1.7466
  174MPD1    H1 2655   0.143   1.350  14.079  3.4687  0.6932  1.9650
  174MPD1    H2 2656   0.046   1.106  13.762 -1.6695  1.4327 -0.6508
  174MPD1    H3 2657   4.712   1.255  13.931 -0.6167 -0.1927 -1.6566
  174MPD1     N 2658   0.414   1.301  14.085  0.1606 -0.3744 -0.0368
  174MPD1    H5 2659   0.374   1.342  14.168 -0.8743  2.0575 -1.7365
  174MPD1    N1 2660   0.293   1.044  13.686  0.0676  0.5746  0.1755
  174MPD1    H6 2661   0.389   1.038  13.656 -0.0326 -1.7285  0.3097
  174MPD1    H7 2662   0.226   1.058  13.611  0.7144  0.0594 -0.4950
  175MPD1     C 2663   4.313   2.410  15.604  0.3215 -0.5004 -0.0866
  175MPD1    C1 2664   4.186   2.372  15.567  0.1435 -0.9427  0.1959
  175MPD1    C2 2665   4.101   2.326  15.670 -0.3989  0.0013 -0.1680
  175MPD1    C3 2666   4.145   2.335  15.802 -0.7149  0.7318 -0.2924
  175MPD1    C4 2667   4.272   2.383  15.835  0.8095 -0.8644  0.2009
  175MPD1    C5 2668   4.361   2.413  15.736  0.4564 -0.4862 -0.3358
  175MPD1     H 2669   3.999   2.291  15.652 -0.2926 -0.8474  0.9092
  175MPD1    H1 2670   4.299   2.406  15.937  1.1805 -0.3928 -0.0012
  175MPD1    H2 2671   4.381   2.442  15.526  1.1360 -2.2001 -0.0656
  175MPD1    H3 2672   4.464   2.439  15.757  0.7742  0.0752 -2.5868
  175MPD1     N 2673   4.058   2.302  15.914 -0.2433 -0.3612  0.3733
  175MPD1    H5 2674   4.087   2.339  16.004  1.2324 -2.2222  0.6481
  175MPD1    N1 2675   4.143   2.410  15.439  0.0442  0.0236  0.1757
  175MPD1    H6 2676   4.058   2.363  15.409 -0.4868 -0.0631  1.8297
  175MPD1    H7 2677   4.208   2.386  15.365 -1.7732  0.7591 -1.6530
  176MPD1     C 2678   4.666   0.120  17.033 -0.3791  0.1937  0.3844
  176MPD1    C1 2679   4.587   0.223  17.093 -1.1414  0.0028  0.7706
  176MPD1    C2 2680   4.603   0.244  17.231 -0.4095 -0.7350  0.6239
  176MPD1    C3 2681   4.689   0.163  17.306 -0.1580  0.1100  0.0913
  176MPD1    C4 2682   0.030   0.055  17.242  0.0329 -0.3359 -0.6786
  176MPD1    C5 2683   0.019   0.044  17.108 -0.4699  0.1639 -0.5210
  176MPD1     H 2684   4.542   0.320  17.278  0.3159  0.0545  0.2895
  176MPD1    H1 2685   0.110   4.718  17.280 -0.3597 -1.1956 -1.2666
  176MPD1    H2 2686   4.658   0.113  16.925  0.3019 -0.3814  0.3762
  176MPD1    H3 2687   0.088   4.702  17.056 -2.0217  0.3822 -2.8648
  176MPD1     N 2688   4.698   0.191  17.443 -0.3058 -0.8585  0.1979
  176MPD1    H5 2689   4.652   0.273  17.481  1.8075  0.7077 -0.6215
  176MPD1    N1 2690   4.506   0.301  17.014  0.6896 -0.3739  0.4971
  176MPD1    H6 2691   4.431   0.353  17.060 -0.2526 -0.3010 -1.1321
  176MPD1    H7 2692   4.471   0.255  16.931 -2.3381 -2.0057  2.6929
  177MPD1     C 2693   0.035   4.222  10.642  0.4236 -0.1878 -0.8423
  177MPD1    C1 2694   4.699   4.168  10.527  1.0152 -0.3459  0.9952
  177MPD1    C2 2695   0.004   4.238  10.408 -0.3984 -0.1886 -0.1264
  177MPD1    C3 2696   0.076   4.357  10.407  0.1005  0.3481  0.2478
  177MPD1    C4 2697   0.113   4.411  10.523  0.0513 -0.0209  0.3601
  177MPD1    C5 2698   0.094   4.346  10.638 -0.1084 -0.4921  0.4524
  177MPD1     H 2699   4.686   4.195  10.318 -3.0025  1.6002  0.2585
  177MPD1    H1 2700   0.165   4.505  10.534 -0.0503  0.0272  0.4366
  177MPD1    H2 2701   0.027   4.187  10.744  3.0700 -0.1661 -0.6432
  177MPD1    H3 2702   0.139   4.385  10.729 -1.2771 -0.9550  1.2273
  177MPD1     N 2703   0.096   4.404  10.275  0.4816 -0.0426  0.4064
  177MPD1    H5 2704   0.046   4.360  10.198  1.0945 -1.6535  0.9188
  177MPD1    N1 2705   4.639   4.043  10.526 -0.6473 -0.3469 -0.2250
  177MPD1    H6 2706   4.559   4.048  10.463  1.6951  3.3936 -2.9075
  177MPD1    H7 2707   4.599   4.026  10.618 -1.8900 -0.8784 -0.8598
  178MPD1     C 2708   1.995   0.309   0.554  0.3032 -0.2010  0.4881
  178MPD1    C1 2709   1.898   0.278   0.456  0.3304  0.2094 -0.1098
  178MPD1    C2 2710   1.898   0.358   0.344 -0.2158  1.2101 -0.3293
  178MPD1    C3 2711   1.968   0.477   0.343  0.1612 -0.1196 -0.0507
  178MPD1    C4 2712   2.058   0.508   0.446  0.0455  0.1374  0.1619
  178MPD1    C5 2713   2.067   0.425   0.548  0.2873 -0.4965 -0.2963
  178MPD1     H 2714   1.836   0.321   0.263  0.1928  1.3941 -0.7272
  178MPD1    H1 2715   2.116   0.600   0.446 -0.1674  0.2672 -1.0002
  178MPD1    H2 2716   2.018   0.241   0.636  0.7718 -0.6599 -0.0246
  178MPD1    H3 2717   2.142   0.449   0.623  0.7470  0.5746 -1.0951
  178MPD1     N 2718   1.958   0.559   0.228 -0.0155  0.0475 -0.0417
  178MPD1    H5 2719   2.030   0.631   0.230  0.1048 -0.0841  0.2648
  178MPD1    N1 2720   1.823   0.158   0.449 -0.2781 -0.2078  0.3531
  178MPD1    H6 2721   1.793   0.125   0.540 -0.9752  3.0264  1.2880
  178MPD1    H7 2722   1.735   0.166   0.398  0.9535 -0.1326 -1.7738
  179MPD1     C 2723   0.665   3.790  15.828 -0.0283  0.2955  1.3303
  179MPD1    C1 2724   0.711   3.777  15.955 -0.5611  0.7556  0.3230
  179MPD1    C2 2725   0.741   3.644  15.993 -0.4713 -0.0420  0.1054
  179MPD1    C3 2726   0.743   3.535  15.905 -0.3148 -0.6338  0.3775
  179MPD1    C4 2727   0.689   3.561  15.783  0.0725  0.0042 -0.4936
  179MPD1    C5 2728   0.650   3.685  15.743  0.1487  0.2647 -1.1418
  179MPD1     H 2729   0.767   3.627  16.096 -0.7242  1.3556  0.3964
  179MPD1    H1 2730   0.688   3.482  15.707 -2.1163  1.1757 -1.6994
  179MPD1    H2 2731   0.649   3.887  15.783  1.8169 -0.5761 -1.1963
  179MPD1    H3 2732   0.628   3.692  15.637 -0.8360 -0.9548 -1.0161
  179MPD1     N 2733   0.816   3.416  15.922  0.3101  0.6894 -0.3082
  179MPD1    H5 2734   0.802   3.348  15.847  0.5949 -0.6866  0.8735
  179MPD1    N1 2735   0.701   3.877  16.053 -0.2034  0.3373  0.0264
  179MPD1    H6 2736   0.707   3.970  16.011  2.6913  0.5638  0.8827
  179MPD1    H7 2737   0.780   3.881  16.118  0.4169 -0.8837 -0.6606
  180MPD1     C 2738   0.638   0.079  14.913  0.0145 -0.4501  0.6590
  180MPD1    C1 2739   0.646   0.033  14.785  0.3461  0.5845 -0.1600
  180MPD1    C2 2740   0.739   0.100  14.697 -0.5412 -0.0880 -0.4272
  180MPD1    C3 2741   0.833   0.190  14.745 -0.0124  0.3645 -0.4205
  180MPD1    C4 2742   0.819   0.234  14.877 -0.2978 -0.0681  0.1874
  180MPD1    C5 2743   0.733   0.175  14.962  0.1260  0.7803 -0.2987
  180MPD1     H 2744   0.743   0.071  14.593 -0.9971 -0.0199 -0.4623
  180MPD1    H1 2745   0.882   0.312  14.916  0.5868 -0.8216  0.2784
  180MPD1    H2 2746   0.563   0.044  14.983  0.0947  2.1733  2.0659
  180MPD1    H3 2747   0.730   0.218  15.062 -0.4715 -1.6216  0.7317
  180MPD1     N 2748   0.924   0.259  14.659 -0.6229 -0.1906 -0.1180
  180MPD1    H5 2749   0.920   0.231  14.561  0.9053  0.3786 -0.3415
  180MPD1    N1 2750   0.538   4.676  14.738  0.1313  0.0543 -0.7126
  180MPD1    H6 2751   0.488   4.625  14.810  0.6421  2.4333  1.3383
  180MPD1    H7 2752   0.569   4.604  14.673  0.2935 -1.2701  0.8607
  181MPD1     C 2753   0.861   3.321  10.021 -0.0999 -0.1762  0.3400
  181MPD1    C1 2754   0.731   3.363  10.009  0.0342  0.2335 -0.1121
  181MPD1    C2 2755   0.639   3.264   9.992  0.7246 -0.4761  0.1437
  181MPD1    C3 2756   0.670   3.126   9.972  0.0282  0.4386 -0.2643
  181MPD1    C4 2757   0.797   3.093   9.979  0.2411  0.3140  0.5010
  181MPD1    C5 2758   0.898   3.185  10.009 -0.0528 -0.0528 -0.8735
  181MPD1     H 2759   0.533   3.278  10.011  1.0344 -0.2620  1.7280
  181MPD1    H1 2760   0.827   2.988   9.981 -0.8214  0.0269  1.2116
  181MPD1    H2 2761   0.942   3.392  10.028  0.6205 -1.0582  1.0556
  181MPD1    H3 2762   1.000   3.151  10.022  0.1508  1.1113  0.5194
  181MPD1     N 2763   0.568   3.026   9.961  0.6298  1.4505 -0.0311
  181MPD1    H5 2764   0.601   2.932   9.982  0.2910  1.2752 -0.2888
  181MPD1    N1 2765   0.698   3.497  10.038  0.3707  0.0184 -0.2071
  181MPD1    H6 2766   0.755   3.562   9.985 -0.9175  0.7658 -0.6555
  181MPD1    H7 2767   0.599   3.516  10.022  0.3606  0.0736 -0.0800
  182MPD1     C 2768   3.556   4.473   1.079  0.0736 -1.1071  1.2205
  182MPD1    C1 2769   3.498   4.583   1.135  0.0846  0.0051  0.3701
  182MPD1    C2 2770   3.471   4.691   1.056 -0.1775 -0.6779 -0.2959
  182MPD1    C3 2771   3.509   4.696   0.922  0.3846  0.1625  0.0312
  182MPD1    C4 2772   3.573   4.586   0.871 -0.2326  0.3653  0.1992
  182MPD1    C5 2773   3.599   4.475   0.951 -0.3556 -0.7427 -0.4629
  182MPD1     H 2774   3.413   0.048   1.098  0.4595  0.1411 -1.0147
  182MPD1    H1 2775   3.604   4.575   0.768  1.0294  0.3057  0.5829
  182MPD1    H2 2776   3.578   4.382   1.134  1.6036 -0.2362  2.0531
  182MPD1    H3 2777   3.651   4.388   0.911 -0.4847 -0.9147 -0.2571
  182MPD1     N 2778   3.458   0.071   0.836  0.0433  0.1703 -0.9012
  182MPD1    H5 2779   3.464   0.042   0.739  0.6445 -1.7853 -0.2851
  182MPD1    N1 2780   3.443   4.569   1.269 -0.4384  0.2026  0.1206
  182MPD1    H6 2781   3.505   4.511   1.324 -1.7747 -0.4105  0.9877
  182MPD1    H7 2782   3.418   4.654   1.321  0.7083  1.1974 -0.9521
  183MPD1     C 2783   4.284   1.094   9.309 -0.3149  0.4898 -0.4638
  183MPD1    C1 2784   4.415   1.107   9.256 -0.3627 -0.9507 -0.0885
  183MPD1    C2 2785   4.519   1.116   9.347  0.2246  0.1307 -0.4001
  183MPD1    C3 2786   4.504   1.111   9.481  0.5682  0.3658  0.1573
  183MPD1    C4 2787   4.375   1.079   9.527 -0.1211  0.5107 -0.3925
  183MPD1    C5 2788   4.265   1.079   9.446  0.4098 -0.3256  0.0789
  183MPD1     H 2789   4.621   1.134   9.316  0.9218 -0.5963  1.4358
  183MPD1    H1 2790   4.355   1.054   9.631 -1.1405  0.6382 -0.5636
  183MPD1    H2 2791   4.198   1.099   9.243  0.9261  0.5626 -2.0832
  183MPD1    H3 2792   4.169   1.059   9.492  1.4882  1.0279  2.9459
  183MPD1     N 2793   4.612   1.136   9.562 -0.1643 -0.6817  0.5766
  183MPD1    H5 2794   4.696   1.161   9.511  0.6076  0.8093  2.5406
  183MPD1    N1 2795   4.445   1.135   9.121 -0.2810  0.2740  0.4318
  183MPD1    H6 2796   4.390   1.072   9.063  0.7507  0.3291 -0.6096
  183MPD1    H7 2797   4.540   1.124   9.086 -0.5519 -0.7001 -0.0203
  184MPD1     C 2798   3.829   3.929   9.701  0.0864  0.0440 -0.3918
  184MPD1    C1 2799   3.837   4.059   9.751 -0.2620 -0.3626  0.4782
  184MPD1    C2 2800   3.960   4.127   9.747  0.7875  0.1551 -0.4346
  184MPD1    C3 2801   4.062   4.064   9.677  0.5976 -0.3986 -0.1746
  184MPD1    C4 2802   4.044   3.943   9.623 -0.0711  0.0749 -0.8625
  184MPD1    C5 2803   3.932   3.869   9.638  0.4109 -0.2304 -0.3890
  184MPD1     H 2804   3.970   4.226   9.790  1.4733  0.8852 -2.2776
  184MPD1    H1 2805   4.131   3.891   9.585  0.2121 -0.8363  1.0470
  184MPD1    H2 2806   3.740   3.870   9.716  0.4074 -0.2781  0.2485
  184MPD1    H3 2807   3.925   3.767   9.603 -1.6662  0.3432 -1.6581
  184MPD1     N 2808   4.187   4.123   9.653 -0.0048 -0.0514 -0.2617
  184MPD1    H5 2809   4.253   4.078   9.590 -1.0912 -0.0876 -1.3821
  184MPD1    N1 2810   3.731   4.114   9.815 -0.0967  0.1537 -0.1325
  184MPD1    H6 2811   3.648   4.065   9.783  0.2883  0.6307 -1.9032
  184MPD1    H7 2812   3.719   4.211   9.787  1.2761  0.6234  0.8900
  185MPD1     C 2813   4.596   4.030   8.980  0.1107  0.5899 -0.2558
  185MPD1    C1 2814   4.625   4.158   9.000 -0.5394  0.1962 -0.0249
  185MPD1    C2 2815   4.610   4.211   9.127  0.3790  0.2807  0.4622
  185MPD1    C3 2816   4.575   4.129   9.229  0.2525  0.7922  0.1332
  185MPD1    C4 2817   4.555   3.995   9.215  0.2914 -0.1254 -0.3810
  185MPD1    C5 2818   4.558   3.954   9.084  0.2329  0.5436  0.1981
  185MPD1     H 2819   4.618   4.318   9.143  1.1588  0.2952  0.0070
  185MPD1    H1 2820   4.515   3.934   9.295  0.4276 -1.9463 -1.6951
  185MPD1    H2 2821   4.611   3.980   8.884  1.5573  1.3656 -0.4342
  185MPD1    H3 2822   4.535   3.849   9.066 -0.1795  1.0528 -2.2389
  185MPD1     N 2823   4.553   4.177   9.358  0.2230  0.0783  0.0703
  185MPD1    H5 2824   4.522   4.114   9.432 -1.2297 -1.0038 -1.4782
  185MPD1    N1 2825   4.681   4.236   8.891 -0.1494 -0.3363 -1.0250
  185MPD1    H6 2826   4.670   4.199   8.797 -0.0045 -0.0958 -1.1365
  185MPD1    H7 2827   4.679   4.337   8.906  0.6333 -0.6900  1.5231
  186MPD1     C 2828   0.806   4.001  15.585  0.3471  0.1641  1.1231
  186MPD1    C1 2829   0.918   3.926  15.607 -0.2905  0.8846  0.0737
  186MPD1    C2 2830   0.991   3.957  15.717 -0.0420  0.2411 -0.8602
  186MPD1    C3 2831   0.951   4.060  15.801  0.2069 -0.6413 -0.2387
  186MPD1    C4 2832   0.833   4.127  15.776 -0.9382  0.5377 -0.4933
  186MPD1    C5 2833   0.760   4.099  15.668 -0.0738  0.7882  0.2242
  186MPD1     H 2834   1.090   3.915  15.732 -1.6652 -2.9576  0.7805
  186MPD1    H1 2835   0.805   4.207  15.843  0.8269  1.9495 -1.4557
  186MPD1    H2 2836   0.747   3.988  15.495  1.1249 -2.0735  0.9330
  186MPD1    H3 2837   0.673   4.153  15.630 -0.0625 -0.2009 -1.2024
  186MPD1     N 2838   1.006   4.093  15.926 -0.0892 -0.0602  0.3385
  186MPD1    H5 2839   0.944   4.136  15.994 -0.0325  0.8324 -0.1668
  186MPD1    N1 2840   0.960   3.830  15.517 -0.1289  0.1408 -0.1517
  186MPD1    H6 2841   0.884   3.787  15.464  1.4421  0.6609 -2.8142
  186MPD1    H7 2842   0.989   3.751  15.574  3.1429  1.7752  0.4176
  187MPD1     C 2843   1.162   0.603   0.550 -0.2645 -0.7069 -0.6548
  187MPD1    C1 2844   1.035   0.570   0.505  0.8379  0.3839 -0.2173
  187MPD1    C2 2845   0.985   0.657   0.414  0.4335  0.2519  0.3134
  187MPD1    C3 2846   1.053   0.768   0.366 -0.2891 -0.1218 -0.0068
  187MPD1    C4 2847   1.189   0.783   0.397  0.5492 -0.0007 -0.2532
  187MPD1    C5 2848   1.238   0.696   0.487 -0.1911 -0.1655  0.2251
  187MPD1     H 2849   0.881   0.645   0.388  0.6222 -0.9933  0.1229
  187MPD1    H1 2850   1.248   0.866   0.362 -2.4042  1.7884 -1.0406
  187MPD1    H2 2851   1.205   0.536   0.624  0.6022  1.6190  0.9422
  187MPD1    H3 2852   1.340   0.696   0.523  0.2569 -0.9866 -1.0467
  187MPD1     N 2853   1.008   0.848   0.256  0.7253 -0.2474  0.7305
  187MPD1    H5 2854   1.072   0.922   0.228  0.7953  0.1924  2.0156
  187MPD1    N1 2855   0.953   0.480   0.575 -0.2458  0.4606 -0.5264
  187MPD1    H6 2856   1.011   0.401   0.601 -0.4124  0.0986 -1.2340
  187MPD1    H7 2857   0.882   0.445   0.510 -0.6998 -1.0367  0.7648
  188MPD1     C 2858   0.972   1.268   9.636 -0.4810  0.0535  0.3941
  188MPD1    C1 2859   0.937   1.213   9.755  0.6787 -0.4900  0.8749
  188MPD1    C2 2860   1.001   1.090   9.795  0.4264 -0.4056 -0.2861
  188MPD1    C3 2861   1.101   1.034   9.709 -0.2163  0.1034  0.3274
  188MPD1    C4 2862   1.122   1.087   9.587  0.3534 -0.0376  0.0991
  188MPD1    C5 2863   1.060   1.204   9.549  0.1748  0.1651 -0.0829
  188MPD1     H 2864   0.970   1.045   9.888  3.0559 -1.1094  0.2397
  188MPD1    H1 2865   1.186   1.039   9.513  1.1996 -0.7490  1.2879
  188MPD1    H2 2866   0.913   1.351   9.597 -1.0553  0.7867  2.8268
  188MPD1    H3 2867   1.074   1.232   9.445  0.4234 -0.1691 -0.1389
  188MPD1     N 2868   1.173   0.913   9.739 -0.0308 -0.1871  0.6958
  188MPD1    H5 2869   1.228   0.869   9.666 -1.2379  0.6048 -0.6900
  188MPD1    N1 2870   0.837   1.268   9.838 -0.0120 -0.1616 -0.2172
  188MPD1    H6 2871   0.785   1.199   9.892 -0.1606  1.0136  1.1276
  188MPD1    H7 2872   0.771   1.305   9.770 -0.1764  1.3087  0.7488
  189MPD1     C 2873   2.463   1.066   0.794 -0.2870 -0.0327  0.4307
  189MPD1    C1 2874   2.343   1.020   0.831  0.2573  0.1665  0.4575
  189MPD1    C2 2875   2.234   1.097   0.795  0.6061 -0.2702  0.0105
  189MPD1    C3 2876   2.240   1.205   0.711  1.1780 -0.0430 -0.0901
  189MPD1    C4 2877   2.367   1.251   0.681 -0.4026 -0.4353 -0.1114
  189MPD1    C5 2878   2.475   1.182   0.721  0.2470 -0.4548 -0.3238
  189MPD1     H 2879   2.132   1.065   0.813  0.2478 -0.4231 -2.2131
  189MPD1    H1 2880   2.381   1.341   0.624 -1.8489 -2.0198 -2.9600
  189MPD1    H2 2881   2.555   1.019   0.826  0.1761  0.9865  0.5928
  189MPD1    H3 2882   2.569   1.219   0.681  1.3205  0.8451  3.4358
  189MPD1     N 2883   2.116   1.262   0.670 -0.2104 -0.3455  0.3297
  189MPD1    H5 2884   2.032   1.208   0.689 -1.4038  1.7498  1.0827
  189MPD1    N1 2885   2.329   0.892   0.886 -0.6751  0.3920  0.3994
  189MPD1    H6 2886   2.252   0.892   0.954 -1.4673  0.4746 -0.4947
  189MPD1    H7 2887   2.412   0.847   0.925  0.1791 -1.2385 -3.3099
  190MPD1     C 2888   1.097   4.598  14.885  0.0224  0.4448  0.4310
  190MPD1    C1 2889   1.196   4.689  14.892 -0.3928 -0.4703 -0.1595
  190MPD1    C2 2890   1.268   4.698  15.008  0.2152  0.3575  0.5041
  190MPD1    C3 2891   1.233   4.625  15.122  0.4122 -0.3692 -0.5095
  190MPD1    C4 2892   1.119   4.549  15.120  0.4110  0.8073 -0.3872
  190MPD1    C5 2893   1.063   4.526  14.996  0.8041 -0.3337  0.0739
  190MPD1     H 2894   1.354   0.039  15.017  0.6260 -0.2737  1.1409
  190MPD1    H1 2895   1.081   4.493  15.204  2.1757  0.4349  0.1639
  190MPD1    H2 2896   1.038   4.589  14.794 -0.8766 -0.5844  1.1039
  190MPD1    H3 2897   0.977   4.462  14.979 -0.2803  0.2966  3.1926
  190MPD1     N 2898   1.313   4.641  15.242  0.3263  0.0752  0.4688
  190MPD1    H5 2899   1.393   4.703  15.245 -0.0034  0.4732  1.1364
  190MPD1    N1 2900   1.203   0.057  14.785  0.5497 -0.5757  0.0537
  190MPD1    H6 2901   1.298   0.080  14.757  0.6288  0.6731  1.3492
  190MPD1    H7 2902   1.145   0.028  14.707  0.5266 -0.7395  0.1320
  191MPD1     C 2903   0.719   1.850  12.990 -0.5434 -0.2809  0.3826
  191MPD1    C1 2904   0.828   1.911  12.930  0.5209 -0.2083  0.3584
  191MPD1    C2 2905   0.830   2.048  12.924 -0.6089  0.0266 -0.0015
  191MPD1    C3 2906   0.721   2.125  12.931 -0.2479 -0.4274 -0.1338
  191MPD1    C4 2907   0.608   2.066  12.971 -0.1869  0.0011 -0.6673
  191MPD1    C5 2908   0.611   1.936  13.010 -0.0775 -0.2032 -0.7505
  191MPD1     H 2909   0.926   2.088  12.894 -1.4371  3.5185  1.9575
  191MPD1    H1 2910   0.513   2.118  12.980 -0.8610 -1.6897  2.0266
  191MPD1    H2 2911   0.716   1.745  13.018 -0.0471 -0.8793 -1.8115
  191MPD1    H3 2912   0.519   1.889  13.044  1.4156 -1.5033  1.4671
  191MPD1     N 2913   0.736   2.258  12.885  0.6724 -0.1078  0.0220
  191MPD1    H5 2914   0.828   2.278  12.848  0.1969  2.1100  0.0520
  191MPD1    N1 2915   0.948   1.837  12.932  0.1278  0.3734 -0.6774
  191MPD1    H6 2916   1.012   1.874  12.862 -0.2938  1.9623 -0.2212
  191MPD1    H7 2917   0.938   1.743  12.896  0.3249 -0.4392  1.4123
  192MPD1     C 2918   0.909   2.998  13.401 -0.4792 -0.6157  0.3621
  192MPD1    C1 2919   0.831   3.060  13.314  0.0146 -0.5147 -0.2906
  192MPD1    C2 2920   0.781   2.982  13.217  0.4080  0.5189  0.9571
  192MPD1    C3 2921   0.823   2.849  13.204 -0.1504  0.1121  0.3826
  192MPD1    C4 2922   0.914   2.791  13.300 -0.6075 -0.1969 -0.3672
  192MPD1    C5 2923   0.957   2.871  13.398 -0.2385 -0.6139 -0.1708
  192MPD1     H 2924   0.712   3.023  13.145 -0.1738  2.3871  2.5845
  192MPD1    H1 2925   0.933   2.685  13.310 -0.7044 -0.1563  0.2475
  192MPD1    H2 2926   0.952   3.057  13.481  1.7203 -1.2311 -0.3664
  192MPD1    H3 2927   1.022   2.820  13.468  0.0141 -0.8990 -0.6139
  192MPD1     N 2928   0.779   2.768  13.099 -0.9666  0.1400 -0.0983
  192MPD1    H5 2929   0.804   2.670  13.106 -0.1459  0.3805  0.3622
  192MPD1    N1 2930   0.776   3.186  13.347  0.4097 -0.4726 -0.4556
  192MPD1    H6 2931   0.850   3.238  13.394 -0.7473 -0.1784  1.0558
  192MPD1    H7 2932   0.742   3.222  13.259  0.5983  1.7631  0.3871
  193MPD1     C 2933   0.328   1.936  16.540 -0.1624  0.3658  0.1932
  193MPD1    C1 2934   0.300   2.072  16.548  1.0686 -0.4280 -0.2606
  193MPD1    C2 2935   0.329   2.151  16.654  1.0668  0.1753 -0.4452
  193MPD1    C3 2936   0.379   2.081  16.765 -0.6419  0.7261 -0.0935
  193MPD1    C4 2937   0.414   1.952  16.757 -0.0215  0.6977  0.0715
  193MPD1    C5 2938   0.393   1.876  16.641 -0.0010  0.2827  0.0051
  193MPD1     H 2939   0.323   2.260  16.649 -0.6956  0.1265  0.7943
  193MPD1    H1 2940   0.449   1.905  16.848 -0.5869 -0.1264 -0.1260
  193MPD1    H2 2941   0.324   1.880  16.447 -3.3373 -0.0344  0.5842
  193MPD1    H3 2942   0.415   1.770  16.645  1.7183  0.7182  2.3610
  193MPD1     N 2943   0.398   2.146  16.887  0.0533  0.7442  0.3569
  193MPD1    H5 2944   0.449   2.093  16.956 -2.0287 -0.3588  1.0582
  193MPD1    N1 2945   0.266   2.140  16.427 -0.2317  0.0853 -0.0275
  193MPD1    H6 2946   0.205   2.219  16.450  1.1165  0.9631  0.5665
  193MPD1    H7 2947   0.225   2.089  16.350 -1.9929  0.2338  0.8160
  194MPD1     C 2948   2.870   4.407  16.597  1.0883  0.0595 -0.7358
  194MPD1    C1 2949   2.905   4.442  16.723  0.3279  0.8593  0.5946
  194MPD1    C2 2950   2.975   4.346  16.794 -0.8859 -0.8740 -0.0154
  194MPD1    C3 2951   3.029   4.236  16.737  0.0395  0.0722 -0.1556
  194MPD1    C4 2952   3.003   4.213  16.602 -0.2423 -0.3232 -0.2138
  194MPD1    C5 2953   2.919   4.295  16.537 -0.3257 -0.1895 -0.3274
  194MPD1     H 2954   2.991   4.377  16.896  1.9631 -0.2379 -0.6424
  194MPD1    H1 2955   3.037   4.126  16.548  0.0500 -1.4105  1.7272
  194MPD1    H2 2956   2.817   4.474  16.530 -1.9798  0.2135  1.8604
  194MPD1    H3 2957   2.899   4.284  16.431 -0.3481 -1.2474 -0.2105
  194MPD1     N 2958   3.104   4.141  16.807 -0.2802 -0.4743  0.7305
  194MPD1    H5 2959   3.127   4.056  16.756 -2.4230 -1.8847  2.1245
  194MPD1    N1 2960   2.844   4.554  16.784  0.1359  0.0077  0.2222
  194MPD1    H6 2961   2.871   4.577  16.879  2.4530 -0.6321 -0.2726
  194MPD1    H7 2962   2.862   4.640  16.733  1.1602  0.1005  0.7593
  195MPD1     C 2963   4.678   1.624   1.213  0.0994  0.1473 -0.7817
  195MPD1    C1 2964   0.024   1.525   1.280  0.5524 -0.7550  0.1413
  195MPD1    C2 2965   0.047   1.409   1.206  0.2799  1.2244 -0.1753
  195MPD1    C3 2966   4.722   1.390   1.075  0.0843  0.3169 -0.7985
  195MPD1    C4 2967   4.666   1.499   1.015  0.0853  0.1183 -0.8684
  195MPD1    C5 2968   4.649   1.613   1.078 -0.2437  0.1939 -0.2014
  195MPD1     H 2969   0.113   1.334   1.249  0.0330  1.4454  0.5853
  195MPD1    H1 2970   4.637   1.492   0.911 -2.2048  0.3385 -0.2341
  195MPD1    H2 2971   4.662   1.716   1.267 -0.4829  1.6406 -3.4934
  195MPD1    H3 2972   4.597   1.699   1.037  0.2340 -0.2587 -1.7676
  195MPD1     N 2973   0.028   1.281   0.997 -0.5672 -0.2394 -0.5741
  195MPD1    H5 2974   4.722   1.289   0.901  1.1391  0.7352 -1.0325
  195MPD1    N1 2975   0.115   1.564   1.382 -1.0122 -0.3654  0.6863
  195MPD1    H6 2976   0.067   1.620   1.453  0.2909  0.5317  0.8599
  195MPD1    H7 2977   0.146   1.485   1.438 -2.8947 -1.1289  0.6700
  196MPD1     C 2978   3.863   4.242   0.417 -0.0497  0.9494 -0.6470
  196MPD1    C1 2979   3.913   4.345   0.347 -0.5120 -0.5305  0.2725
  196MPD1    C2 2980   3.935   4.462   0.412  0.8763 -0.5537 -0.2868
  196MPD1    C3 2981   3.917   4.480   0.542  0.3011 -0.2139  0.5823
  196MPD1    C4 2982   3.882   4.379   0.619  0.1886 -0.5692 -0.3946
  196MPD1    C5 2983   3.851   4.262   0.552 -0.1297 -0.4692 -0.9235
  196MPD1     H 2984   3.969   4.544   0.349 -1.7055  1.3932  0.8618
  196MPD1    H1 2985   3.883   4.385   0.727  0.4455 -0.5409 -0.3988
  196MPD1    H2 2986   3.824   4.152   0.373  0.8708  1.4103 -2.4230
  196MPD1    H3 2987   3.811   4.176   0.605 -0.8544  0.5437  0.1513
  196MPD1     N 2988   3.952   4.600   0.615  0.2416 -0.2986  0.0079
  196MPD1    H5 2989   3.965   4.596   0.716 -2.9897 -1.1506  0.3627
  196MPD1    N1 2990   3.908   4.342   0.207  0.3277  0.1344 -0.0083
  196MPD1    H6 2991   3.927   4.243   0.191  2.2715  0.5573 -0.3084
  196MPD1    H7 2992   3.982   4.397   0.165  1.0029 -1.3145 -0.7137
  197MPD1     C 2993   3.638   1.841  17.433 -0.3913  0.1095  0.0840
  197MPD1    C1 2994   3.672   1.927  17.536 -0.3946 -0.0694 -0.2789
  197MPD1    C2 2995   3.689   2.060  17.496  0.7220  0.6106  0.0718
  197MPD1    C3 2996   3.657   2.104  17.370 -0.3561 -0.1555 -0.3297
  197MPD1    C4 2997   3.613   2.010  17.279 -0.2122 -0.1452  0.0252
  197MPD1    C5 2998   3.603   1.883  17.307  0.5780  0.0823 -0.3775
  197MPD1     H 2999   3.732   2.127  17.570  1.5242 -0.4478  0.5743
  197MPD1    H1 3000   3.577   2.039  17.181 -0.3893 -1.2415 -0.2392
  197MPD1    H2 3001   3.616   1.736  17.446 -1.5772  0.4322  0.7404
  197MPD1    H3 3002   3.555   1.817  17.234 -1.6528  1.7408 -0.4157
  197MPD1     N 3003   3.686   2.236  17.322  0.8377 -0.0954  0.2068
  197MPD1    H5 3004   3.680   2.260  17.224 -0.8192  0.4187  0.4355
  197MPD1    N1 3005   3.708   1.872  17.653 -0.0602 -0.0495  0.3422
  197MPD1    H6 3006   3.651   1.789  17.672  0.7142 -1.0006 -1.5086
  197MPD1    H7 3007   3.699   1.940   0.028  1.5243 -2.6843  2.9690
  198MPD1     C 3008   0.373   1.590  15.818  0.2059  0.0391  0.7572
  198MPD1    C1 3009   0.388   1.539  15.951 -0.3774  0.3535  0.0537
  198MPD1    C2 3010   0.503   1.467  15.981  0.3087 -0.2195 -0.7025
  198MPD1    C3 3011   0.593   1.430  15.882 -0.0558 -0.1440  0.0374
  198MPD1    C4 3012   0.571   1.476  15.752  0.7546 -0.0692 -0.7702
  198MPD1    C5 3013   0.468   1.564  15.726  0.3116 -0.4939  0.4263
  198MPD1     H 3014   0.534   1.429  16.077 -2.9585  0.7056  0.7218
  198MPD1    H1 3015   0.642   1.452  15.674 -1.0795 -1.8832 -1.8741
  198MPD1    H2 3016   0.303   1.664  15.781  0.7027 -0.4357 -1.1077
  198MPD1    H3 3017   0.458   1.610  15.628  2.1048 -2.8133 -0.8372
  198MPD1     N 3018   0.703   1.348  15.912 -0.9529 -0.0496  0.2886
  198MPD1    H5 3019   0.710   1.329  16.011 -2.4992  0.5554  0.5155
  198MPD1    N1 3020   0.291   1.568  16.043 -0.3500 -0.4613  0.2190
  198MPD1    H6 3021   0.199   1.566  16.000 -1.2256  1.4161  2.0216
  198MPD1    H7 3022   0.303   1.521  16.132 -0.0175 -0.0673  0.3827
  199MPD1     C 3023   3.902   1.406  10.069 -0.4489 -0.1046  0.0458
  199MPD1    C1 3024   3.994   1.504  10.040 -0.3452 -0.3334  0.1017
  199MPD1    C2 3025   3.946   1.634  10.026  0.4841 -0.1198  0.0365
  199MPD1    C3 3026   3.810   1.663  10.016 -0.3645  0.2408  1.1616
  199MPD1    C4 3027   3.719   1.564  10.033  0.6827  0.0950 -0.1194
  199MPD1    C5 3028   3.766   1.436  10.069 -0.7886  0.5152 -0.1071
  199MPD1     H 3029   4.011   1.721  10.025  0.9914 -0.4916  1.1925
  199MPD1    H1 3030   3.613   1.583  10.028  0.0011 -3.2332  1.6774
  199MPD1    H2 3031   3.930   1.302  10.085  1.3272 -0.2217 -3.7302
  199MPD1    H3 3032   3.696   1.356  10.092  2.8911 -2.5458  0.4705
  199MPD1     N 3033   3.751   1.791   9.994  0.6794  0.9254 -0.7071
  199MPD1    H5 3034   3.649   1.795   9.989  0.5027 -1.4850  1.0735
  199MPD1    N1 3035   4.131   1.479  10.041 -0.5954 -0.1369 -0.0663
  199MPD1    H6 3036   4.177   1.549   9.983  1.8151 -2.0085 -0.4172
  199MPD1    H7 3037   4.160   1.386  10.010  1.7820  0.7235 -0.4796
  200MPD1     C 3038   1.396   2.531  14.837 -0.2718  0.1700 -0.2010
  200MPD1    C1 3039   1.508   2.597  14.889  0.0134 -0.3301 -0.2922
  200MPD1    C2 3040   1.627   2.583  14.826 -0.1739  0.1445  0.1523
  200MPD1    C3 3041   1.638   2.539  14.695 -0.0041 -0.0483 -0.2543
  200MPD1    C4 3042   1.525   2.477  14.645 -0.1691  1.0492  0.0090
  200MPD1    C5 3043   1.405   2.463  14.717 -0.2394  0.3008  0.3476
  200MPD1     H 3044   1.717   2.615  14.876  0.1412  1.6991 -1.4100
  200MPD1    H1 3045   1.524   2.432  14.547 -0.5384  2.7878 -0.7689
  200MPD1    H2 3046   1.314   2.531  14.908  0.3090 -1.0525  0.4734
  200MPD1    H3 3047   1.327   2.401  14.674 -1.1268  1.2687  0.5560
  200MPD1     N 3048   1.749   2.547  14.616  0.0988 -0.8938  0.5898
  200MPD1    H5 3049   1.741   2.496  14.528 -3.7324 -1.5487  1.3492
  200MPD1    N1 3050   1.500   2.649  15.019  0.1698  0.3889  1.0069
  200MPD1    H6 3051   1.405   2.682  15.039  0.1122  0.2641  0.9375
  200MPD1    H7 3052   1.565   2.725  15.037 -1.1647  2.1756 -1.6064
  201MPD1     C 3053   4.118   0.658  12.667  0.8011 -0.0228  0.5842
  201MPD1    C1 3054   4.224   0.616  12.749 -1.1143 -0.3666 -0.0074
  201MPD1    C2 3055   4.291   0.713  12.812 -0.2533  0.1815  0.1209
  201MPD1    C3 3056   4.242   0.843  12.825 -1.4202 -0.2727  0.5511
  201MPD1    C4 3057   4.139   0.884  12.747 -0.2256  0.2446  0.4522
  201MPD1    C5 3058   4.088   0.789  12.655  0.1054 -0.7804  0.7034
  201MPD1     H 3059   4.379   0.688  12.870  1.1540  1.4854 -1.4480
  201MPD1    H1 3060   4.094   0.982  12.752  2.1914  1.2997  1.4695
  201MPD1    H2 3061   4.074   0.587  12.598  2.7411 -1.6476  1.0170
  201MPD1    H3 3062   4.008   0.809  12.584  2.8536 -1.8510 -2.7074
  201MPD1     N 3063   4.318   0.929  12.908  0.1734  0.3322 -0.4545
  201MPD1    H5 3064   4.396   0.879  12.951 -0.0065  0.5025  0.0707
  201MPD1    N1 3065   4.282   0.485  12.733 -0.4686  0.3713  0.5110
  201MPD1    H6 3066   4.339   0.456  12.812 -2.4656 -1.1552  1.3907
  201MPD1    H7 3067   4.218   0.413  12.701 -1.3405  0.7448  1.3918
  202MPD1     C 3068   0.965   1.342  10.670  0.6489 -0.3716  0.1283
  202MPD1    C1 3069   0.998   1.222  10.731  0.0663 -0.4388 -0.2988
  202MPD1    C2 3070   0.977   1.110  10.657 -0.3001  0.2174  0.0451
  202MPD1    C3 3071   0.975   1.112  10.518  0.1847 -0.1100 -0.6650
  202MPD1    C4 3072   0.961   1.234  10.463 -0.3693  0.2919 -0.3141
  202MPD1    C5 3073   0.956   1.351  10.532  0.2140 -0.0681 -0.4250
  202MPD1     H 3074   0.994   1.018  10.712 -1.6611  0.6141  1.1337
  202MPD1    H1 3075   0.968   1.239  10.355  0.2452 -2.7555 -0.4269
  202MPD1    H2 3076   0.983   1.434  10.724 -2.4373 -0.2584  0.9865
  202MPD1    H3 3077   0.958   1.442  10.474 -0.5158  0.0349 -0.2832
  202MPD1     N 3078   0.990   0.998  10.435  0.5485 -0.2802  0.1667
  202MPD1    H5 3079   0.970   1.007  10.336 -1.6325  1.3816  0.7673
  202MPD1    N1 3080   0.993   1.222  10.875  0.2078  0.0955 -0.1792
  202MPD1    H6 3081   1.066   1.168  10.921 -0.0701 -1.0813 -1.1388
  202MPD1    H7 3082   1.009   1.314  10.915  1.2427  0.0253 -0.4411
  203MPD1     C 3083   3.513   2.626  12.742  0.6153  0.2375 -0.2682
  203MPD1    C1 3084   3.437   2.577  12.636  0.0350  0.7345  0.1369
  203MPD1    C2 3085   3.408   2.441  12.633  0.0050  0.0270  0.2186
  203MPD1    C3 3086   3.455   2.355  12.733 -0.5405 -0.6832 -0.0120
  203MPD1    C4 3087   3.525   2.409  12.841 -0.1609  1.4085  0.2761
  203MPD1    C5 3088   3.542   2.545  12.847 -0.1244 -0.1093 -0.4886
  203MPD1     H 3089   3.352   2.402  12.549 -0.9292  0.2452  0.7450
  203MPD1    H1 3090   3.568   2.351  12.923 -2.4929 -0.7912 -0.0753
  203MPD1    H2 3091   3.543   2.730  12.751  0.4025  0.3019 -0.3196
  203MPD1    H3 3092   3.586   2.598  12.930 -0.4489 -0.2127 -0.2480
  203MPD1     N 3093   3.410   2.220  12.721  0.3432  0.0599 -0.3178
  203MPD1    H5 3094   3.349   2.198  12.643  1.6071 -0.1790 -1.2363
  203MPD1    N1 3095   3.407   2.652  12.521  0.3701 -0.4480 -0.5596
  203MPD1    H6 3096   3.390   2.750  12.539  0.2234 -0.4257 -0.8073
  203MPD1    H7 3097   3.328   2.606  12.476 -0.3451  0.0078  0.2454
  204MPD1     C 3098   3.236   2.068   0.396 -1.1124  0.1825 -0.0965
  204MPD1    C1 3099   3.141   1.996   0.323  0.3396 -0.0615 -0.0976
  204MPD1    C2 3100   3.077   2.072   0.228  0.4712 -0.0978 -0.0405
  204MPD1    C3 3101   3.102   2.205   0.194 -0.1782  0.2611  0.1411
  204MPD1    C4 3102   3.203   2.268   0.261  0.4388 -0.1202 -0.0207
  204MPD1    C5 3103   3.269   2.200   0.362  0.4616  0.0904 -0.4390
  204MPD1     H 3104   3.007   2.020   0.164  0.0973 -0.1103  0.3857
  204MPD1    H1 3105   3.225   2.373   0.247 -1.5253  0.1747 -0.8936
  204MPD1    H2 3106   3.293   2.013   0.470 -0.0203  0.8120 -0.4703
  204MPD1    H3 3107   3.345   2.255   0.416  0.5841  1.3379 -1.8865
  204MPD1     N 3108   3.020   2.260   0.091 -0.9393 -0.0405 -0.2729
  204MPD1    H5 3109   2.942   2.204   0.060 -0.7492  0.1340 -1.0526
  204MPD1    N1 3110   3.127   1.856   0.327 -0.6527  0.1826  0.1939
  204MPD1    H6 3111   3.156   1.804   0.410  0.7011 -1.4308 -1.3017
  204MPD1    H7 3112   3.034   1.835   0.293 -0.3238  0.0380 -0.6000
  205MPD1     C 3113   3.271   1.998  17.090  0.3542  0.0665  1.3199
  205MPD1    C1 3114   3.286   1.861  17.061  0.1890  0.7181  0.2630
  205MPD1    C2 3115   3.187   1.778  17.110 -0.2539  0.1246  0.1180
  205MPD1    C3 3116   3.075   1.825  17.181  0.2057 -0.5465 -0.0129
  205MPD1    C4 3117   3.055   1.963  17.193 -0.3307 -0.0809  0.2566
  205MPD1    C5 3118   3.152   2.044  17.148  0.6006 -0.8010 -0.3716
  205MPD1     H 3119   3.202   1.670  17.113  2.7148  0.4623 -2.6818
  205MPD1    H1 3120   2.970   2.009  17.243  0.3207  1.0510  0.3193
  205MPD1    H2 3121   3.348   2.068  17.058  1.2801 -1.5061  0.0420
  205MPD1    H3 3122   3.142   2.150  17.168  0.0608 -0.7767 -0.7734
  205MPD1     N 3123   2.967   1.744  17.236  0.3663 -0.1286  0.1388
  205MPD1    H5 3124   2.891   1.806  17.263  0.2145 -0.3502  0.2201
  205MPD1    N1 3125   3.413   1.813  17.013  0.2060 -0.0080  0.3226
  205MPD1    H6 3126   3.401   1.730  16.956  2.1386 -0.9546  1.3204
  205MPD1    H7 3127   3.457   1.891  16.963 -3.0884  1.1781 -0.7095
  206MPD1     C 3128   3.306   4.557  16.807 -1.0723  0.3467 -0.1113
  206MPD1    C1 3129   3.331   4.447  16.725  0.4984 -0.0229 -0.0234
  206MPD1    C2 3130   3.316   4.463  16.590 -0.4844 -0.6249  0.0527
  206MPD1    C3 3131   3.221   4.556  16.543 -0.2764 -0.3034 -0.0505
  206MPD1    C4 3132   3.176   4.656  16.629 -0.3133 -0.2145 -0.0441
  206MPD1    C5 3133   3.229   4.660  16.757 -0.7767  0.2032  0.3643
  206MPD1     H 3134   3.360   4.390  16.523 -1.4731 -1.4620  0.3158
  206MPD1    H1 3135   3.105   0.007  16.598  2.3047  2.6829  0.9999
  206MPD1    H2 3136   3.341   4.554  16.909 -0.2159 -1.6473 -0.4700
  206MPD1    H3 3137   3.197   0.022  16.814 -0.3769  1.3206 -1.1141
  206MPD1     N 3138   3.173   4.560  16.409  0.4519  0.4518 -0.2712
  206MPD1    H5 3139   3.116   4.640  16.384 -0.1752 -0.4508 -1.7263
  206MPD1    N1 3140   3.409   4.341  16.779  0.0407 -0.1750  0.1205
  206MPD1    H6 3141   3.383   4.324  16.876 -0.6333  0.3559  0.0267
  206MPD1    H7 3142   3.397   4.259  16.719  1.3921 -1.0499  1.0274
  207MPD1     C 3143   1.745   1.216   9.583 -0.0018  0.5721 -0.0940
  207MPD1    C1 3144   1.617   1.251   9.559 -0.1615  0.8137  0.3629
  207MPD1    C2 3145   1.553   1.336   9.646  0.2619  0.4986  0.6588
  207MPD1    C3 3146   1.606   1.387   9.760 -0.2659  0.9967 -0.2426
  207MPD1    C4 3147   1.735   1.349   9.779 -0.1938  0.6328  0.3071
  207MPD1    C5 3148   1.806   1.265   9.697  0.5002  0.0604  0.5272
  207MPD1     H 3149   1.452   1.369   9.625 -0.1080 -1.7988 -1.1520
  207MPD1    H1 3150   1.785   1.390   9.866 -0.1083 -1.0612  1.0374
  207MPD1    H2 3151   1.793   1.143   9.517 -0.9349 -0.2473  0.1341
  207MPD1    H3 3152   1.906   1.239   9.727  1.0212  0.2630 -1.0411
  207MPD1     N 3153   1.546   1.469   9.858  0.1888  0.2454  0.3053
  207MPD1    H5 3154   1.610   1.498   9.931 -0.5956  2.7843 -0.0453
  207MPD1    N1 3155   1.566   1.217   9.435 -0.1117  0.1666  0.0141
  207MPD1    H6 3156   1.464   1.214   9.428 -0.2152 -1.6903  2.2960
  207MPD1    H7 3157   1.604   1.128   9.405  1.7197  0.0349  2.7433
  208MPD1     C 3158   4.005   0.822   0.065  0.3340 -0.0547 -0.3864
  208MPD1    C1 3159   3.932   0.726   0.130 -0.1204  0.0949  0.4607
  208MPD1    C2 3160   3.811   0.680   0.080  0.4969  0.3580  0.7672
  208MPD1    C3 3161   3.764   0.737  17.666 -0.7781 -0.8835  0.1712
  208MPD1    C4 3162   3.834   0.848  17.608  0.0649 -0.7722  0.7006
  208MPD1    C5 3163   3.953   0.891  17.656 -0.3259 -0.4807  0.0735
  208MPD1     H 3164   3.771   0.593   0.131  0.3207 -0.8976 -1.5599
  208MPD1    H1 3165   3.785   0.912  17.535 -1.0014  2.6291  4.4111
  208MPD1    H2 3166   4.090   0.871   0.110  0.3067 -0.3378 -0.0267
  208MPD1    H3 3167   4.008   0.973  17.610 -2.1797  0.2410 -0.8435
  208MPD1     N 3168   3.640   0.693  17.612  0.7622 -0.0643 -0.0168
  208MPD1    H5 3169   3.608   0.604  17.650 -0.3541  0.0493 -0.6898
  208MPD1    N1 3170   4.009   0.660   0.224  0.2784 -0.5246 -0.7369
  208MPD1    H6 3171   4.081   0.719   0.265 -0.3361  0.3314 -0.8717
  208MPD1    H7 3172   3.951   0.633   0.303  2.7698  2.2607  2.0704
  209MPD1     C 3173   2.557   2.124  11.081 -0.1315  0.2161  0.2272
  209MPD1    C1 3174   2.434   2.062  11.080  0.1708 -0.0307  0.0180
  209MPD1    C2 3175   2.396   1.995  10.961 -0.2959 -0.3500  0.5688
  209MPD1    C3 3176   2.474   2.002  10.846 -0.1183 -0.2472  0.5629
  209MPD1    C4 3177   2.588   2.078  10.848 -0.5256  1.2992  0.0988
  209MPD1    C5 3178   2.627   2.138  10.963  0.2059  0.2198  0.1336
  209MPD1     H 3179   2.306   1.935  10.965  0.3919 -1.3254  1.5724
  209MPD1    H1 3180   2.652   2.078  10.760 -0.8818 -2.3057 -0.1803
  209MPD1    H2 3181   2.605   2.164  11.170  0.9512  0.0916 -0.3018
  209MPD1    H3 3182   2.717   2.197  10.954 -0.3922  1.0204 -0.5704
  209MPD1     N 3183   2.427   1.926  10.730 -0.3342  0.0833  0.0776
  209MPD1    H5 3184   2.340   1.874  10.737 -0.4912  0.3824  0.3873
  209MPD1    N1 3185   2.380   2.024  11.209  0.1618 -0.0288 -0.1620
  209MPD1    H6 3186   2.281   1.998  11.211  0.4698 -1.2306 -0.4668
  209MPD1    H7 3187   2.397   2.086  11.287  0.2903 -0.8458  0.4643
  210MPD1     C 3188   2.499   1.228   9.896  0.2400 -0.2776  0.2119
  210MPD1    C1 3189   2.584   1.337   9.903  0.2434 -0.3888  0.4308
  210MPD1    C2 3190   2.564   1.427  10.003  0.2149  0.8927  0.4463
  210MPD1    C3 3191   2.458   1.410  10.098 -0.2273  0.1498  0.1878
  210MPD1    C4 3192   2.374   1.306  10.089  0.6325  0.2852  0.0235
  210MPD1    C5 3193   2.399   1.223   9.984  0.5249 -1.1507  0.0996
  210MPD1     H 3194   2.610   1.524   9.993  0.8451  0.1492 -3.9915
  210MPD1    H1 3195   2.285   1.294  10.151  0.6057 -0.4621 -0.1705
  210MPD1    H2 3196   2.500   1.145   9.826 -0.6388  1.8065 -2.2763
  210MPD1    H3 3197   2.331   1.139   9.975 -1.2282 -0.0567  3.0515
  210MPD1     N 3198   2.419   1.511  10.194  0.4880 -0.0872  0.2652
  210MPD1    H5 3199   2.342   1.482  10.252 -0.3594  2.7771  0.5807
  210MPD1    N1 3200   2.668   1.368   9.798 -0.0229 -0.3904  0.2004
  210MPD1    H6 3201   2.709   1.286   9.753  0.1385  0.1306 -0.6074
  210MPD1    H7 3202   2.748   1.420   9.834  0.6180 -1.0328 -0.2734
  211MPD1     C 3203   3.563   1.490  17.271  0.1008  0.1328  0.9978
  211MPD1    C1 3204   3.428   1.469  17.287 -0.5822  0.2709 -0.4444
  211MPD1    C2 3205   3.358   1.445  17.178 -0.1548 -0.3051  0.2906
  211MPD1    C3 3206   3.403   1.476  17.047 -0.4989 -0.5002 -0.1053
  211MPD1    C4 3207   3.532   1.518  17.034 -1.2979  0.3620 -0.1403
  211MPD1    C5 3208   3.610   1.519  17.144 -0.3569  0.0708  0.8260
  211MPD1     H 3209   3.255   1.418  17.198 -0.2950  0.4570  0.5866
  211MPD1    H1 3210   3.582   1.539  16.940  2.5547 -1.5230  1.4744
  211MPD1    H2 3211   3.635   1.484  17.352  0.8786  0.2080  0.3104
  211MPD1    H3 3212   3.718   1.521  17.133 -0.1892 -2.7733  1.9761
  211MPD1     N 3213   3.310   1.466  16.940  0.2095 -0.2741 -0.0221
  211MPD1    H5 3214   3.217   1.427  16.953  1.1286 -2.8238 -1.1830
  211MPD1    N1 3215   3.372   1.448  17.416 -0.0586  0.0246  0.3632
  211MPD1    H6 3216   3.391   1.521  17.484  0.2402  0.2482  0.0450
  211MPD1    H7 3217   3.274   1.420  17.420 -0.3388  0.6209 -2.0816
  212MPD1     C 3218   2.501   0.172  16.429 -0.3370  0.2899 -0.4460
  212MPD1    C1 3219   2.366   0.186  16.459  0.0997  0.7264 -0.5955
  212MPD1    C2 3220   2.305   0.087  16.541 -0.6166 -0.0621  0.0111
  212MPD1    C3 3221   2.383   4.713  16.603 -0.2540 -0.4355  0.2633
  212MPD1    C4 3222   2.519   4.709  16.581  0.2732  0.0783  0.1245
  212MPD1    C5 3223   2.572   0.077  16.491  0.5266  0.1494  0.6371
  212MPD1     H 3224   2.196   0.086  16.547 -0.7397  1.7085 -1.6466
  212MPD1    H1 3225   2.586   4.637  16.626 -0.5689 -0.5592  0.3635
  212MPD1    H2 3226   2.553   0.233  16.356  3.9922  0.7307  3.0668
  212MPD1    H3 3227   2.679   0.076  16.473  0.1748  1.6652 -1.4212
  212MPD1     N 3228   2.324   4.615  16.678 -0.0085  0.1150  0.0932
  212MPD1    H5 3229   2.387   4.546  16.718  1.1578  0.5325 -1.0140
  212MPD1    N1 3230   2.287   0.282  16.388  0.4342 -0.0139 -0.0456
  212MPD1    H6 3231   2.204   0.314  16.438  1.3169 -1.9340  2.6270
  212MPD1    H7 3232   2.338   0.369  16.371 -0.2889  0.2650 -0.7785
  213MPD1     C 3233   0.983   0.394  15.794  0.3349 -0.5942  0.2024
  213MPD1    C1 3234   0.854   0.350  15.814  0.3981 -0.4339 -0.7375
  213MPD1    C2 3235   0.764   0.404  15.725  0.1866 -0.1340  0.5220
  213MPD1    C3 3236   0.790   0.506  15.637  0.5343 -0.0824 -0.2310
  213MPD1    C4 3237   0.911   0.566  15.646  0.4259 -0.0447 -0.0718
  213MPD1    C5 3238   1.003   0.516  15.731 -0.2047  0.6930  0.5859
  213MPD1     H 3239   0.662   0.368  15.727 -0.1378  0.5651 -3.1301
  213MPD1    H1 3240   0.943   0.649  15.583  1.5998 -0.4136  0.0318
  213MPD1    H2 3241   1.065   0.361  15.857 -0.1034  0.9665  1.6105
  213MPD1    H3 3242   1.102   0.561  15.736  0.5994 -1.2016  1.5705
  213MPD1     N 3243   0.692   0.550  15.538  0.5722 -0.0961 -0.9365
  213MPD1    H5 3244   0.604   0.499  15.542  0.4745  0.0998 -0.5951
  213MPD1    N1 3245   0.831   0.223  15.881 -0.0656 -0.1859 -0.1286
  213MPD1    H6 3246   0.898   0.221  15.958 -0.4891 -0.3646  0.2359
  213MPD1    H7 3247   0.736   0.219  15.918 -0.7304  0.6586 -1.7639
  214MPD1     C 3248   4.528   0.281  15.257 -0.1224 -0.1916 -0.3783
  214MPD1    C1 3249   4.571   0.336  15.379 -0.3225  0.4712 -0.4544
  214MPD1    C2 3250   4.685   0.411  15.378  0.5724  0.0601  0.7142
  214MPD1    C3 3251   0.028   0.438  15.253  0.1400 -0.0242  0.7252
  214MPD1    C4 3252   4.705   0.377  15.136  0.1552 -0.1621  0.1104
  214MPD1    C5 3253   4.594   0.300  15.142 -0.3855  0.2475 -0.0168
  214MPD1     H 3254   4.714   0.461  15.470  0.6100 -0.0029  0.7366
  214MPD1    H1 3255   0.026   0.394  15.039 -1.6542  0.4050 -0.6452
  214MPD1    H2 3256   4.441   0.217  15.247 -0.3220 -0.2908  2.1237
  214MPD1    H3 3257   4.562   0.238  15.059  0.3800 -0.6077  0.3295
  214MPD1     N 3258   0.145   0.515  15.253 -0.1734 -0.5151 -0.1429
  214MPD1    H5 3259   0.186   0.535  15.162  0.8964 -0.5545  0.3184
  214MPD1    N1 3260   4.506   0.293  15.501 -0.0688 -0.0412 -0.3137
  214MPD1    H6 3261   4.405   0.285  15.487 -0.1003 -2.1096  1.1698
  214MPD1    H7 3262   4.510   0.368  15.569  0.7318  0.0627 -0.4741
  215MPD1     C 3263   2.102   1.998  11.561 -0.1394 -0.0844  0.1915
  215MPD1    C1 3264   1.999   1.952  11.638 -0.0757  0.2901 -0.5352
  215MPD1    C2 3265   1.886   1.887  11.579  0.2098  0.3943  0.0224
  215MPD1    C3 3266   1.882   1.874  11.444  0.1241 -0.8142 -0.0960
  215MPD1    C4 3267   1.995   1.924  11.375  0.4067  0.3027  1.0340
  215MPD1    C5 3268   2.103   1.979  11.431 -0.1657  0.0161 -0.4191
  215MPD1     H 3269   1.796   1.870  11.636  1.7260 -2.5668  1.5127
  215MPD1    H1 3270   1.992   1.921  11.266  1.4002  0.2767  1.0064
  215MPD1    H2 3271   2.183   2.059  11.599 -0.0973  0.4122 -0.7007
  215MPD1    H3 3272   2.189   2.020  11.379  1.1337 -0.7436  1.1393
  215MPD1     N 3273   1.760   1.834  11.388  0.0760  0.0884 -0.5591
  215MPD1    H5 3274   1.682   1.831  11.452  0.8638 -1.2163  0.3609
  215MPD1    N1 3275   2.007   1.958  11.778 -0.3220  0.2987  0.3704
  215MPD1    H6 3276   1.914   1.947  11.818 -0.2558 -1.9710 -0.0740
  215MPD1    H7 3277   2.062   2.036  11.813  0.3455  0.2978 -0.6698
  216MPD1     C 3278   2.791   4.219  17.130  0.5723  0.0158 -0.4521
  216MPD1    C1 3279   2.713   4.177  17.021  0.3484 -0.4034  0.4809
  216MPD1    C2 3280   2.721   4.038  16.997 -1.0631  0.0409 -0.8941
  216MPD1    C3 3281   2.806   3.954  17.074 -0.2880  0.0197  0.3205
  216MPD1    C4 3282   2.876   4.006  17.181 -0.0800 -0.7410  0.1895
  216MPD1    C5 3283   2.866   4.136  17.214  0.2418 -1.1610  0.1642
  216MPD1     H 3284   2.661   3.993  16.919  0.0323 -0.6724 -1.3302
  216MPD1    H1 3285   2.942   3.944  17.240 -0.7429  0.7795  2.5140
  216MPD1    H2 3286   2.792   4.324  17.154 -3.8521 -0.1766  0.4202
  216MPD1    H3 3287   2.928   4.169  17.296 -0.1630  0.3487 -0.1308
  216MPD1     N 3288   2.820   3.812  17.043 -0.9209  0.8931  0.0778
  216MPD1    H5 3289   2.767   3.791  16.959  2.2313 -0.7098 -1.4702
  216MPD1    N1 3290   2.603   4.253  16.970  0.3652 -0.4729 -0.1544
  216MPD1    H6 3291   2.634   4.350  16.970  1.2828 -0.7622  0.1858
  216MPD1    H7 3292   2.599   4.235  16.870  0.6897 -2.1660  0.1333
  217MPD1     C 3293   0.713   0.686  10.495  0.3479  0.6640  0.0294
  217MPD1    C1 3294   0.652   0.800  10.546 -0.0931 -0.0159  0.0310
  217MPD1    C2 3295   0.547   0.857  10.481 -0.6605 -0.0871 -0.8428
  217MPD1    C3 3296   0.482   0.795  10.377  0.1417 -0.1883 -0.6045
  217MPD1    C4 3297   0.532   0.670  10.336  0.2058 -0.0041 -0.9999
  217MPD1    C5 3298   0.636   0.617  10.403  0.0994  0.1457 -0.5352
  217MPD1     H 3299   0.498   0.946  10.520  2.3824  1.3357 -0.2122
  217MPD1    H1 3300   0.498   0.610  10.251 -1.3866  0.4133 -0.6608
  217MPD1    H2 3301   0.797   0.631  10.536 -0.2367  0.5866  1.1563
  217MPD1    H3 3302   0.672   0.518  10.376  2.4046  0.3121  1.9224
  217MPD1     N 3303   0.364   0.846  10.310  0.0816 -0.5242  0.6647
  217MPD1    H5 3304   0.312   0.785  10.249  0.2648  2.0303 -2.0520
  217MPD1    N1 3305   0.672   0.846  10.676 -0.4741 -0.5875 -0.2907
  217MPD1    H6 3306   0.646   0.944  10.687 -1.5431 -1.1483  2.2308
  217MPD1    H7 3307   0.769   0.837  10.707 -0.3289 -0.6080 -0.7488
  218MPD1     C 3308   4.509   1.741  12.901 -0.3561  0.2591  0.4657
  218MPD1    C1 3309   4.523   1.609  12.918 -0.2099 -0.0332 -0.5783
  218MPD1    C2 3310   4.650   1.556  12.893 -0.4508  0.3334 -0.4350
  218MPD1    C3 3311   0.033   1.639  12.879  0.3155  0.1519  0.0651
  218MPD1    C4 3312   0.015   1.773  12.873  0.8042 -1.3495  0.0167
  218MPD1    C5 3313   4.615   1.825  12.872 -0.6221  0.8810 -0.5879
  218MPD1     H 3314   4.665   1.448  12.895  2.5090  0.7616  1.2597
  218MPD1    H1 3315   0.093   1.842  12.845  1.3331 -1.4150  1.3632
  218MPD1    H2 3316   4.414   1.791  12.916 -0.3399  0.8981 -1.6166
  218MPD1    H3 3317   4.597   1.931  12.862 -1.5655  0.7440 -0.3909
  218MPD1     N 3318   0.158   1.571  12.860  0.2308  0.5193 -0.8362
  218MPD1    H5 3319   0.161   1.469  12.857 -0.0063  0.5088 -0.7435
  218MPD1    N1 3320   4.408   1.535  12.909 -0.5967  0.4534 -0.2080
  218MPD1    H6 3321   4.423   1.436  12.923  3.2384  0.9541 -0.5702
  218MPD1    H7 3322   4.316   1.567  12.939 -0.8740 -2.2251  1.7833
  219MPD1     C 3323   0.873   2.132  12.510 -0.7521  0.2500 -0.1503
  219MPD1    C1 3324   0.940   2.018  12.540  0.4853 -0.3580 -0.0836
  219MPD1    C2 3325   0.863   1.903  12.578 -0.3535 -0.0125  0.5140
  219MPD1    C3 3326   0.726   1.911  12.589  0.2578 -0.2250 -0.4392
  219MPD1    C4 3327   0.666   2.032  12.572  0.1087  0.8120  0.0399
  219MPD1    C5 3328   0.739   2.139  12.531  0.1078 -0.5127  0.2087
  219MPD1     H 3329   0.912   1.813  12.614 -0.2729  0.4919  1.6563
  219MPD1    H1 3330   0.562   2.051  12.592  0.3128  0.3484  1.5006
  219MPD1    H2 3331   0.921   2.224  12.479  0.6484 -0.8429 -1.2281
  219MPD1    H3 3332   0.690   2.234  12.512 -1.6591 -1.1157  1.8159
  219MPD1     N 3333   0.651   1.795  12.630 -0.0770 -0.0542  0.5950
  219MPD1    H5 3334   0.551   1.813  12.636 -0.4396 -1.9434 -0.0596
  219MPD1    N1 3335   1.077   2.005  12.507 -0.0994 -0.0288 -0.2280
  219MPD1    H6 3336   1.137   2.087  12.509  0.3951 -0.3615 -1.1675
  219MPD1    H7 3337   1.125   1.936  12.563 -0.1673 -1.2458 -1.6532
  220MPD1     C 3338   0.520   2.593   9.874 -0.3216 -0.1080  0.5150
  220MPD1    C1 3339   0.643   2.624   9.930  1.4571 -0.2657 -0.2438
  220MPD1    C2 3340   0.689   2.546  10.035  0.0716  0.0613 -0.6060
  220MPD1    C3 3341   0.626   2.427  10.067 -0.0736 -0.4126 -0.6272
  220MPD1    C4 3342   0.518   2.393   9.995  0.4017  0.8447 -0.7238
  220MPD1    C5 3343   0.464   2.476   9.905  0.4258  0.4857  0.7899
  220MPD1     H 3344   0.782   2.579  10.080 -0.0577 -1.7382  0.9977
  220MPD1    H1 3345   0.473   2.295  10.006  0.5923  0.8399 -0.0383
  220MPD1    H2 3346   0.463   2.647   9.798  0.3437  0.9572  0.7764
  220MPD1    H3 3347   0.372   2.442   9.861  1.5042 -0.1249 -0.9841
  220MPD1     N 3348   0.687   2.343  10.165 -0.6822  0.7760  0.1336
  220MPD1    H5 3349   0.772   2.375  10.210 -0.4471 -0.5700  0.6442
  220MPD1    N1 3350   0.700   2.752   9.906  0.1210 -0.1062 -0.1099
  220MPD1    H6 3351   0.799   2.759   9.926  0.1947  0.4836 -0.6911
  220MPD1    H7 3352   0.692   2.789   9.812 -0.4326  0.1900  0.0495
  221MPD1     C 3353   2.304   0.937  16.221  0.2461  0.3073 -0.2389
  221MPD1    C1 3354   2.375   1.053  16.197 -0.3758  1.4177 -0.9679
  221MPD1    C2 3355   2.500   1.066  16.265 -0.1644 -0.2375 -0.6913
  221MPD1    C3 3356   2.550   0.962  16.343 -0.4871 -0.2236  0.2809
  221MPD1    C4 3357   2.475   0.849  16.366 -0.0672  0.4157  0.6555
  221MPD1    C5 3358   2.344   0.840  16.308 -0.1744  0.4080  0.3624
  221MPD1     H 3359   2.559   1.149  16.227 -0.5458 -0.4834 -1.8281
  221MPD1    H1 3360   2.507   0.762  16.422  0.6431 -0.9775 -1.8993
  221MPD1    H2 3361   2.208   0.929  16.173  0.3178 -0.5664 -0.2312
  221MPD1    H3 3362   2.293   0.745  16.321  1.4230 -0.3880  0.9220
  221MPD1     N 3363   2.677   0.965  16.410 -0.2026  0.4593 -0.2760
  221MPD1    H5 3364   2.696   0.891  16.478 -0.4394  0.2950 -0.3887
  221MPD1    N1 3365   2.315   1.157  16.122  0.2796  0.2492  0.2286
  221MPD1    H6 3366   2.236   1.120  16.071 -0.7143  0.7432  1.4255
  221MPD1    H7 3367   2.371   1.199  16.047  0.1065  1.4380  0.7544
  222MPD1     C 3368   1.786   3.925  16.887  0.1236  0.3898 -0.2207
  222MPD1    C1 3369   1.914   3.893  16.924 -0.0564  0.5140 -0.9348
  222MPD1    C2 3370   1.948   3.910  17.058 -0.0708  0.4204 -0.0449
  222MPD1    C3 3371   1.877   3.993  17.141  0.1242 -0.1397 -0.2543
  222MPD1    C4 3372   1.765   4.059  17.088  0.0439  0.0259 -0.3551
  222MPD1    C5 3373   1.716   4.007  16.969  0.0984  0.1880  0.2409
  222MPD1     H 3374   2.033   3.848  17.087 -0.8807 -0.8684 -0.4188
  222MPD1    H1 3375   1.706   4.131  17.144 -0.4918  0.3841 -1.3813
  222MPD1    H2 3376   1.749   3.894  16.790  0.7037  2.6415 -1.1560
  222MPD1    H3 3377   1.622   4.045  16.929 -0.1159 -0.6516 -0.0592
  222MPD1     N 3378   1.915   4.021  17.271 -0.0583 -0.4089  0.0048
  222MPD1    H5 3379   1.853   4.080  17.327 -1.9603 -1.2305 -1.2198
  222MPD1    N1 3380   1.994   3.817  16.839  0.6427 -0.0881 -0.1161
  222MPD1    H6 3381   2.092   3.842  16.843  0.5048  0.0106  2.7732
  222MPD1    H7 3382   1.968   3.845  16.744  1.0202  0.8014  0.0399
  223MPD1     C 3383   2.279   3.710   0.548  0.3571  0.0189 -0.8746
  223MPD1    C1 3384   2.261   3.844   0.554 -0.0451 -1.0821  0.4853
  223MPD1    C2 3385   2.223   3.906   0.436 -0.1951 -0.1652 -0.8998
  223MPD1    C3 3386   2.217   3.834   0.320  0.4455  0.3323 -0.4332
  223MPD1    C4 3387   2.232   3.698   0.315  0.2112  0.1592 -0.4713
  223MPD1    C5 3388   2.264   3.638   0.432  0.1509 -0.3913 -0.0810
  223MPD1     H 3389   2.214   4.014   0.431 -0.3169 -0.2038 -1.5386
  223MPD1    H1 3390   2.216   3.639   0.225 -0.2413  0.4458 -0.5762
  223MPD1    H2 3391   2.311   3.661   0.639 -1.3406  0.3599 -0.0812
  223MPD1    H3 3392   2.273   3.530   0.434  1.9969 -0.2442 -0.7532
  223MPD1     N 3393   2.196   3.914   0.200 -0.0490  0.7883  0.3255
  223MPD1    H5 3394   2.195   4.014   0.214  0.3333  0.6367  1.4306
  223MPD1    N1 3395   2.275   3.921   0.671 -0.4933 -0.2727  0.5659
  223MPD1    H6 3396   2.357   3.910   0.729  1.0427 -1.4963 -1.8393
  223MPD1    H7 3397   2.255   4.020   0.657  3.5373  0.1555 -2.1221
  224MPD1     C 3398   0.551   1.471   9.989 -0.3194 -0.0581  0.0781
  224MPD1    C1 3399   0.561   1.472  10.124 -0.2776 -0.1759 -0.0043
  224MPD1    C2 3400   0.467   1.540  10.200 -0.5234  0.4505 -0.4920
  224MPD1    C3 3401   0.358   1.604  10.145 -0.4584  0.7441 -0.0172
  224MPD1    C4 3402   0.337   1.595  10.006  0.4436  0.4778  0.0655
  224MPD1    C5 3403   0.431   1.526   9.931 -1.1489 -0.9805  0.2534
  224MPD1     H 3404   0.486   1.554  10.306  1.5921  1.1604 -0.9687
  224MPD1    H1 3405   0.247   1.639   9.965  1.3212 -1.1521 -3.6175
  224MPD1    H2 3406   0.621   1.423   9.921 -1.7915 -1.6951 -0.2662
  224MPD1    H3 3407   0.405   1.534   9.826 -0.1461  3.1499  0.3051
  224MPD1     N 3408   0.257   1.674  10.219 -0.6913 -0.6104 -0.1407
  224MPD1    H5 3409   0.179   1.713  10.167 -1.3739  0.1477  1.4751
  224MPD1    N1 3410   0.652   1.391  10.195  0.1276  0.1130  0.1730
  224MPD1    H6 3411   0.740   1.387  10.143  1.3073  0.9901  2.0894
  224MPD1    H7 3412   0.670   1.431  10.287 -0.6344 -1.4733  0.9994
  225MPD1     C 3413   0.440   2.938  13.225  0.1022 -0.1446  0.1887
  225MPD1    C1 3414   0.416   2.808  13.196  0.5347  0.1444 -0.8788
  225MPD1    C2 3415   0.356   2.765  13.075  0.0397  0.2540  0.2780
  225MPD1    C3 3416   0.341   2.861  12.976 -0.0355  0.2660 -0.7880
  225MPD1    C4 3417   0.369   2.994  13.006  0.2667 -0.9493 -0.1129
  225MPD1    C5 3418   0.426   3.030  13.127  0.5564 -0.0953  0.1377
  225MPD1     H 3419   0.312   2.667  13.070 -1.7976  1.2289 -2.5225
  225MPD1    H1 3420   0.347   3.072  12.934 -0.3535  1.0539  2.2738
  225MPD1    H2 3421   0.486   2.956  13.322  0.5965 -0.2007 -0.0323
  225MPD1    H3 3422   0.458   3.133  13.140  0.4113  0.3912 -3.1108
  225MPD1     N 3423   0.274   2.840  12.854 -0.3531  0.2557  0.3068
  225MPD1    H5 3424   0.246   2.925  12.806  1.2928 -1.5642 -3.8964
  225MPD1    N1 3425   0.425   2.715  13.301 -0.3808 -0.3390  0.4929
  225MPD1    H6 3426   0.492   2.736  13.375  0.1943 -1.7147  0.3613
  225MPD1    H7 3427   0.441   2.623  13.261 -1.3686 -0.5088  0.5064
  226MPD1     C 3428   0.527   1.336  11.545  0.7151 -0.5846 -0.1499
  226MPD1    C1 3429   0.405   1.356  11.488  0.4037  0.0023 -0.3879
  226MPD1    C2 3430   0.391   1.377  11.352  1.1374  0.0134 -0.1253
  226MPD1    C3 3431   0.510   1.392  11.277  0.4507 -0.5329 -0.7001
  226MPD1    C4 3432   0.636   1.372  11.342 -0.5918 -0.5061  0.1826
  226MPD1    C5 3433   0.640   1.348  11.474  0.3525 -0.3909  0.5804
  226MPD1     H 3434   0.296   1.367  11.299  1.5797 -5.8002  0.2151
  226MPD1    H1 3435   0.726   1.383  11.283 -0.4396  1.5016  0.7847
  226MPD1    H2 3436   0.534   1.318  11.652  1.6328 -0.6477 -0.2228
  226MPD1    H3 3437   0.738   1.343  11.520  1.2178 -0.2003 -1.2595
  226MPD1     N 3438   0.496   1.407  11.141 -0.1089  0.6499 -0.6414
  226MPD1    H5 3439   0.403   1.415  11.101  0.9390  2.0269 -2.8122
  226MPD1    N1 3440   0.293   1.325  11.559  0.4046  0.1863 -0.3599
  226MPD1    H6 3441   0.206   1.361  11.521 -0.6313 -0.5144  1.3542
  226MPD1    H7 3442   0.302   1.341  11.659 -0.1375  1.7755 -0.5587
  227MPD1     C 3443   0.857   1.818  10.172  0.1006  0.6361  0.1034
  227MPD1    C1 3444   0.723   1.820  10.179  0.3738 -0.6566 -0.2820
  227MPD1    C2 3445   0.654   1.779  10.288 -0.7905  0.3376 -0.0805
  227MPD1    C3 3446   0.715   1.722  10.398  0.4149  0.2087 -0.2365
  227MPD1    C4 3447   0.858   1.709  10.383  0.4544 -0.2030 -1.1620
  227MPD1    C5 3448   0.924   1.767  10.278  0.8589 -0.1782  0.7840
  227MPD1     H 3449   0.547   1.784  10.300 -0.9047  0.7587 -1.3745
  227MPD1    H1 3450   0.917   1.658  10.459 -1.2293  0.9054  0.8926
  227MPD1    H2 3451   0.914   1.865  10.093 -1.1700  3.8767  1.1488
  227MPD1    H3 3452   1.030   1.743  10.273  0.6337 -0.6588 -1.7555
  227MPD1     N 3453   0.638   1.665  10.508 -0.8252  1.1404  0.3328
  227MPD1    H5 3454   0.537   1.674  10.501 -0.8161  0.2238 -1.0498
  227MPD1    N1 3455   0.657   1.884  10.073  0.7704  0.5804  0.3110
  227MPD1    H6 3456   0.572   1.932  10.102  0.7041  2.2567 -2.6944
  227MPD1    H7 3457   0.718   1.956  10.035  1.0378  0.3005  0.2102
  228MPD1     C 3458   2.789   0.602  12.591  0.3749  0.1395  0.3440
  228MPD1    C1 3459   2.760   0.510  12.494 -0.6311 -1.1263 -0.5513
  228MPD1    C2 3460   2.665   0.416  12.506 -0.4134 -0.2465  0.1763
  228MPD1    C3 3461   2.597   0.412  12.628 -0.1039 -0.5312  0.5070
  228MPD1    C4 3462   2.627   0.504  12.726  0.2403  0.1253  0.6051
  228MPD1    C5 3463   2.718   0.606  12.706 -0.2526  0.1668 -0.2406
  228MPD1     H 3464   2.641   0.346  12.426 -2.1018  1.1553 -0.5460
  228MPD1    H1 3465   2.587   0.492  12.826  0.2421  0.3174  0.6278
  228MPD1    H2 3466   2.851   0.690  12.579  0.5361 -0.1512 -0.9287
  228MPD1    H3 3467   2.734   0.683  12.780 -1.0696 -0.8810  1.0297
  228MPD1     N 3468   2.491   0.316  12.644  0.3848 -0.4799  0.4364
  228MPD1    H5 3469   2.479   0.254  12.564 -1.9756 -0.3620  0.6943
  228MPD1    N1 3470   2.827   0.528  12.370  0.1062  0.6556  0.0014
  228MPD1    H6 3471   2.844   0.441  12.319 -0.4811  1.1367 -1.0100
  228MPD1    H7 3472   2.917   0.573  12.386  0.3143 -0.0132  0.7551
  229MPD1     C 3473   1.703   4.164  14.890  0.2979 -0.3022  0.0118
  229MPD1    C1 3474   1.581   4.095  14.911  0.2539  0.3210  1.0445
  229MPD1    C2 3475   1.596   3.968  14.959  0.3220  1.1087 -0.5050
  229MPD1    C3 3476   1.714   3.905  14.992 -0.3971 -0.6811 -0.5095
  229MPD1    C4 3477   1.828   3.980  14.974 -0.4053 -0.1640 -0.1638
  229MPD1    C5 3478   1.824   4.111  14.922 -0.0173 -0.5310 -0.2357
  229MPD1     H 3479   1.508   3.907  14.974  2.2434 -1.9321 -1.6079
  229MPD1    H1 3480   1.926   3.936  14.986 -0.2665 -0.1661 -1.3266
  229MPD1    H2 3481   1.690   4.262  14.845 -0.5737 -0.3742  0.1059
  229MPD1    H3 3482   1.914   4.164  14.894 -0.2246  0.1227  0.3427
  229MPD1     N 3483   1.712   3.768  15.044  0.2209 -0.1595 -0.1559
  229MPD1    H5 3484   1.806   3.730  15.039  0.1767 -0.2737 -0.1106
  229MPD1    N1 3485   1.460   4.152  14.883 -0.1611  0.1050  0.4969
  229MPD1    H6 3486   1.459   4.252  14.904 -0.1626  0.1764  0.1598
  229MPD1    H7 3487   1.388   4.102  14.935  0.1234 -2.0244 -1.1836
  230MPD1     C 3488   1.268   3.499  15.931  0.6797 -0.5400  0.1437
  230MPD1    C1 3489   1.245   3.608  15.850  0.3561  0.0532  0.7980
  230MPD1    C2 3490   1.311   3.613  15.730  0.2432 -0.1154 -0.3488
  230MPD1    C3 3491   1.385   3.502  15.681 -0.0071  0.2580  0.2577
  230MPD1    C4 3492   1.395   3.389  15.758  0.3124 -0.3654  0.1860
  230MPD1    C5 3493   1.345   3.391  15.883 -0.1170 -0.2754  0.3198
  230MPD1     H 3494   1.318   3.710  15.684 -2.5714  0.1869 -0.1484
  230MPD1    H1 3495   1.435   3.293  15.727  0.3542 -1.2211  2.9246
  230MPD1    H2 3496   1.219   3.486  16.027 -0.6473  0.0525 -0.4502
  230MPD1    H3 3497   1.353   3.302  15.945 -2.8035 -1.1388 -0.5792
  230MPD1     N 3498   1.441   3.511  15.547  0.0544  0.1195 -0.1793
  230MPD1    H5 3499   1.424   3.597  15.496  1.0020  0.9444  0.8869
  230MPD1    N1 3500   1.159   3.712  15.891 -0.6241 -0.9700  0.0885
  230MPD1    H6 3501   1.199   3.805  15.887 -1.0481 -0.8168 -0.7906
  230MPD1    H7 3502   1.120   3.695  15.984 -0.7478  2.5784  0.6831
  231MPD1     C 3503   4.486   0.677  15.833 -0.4976  0.0948  0.3341
  231MPD1    C1 3504   4.421   0.614  15.727  0.0805 -0.7873  0.3770
  231MPD1    C2 3505   4.461   0.655  15.609  0.5747 -0.7414 -0.1561
  231MPD1    C3 3506   4.565   0.745  15.587 -0.0140  0.8463  0.8768
  231MPD1    C4 3507   4.634   0.798  15.691  0.1547 -0.3408 -0.2261
  231MPD1    C5 3508   4.583   0.764  15.810  0.3016 -0.5524 -0.1312
  231MPD1     H 3509   4.408   0.618  15.522 -1.7397  2.4870 -0.1280
  231MPD1    H1 3510   4.722   0.860  15.676 -0.0179 -0.3457 -1.3180
  231MPD1    H2 3511   4.474   0.666  15.940  0.9805  1.1195  0.5987
  231MPD1    H3 3512   4.639   0.798  15.897  1.2411 -0.6782 -0.6905
  231MPD1     N 3513   4.605   0.753  15.452  0.0061  0.5685  0.0288
  231MPD1    H5 3514   4.543   0.704  15.389  1.3273 -0.1690 -0.6751
  231MPD1    N1 3515   4.309   0.526  15.745 -0.1765 -0.0795 -0.3499
  231MPD1    H6 3516   4.264   0.556  15.831 -1.8973 -0.2822 -1.1861
  231MPD1    H7 3517   4.245   0.514  15.667  0.2728 -0.5836 -0.6372
  232MPD1     C 3518   2.094   2.847   0.054  0.3296  0.0451 -0.2653
  232MPD1    C1 3519   2.035   2.900   0.166 -0.4325  0.0194  0.0036
  232MPD1    C2 3520   1.896   2.886   0.185  0.0710  0.0795 -0.5397
  232MPD1    C3 3521   1.814   2.828   0.094 -0.3777  0.4210  0.1892
  232MPD1    C4 3522   1.881   2.768  17.687  0.8814  0.3843  0.2451
  232MPD1    C5 3523   2.015   2.777  17.664 -0.5333  0.4496 -0.4500
  232MPD1     H 3524   1.859   2.919   0.281  0.5031  0.9186 -0.6639
  232MPD1    H1 3525   1.835   2.716  17.604  0.3994  0.3038  0.5619
  232MPD1    H2 3526   2.201   2.856   0.040  0.2137  1.3997 -0.2848
  232MPD1    H3 3527   2.056   2.741  17.570 -0.1751 -1.7457  0.5339
  232MPD1     N 3528   1.670   2.823   0.107 -0.1222 -0.8228  1.1013
  232MPD1    H5 3529   1.630   2.863   0.191 -3.0481  0.1780 -0.7758
  232MPD1    N1 3530   2.125   2.944   0.267 -0.0371  0.0211  0.2335
  232MPD1    H6 3531   2.082   3.009   0.332  1.0837  0.8179  0.1828
  232MPD1    H7 3532   2.207   2.988   0.225  1.7513 -0.9417  2.7028
  233MPD1     C 3533   1.712   0.051   0.839  0.5564 -0.2150 -0.4996
  233MPD1    C1 3534   1.770   4.679   0.925  0.1454 -0.2341  0.0032
  233MPD1    C2 3535   1.892   4.697   0.981 -0.0414  0.6846 -0.4360
  233MPD1    C3 3536   1.954   0.094   0.961 -0.0859 -0.2634  0.1375
  233MPD1    C4 3537   1.893   0.197   0.882  0.0242  0.4164  0.6483
  233MPD1    C5 3538   1.777   0.171   0.816  0.4045  0.0667 -0.0558
  233MPD1     H 3539   1.942   4.620   1.038 -1.0625  1.8308  1.9970
  233MPD1    H1 3540   1.933   0.297   0.866 -1.4694  0.8244 -0.4139
  233MPD1    H2 3541   1.615   0.038   0.792  0.1648  0.3218  0.1642
  233MPD1    H3 3542   1.734   0.246   0.750  1.0783 -0.2026 -0.8023
  233MPD1     N 3543   2.083   0.110   1.013  0.1241 -0.2120 -0.1626
  233MPD1    H5 3544   2.120   0.030   1.063  1.1968  0.6346  0.3899
  233MPD1    N1 3545   1.704   4.558   0.938  0.0510  0.5559 -0.6042
  233MPD1    H6 3546   1.603   4.561   0.922  0.3019  3.3874 -1.5182
  233MPD1    H7 3547   1.708   4.517   1.031  0.3499  2.8435  0.3804
  234MPD1     C 3548   3.396   1.116  10.965 -0.7141  0.0338  0.0527
  234MPD1    C1 3549   3.502   1.037  10.923  0.0599 -0.4401  0.6777
  234MPD1    C2 3550   3.584   1.090  10.826 -0.6878  0.4168  0.1126
  234MPD1    C3 3551   3.556   1.207  10.762  0.0619  0.7301  0.0268
  234MPD1    C4 3552   3.445   1.279  10.799  0.7889  0.3437 -1.0478
  234MPD1    C5 3553   3.368   1.229  10.905  0.0563 -0.0773  0.1834
  234MPD1     H 3554   3.670   1.031  10.797  0.9469  1.7766  2.2288
  234MPD1    H1 3555   3.423   1.382  10.772  0.0180  0.0216 -1.6495
  234MPD1    H2 3556   3.343   1.084  11.054 -1.3560  0.3749 -0.2066
  234MPD1    H3 3557   3.275   1.279  10.932  0.0559 -0.2048  0.4112
  234MPD1     N 3558   3.653   1.253  10.672 -0.1679  0.0480  0.2933
  234MPD1    H5 3559   3.736   1.195  10.669  0.1435  0.5744 -1.1506
  234MPD1    N1 3560   3.553   0.930  10.999 -0.2279 -0.1641 -0.3534
  234MPD1    H6 3561   3.601   0.856  10.947  3.2170  1.7618  0.0857
  234MPD1    H7 3562   3.477   0.876  11.040  1.7407 -1.9901  0.8809
  235MPD1     C 3563   1.779   3.282  10.611  0.6400 -0.4602 -0.6577
  235MPD1    C1 3564   1.834   3.394  10.549  0.0115  0.2201 -0.1912
  235MPD1    C2 3565   1.778   3.440  10.433  0.5288 -0.5728 -0.5754
  235MPD1    C3 3566   1.677   3.378  10.374 -1.0808 -0.2426  0.6315
  235MPD1    C4 3567   1.630   3.263  10.429  0.2328  0.4438 -0.2586
  235MPD1    C5 3568   1.680   3.216  10.548 -0.3181  0.1399  0.4818
  235MPD1     H 3569   1.805   3.535  10.387  0.1597  0.4288  1.2934
  235MPD1    H1 3570   1.534   3.224  10.397 -0.8436  0.9941  2.3322
  235MPD1    H2 3571   1.804   3.232  10.704  1.8960  0.5217 -0.4714
  235MPD1    H3 3572   1.625   3.141  10.603  1.7340 -1.7179 -0.0100
  235MPD1     N 3573   1.624   3.425  10.256  0.5291 -0.3681 -0.4211
  235MPD1    H5 3574   1.644   3.519  10.222  4.1012 -0.2323  2.0580
  235MPD1    N1 3575   1.925   3.475  10.622  0.5766  0.2744  0.3418
  235MPD1    H6 3576   1.980   3.425  10.692  0.2673  1.0275  1.1309
  235MPD1    H7 3577   1.995   3.530  10.573  0.7684 -1.2975 -1.1419
  236MPD1     C 3578   0.398   3.905   9.838 -0.4542  0.3875 -0.0607
  236MPD1    C1 3579   0.356   3.804   9.925 -0.2029 -0.0156  0.5045
  236MPD1    C2 3580   0.443   3.773  10.036  0.2279 -0.0855  0.0122
  236MPD1    C3 3581   0.565   3.845  10.050  0.1441 -0.6035 -0.2634
  236MPD1    C4 3582   0.597   3.947   9.963  0.4055  0.0501 -0.4051
  236MPD1    C5 3583   0.518   3.974   9.858  0.7018 -0.6973 -0.3898
  236MPD1     H 3584   0.410   3.695  10.104 -0.9008  1.0870  0.8158
  236MPD1    H1 3585   0.691   3.997   9.984 -0.8587  1.4100  2.0853
  236MPD1    H2 3586   0.335   3.927   9.752 -1.8117 -0.8965  0.6075
  236MPD1    H3 3587   0.542   4.051   9.785  4.5588  0.6705  2.3063
  236MPD1     N 3588   0.652   3.824  10.159  0.3052 -0.0412  0.1920
  236MPD1    H5 3589   0.745   3.865  10.160  0.7185 -0.9892  0.8554
  236MPD1    N1 3590   0.224   3.746   9.924  0.1362 -0.1607 -0.2671
  236MPD1    H6 3591   0.190   3.745   9.827  0.5851  0.8428 -0.4360
  236MPD1    H7 3592   0.231   3.651   9.959 -1.4731  0.6199  2.1781
  237MPD1     C 3593   4.607   1.688  15.590  0.0332 -0.4854  0.5750
  237MPD1    C1 3594   4.509   1.680  15.686  0.4194 -0.2216 -0.5824
  237MPD1    C2 3595   4.379   1.647  15.648 -0.2388  0.2960  0.5122
  237MPD1    C3 3596   4.349   1.660  15.511  0.8761  0.3709  0.1363
  237MPD1    C4 3597   4.451   1.680  15.422 -0.4496 -0.3740  0.5786
  237MPD1    C5 3598   4.583   1.685  15.457  0.9487 -0.2488 -0.0668
  237MPD1     H 3599   4.313   1.621  15.731 -0.6425 -0.1687  0.0490
  237MPD1    H1 3600   4.435   1.699  15.316  2.2512 -0.8602  0.0823
  237MPD1    H2 3601   4.707   1.714  15.623 -0.1068  0.2512  0.4338
  237MPD1    H3 3602   4.649   1.701  15.372  0.6691 -2.4350 -0.6941
  237MPD1     N 3603   4.213   1.656  15.461  0.1682 -0.6397  0.4877
  237MPD1    H5 3604   4.202   1.683  15.364  1.4863  2.3113  1.1591
  237MPD1    N1 3605   4.556   1.667  15.821 -0.0925  0.5164  0.4969
  237MPD1    H6 3606   4.643   1.719  15.835 -1.7769  3.1952  0.9641
  237MPD1    H7 3607   4.499   1.685  15.903  0.7966  0.3483  1.1482
  238MPD1     C 3608   1.512   0.599  15.733 -0.1107  0.0445  0.3777
  238MPD1    C1 3609   1.521   0.714  15.650  0.3395 -0.2899 -0.1614
  238MPD1    C2 3610   1.454   0.708  15.532 -0.4585 -0.6492  0.1808
  238MPD1    C3 3611   1.361   0.606  15.515 -0.1785 -0.0025 -0.3253
  238MPD1    C4 3612   1.337   0.501  15.605  0.3322  0.3627 -0.7263
  238MPD1    C5 3613   1.418   0.504  15.718 -0.1091  0.9582 -0.0362
  238MPD1     H 3614   1.480   0.780  15.455 -0.5214 -2.8140 -1.8792
  238MPD1    H1 3615   1.248   0.440  15.593  0.6877 -1.0627  3.8714
  238MPD1    H2 3616   1.566   0.602  15.828 -1.3480  0.9135  1.0469
  238MPD1    H3 3617   1.395   0.422  15.786  0.3824 -0.5235 -1.6580
  238MPD1     N 3618   1.286   0.586  15.395 -0.6139  0.0964  0.3204
  238MPD1    H5 3619   1.218   0.512  15.384  1.1988 -1.6690  1.0597
  238MPD1    N1 3620   1.624   0.808  15.671 -0.5714  0.4009 -0.5154
  238MPD1    H6 3621   1.598   0.900  15.636  1.4524  1.2038  0.0925
  238MPD1    H7 3622   1.646   0.810  15.771 -2.5218  0.9538 -0.0876
  239MPD1     C 3623   2.267   1.619  15.161 -0.7313  0.2319 -0.6279
  239MPD1    C1 3624   2.167   1.714  15.172 -0.0511  0.2893  0.6991
  239MPD1    C2 3625   2.071   1.715  15.072  0.3618  0.8884  0.2871
  239MPD1    C3 3626   2.097   1.656  14.949  0.1132  0.1657  0.1336
  239MPD1    C4 3627   2.211   1.572  14.942  0.0343  0.1644  0.3263
  239MPD1    C5 3628   2.290   1.540  15.053  0.4665 -0.0381 -0.7369
  239MPD1     H 3629   1.988   1.782  15.089  0.5033  0.5012  2.4504
  239MPD1    H1 3630   2.239   1.517  14.853 -0.0182  0.7803 -0.0751
  239MPD1    H2 3631   2.342   1.606  15.238  0.4743  0.3662 -1.7829
  239MPD1    H3 3632   2.360   1.457  15.050  0.1556 -0.3298  0.2264
  239MPD1     N 3633   2.017   1.676  14.839  0.2070 -0.3058  0.3851
  239MPD1    H5 3634   2.046   1.647  14.746 -1.0402 -1.4621  0.3597
  239MPD1    N1 3635   2.143   1.778  15.296  0.7944  0.0249 -0.1880
  239MPD1    H6 3636   2.236   1.814  15.318  0.7888 -0.1248  0.0679
  239MPD1    H7 3637   2.086   1.862  15.291 -0.4777 -0.8869 -1.1511
  240MPD1     C 3638   1.232   1.076  13.872 -0.1046 -0.4067 -0.0819
  240MPD1    C1 3639   1.096   1.068  13.885 -0.8956  0.0460 -0.2252
  240MPD1    C2 3640   1.048   1.080  14.015 -0.1929 -0.0394 -0.6155
  240MPD1    C3 3641   1.138   1.100  14.119 -0.2496  0.2504  0.1584
  240MPD1    C4 3642   1.278   1.102  14.100  0.6401  0.2283 -0.2551
  240MPD1    C5 3643   1.319   1.091  13.972 -0.5194  0.1170 -0.3448
  240MPD1     H 3644   0.942   1.090  14.037  0.0451 -0.1998  0.6228
  240MPD1    H1 3645   1.360   1.114  14.170 -1.6767 -2.1735  2.7960
  240MPD1    H2 3646   1.269   1.094  13.772  0.4407 -1.6852 -0.1068
  240MPD1    H3 3647   1.423   1.112  13.947 -0.1631 -1.1710  0.0334
  240MPD1     N 3648   1.078   1.114  14.253  0.3548  0.9419 -0.2323
  240MPD1    H5 3649   0.977   1.107  14.263  0.9116  0.2576  5.0692
  240MPD1    N1 3650   1.019   1.044  13.771 -0.2236  0.0321 -0.2850
  240MPD1    H6 3651   0.928   1.089  13.776  0.0639  0.6535 -0.5142
  240MPD1    H7 3652   1.069   1.091  13.695  0.3598 -0.6168 -0.3060
  241MPD1     C 3653   1.260   1.501  15.141 -0.3409 -0.7639 -0.2227
  241MPD1    C1 3654   1.183   1.396  15.177 -0.3118 -0.1606 -0.1298
  241MPD1    C2 3655   1.144   1.304  15.081  0.0998  0.1475 -0.1018
  241MPD1    C3 3656   1.176   1.327  14.944  0.2774 -0.2011  0.3772
  241MPD1    C4 3657   1.236   1.443  14.908  0.1522  0.5864  0.0869
  241MPD1    C5 3658   1.284   1.525  15.000  0.1024  0.0609 -0.4304
  241MPD1     H 3659   1.095   1.214  15.117  0.0611 -0.2008 -1.0335
  241MPD1    H1 3660   1.261   1.464  14.805  1.3638  2.6303  0.7806
  241MPD1    H2 3661   1.297   1.569  15.217 -1.6793  1.2692 -1.3982
  241MPD1    H3 3662   1.341   1.611  14.966 -1.8915  1.2915 -0.6541
  241MPD1     N 3663   1.150   1.238  14.842  0.0505  0.3336  0.6564
  241MPD1    H5 3664   1.163   1.271  14.747  1.1324 -2.2968 -0.1154
  241MPD1    N1 3665   1.166   1.373  15.315 -0.4853  0.7378  0.3622
  241MPD1    H6 3666   1.159   1.457  15.372 -1.5639  1.2699 -0.5433
  241MPD1    H7 3667   1.087   1.311  15.334  0.5191 -1.2878 -2.0183
  242MPD1     C 3668   0.776   4.624  16.058  0.9051  0.1845  0.0672
  242MPD1    C1 3669   0.907   4.587  16.091  0.6026  0.2968 -0.2605
  242MPD1    C2 3670   0.988   4.531  15.998  0.6471  0.4517  0.5819
  242MPD1    C3 3671   0.938   4.498  15.874  0.1313  0.3293  0.7210
  242MPD1    C4 3672   0.807   4.532  15.845 -0.5940 -0.2085  0.0680
  242MPD1    C5 3673   0.726   4.601  15.935 -0.1230 -0.7111  0.1573
  242MPD1     H 3674   1.088   4.499  16.024  1.0018  2.5720  1.9454
  242MPD1    H1 3675   0.759   4.504  15.751  1.8826  0.2753 -1.3272
  242MPD1    H2 3676   0.712   4.661  16.137 -0.2886  1.6252 -1.5658
  242MPD1    H3 3677   0.624   4.622  15.904  0.1819 -1.2723 -1.2366
  242MPD1     N 3678   1.005   4.437  15.768  0.8630  0.4106 -0.1690
  242MPD1    H5 3679   0.950   4.423  15.684  2.5896  1.5033 -1.4750
  242MPD1    N1 3680   0.939   4.608  16.226 -0.0384  0.1817 -0.1663
  242MPD1    H6 3681   1.038   4.621  16.243 -0.5615  0.6845  2.5038
  242MPD1    H7 3682   0.888   4.683  16.272 -1.4661 -0.1860 -1.1645
  243MPD1     C 3683   2.759   2.678   0.181 -0.8227  0.6103  0.5544
  243MPD1    C1 3684   2.631   2.715   0.161 -0.2108 -0.4732 -0.3239
  243MPD1    C2 3685   2.587   2.750   0.034  0.5752 -0.0811  0.7562
  243MPD1    C3 3686   2.672   2.751  17.624 -0.2813 -0.1506  0.0134
  243MPD1    C4 3687   2.803   2.719  17.645 -0.4051  0.8082  0.8361
  243MPD1    C5 3688   2.842   2.680   0.075  0.9045 -0.7424 -1.0492
  243MPD1     H 3689   2.487   2.788   0.016  0.0931 -0.0289  3.6459
  243MPD1    H1 3690   2.880   2.717  17.569 -2.5819 -1.3507 -1.3220
  243MPD1    H2 3691   2.791   2.636   0.276  0.8866  0.4739 -0.0772
  243MPD1    H3 3692   2.941   2.638   0.092  1.8794  2.1754  0.6851
  243MPD1     N 3693   2.624   2.792  17.499  0.3267 -0.7386 -0.5148
  243MPD1    H5 3694   2.528   2.823  17.482  1.0954  0.6437 -2.3956
  243MPD1    N1 3695   2.544   2.718   0.276  0.3436 -0.2188  0.2207
  243MPD1    H6 3696   2.447   2.694   0.257  0.5986 -0.7281 -0.4557
  243MPD1    H7 3697   2.583   2.678   0.361  1.5207 -0.2947 -0.3540
  244MPD1     C 3698   1.814   2.906  17.359 -0.1638  1.0354  0.0320
  244MPD1    C1 3699   1.889   2.981  17.442 -0.0144  0.7815  0.3343
  244MPD1    C2 3700   2.020   2.982  17.403 -0.1491 -0.0332 -0.6674
  244MPD1    C3 3701   2.065   2.905  17.305  0.3744  0.6250  0.2290
  244MPD1    C4 3702   1.989   2.830  17.222  0.1270  0.3140 -0.1533
  244MPD1    C5 3703   1.853   2.836  17.251 -0.1287 -0.3265 -0.6519
  244MPD1     H 3704   2.096   3.041  17.454  2.1937 -0.9267 -3.1513
  244MPD1    H1 3705   2.031   2.760  17.151 -0.9448  0.0274 -0.5067
  244MPD1    H2 3706   1.707   2.906  17.380 -0.2566 -1.9060 -0.4976
  244MPD1    H3 3707   1.787   2.774  17.192  0.2376 -2.0991  0.7919
  244MPD1     N 3708   2.198   2.912  17.285  0.0417 -0.9400 -0.4585
  244MPD1    H5 3709   2.254   2.948  17.362 -0.7119 -0.7663  0.0052
  244MPD1    N1 3710   1.842   3.078  17.526 -0.2205 -0.0384 -0.0841
  244MPD1    H6 3711   1.749   3.051  17.557  0.1955 -0.9160  0.4105
  244MPD1    H7 3712   1.905   3.091  17.605 -2.3289  0.3405  1.5325
  245MPD1     C 3713   3.550   3.415  13.470  0.8114 -0.0226  0.1527
  245MPD1    C1 3714   3.606   3.457  13.596  0.0363 -0.1995 -0.2288
  245MPD1    C2 3715   3.741   3.479  13.604 -0.1688  0.7308 -0.3968
  245MPD1    C3 3716   3.827   3.466  13.500  0.0568 -0.5566 -0.6455
  245MPD1    C4 3717   3.776   3.433  13.373  0.5027 -0.3357  0.3641
  245MPD1    C5 3718   3.638   3.410  13.361 -0.1697  0.1522 -0.2152
  245MPD1     H 3719   3.778   3.495  13.704  1.1628  0.0257 -0.7674
  245MPD1    H1 3720   3.834   3.427  13.282  0.2274  1.5403  0.0676
  245MPD1    H2 3721   3.450   3.375  13.456  0.8724 -0.2409  0.3562
  245MPD1    H3 3722   3.595   3.379  13.267 -0.5836 -0.1208  0.0663
  245MPD1     N 3723   3.964   3.505  13.525 -0.2685  0.4789  0.0886
  245MPD1    H5 3724   3.984   3.532  13.621 -0.6931 -0.0135  0.3134
  245MPD1    N1 3725   3.530   3.457  13.714 -0.1319 -0.8879  0.3200
  245MPD1    H6 3726   3.564   3.510  13.794  1.9265 -0.3326 -0.9076
  245MPD1    H7 3727   3.431   3.481  13.707  0.3331  1.0476  0.5796
  246MPD1     C 3728   0.147   2.536   9.230 -0.1338 -0.8653  0.3939
  246MPD1    C1 3729   0.156   2.675   9.229 -0.5621 -0.4754  0.3565
  246MPD1    C2 3730   0.289   2.714   9.221  0.0670 -0.9691 -0.5432
  246MPD1    C3 3731   0.399   2.628   9.239 -0.2529 -0.2240 -0.1752
  246MPD1    C4 3732   0.384   2.491   9.249 -0.1034 -0.7638  0.0461
  246MPD1    C5 3733   0.253   2.448   9.242 -0.8577 -0.3158 -0.1171
  246MPD1     H 3734   0.302   2.822   9.217 -0.2986 -0.9915 -2.4312
  246MPD1    H1 3735   0.469   2.429   9.278 -2.6171 -3.4739  1.6234
  246MPD1    H2 3736   0.056   2.477   9.237 -0.3918 -0.2629  2.0972
  246MPD1    H3 3737   0.227   2.343   9.246  0.2385 -0.6059 -0.5641
  246MPD1     N 3738   0.525   2.695   9.237 -0.3049 -0.6411 -0.3952
  246MPD1    H5 3739   0.539   2.790   9.204  0.4457 -0.1020  1.4693
  246MPD1    N1 3740   0.045   2.757   9.199  0.1911  0.9818 -0.0448
  246MPD1    H6 3741   0.058   2.849   9.240  0.3636  0.2372  1.5831
  246MPD1    H7 3742   4.687   2.715   9.243  0.6783  0.6605  0.5629
  247MPD1     C 3743   3.603   2.593  15.642 -0.3316  0.1934 -0.0918
  247MPD1    C1 3744   3.737   2.576  15.674 -0.2637 -0.0487 -0.6884
  247MPD1    C2 3745   3.781   2.590  15.805  0.1361  0.5437  0.5258
  247MPD1    C3 3746   3.699   2.638  15.908  0.2161  0.1747 -0.4782
  247MPD1    C4 3747   3.572   2.679  15.876  0.4129  0.2356  0.5434
  247MPD1    C5 3748   3.529   2.653  15.743 -0.2159  0.1839  0.0807
  247MPD1     H 3749   3.881   2.558  15.831 -1.2246 -2.4081  2.1162
  247MPD1    H1 3750   3.502   2.723  15.946  0.0174 -0.4763  0.5949
  247MPD1    H2 3751   3.572   2.589  15.538 -1.5680 -1.1833  0.3377
  247MPD1    H3 3752   3.428   2.685  15.721 -0.2340  0.1265  0.0810
  247MPD1     N 3753   3.741   2.653  16.045  0.2941 -0.3208 -0.6345
  247MPD1    H5 3754   3.681   2.704  16.109  0.0394 -0.5166 -0.7155
  247MPD1    N1 3755   3.826   2.514  15.580 -0.2458  0.9642  0.6689
  247MPD1    H6 3756   3.801   2.539  15.484  0.2970 -3.1190 -0.5668
  247MPD1    H7 3757   3.919   2.554  15.592  0.6947 -0.7873 -0.7253
  248MPD1     C 3758   3.749   4.113   0.008 -0.3436  0.1534  0.5770
  248MPD1    C1 3759   3.721   4.025   0.111  0.9981 -0.0083 -0.6587
  248MPD1    C2 3760   3.832   3.972   0.176  0.3130 -0.0969 -0.8521
  248MPD1    C3 3761   3.963   3.996   0.135  0.7749 -0.3653 -0.3822
  248MPD1    C4 3762   3.984   4.085   0.035  0.1534 -0.4661  0.3466
  248MPD1    C5 3763   3.877   4.141  17.674  0.2315  0.3417 -0.5427
  248MPD1     H 3764   3.820   3.895   0.252  0.9933  0.9559  0.3168
  248MPD1    H1 3765   4.080   4.128   0.007  1.9678 -3.4352  2.0266
  248MPD1    H2 3766   3.662   4.155  17.659  1.0802 -0.5061 -2.5278
  248MPD1    H3 3767   3.895   4.204  17.588 -0.9980  2.1478  0.5175
  248MPD1     N 3768   4.063   3.936   0.214  0.0190 -0.4704 -0.6527
  248MPD1    H5 3769   4.030   3.869   0.283  0.9846  1.7005  1.9541
  248MPD1    N1 3770   3.594   3.987   0.145  0.2649 -0.5531  0.5950
  248MPD1    H6 3771   3.593   3.937   0.234 -1.2638 -1.5132  0.0361
  248MPD1    H7 3772   3.511   4.030   0.107  1.6262 -0.4683 -2.2844
  249MPD1     C 3773   1.228   1.918   9.626  0.2496  0.3322 -0.7851
  249MPD1    C1 3774   1.197   2.039   9.688 -0.2985 -0.2596 -0.3378
  249MPD1    C2 3775   1.295   2.097   9.768  0.1314 -1.3468 -0.3137
  249MPD1    C3 3776   1.418   2.033   9.787  0.7201 -0.3209  0.2398
  249MPD1    C4 3777   1.450   1.918   9.720  0.6898 -0.0363 -0.1401
  249MPD1    C5 3778   1.351   1.865   9.639 -0.0659 -0.3061 -0.2143
  249MPD1     H 3779   1.270   2.181   9.831  0.3362 -0.3309 -1.5986
  249MPD1    H1 3780   1.548   1.873   9.727  1.3214  1.4153  0.3132
  249MPD1    H2 3781   1.160   1.867   9.559  1.6262 -5.1926  2.0333
  249MPD1    H3 3782   1.368   1.778   9.577 -0.0560 -1.6094  1.5958
  249MPD1     N 3783   1.491   2.081   9.899  0.2237  0.2057 -0.5678
  249MPD1    H5 3784   1.451   2.157   9.953  0.0968 -1.3619  1.5399
  249MPD1    N1 3785   1.087   2.109   9.642  0.0699  0.2391 -0.7061
  249MPD1    H6 3786   1.040   2.170   9.709 -0.6843  0.4181 -1.3964
  249MPD1    H7 3787   1.028   2.036   9.603 -1.2727  0.0134  1.7478
  250MPD2     C 3788   2.400   2.247  13.571 -0.1466 -0.0400 -0.6779
  250MPD2    C1 3789   2.433   2.268  13.440  0.9542 -0.2180  0.4553
  250MPD2    C2 3790   2.445   2.157  13.357 -0.1921  0.8707 -0.2741
  250MPD2    C3 3791   2.418   2.031  13.408  0.1772 -0.6206 -0.8359
  250MPD2    C4 3792   2.382   2.018  13.539  0.1984 -0.5566 -0.3362
  250MPD2    C5 3793   2.393   2.123  13.624 -0.4154  0.1229  0.6731
  250MPD2     H 3794   2.462   2.167  13.251  1.3129 -0.4692 -0.1519
  250MPD2    H1 3795   2.374   1.917  13.576  0.2221 -0.5740 -0.3781
  250MPD2    H2 3796   2.392   2.325  13.646 -1.0407 -0.9574  0.1762
  250MPD2    H3 3797   2.383   2.110  13.731 -1.7935 -2.6482  0.2053
  250MPD2     N 3798   2.408   1.917  13.322 -0.3728 -1.0356 -0.6087
  250MPD2    H5 3799   2.378   1.830  13.365 -0.9128 -0.2191  0.6834
  250MPD2    N1 3800   2.446   2.395  13.398 -0.1245 -0.0390 -0.0500
  250MPD2    H7 3801   2.411   2.470  13.458  0.8969 -1.1629  1.9660
  251TMC3    C1 3802   2.467   2.573  13.250 -0.2265 -0.7604  0.1579
  251TMC3    C2 3803   2.348   2.639  13.274  0.0172  0.3464  0.0228
  251TMC3    C3 3804   2.350   2.781  13.265  0.0669 -0.3726 -0.1426
  251TMC3    C4 3805   2.585   2.638  13.228 -0.4728 -0.9110  0.6492
  251TMC3    C5 3806   2.582   2.777  13.218 -0.4554  0.1977 -0.5964
  251TMC3    C6 3807   2.468   2.850  13.243  0.2171 -0.1718 -0.5955
  251TMC3     C 3808   2.478   2.431  13.276 -0.2631 -0.3472 -1.1290
  251TMC3     O 3809   2.545   2.369  13.194  0.1460  0.2523 -0.4189
  251TMC3     H 3810   2.256   2.590  13.306 -1.1220  2.4496 -0.0547
  251TMC3    H1 3811   2.670   2.572  13.222 -0.7133 -1.0977 -0.6663
  251TMC3    H2 3812   2.474   2.957  13.231  2.0691 -0.1959  0.1861
  251TMC3    C7 3813   2.711   2.834  13.194 -0.1884 -0.2881  0.1209
  251TMC3    C8 3814   2.225   2.841  13.296 -0.0146  0.6267 -0.2125
  251TMC3    O1 3815   2.808   2.756  13.205  0.3951  0.2567 -0.0575
  251TMC3    O2 3816   2.120   2.790  13.260  0.5746 -0.0824 -0.1872
  252TMC3    C1 3817   4.381   2.834   9.614 -0.0578  0.2498 -0.3817
  252TMC3    C2 3818   4.439   2.956   9.598 -0.1059 -0.3979 -0.6756
  252TMC3    C3 3819   4.371   3.063   9.630  0.4873 -0.3422 -0.4555
  252TMC3    C4 3820   4.256   2.825   9.678  0.0378 -0.0993 -0.6615
  252TMC3    C5 3821   4.190   2.941   9.707  0.2919 -0.2995  0.0910
  252TMC3    C6 3822   4.250   3.061   9.688  0.1731  0.1687 -0.0062
  252TMC3     C 3823   4.405   2.737   9.513 -0.0279 -0.3292  0.0644
  252TMC3     O 3824   4.358   2.625   9.532 -0.4869  0.0433 -0.3237
  252TMC3     H 3825   4.537   2.965   9.553  0.7745 -2.3844  0.8844
  252TMC3    H1 3826   4.219   2.726   9.702  1.7031 -0.6972 -0.5261
  252TMC3    H2 3827   4.198   3.152   9.715  2.3455  1.8818 -1.5764
  252TMC3    C7 3828   4.057   2.943   9.766  0.1147  0.1375 -0.1687
  252TMC3    C8 3829   4.456   3.180   9.658  0.2049  0.0883 -0.6157
  252TMC3    O1 3830   4.033   3.049   9.824 -0.3576  0.3342 -0.1600
  252TMC3    O2 3831   4.553   3.193   9.586  0.1320  0.0530  0.1091
  253MPD2     C 3832   4.275   2.115  15.125 -0.3222  0.0157 -0.1595
  253MPD2    C1 3833   4.140   2.107  15.136  0.2905 -0.2658 -0.0090
  253MPD2    C2 3834   4.073   2.069  15.250  0.3011 -0.0387 -0.2124
  253MPD2    C3 3835   4.154   2.052  15.363 -0.1128 -0.5167  0.5612
  253MPD2    C4 3836   4.288   2.061  15.359 -0.1007 -0.5237  0.1578
  253MPD2    C5 3837   4.347   2.084  15.236 -0.7800  0.5195  0.3030
  253MPD2     H 3838   3.965   2.062  15.252  0.2230  1.5828  0.8290
  253MPD2    H1 3839   4.347   2.045  15.449  0.8349 -0.1676 -0.3943
  253MPD2    H2 3840   4.330   2.143  15.036  0.9023 -1.6030  0.0843
  253MPD2    H3 3841   4.453   2.105  15.226 -0.9860  2.3508  1.9047
  253MPD2     N 3842   4.098   2.022  15.488  0.1949  0.0272 -0.5216
  253MPD2    H5 3843   4.171   2.015  15.558 -1.5787 -0.9244  1.2214
  253MPD2    N1 3844   4.057   2.150  15.029  0.3611 -0.1752 -0.4712
  253MPD2    H7 3845   3.957   2.137  15.039  0.2361 -0.2637 -1.8089
  254TMC3    C1 3846   3.937   1.962  15.654 -0.2726  0.8781  0.6952
  254TMC3    C2 3847   3.811   1.953  15.693  0.2614  0.6367  0.7270
  254TMC3    C3 3848   3.777   1.906  15.817 -0.1217 -0.3160  0.1752
  254TMC3    C4 3849   4.042   1.907  15.727 -0.5631  0.3180 -0.0056
  254TMC3    C5 3850   4.005   1.853  15.844  0.4636  0.0028  0.8991
  254TMC3    C6 3851   3.875   1.849  15.891  0.4645 -0.1084  0.3125
  254TMC3     C 3852   3.964   1.997  15.514 -0.3842 -0.2512  0.1375
  254TMC3     O 3853   3.865   2.015  15.444  0.4568 -0.2093 -0.1176
  254TMC3     H 3854   3.733   1.993  15.630  0.0017 -0.3006  0.4669
  254TMC3    H1 3855   4.147   1.900  15.698 -1.4770  0.4519 -3.4194
  254TMC3    H2 3856   3.865   1.827  15.997 -0.9435 -1.0060 -0.0014
  254TMC3    C7 3857   4.105   1.853  15.950 -0.5265 -1.0035 -0.3463
  254TMC3    C8 3858   3.662   1.965  15.885  0.6633  0.0376  0.3695
  254TMC3    O1 3859   4.084   1.776  16.044  0.9355 -0.2144  0.0371
  254TMC3    O2 3860   3.629   1.898  15.980  0.4125 -0.5569  0.0888
  255MPD2     C 3861   3.783   0.179  10.221  0.1559  0.0359 -0.2102
  255MPD2    C1 3862   3.829   0.273  10.134  0.5279 -0.1039 -0.0194
  255MPD2    C2 3863   3.904   0.233  10.024  0.4037  0.5767  0.8671
  255MPD2    C3 3864   3.946   0.105  10.016  0.2799  0.1141  0.3907
  255MPD2    C4 3865   3.899   0.010  10.106 -0.1706 -0.4856 -0.1949
  255MPD2    C5 3866   3.804   0.046  10.195 -0.4193  0.1076  0.3720
  255MPD2     H 3867   3.925   0.307   9.947  2.5893 -1.5945 -0.6013
  255MPD2    H1 3868   3.931   4.631  10.111  1.4981 -0.0527 -2.0986
  255MPD2    H2 3869   3.727   0.216  10.307  0.0658 -2.1104  0.6574
  255MPD2    H3 3870   3.768   4.698  10.266  0.5038  1.6645  2.4258
  255MPD2     N 3871   4.035   0.078   9.910  0.3775 -0.7642  0.6053
  255MPD2    H5 3872   4.064   0.169   9.874  1.2317 -1.0346  0.6343
  255MPD2    N1 3873   3.802   0.413  10.161 -0.2549 -0.0243  0.1250
  255MPD2    H7 3874   3.743   0.428  10.242  0.8415  0.0170  0.9266
  256TMC3    C1 3875   3.742   0.626  10.080 -0.3865  0.4244 -0.1630
  256TMC3    C2 3876   3.758   0.720   9.983 -0.7571  0.3952  0.3775
  256TMC3    C3 3877   3.644   0.784   9.930  0.0864  0.2511  0.0407
  256TMC3    C4 3878   3.614   0.609  10.135 -0.8064 -1.3589  0.0764
  256TMC3    C5 3879   3.516   0.691  10.091  0.3282  0.2916  0.6895
  256TMC3    C6 3880   3.528   0.779   9.983  0.1587  0.0408  0.2720
  256TMC3     C 3881   3.838   0.516  10.079 -0.2030  0.3137  0.0509
  256TMC3     O 3882   3.935   0.532  10.005  0.1034  0.2164 -0.7000
  256TMC3     H 3883   3.856   0.724   9.937 -0.3391  0.1493  1.2529
  256TMC3    H1 3884   3.600   0.532  10.210  1.8018 -0.6126  1.3076
  256TMC3    H2 3885   3.447   0.844   9.951 -0.4828 -1.1141 -0.4849
  256TMC3    C7 3886   3.399   0.611  10.058  0.1735 -0.1894  0.4556
  256TMC3    C8 3887   3.640   0.839   9.792  0.1128  0.1907 -0.6338
  256TMC3    O1 3888   3.415   0.492  10.050 -0.2757 -0.6653  0.3405
  256TMC3    O2 3889   3.533   0.886   9.753  0.3139  0.0176  0.3028
  257MPD2     C 3890   1.708   2.199  13.232 -0.2087 -0.8011 -0.9442
  257MPD2    C1 3891   1.658   2.117  13.138  0.2508  0.3634  0.0783
  257MPD2    C2 3892   1.602   2.001  13.184  0.0648 -0.6320  0.1418
  257MPD2    C3 3893   1.594   1.967  13.316 -0.4425 -0.0296 -0.3028
  257MPD2    C4 3894   1.650   2.053  13.411 -0.6680 -0.7505 -0.2577
  257MPD2    C5 3895   1.708   2.164  13.362 -0.1086  0.0156  0.2510
  257MPD2     H 3896   1.560   1.921  13.124 -2.8970  0.4574  0.7354
  257MPD2    H1 3897   1.666   2.029  13.515 -0.8282  0.9135  0.1492
  257MPD2    H2 3898   1.741   2.299  13.206 -4.3920  0.9578  0.4730
  257MPD2    H3 3899   1.754   2.236  13.429  1.6742 -2.6004  1.8294
  257MPD2     N 3900   1.547   1.840  13.347 -0.4489  0.0436 -0.5625
  257MPD2    H5 3901   1.518   1.778  13.273  0.4510  1.0564 -1.7497
  257MPD2    N1 3902   1.660   2.155  13.004  0.4536  0.1000 -0.3545
  257MPD2    H7 3903   1.704   2.245  12.984 -0.2148  0.6670  0.7134
  258TMC3    C1 3904   1.458   1.676  13.506 -0.5434  0.1777  0.5326
  258TMC3    C2 3905   1.359   1.642  13.417 -0.0009 -0.3236 -0.1284
  258TMC3    C3 3906   1.266   1.552  13.458  0.0152  0.3098 -0.0559
  258TMC3    C4 3907   1.471   1.612  13.627  0.7085 -0.1509 -0.2016
  258TMC3    C5 3908   1.364   1.528  13.663  0.0639 -0.6289 -0.0116
  258TMC3    C6 3909   1.269   1.491  13.580 -0.2006 -0.4423 -0.2332
  258TMC3     C 3910   1.527   1.804  13.482  0.2429 -0.0168 -0.1073
  258TMC3     O 3911   1.567   1.856  13.586  0.2037  0.0004 -0.1931
  258TMC3     H 3912   1.336   1.698  13.327  0.0578  1.8658  1.2076
  258TMC3    H1 3913   1.541   1.648  13.702 -3.0440  2.9637  1.8315
  258TMC3    H2 3914   1.184   1.427  13.603 -0.0615 -0.6544 -0.3236
  258TMC3    C7 3915   1.366   1.465  13.793 -0.2664  0.2927 -0.4376
  258TMC3    C8 3916   1.147   1.521  13.372  1.6048 -0.6055 -1.1569
  258TMC3    O1 3917   1.254   1.434  13.836  0.3586 -0.4438 -0.0447
  258TMC3    O2 3918   1.054   1.470  13.425  0.5742 -0.1967 -0.3024
  259MPD2     C 3919   0.162   3.310   1.135 -0.0463 -0.2998  0.2971
  259MPD2    C1 3920   0.283   3.262   1.176  0.2476 -0.3176  0.1913
  259MPD2    C2 3921   0.396   3.285   1.099 -0.2157 -0.5457  0.3653
  259MPD2    C3 3922   0.390   3.372   0.989 -0.0256 -0.4304 -0.3827
  259MPD2    C4 3923   0.271   3.429   0.950  0.5822 -0.0911 -0.1319
  259MPD2    C5 3924   0.157   3.384   1.018 -0.2810 -0.2821  0.0102
  259MPD2     H 3925   0.491   3.236   1.117  0.3718  0.8923  1.2004
  259MPD2    H1 3926   0.265   3.510   0.879 -1.1194 -1.6620 -1.7648
  259MPD2    H2 3927   0.067   3.283   1.180  0.2899  1.1324  1.8453
  259MPD2    H3 3928   0.065   3.432   0.987 -0.3895  1.1225  2.4599
  259MPD2     N 3929   0.511   3.395   0.916 -0.1648 -0.1663 -0.3644
  259MPD2    H5 3930   0.593   3.342   0.943 -1.0320 -0.8142  0.9789
  259MPD2    N1 3931   0.280   3.179   1.290  0.1047  0.0981 -0.8371
  259MPD2    H7 3932   0.190   3.155   1.329  0.8655  0.8470  1.3598
  260TMC3    C1 3933   0.659   3.476   0.753  0.0501 -0.3448  0.7873
  260TMC3    C2 3934   0.750   3.389   0.814 -0.9488  0.0868  0.3728
  260TMC3    C3 3935   0.849   3.337   0.738 -0.0834  0.3154  0.3892
  260TMC3    C4 3936   0.658   3.493   0.618 -1.3396  0.0220 -0.3700
  260TMC3    C5 3937   0.761   3.448   0.552 -0.0685  0.1601  0.2018
  260TMC3    C6 3938   0.857   3.366   0.609  0.3169  0.2537  0.3438
  260TMC3     C 3939   0.531   3.490   0.820  0.2255 -0.4862 -0.3987
  260TMC3     O 3940   0.457   3.578   0.776  0.2621 -0.7045  0.3371
  260TMC3     H 3941   0.751   3.378   0.922 -4.8064 -1.0084  0.2906
  260TMC3    H1 3942   0.575   3.549   0.577 -0.9487  0.9096  0.0475
  260TMC3    H2 3943   0.937   3.335   0.543  0.1510  0.9035 -0.1554
  260TMC3    C7 3944   0.744   3.440   0.411  0.3502 -0.1425 -0.4780
  260TMC3    C8 3945   0.916   3.223   0.790 -0.3210 -0.1545  0.0227
  260TMC3    O1 3946   0.773   3.329   0.362 -0.5386  0.1866  0.4544
  260TMC3    O2 3947   0.870   3.169   0.895 -0.0881 -1.0976  0.2420
  261MPD2     C 3948   2.248   1.717  12.503  0.2218  0.7762 -0.0062
  261MPD2    C1 3949   2.289   1.817  12.590  0.0942 -0.0713  0.8220
  261MPD2    C2 3950   2.361   1.934  12.547  0.0423  0.6210 -0.1116
  261MPD2    C3 3951   2.399   1.941  12.416 -0.0849  0.7493 -0.4676
  261MPD2    C4 3952   2.379   1.828  12.338 -0.5407  0.3443 -0.2349
  261MPD2    C5 3953   2.305   1.724  12.380 -0.3229 -0.5925 -0.0604
  261MPD2     H 3954   2.380   2.017  12.614 -2.0145  1.1790 -0.2315
  261MPD2    H1 3955   2.414   1.826  12.236  0.4168 -1.2147  0.1324
  261MPD2    H2 3956   2.213   1.619  12.534 -0.0051  0.4816 -1.2019
  261MPD2    H3 3957   2.286   1.637  12.319 -0.6920 -1.3306  1.1186
  261MPD2     N 3958   2.469   2.051  12.366  0.1731  0.4093 -0.4258
  261MPD2    H5 3959   2.474   2.132  12.427 -0.3803  0.7363 -0.8253
  261MPD2    N1 3960   2.263   1.812  12.731  0.5620  0.5092 -0.2046
  261MPD2    H7 3961   2.300   1.886  12.790  0.7724 -1.0211  1.5775
  262TMC3    C1 3962   2.609   2.172  12.217 -0.0519 -0.0881  0.8451
  262TMC3    C2 3963   2.541   2.288  12.237  0.0956 -0.1215 -0.2789
  262TMC3    C3 3964   2.618   2.406  12.245  0.3444 -0.2928  0.4006
  262TMC3    C4 3965   2.746   2.170  12.198 -0.5756 -0.0634  0.7157
  262TMC3    C5 3966   2.815   2.287  12.191  0.2265  0.0917 -0.0491
  262TMC3    C6 3967   2.751   2.403  12.222  0.5635 -0.4377 -0.5066
  262TMC3     C 3968   2.546   2.052  12.249 -0.1943 -0.1446  0.0912
  262TMC3     O 3969   2.576   1.961  12.172 -0.4885  0.3365  0.4225
  262TMC3     H 3970   2.435   2.278  12.255  0.1543 -0.2581 -0.0080
  262TMC3    H1 3971   2.799   2.077  12.183 -0.6145 -0.1912  1.3609
  262TMC3    H2 3972   2.811   2.493  12.227  1.1319 -0.8979  1.1012
  262TMC3    C7 3973   2.896   2.291  12.069  0.1977 -0.3313 -0.8019
  262TMC3    C8 3974   2.562   2.521  12.192 -0.4580 -0.0215  0.4349
  262TMC3    O1 3975   2.925   2.182  12.026 -0.2240 -0.0114  0.0915
  262TMC3    O2 3976   2.639   2.615  12.180 -0.4880  0.6188 -0.3180
  263MPD2     C 3977   3.297   1.520  11.510  0.3007  0.1384 -0.5095
  263MPD2    C1 3978   3.433   1.555  11.489 -0.3856  0.5690  0.1305
  263MPD2    C2 3979   3.468   1.606  11.365  0.2996 -0.1668 -0.1104
  263MPD2    C3 3980   3.373   1.616  11.257  0.3729 -0.0546  0.5617
  263MPD2    C4 3981   3.244   1.566  11.277  0.1747 -0.5183 -0.5093
  263MPD2    C5 3982   3.211   1.524  11.402  0.8678  0.4278  0.4435
  263MPD2     H 3983   3.568   1.648  11.358  0.1806  0.0631 -0.4545
  263MPD2    H1 3984   3.179   1.582  11.191 -0.8851  0.3860  0.4739
  263MPD2    H2 3985   3.262   1.478  11.603 -1.3290 -1.1651 -1.6934
  263MPD2    H3 3986   3.110   1.487  11.417  0.2284 -0.0281 -4.9633
  263MPD2     N 3987   3.430   1.675  11.141  0.6110  0.7634 -0.3349
  263MPD2    H5 3988   3.531   1.686  11.135  0.7619  0.0252  0.7374
  263MPD2    N1 3989   3.513   1.552  11.607  0.0514 -0.6274 -0.1188
  263MPD2    H7 3990   3.460   1.522  11.688 -1.2737  2.3941  0.1467
  264TMC3    C1 3991   3.416   1.764  10.919  0.1977  0.5749  0.7153
  264TMC3    C2 3992   3.375   1.879  10.867  0.3178  0.2365  0.5543
  264TMC3    C3 3993   3.464   1.952  10.792 -0.0791 -0.2575 -0.3991
  264TMC3    C4 3994   3.540   1.709  10.886  0.7162 -0.7215 -0.2849
  264TMC3    C5 3995   3.615   1.775  10.791 -0.3268  0.3249 -0.2210
  264TMC3    C6 3996   3.576   1.894  10.741 -0.5482  0.1515 -0.4720
  264TMC3     C 3997   3.350   1.720  11.038 -0.3761  0.8905 -0.1564
  264TMC3     O 3998   3.235   1.764  11.052  0.0859  0.6088  0.3184
  264TMC3     H 3999   3.297   1.932  10.921 -0.2802 -1.4543  1.3435
  264TMC3    H1 4000   3.583   1.624  10.938 -2.2143 -1.3462  1.1473
  264TMC3    H2 4001   3.637   1.946  10.667 -1.2143  0.8375 -0.5490
  264TMC3    C7 4002   3.755   1.779  10.818  0.3490 -0.0846 -0.5149
  264TMC3    C8 4003   3.492   2.081  10.827  0.4521 -0.0065  0.3717
  264TMC3    O1 4004   3.804   1.674  10.857  0.3199 -0.3190  0.4188
  264TMC3    O2 4005   3.612   2.101  10.835  0.1633  0.1592  0.2243
  265MPD2     C 4006   0.190   1.860  15.541 -0.0607 -0.8782  0.3736
  265MPD2    C1 4007   0.294   1.948  15.553 -0.5920  0.4207  0.5033
  265MPD2    C2 4008   0.410   1.921  15.482  0.3306 -0.0580  0.3594
  265MPD2    C3 4009   0.428   1.804  15.402 -0.2943  0.6091  0.8623
  265MPD2    C4 4010   0.329   1.715  15.405  0.1132  0.1941  0.1235
  265MPD2    C5 4011   0.209   1.746  15.460 -0.2147  0.7170  0.6704
  265MPD2     H 4012   0.489   1.996  15.491  0.4327 -0.4497  2.7607
  265MPD2    H1 4013   0.339   1.626  15.344  2.5213  0.6871 -0.2256
  265MPD2    H2 4014   0.099   1.875  15.598 -0.0846 -1.0010  0.3696
  265MPD2    H3 4015   0.122   1.681  15.462  0.5927 -0.3608  0.8374
  265MPD2     N 4016   0.548   1.768  15.335  0.5218 -0.1245  0.0525
  265MPD2    H5 4017   0.548   1.685  15.276  0.5947 -0.9984  1.2809
  265MPD2    N1 4018   0.290   2.064  15.633 -0.2154 -0.3115 -0.1569
  265MPD2    H7 4019   0.376   2.118  15.639  0.5926 -1.8209  1.8555
  266TMC3    C1 4020   0.177   2.244  15.734 -0.1201  0.4259 -0.4403
  266TMC3    C2 4021   0.185   2.226  15.870  0.5879 -0.1660  0.2837
  266TMC3    C3 4022   0.129   2.332  15.940  0.0960 -0.4176  0.1045
  266TMC3    C4 4023   0.114   2.348  15.666  0.1972 -0.0818  0.9720
  266TMC3    C5 4024   0.056   2.447  15.743 -0.7794  0.3821  0.0389
  266TMC3    C6 4025   0.060   2.428  15.877  0.3614 -0.1142 -0.1517
  266TMC3     C 4026   0.169   2.125  15.651  0.3563  0.2117 -0.0905
  266TMC3     O 4027   0.056   2.104  15.617 -0.3942  0.3837  0.0083
  266TMC3     H 4028   0.233   2.141  15.917 -1.1369 -0.7533  0.9822
  266TMC3    H1 4029   0.108   2.350  15.558 -0.0938  0.3271  0.9953
  266TMC3    H2 4030   0.007   2.498  15.941  0.1734 -0.1319 -0.2893
  266TMC3    C7 4031   4.686   2.533  15.673 -0.1427 -0.0239 -0.3621
  266TMC3    C8 4032   0.093   2.297  16.077 -0.3182  0.0452 -0.4746
  266TMC3    O1 4033   4.652   2.508  15.558  0.3533  0.1771  0.0227
  266TMC3    O2 4034   0.060   2.185  16.101  0.9136 -0.3535 -0.3507
  267MPD2     C 4035   3.206   2.819  17.302  0.0486 -0.0045 -0.5253
  267MPD2    C1 4036   3.240   2.946  17.328 -0.5499  0.0912  0.8457
  267MPD2    C2 4037   3.178   3.051  17.263  1.0160 -0.2064 -0.5963
  267MPD2    C3 4038   3.077   3.026  17.173  0.0692  0.1795 -0.4610
  267MPD2    C4 4039   3.047   2.890  17.142 -0.3044  0.3168 -0.3096
  267MPD2    C5 4040   3.117   2.794  17.207 -0.5115  0.4573  0.3819
  267MPD2     H 4041   3.208   3.153  17.286  3.7716 -0.7911 -1.6608
  267MPD2    H1 4042   2.989   2.853  17.058  0.7290 -0.7547 -0.5575
  267MPD2    H2 4043   3.255   2.736  17.351 -1.4997 -1.4398 -1.4317
  267MPD2    H3 4044   3.109   2.690  17.179 -1.2583  1.5793 -3.5669
  267MPD2     N 4045   3.004   3.128  17.108 -0.3377 -0.3748 -0.0210
  267MPD2    H5 4046   2.929   3.100  17.045 -0.8462  0.1946  0.3402
  267MPD2    N1 4047   3.348   2.958  17.417 -0.2515  0.2720 -0.1743
  267MPD2    H7 4048   3.386   2.875  17.461  1.3228  0.1575 -1.7371
  268TMC3    C1 4049   3.527   3.054  17.533 -0.0271 -0.2758 -0.0341
  268TMC3    C2 4050   3.630   3.140  17.515  0.6651  0.2075 -0.0970
  268TMC3    C3 4051   3.667   3.210  17.624  0.1458 -0.0228  0.1245
  268TMC3    C4 4052   3.486   3.006  17.657  0.9760  0.5802 -0.6775
  268TMC3    C5 4053   3.542   3.073   0.064 -0.7264  0.5302 -0.2291
  268TMC3    C6 4054   3.634   3.175   0.048 -0.1950 -0.2005 -0.2957
  268TMC3     C 4055   3.416   3.068  17.446 -0.0314  0.0197 -0.0025
  268TMC3     O 4056   3.421   3.175  17.384 -0.0852  0.0543  0.3157
  268TMC3     H 4057   3.649   3.182  17.417 -1.2084  0.5151 -0.3471
  268TMC3    H1 4058   3.402   2.943  17.680  1.2859  0.2675 -0.4087
  268TMC3    H2 4059   3.673   3.232   0.132 -0.8302  2.4190 -1.8009
  268TMC3    C7 4060   3.486   3.046   0.196 -0.2343 -0.2550 -0.1112
  268TMC3    C8 4061   3.717   3.349  17.615 -0.4597  0.5173 -0.4149
  268TMC3    O1 4062   3.457   2.931   0.224  0.0449  0.7588 -0.1461
  268TMC3    O2 4063   3.820   3.384  17.670 -0.3014  0.9702  0.0517
  269MPD2     C 4064   2.586   2.170  15.535  0.6951 -0.2008 -0.4137
  269MPD2    C1 4065   2.474   2.230  15.589 -0.0627  0.3014  0.1274
  269MPD2    C2 4066   2.485   2.355  15.650  0.1054 -0.4383 -0.3773
  269MPD2    C3 4067   2.611   2.412  15.667 -0.3009 -0.1113  0.3347
  269MPD2    C4 4068   2.717   2.332  15.635 -0.7147 -0.0138 -0.1451
  269MPD2    C5 4069   2.706   2.221  15.562  0.5666 -0.6250  0.1834
  269MPD2     H 4070   2.401   2.414  15.685  0.4436 -2.0588  3.1727
  269MPD2    H1 4071   2.817   2.357  15.667 -1.3243  1.8649  0.3164
  269MPD2    H2 4072   2.577   2.071  15.493  0.6035 -0.0515 -0.7460
  269MPD2    H3 4073   2.800   2.169  15.543  1.6174  1.5052 -0.4966
  269MPD2     N 4074   2.616   2.539  15.721 -0.1499  0.4749 -0.1962
  269MPD2    H5 4075   2.529   2.591  15.725 -0.4967 -0.3889  3.3499
  269MPD2    N1 4076   2.351   2.159  15.586  0.4548 -0.1923 -0.1174
  269MPD2    H7 4077   2.362   2.073  15.533  2.7448  0.6208 -0.9533
  270TMC3    C1 4078   2.163   2.072  15.678 -0.1053 -0.3346  0.1785
  270TMC3    C2 4079   2.209   1.978  15.586  0.7904  0.0237  0.4408
  270TMC3    C3 4080   2.237   1.849  15.636  0.2159  0.8037  0.1778
  270TMC3    C4 4081   2.143   2.048  15.813 -0.7239 -0.3882  0.3919
  270TMC3    C5 4082   2.173   1.921  15.854 -0.1250 -0.5282 -0.1801
  270TMC3    C6 4083   2.213   1.819  15.770 -0.2080 -0.5198 -0.1946
  270TMC3     C 4084   2.248   2.190  15.670 -0.2073 -0.4301  0.6129
  270TMC3     O 4085   2.239   2.267  15.767  0.5489  0.2047  0.3721
  270TMC3     H 4086   2.200   2.006  15.481 -0.7729 -0.0402  0.5673
  270TMC3    H1 4087   2.116   2.127  15.882  3.1820 -0.2261  1.7589
  270TMC3    H2 4088   2.228   1.719  15.809  1.5763 -0.5259 -0.9389
  270TMC3    C7 4089   2.209   1.895  15.992  0.6033  0.5036 -0.6890
  270TMC3    C8 4090   2.350   1.783  15.560  0.6647 -0.1649  0.5651
  270TMC3    O1 4091   2.149   1.945  16.082  0.2237 -0.5719 -0.0798
  270TMC3    O2 4092   2.386   1.834  15.455  0.3833 -0.0684 -0.2135
  271MPD2     C 4093   2.125   2.115  14.164  0.0716 -0.2475  0.5655
  271MPD2    C1 4094   2.065   2.136  14.286  0.1451  0.0529  0.1269
  271MPD2    C2 4095   1.959   2.229  14.299 -0.2460 -0.6701  0.5263
  271MPD2    C3 4096   1.924   2.297  14.184 -0.4810 -0.2253 -0.0477
  271MPD2    C4 4097   1.991   2.275  14.063  0.5041 -0.3922  0.5847
  271MPD2    C5 4098   2.096   2.189  14.056  0.4615 -0.3575 -0.3007
  271MPD2     H 4099   1.896   2.237  14.387 -1.1262 -1.1803 -0.0609
  271MPD2    H1 4100   1.961   2.333  13.976  1.2353  0.9599  1.2362
  271MPD2    H2 4101   2.187   2.029  14.147  0.2475  0.2227 -1.2010
  271MPD2    H3 4102   2.131   2.163  13.957  0.5366 -0.7999 -0.1596
  271MPD2     N 4103   1.817   2.388  14.168  0.6976  0.1594  0.2284
  271MPD2    H5 4104   1.808   2.432  14.077  0.3873 -0.5237 -0.0756
  271MPD2    N1 4105   2.103   2.058  14.401 -0.7715  0.0439 -0.1929
  271MPD2    H7 4106   2.047   2.067  14.485 -0.0672 -0.8596  0.3751
  272TMC3    C1 4107   2.259   1.930  14.536  0.2788  0.1275  0.0216
  272TMC3    C2 4108   2.374   1.854  14.535 -0.2716  1.1589  0.3070
  272TMC3    C3 4109   2.430   1.807  14.649 -0.3233  0.0350 -0.0407
  272TMC3    C4 4110   2.221   1.974  14.663  0.3124  0.1404  0.2449
  272TMC3    C5 4111   2.283   1.937  14.773  0.0626  0.1149  0.3981
  272TMC3    C6 4112   2.380   1.836  14.774 -0.0585  0.0364 -0.1226
  272TMC3     C 4113   2.226   1.995  14.413 -0.0104 -0.6004  0.0717
  272TMC3     O 4114   2.307   1.988  14.319  0.1132 -0.5822  0.4290
  272TMC3     H 4115   2.414   1.823  14.439 -0.8091 -0.0107  0.4711
  272TMC3    H1 4116   2.161   2.063  14.675  1.8069  1.4067 -1.6198
  272TMC3    H2 4117   2.390   1.776  14.863  0.3852 -1.0323 -0.8959
  272TMC3    C7 4118   2.244   1.999  14.898  0.5253  0.0747 -0.2169
  272TMC3    C8 4119   2.512   1.686  14.630 -0.6658  0.0865 -0.0141
  272TMC3    O1 4120   2.132   2.046  14.911 -0.4006 -1.1301  0.3479
  272TMC3    O2 4121   2.498   1.636  14.521 -0.3502 -0.8793  0.6174
  273MPD2     C 4122   4.396   0.142  12.332  0.2026 -0.0584 -0.0327
  273MPD2    C1 4123   4.460   0.264  12.321  0.4912 -0.3418  0.3383
  273MPD2    C2 4124   4.428   0.351  12.225  0.1861  0.1614  0.6843
  273MPD2    C3 4125   4.354   0.306  12.120  0.2387  0.0202  0.0901
  273MPD2    C4 4126   4.298   0.180  12.123 -0.8504  0.5103  0.1491
  273MPD2    C5 4127   4.311   0.103  12.239 -0.0588 -0.0949 -0.1055
  273MPD2     H 4128   4.467   0.452  12.224 -2.5866  1.2555  1.7763
  273MPD2    H1 4129   4.234   0.131  12.050 -1.0084  2.4765 -1.0265
  273MPD2    H2 4130   4.417   0.073  12.413 -0.9052 -2.3703 -1.7373
  273MPD2    H3 4131   4.254   0.011  12.244 -0.4703  0.1711  0.1238
  273MPD2     N 4132   4.319   0.384  12.006 -0.1176  0.3912  0.1596
  273MPD2    H5 4133   4.277   0.341  11.924 -0.6666  0.4275  0.4231
  273MPD2    N1 4134   4.546   0.298  12.431 -0.9815  0.0486  0.7056
  273MPD2    H7 4135   4.545   0.243  12.516  0.6601 -2.0036 -0.6013
  274TMC3    C1 4136   4.284   0.586  11.875  0.3774 -0.3324  0.0262
  274TMC3    C2 4137   4.308   0.516  11.755 -0.1517 -0.2751  0.3915
  274TMC3    C3 4138   4.304   0.584  11.645  0.3033  1.0654 -0.2385
  274TMC3    C4 4139   4.284   0.719  11.877  0.2933  0.4491 -0.3040
  274TMC3    C5 4140   4.278   0.788  11.758  0.5423 -0.2315 -0.0212
  274TMC3    C6 4141   4.298   0.720  11.640 -0.2892 -0.1591  0.5514
  274TMC3     C 4142   4.323   0.527  12.002  0.1075  0.1689  0.4283
  274TMC3     O 4143   4.361   0.601  12.096  0.2814 -0.7519  0.4788
  274TMC3     H 4144   4.310   0.408  11.746 -0.5587 -0.2581  0.1208
  274TMC3    H1 4145   4.268   0.777  11.968  2.0066  1.0294 -0.3752
  274TMC3    H2 4146   4.268   0.768  11.547 -0.8803 -1.1144  0.2483
  274TMC3    C7 4147   4.238   0.926  11.751 -0.6360  0.7948 -0.0525
  274TMC3    C8 4148   4.230   0.512  11.547 -0.0209 -0.3225 -0.3889
  274TMC3    O1 4149   4.177   0.961  11.848 -0.3571 -0.8189 -0.5772
  274TMC3    O2 4150   4.124   0.472  11.586 -0.1746 -0.6642  0.4621
  275MPD2     C 4151   4.051   2.811  14.588  0.6375 -0.6318 -0.0381
  275MPD2    C1 4152   3.943   2.878  14.644 -0.1420  1.3439  0.6258
  275MPD2    C2 4153   3.813   2.841  14.611  0.2481  0.0265 -0.8692
  275MPD2    C3 4154   3.783   2.742  14.519 -0.0407  0.1594 -0.3214
  275MPD2    C4 4155   3.888   2.672  14.479 -0.1896 -0.1289 -0.7650
  275MPD2    C5 4156   4.017   2.702  14.513 -0.7024  0.8534 -0.2229
  275MPD2     H 4157   3.734   2.895  14.661 -0.3551  0.2964 -2.1144
  275MPD2    H1 4158   3.862   2.593  14.408 -0.4294 -2.7445  2.2332
  275MPD2    H2 4159   4.155   2.825  14.615  0.2628  0.7343  0.7260
  275MPD2    H3 4160   4.100   2.640  14.481 -0.9596  0.0100  0.7268
  275MPD2     N 4161   3.651   2.719  14.469 -0.1125 -0.6640 -0.4589
  275MPD2    H5 4162   3.644   2.650  14.395  2.3080 -1.5134  0.0985
  275MPD2    N1 4163   3.962   2.973  14.749  0.1489 -0.0998 -0.1168
  275MPD2    H7 4164   3.881   3.028  14.776 -1.0414 -1.7699 -0.2904
  276TMC3    C1 4165   4.080   3.106  14.906 -0.1757  0.1071 -0.1542
  276TMC3    C2 4166   3.962   3.171  14.924  0.2355  0.0734 -1.0773
  276TMC3    C3 4167   3.900   3.204  15.045 -0.1761 -0.8865  0.2458
  276TMC3    C4 4168   4.160   3.101  15.017 -0.7853  0.5947 -0.4728
  276TMC3    C5 4169   4.104   3.135  15.142 -0.6855  0.1555 -0.0674
  276TMC3    C6 4170   3.976   3.186  15.163  0.2273 -0.3500  0.2549
  276TMC3     C 4171   4.084   3.001  14.806  0.1654  0.5390 -0.2494
  276TMC3     O 4172   4.191   2.949  14.792 -0.3129  0.2119 -0.5435
  276TMC3     H 4173   3.901   3.193  14.837 -1.1392  0.7407  0.0572
  276TMC3    H1 4174   4.254   3.048  15.006 -0.7454  0.7994 -1.0854
  276TMC3    H2 4175   3.930   3.187  15.261 -1.0335 -3.1559 -0.2982
  276TMC3    C7 4176   4.198   3.151  15.251 -0.4154 -0.8204  0.3131
  276TMC3    C8 4177   3.780   3.127  15.067  0.2265 -0.2512 -0.3908
  276TMC3    O1 4178   4.155   3.170  15.362  0.6063 -0.3713 -0.0656
  276TMC3    O2 4179   3.682   3.164  15.130  0.0890  0.2757 -0.3904
  277MPD2     C 4180   0.779   2.033  13.835 -0.2242  0.0939 -0.4076
  277MPD2    C1 4181   0.685   2.027  13.737  0.6377  0.0133  0.5880
  277MPD2    C2 4182   0.558   1.977  13.755  0.9184  0.1100  0.1297
  277MPD2    C3 4183   0.517   1.933  13.883 -0.1490  0.3917 -0.0380
  277MPD2    C4 4184   0.606   1.946  13.986 -0.0040  0.0651 -0.3262
  277MPD2    C5 4185   0.732   1.997  13.957 -0.6768 -0.5867  0.0932
  277MPD2     H 4186   0.486   1.977  13.674  0.2958  3.2455  0.6734
  277MPD2    H1 4187   0.581   1.917  14.088  0.3242 -0.6093 -0.4387
  277MPD2    H2 4188   0.881   2.063  13.815  0.7214 -2.3729  0.7708
  277MPD2    H3 4189   0.812   1.988  14.030  2.2611  3.1347 -2.6648
  277MPD2     N 4190   0.380   1.893  13.895  0.1580 -0.3684 -0.1122
  277MPD2    H5 4191   0.324   1.903  13.811  1.1071 -1.0288 -0.8178
  277MPD2    N1 4192   0.715   2.073  13.601 -0.3654  0.6930 -0.1910
  277MPD2    H7 4193   0.638   2.071  13.535  1.3602 -0.3372 -2.1940
  278TMC3    C1 4194   0.168   1.854  13.983  0.2764 -0.1821 -0.4360
  278TMC3    C2 4195   0.132   1.818  13.855  0.1228  0.1463 -0.2846
  278TMC3    C3 4196   0.002   1.797  13.830 -0.0195  0.0308 -0.0372
  278TMC3    C4 4197   0.075   1.855  14.083  0.4258 -0.7117 -0.5218
  278TMC3    C5 4198   4.671   1.817  14.055 -0.4251  0.2120  0.5866
  278TMC3    C6 4199   4.631   1.791  13.928  0.7522  0.6521  0.4012
  278TMC3     C 4200   0.308   1.883  14.017  0.5229  0.2617 -0.5309
  278TMC3     O 4201   0.348   1.913  14.130 -0.5021 -0.5545 -0.9064
  278TMC3     H 4202   0.188   1.819  13.762 -0.8011 -0.3289 -0.8369
  278TMC3    H1 4203   0.109   1.866  14.186  0.0952  2.7659 -0.7951
  278TMC3    H2 4204   4.537   1.750  13.896  1.0770 -0.9368  1.4853
  278TMC3    C7 4205   4.585   1.803  14.170 -0.4831 -0.2899  0.8639
  278TMC3    C8 4206   4.686   1.768  13.691  0.5227  0.4209 -0.1755
  278TMC3    O1 4207   4.639   1.815  14.281 -0.3600  0.1193 -0.3171
  278TMC3    O2 4208   0.046   1.706  13.624  0.2083 -0.2592  0.8866
  279MPD2     C 4209   4.717   1.675   0.269 -0.3153  0.4136 -0.0344
  279MPD2    C1 4210   4.617   1.769   0.292 -0.3046  0.4385  0.0455
  279MPD2    C2 4211   4.601   1.882   0.217 -0.4785 -0.8266 -0.2918
  279MPD2    C3 4212   4.683   1.901   0.108  0.4023 -0.6940  0.3638
  279MPD2    C4 4213   0.063   1.815   0.082  0.2016 -0.2020 -0.0800
  279MPD2    C5 4214   0.081   1.707   0.166  0.2899  0.6242  0.3276
  279MPD2     H 4215   4.507   1.934   0.238 -1.1329 -1.4973 -1.5868
  279MPD2    H1 4216   0.133   1.840   0.004  1.2151  0.1902  0.9576
  279MPD2    H2 4217   0.016   1.586   0.325 -1.1332  2.0147  2.8508
  279MPD2    H3 4218   0.175   1.655   0.150 -0.8419 -1.3669  0.2272
  279MPD2     N 4219   4.664   2.013   0.017 -0.1151 -0.0201  0.2401
  279MPD2    H5 4220   4.687   2.003  17.619 -0.9824 -2.0249  0.2343
  279MPD2    N1 4221   4.515   1.730   0.383  0.7532 -0.0192 -0.5184
  279MPD2    H7 4222   4.512   1.633   0.414  0.4219 -0.1022 -0.8024
  280TMC3    C1 4223   4.326   1.777   0.519  0.1465 -0.4120 -0.0701
  280TMC3    C2 4224   4.259   1.674   0.451  0.5969 -0.3392  0.4827
  280TMC3    C3 4225   4.124   1.684   0.433  0.9383  0.0039  0.2269
  280TMC3    C4 4226   4.254   1.880   0.575  0.0315  0.4513 -0.0349
  280TMC3    C5 4227   4.114   1.878   0.560  0.5756 -0.0774 -0.2750
  280TMC3    C6 4228   4.046   1.786   0.483  0.2317 -0.1261 -0.9337
  280TMC3     C 4229   4.448   1.827   0.455  0.4924 -0.4067 -0.3302
  280TMC3     O 4230   4.454   1.950   0.461  0.0536 -0.0278 -0.4148
  280TMC3     H 4231   4.309   1.598   0.393 -0.3083 -1.4277  1.1339
  280TMC3    H1 4232   4.295   1.960   0.635 -0.0982 -0.5090  1.3241
  280TMC3    H2 4233   3.938   1.789   0.481  0.1320 -2.4288  0.9412
  280TMC3    C7 4234   4.053   2.002   0.606 -0.1359 -0.3567 -0.7775
  280TMC3    C8 4235   4.047   1.565   0.387  0.2228 -0.3184  0.2752
  280TMC3    O1 4236   4.111   2.061   0.697 -0.0557  0.4369 -0.4859
  280TMC3    O2 4237   3.925   1.577   0.381 -0.0611 -0.1934  0.4508
  281TMC3    C1 4238   3.342   2.641  13.134  0.5320  0.5836 -0.2455
  281TMC3    C2 4239   3.315   2.761  13.083 -0.4037  0.4320 -0.8512
  281TMC3    C3 4240   3.245   2.769  12.965 -0.1886  0.1205  0.1659
  281TMC3    C4 4241   3.285   2.534  13.091 -0.5887  0.4756 -0.7264
  281TMC3    C5 4242   3.218   2.535  12.965  0.3413  0.4698  0.7986
  281TMC3    C6 4243   3.199   2.650  12.899  0.5219 -0.5899  0.0086
  281TMC3     C 4244   3.379   2.649  13.278  0.3337 -0.0476 -0.0940
  281TMC3     O 4245   3.429   2.546  13.324 -0.0979 -0.0919 -0.7974
  281TMC3     H 4246   3.367   2.847  13.123 -2.4836  1.8330 -1.1924
  281TMC3    H1 4247   3.290   2.445  13.153  1.6873  0.7438 -0.5180
  281TMC3    H2 4248   3.167   2.654  12.795  3.1012  2.2730 -0.6812
  281TMC3    C7 4249   3.135   2.426  12.926  0.3372  0.5261 -0.0936
  281TMC3    C8 4250   3.154   2.870  12.945  0.3255 -0.2976 -0.2439
  281TMC3    O1 4251   3.118   2.409  12.805 -0.2502  0.2552  0.1740
  281TMC3    O2 4252   3.066   2.849  12.866  1.0787  0.0684 -0.1477
  282MPD2     C 4253   0.303   3.436  15.306 -0.3184 -0.4614  0.6855
  282MPD2    C1 4254   0.234   3.552  15.348 -0.2331 -0.1166 -0.1007
  282MPD2    C2 4255   0.145   3.609  15.259 -0.3892 -0.3666 -0.7402
  282MPD2    C3 4256   0.128   3.553  15.132 -0.1392 -0.1652  0.7758
  282MPD2    C4 4257   0.197   3.438  15.096 -0.3804 -0.4728  0.5875
  282MPD2    C5 4258   0.281   3.385  15.186  0.5936 -0.3257 -0.4929
  282MPD2     H 4259   0.088   3.695  15.290 -0.1389 -0.3172 -0.4142
  282MPD2    H1 4260   0.174   3.386  15.004 -0.5312  0.8320 -0.1013
  282MPD2    H2 4261   0.373   3.391  15.375 -0.2753 -3.1507 -1.1340
  282MPD2    H3 4262   0.335   3.295  15.160  2.5906  0.6909  0.1219
  282MPD2     N 4263   0.037   3.615  15.045  0.0037 -0.2373 -0.8590
  282MPD2    H5 4264   4.700   3.683  15.088 -0.0837 -0.8602  0.0087
  282MPD2    N1 4265   0.241   3.605  15.479  0.4666 -0.4829 -0.0380
  282MPD2    H7 4266   0.164   3.666  15.504 -0.7503 -1.9115 -0.2462
  283TMC3    C1 4267   0.303   3.619  15.710  0.1526 -0.6784 -0.0463
  283TMC3    C2 4268   0.281   3.754  15.727 -0.3182  0.0968  0.1474
  283TMC3    C3 4269   0.300   3.805  15.852  0.0328  0.5222  0.1005
  283TMC3    C4 4270   0.345   3.542  15.817  0.8049  0.2390  0.4914
  283TMC3    C5 4271   0.339   3.596  15.944  0.4288  0.1634  0.4273
  283TMC3    C6 4272   0.314   3.725  15.957 -0.2607 -0.3980 -0.9235
  283TMC3     C 4273   0.319   3.560  15.577  0.1818 -0.1342  0.2814
  283TMC3     O 4274   0.401   3.467  15.575  0.2242 -0.3312 -0.2783
  283TMC3     H 4275   0.277   3.825  15.645  1.6996 -1.9623 -1.7353
  283TMC3    H1 4276   0.378   3.441  15.796 -0.5047 -0.3144  1.1294
  283TMC3    H2 4277   0.322   3.770  16.055 -1.1531  0.9070 -1.4527
  283TMC3    C7 4278   0.268   3.529  16.038 -0.2698 -0.2497  0.3181
  283TMC3    C8 4279   0.344   3.944  15.871 -0.0008 -0.4911 -0.3241
  283TMC3    O1 4280   0.211   3.577  16.132 -0.0724 -0.6403  0.3308
  283TMC3    O2 4281   0.346   3.989  15.986  0.4984 -0.3110  0.4152
  284MPD2     C 4282   3.485   3.598  11.899 -0.2901 -0.5842  0.3018
  284MPD2    C1 4283   3.544   3.485  11.845 -0.1215 -0.0730 -0.0773
  284MPD2    C2 4284   3.533   3.368  11.911  0.1776  0.2909  0.4397
  284MPD2    C3 4285   3.458   3.356  12.031  0.2801 -0.6920  0.0623
  284MPD2    C4 4286   3.390   3.468  12.078  0.3383 -0.1175 -0.5678
  284MPD2    C5 4287   3.416   3.586  12.015  0.2039 -0.2852  0.4234
  284MPD2     H 4288   3.587   3.288  11.862 -0.8203  0.7882 -1.4842
  284MPD2    H1 4289   3.332   3.470  12.169  0.5186  0.4789 -0.4639
  284MPD2    H2 4290   3.494   3.695  11.852 -1.7661 -0.5939  0.0003
  284MPD2    H3 4291   3.367   3.680  12.036 -0.5278 -0.6386  0.3081
  284MPD2     N 4292   3.450   3.239  12.107  0.2170  0.0769 -0.5177
  284MPD2    H5 4293   3.396   3.240  12.193  0.3010  1.2247 -0.4762
  284MPD2    N1 4294   3.641   3.499  11.744  0.2300  0.4389  0.2567
  284MPD2    H7 4295   3.705   3.421  11.742 -1.6634 -1.0993 -0.9243
  285TMC3    C1 4296   3.791   3.572  11.582  0.3356  0.8227 -0.1918
  285TMC3    C2 4297   3.802   3.436  11.556  0.3425 -0.8678 -0.0636
  285TMC3    C3 4298   3.927   3.394  11.541 -0.5526 -0.1766 -0.0619
  285TMC3    C4 4299   3.897   3.657  11.580  0.1739 -0.1972 -0.0647
  285TMC3    C5 4300   4.026   3.605  11.570  0.2607  0.5159 -0.9008
  285TMC3    C6 4301   4.039   3.474  11.545  0.0119  0.3808  0.0591
  285TMC3     C 4302   3.676   3.609  11.668 -0.2336  0.5580  1.0731
  285TMC3     O 4303   3.647   3.729  11.678 -0.1591 -0.7595  0.3184
  285TMC3     H 4304   3.718   3.369  11.543 -1.4862  1.3789  0.1804
  285TMC3    H1 4305   3.885   3.760  11.611 -2.6640 -0.7249  0.5954
  285TMC3    H2 4306   4.135   3.424  11.537  0.7423  1.9046 -0.8236
  285TMC3    C7 4307   4.127   3.698  11.526 -0.0744  0.2604 -0.4493
  285TMC3    C8 4308   3.948   3.248  11.527  0.4556 -0.6923  0.6297
  285TMC3    O1 4309   4.230   3.709  11.587 -0.0546 -0.0509 -0.0265
  285TMC3    O2 4310   3.860   3.190  11.462 -0.4387  0.0314 -0.6774
  286MPD2     C 4311   3.640   1.327   1.727  0.0792 -0.1213 -0.7428
  286MPD2    C1 4312   3.587   1.350   1.601  0.2257 -0.1137  0.0857
  286MPD2    C2 4313   3.621   1.257   1.498 -0.4695 -0.5699  0.0404
  286MPD2    C3 4314   3.691   1.141   1.535  0.1559  0.5636 -0.5388
  286MPD2    C4 4315   3.724   1.113   1.665  0.7562 -0.5149  0.3515
  286MPD2    C5 4316   3.702   1.213   1.764 -0.0891  0.2904 -0.2043
  286MPD2     H 4317   3.607   1.287   1.395  0.6303 -0.7762 -0.1737
  286MPD2    H1 4318   3.776   1.020   1.683 -0.7001 -1.1569  1.2675
  286MPD2    H2 4319   3.630   1.400   1.806  2.1957 -1.4198  0.7064
  286MPD2    H3 4320   3.737   1.201   1.866 -1.3479  2.3240  0.4734
  286MPD2     N 4321   3.735   1.046   1.444 -0.2776  0.1598 -0.7250
  286MPD2    H5 4322   3.784   0.965   1.480 -0.3141  0.4320 -0.0751
  286MPD2    N1 4323   3.506   1.464   1.571 -0.1053 -0.4930 -0.2019
  286MPD2    H7 4324   3.484   1.478   1.473 -1.3812 -3.2613 -0.3135
  287TMC3    C1 4325   3.763   0.928   1.251  0.9214  0.4021 -0.1402
  287TMC3    C2 4326   3.713   0.882   1.133  0.0591 -0.8850 -0.3510
  287TMC3    C3 4327   3.782   0.773   1.079 -0.3653 -0.8093  0.3842
  287TMC3    C4 4328   3.887   0.888   1.298 -0.1264 -0.0721 -0.2484
  287TMC3    C5 4329   3.951   0.782   1.240 -0.7438 -0.3031 -0.7621
  287TMC3    C6 4330   3.895   0.717   1.134  0.6569  0.4810 -0.2723
  287TMC3     C 4331   3.704   1.039   1.309 -0.5579  0.5480 -0.0571
  287TMC3     O 4332   3.619   1.100   1.246 -0.2746 -0.4070 -0.0563
  287TMC3     H 4333   3.615   0.914   1.099  1.3002  2.7346 -0.5074
  287TMC3    H1 4334   3.945   0.941   1.374  0.9263 -0.3453 -0.8575
  287TMC3    H2 4335   3.940   0.634   1.082  0.0117  0.5087 -0.8756
  287TMC3    C7 4336   4.078   0.745   1.291 -0.1546 -0.0750  0.1228
  287TMC3    C8 4337   3.721   0.683   0.977  0.2526  0.3606 -0.2873
  287TMC3    O1 4338   4.091   0.759   1.413 -0.0401 -0.0011 -0.0797
  287TMC3    O2 4339   3.754   0.566   0.979  0.2417 -0.1165 -0.3698
  288TMC3    C1 4340   0.607   1.364  14.185 -0.4239  0.3804 -0.0601
  288TMC3    C2 4341   0.547   1.343  14.309  0.4458  0.2541 -0.2038
  288TMC3    C3 4342   0.633   1.368  14.411  0.1676  0.8631 -0.4015
  288TMC3    C4 4343   0.737   1.400  14.166  0.6121 -0.2733 -0.0069
  288TMC3    C5 4344   0.814   1.407  14.272  0.3508 -0.0443  0.2992
  288TMC3    C6 4345   0.766   1.400  14.402 -0.1391  0.0636  0.9788
  288TMC3     C 4346   0.552   1.299  14.068 -0.0139 -0.3038  0.6657
  288TMC3     O 4347   0.619   1.278  13.970 -0.2538  0.8444  0.2548
  288TMC3     H 4348   0.446   1.308  14.325  0.3557  1.4695  1.7720
  288TMC3    H1 4349   0.777   1.416  14.066  0.8891 -0.7804  0.0242
  288TMC3    H2 4350   0.825   1.397  14.493  2.8376  0.3155 -0.9266
  288TMC3    C7 4351   0.946   1.469  14.247 -0.2591 -0.1450 -0.5024
  288TMC3    C8 4352   0.560   1.411  14.521 -0.2473  0.2383  0.4717
  288TMC3    O1 4353   1.030   1.434  14.320 -0.4927 -0.4140 -0.6058
  288TMC3    O2 4354   0.612   1.501  14.592 -0.5407 -0.3670  0.4659
  289MPD2     C 4355   0.706   0.578  14.681  0.3903  0.4220  0.3897
  289MPD2    C1 4356   0.674   0.705  14.635  0.0182  0.7806 -0.5888
  289MPD2    C2 4357   0.550   0.713  14.564  0.5115 -0.2199  0.5074
  289MPD2    C3 4358   0.454   0.615  14.561  0.0685 -0.5996 -0.1911
  289MPD2    C4 4359   0.490   0.492  14.617 -0.0118 -0.8636 -0.1162
  289MPD2    C5 4360   0.618   0.473  14.675  0.8573 -0.0767 -0.2098
  289MPD2     H 4361   0.536   0.801  14.502  1.8131  1.4979  2.6466
  289MPD2    H1 4362   0.421   0.409  14.623 -0.5176 -0.4629 -0.4704
  289MPD2    H2 4363   0.806   0.560  14.718 -0.1983 -1.2496  1.1733
  289MPD2    H3 4364   0.648   0.386  14.732 -1.1083 -1.4600 -1.2524
  289MPD2     N 4365   0.337   0.630  14.481  0.9412 -0.2139  0.0097
  289MPD2    H5 4366   0.288   0.542  14.469 -2.2261  1.3926  0.9464
  289MPD2    N1 4367   0.772   0.813  14.631 -0.3174 -0.2757 -0.0018
  289MPD2    H7 4368   0.860   0.802  14.679 -0.7227 -2.6749  0.2084
  290TMC3    C1 4369   0.182   0.724  14.342 -0.0586  0.3758 -0.3298
  290TMC3    C2 4370   0.103   0.835  14.341  0.4678  0.3691  0.1647
  290TMC3    C3 4371   4.712   0.813  14.267 -0.4018 -1.0245 -0.6940
  290TMC3    C4 4372   0.162   0.608  14.278  0.3290 -0.3458 -0.2390
  290TMC3    C5 4373   0.039   0.598  14.213 -0.1042  0.3124  0.2365
  290TMC3    C6 4374   4.679   0.702  14.191 -0.0689 -0.1049  0.1782
  290TMC3     C 4375   0.300   0.742  14.420 -0.2026  0.4657 -0.5005
  290TMC3     O 4376   0.320   0.859  14.447 -0.5927 -0.2564 -0.0498
  290TMC3     H 4377   0.120   0.921  14.405  0.2133  1.1801 -0.8713
  290TMC3    H1 4378   0.243   0.537  14.271  1.2000  0.6407 -0.1206
  290TMC3    H2 4379   4.596   0.696  14.121  0.1853  1.5446 -0.2692
  290TMC3    C7 4380   0.014   0.483  14.126 -0.4499  0.8541 -0.0604
  290TMC3    C8 4381   4.622   0.926  14.257  1.1304  0.8071  0.3840
  290TMC3    O1 4382   4.677   0.521  14.025  0.6066  0.0095  0.0468
  290TMC3    O2 4383   4.510   0.898  14.219  0.1013  0.7233  0.1354
  291MPD2     C 4384   4.299   0.642   0.619 -0.6241 -0.0666 -0.8802
  291MPD2    C1 4385   4.395   0.552   0.663  0.5497 -0.1878  0.4691
  291MPD2    C2 4386   4.497   0.601   0.745 -0.3669 -0.4480  0.0415
  291MPD2    C3 4387   4.495   0.725   0.797  0.0927 -0.1883  0.1755
  291MPD2    C4 4388   4.387   0.807   0.767 -0.8714  0.5379 -0.4101
  291MPD2    C5 4389   4.286   0.767   0.681  0.1417 -0.1136  0.9450
  291MPD2     H 4390   4.572   0.530   0.778 -0.5021  0.5424  2.4610
  291MPD2    H1 4391   4.373   0.906   0.810 -2.2921  0.3027 -0.3603
  291MPD2    H2 4392   4.226   0.604   0.548 -1.0221 -1.4060  0.2476
  291MPD2    H3 4393   4.208   0.838   0.657  0.5956  0.0627  0.0166
  291MPD2     N 4394   4.604   0.783   0.870 -0.8621 -0.4988  0.4101
  291MPD2    H5 4395   4.594   0.880   0.897  0.6344  0.0258 -0.9516
  291MPD2    N1 4396   4.415   0.423   0.619  0.7683  0.0883  0.2476
  291MPD2    H7 4397   4.495   0.374   0.656  0.3858 -0.5879  0.1848
  292TMC3    C1 4398   4.376   0.204   0.544  0.1508  0.0700 -0.2864
  292TMC3    C2 4399   4.449   0.151   0.647  0.6384  0.7666  0.1594
  292TMC3    C3 4400   4.484   0.025   0.638 -0.4374  0.7869 -0.3615
  292TMC3    C4 4401   4.340   0.125   0.443  0.0871 -0.9189  0.1852
  292TMC3    C5 4402   4.367   4.713   0.447 -0.4766 -0.8322  0.2597
  292TMC3    C6 4403   4.451   4.662   0.543 -0.4951  0.8871  0.3559
  292TMC3     C 4404   4.329   0.342   0.545 -0.1362 -0.8037 -0.2719
  292TMC3     O 4405   4.233   0.375   0.479  0.6108 -0.4662 -0.0587
  292TMC3     H 4406   4.476   0.205   0.737 -0.1030 -0.4439  1.0997
  292TMC3    H1 4407   4.287   0.168   0.359  0.6630 -0.0159  0.2714
  292TMC3    H2 4408   4.482   4.559   0.535 -1.5825  0.3868  2.6591
  292TMC3    C7 4409   4.331   4.622   0.345 -0.0841  0.0737  0.2856
  292TMC3    C8 4410   4.563   4.689   0.747 -0.7917  0.3982 -0.6632
  292TMC3    O1 4411   4.399   4.522   0.333 -0.1282 -0.1859 -0.2709
  292TMC3    O2 4412   4.643   0.032   0.815 -0.4980 -0.3724 -0.0176
  293MPD2     C 4413   2.150   2.153  12.808  0.9409  0.3937 -0.2346
  293MPD2    C1 4414   2.057   2.066  12.853  0.2356 -0.3946 -0.1034
  293MPD2    C2 4415   2.025   2.073  12.990 -0.3345  0.0913 -0.1556
  293MPD2    C3 4416   2.101   2.147  13.076 -0.2052  0.0562  0.7526
  293MPD2    C4 4417   2.203   2.222  13.030 -0.4317  0.0781  0.9327
  293MPD2    C5 4418   2.225   2.230  12.889  0.4204  0.5777  0.0973
  293MPD2     H 4419   1.940   2.019  13.030 -1.7851  2.4197 -0.0467
  293MPD2    H1 4420   2.271   2.270  13.099 -0.1587 -1.0173  1.4202
  293MPD2    H2 4421   2.177   2.159  12.703 -1.5372 -1.6049 -1.0032
  293MPD2    H3 4422   2.305   2.297  12.859 -1.2547  2.0793 -0.9763
  293MPD2     N 4423   2.050   2.160  13.211 -0.2594  0.0858 -0.5868
  293MPD2    H5 4424   1.973   2.096  13.230 -0.8406  0.0243 -3.0788
  293MPD2    N1 4425   1.994   1.988  12.763  0.2691  0.5690 -0.4830
  293MPD2    H7 4426   2.019   2.015  12.669 -0.1806  1.7149 -0.2672
  294TMC3    C1 4427   1.835   1.851  12.661 -0.0571 -0.2607  0.4161
  294TMC3    C2 4428   1.697   1.805  12.659  0.1868 -0.0800  0.0835
  294TMC3    C3 4429   1.629   1.816  12.536 -0.2350 -0.2461  0.0573
  294TMC3    C4 4430   1.902   1.885  12.542 -0.3989  0.8301  0.0502
  294TMC3    C5 4431   1.830   1.877  12.422  0.4255  1.0138  0.3472
  294TMC3    C6 4432   1.694   1.845  12.418 -0.5172  0.1716  0.3173
  294TMC3     C 4433   1.889   1.902  12.782  0.0529  0.8770 -0.5034
  294TMC3     O 4434   1.834   1.869  12.887  0.2328 -0.2701  0.0925
  294TMC3     H 4435   1.652   1.768  12.750  1.3590  1.4286  1.2884
  294TMC3    H1 4436   2.007   1.909  12.537  0.1574 -1.4784  0.8998
  294TMC3    H2 4437   1.641   1.860  12.324 -0.8339  0.7583  0.5868
  294TMC3    C7 4438   1.869   1.986  12.331 -0.3008  0.3393 -0.0734
  294TMC3    C8 4439   1.495   1.759  12.541 -0.6758  0.4897 -0.2258
  294TMC3    O1 4440   1.783   2.066  12.297 -0.5022 -0.0585  0.4756
  294TMC3    O2 4441   1.422   1.779  12.634 -0.1464  0.2387 -0.4281
  295MPD2     C 4442   2.613   0.053   0.785  0.2181 -0.1037 -0.4510
  295MPD2    C1 4443   2.478   0.049   0.781 -0.3999 -0.3568  0.0451
  295MPD2    C2 4444   2.418   4.692   0.875 -0.4620 -0.0989  1.4008
  295MPD2    C3 4445   2.492   4.614   0.962 -0.3671 -0.7370 -0.4112
  295MPD2    C4 4446   2.624   4.621   0.961 -0.3810 -0.5423  0.2543
  295MPD2    C5 4447   2.689   4.708   0.875  0.0954 -0.4736  0.1091
  295MPD2     H 4448   2.311   4.705   0.870 -0.5471 -1.9580 -1.2082
  295MPD2    H1 4449   2.685   4.578   1.039  0.2079  0.4393  0.3289
  295MPD2    H2 4450   2.666   0.106   0.707 -0.2139  1.2553  0.1906
  295MPD2    H3 4451   2.796   0.004   0.877  0.0934 -0.2766 -1.5941
  295MPD2     N 4452   2.442   4.535   1.065  0.3624  0.0670  0.4150
  295MPD2    H5 4453   2.508   4.477   1.115  0.0189 -0.1187  0.6539
  295MPD2    N1 4454   2.404   0.116   0.682  0.3223  0.1587 -0.0584
  295MPD2    H7 4455   2.306   0.092   0.669  1.0247 -2.7094 -0.0969
  296TMC3    C1 4456   2.307   4.446   1.240 -0.2195 -0.0058  0.5228
  296TMC3    C2 4457   2.209   4.471   1.332  0.1586  0.0336  0.1222
  296TMC3    C3 4458   2.209   4.394   1.450  0.4519 -0.8566  0.1646
  296TMC3    C4 4459   2.381   4.331   1.244  0.0017 -0.1589  0.2024
  296TMC3    C5 4460   2.375   4.259   1.360 -0.8146  0.1391 -0.4186
  296TMC3    C6 4461   2.295   4.289   1.465  0.3254 -0.5564 -0.1442
  296TMC3     C 4462   2.313   4.518   1.113 -0.0629 -0.2484  0.2921
  296TMC3     O 4463   2.209   4.580   1.079 -0.6938 -0.0396  0.2519
  296TMC3     H 4464   2.154   4.558   1.301 -0.5581  0.6246  3.0359
  296TMC3    H1 4465   2.453   4.311   1.165 -0.5041 -0.9637 -0.0555
  296TMC3    H2 4466   2.295   4.237   1.560 -0.5005  1.7237  1.0855
  296TMC3    C7 4467   2.474   4.147   1.366  0.5472 -0.7302  0.0661
  296TMC3    C8 4468   2.159   4.441   1.574  0.6267 -0.0975 -0.0652
  296TMC3    O1 4469   2.549   4.141   1.270  0.0875 -0.7003 -0.1231
  296TMC3    O2 4470   2.147   4.366   1.665 -0.2561 -0.1583  0.5277
  297MPD2     C 4471   4.237   2.189  16.576 -0.7501  0.7247 -0.1455
  297MPD2    C1 4472   4.232   2.256  16.453  0.2491  0.3463  0.4479
  297MPD2    C2 4473   4.324   2.366  16.434 -0.1811  0.2699 -0.6318
  297MPD2    C3 4474   4.399   2.419  16.538  1.1952  0.6116  0.2911
  297MPD2    C4 4475   4.413   2.345  16.647 -0.3693 -0.3250  0.1520
  297MPD2    C5 4476   4.335   2.232  16.666 -0.2893  0.0337 -0.3692
  297MPD2     H 4477   4.309   2.430  16.348  1.4228  1.2348 -0.1901
  297MPD2    H1 4478   4.496   2.355  16.717 -0.4678 -1.2524  0.3988
  297MPD2    H2 4479   4.180   2.101  16.602 -0.7516  0.9388  0.5881
  297MPD2    H3 4480   4.344   2.176  16.758  1.1175 -2.1997 -1.8596
  297MPD2     N 4481   4.459   2.546  16.533  0.0472  0.5174  0.5189
  297MPD2    H5 4482   4.474   2.597  16.446  0.8431  1.5718  1.2876
  297MPD2    N1 4483   4.150   2.219  16.347  1.2362  0.0083  0.2161
  297MPD2    H7 4484   4.158   2.270  16.260  1.1084 -1.6916 -0.8051
  298TMC3    C1 4485   3.929   2.199  16.277  0.2585 -0.2208  0.9145
  298TMC3    C2 4486   3.971   2.211  16.146 -0.5131 -0.6425 -0.2825
  298TMC3    C3 4487   3.876   2.254  16.054  0.0186  0.2405  0.0320
  298TMC3    C4 4488   3.804   2.234  16.318 -0.1450 -0.2251  0.7386
  298TMC3    C5 4489   3.717   2.289  16.224  0.1987  0.2672 -0.9959
  298TMC3    C6 4490   3.749   2.301  16.086  0.0871 -0.2854 -0.2461
  298TMC3     C 4491   4.027   2.165  16.377 -0.5120  0.1185 -0.1081
  298TMC3     O 4492   3.978   2.122  16.484  0.4561  0.7940  0.4637
  298TMC3     H 4493   4.064   2.169  16.110 -0.9013 -1.7905  0.0782
  298TMC3    H1 4494   3.775   2.228  16.423 -1.4684 -0.9708  0.3170
  298TMC3    H2 4495   3.686   2.349  16.012 -0.3370 -0.3526  0.0706
  298TMC3    C7 4496   3.596   2.357  16.283 -0.1619 -0.5996  0.4637
  298TMC3    C8 4497   3.928   2.261  15.919 -0.3227 -0.1814  0.2808
  298TMC3    O1 4498   3.586   2.359  16.403  0.1586 -0.1545 -0.0760
  298TMC3    O2 4499   3.850   2.249  15.828 -0.0621  0.6857 -0.2220
  299MPD2     C 4500   0.918   2.260  11.346  0.9730  0.2185  0.0347
  299MPD2    C1 4501   0.924   2.255  11.205 -0.2631 -0.3435 -0.1086
  299MPD2    C2 4502   0.806   2.236  11.132  0.1032  0.0230  1.6807
  299MPD2    C3 4503   0.685   2.219  11.205 -0.2836  0.1506 -0.1924
  299MPD2    C4 4504   0.684   2.230  11.348  0.0612 -0.6313 -0.4285
  299MPD2    C5 4505   0.802   2.245  11.414  0.3966  0.4723 -0.1467
  299MPD2     H 4506   0.793   2.215  11.026 -3.7160  0.0948  2.1052
  299MPD2    H1 4507   0.596   2.204  11.407  0.6402  0.7770  1.0422
  299MPD2    H2 4508   1.003   2.288  11.407  1.6512 -0.4429 -0.6072
  299MPD2    H3 4509   0.813   2.241  11.521 -0.8132 -1.2301 -0.0871
  299MPD2     N 4510   0.561   2.193  11.143 -0.5314  0.6587  0.0498
  299MPD2    H5 4511   0.490   2.169  11.212  0.6363 -0.7239  0.7783
  299MPD2    N1 4512   1.049   2.269  11.147  0.0354  0.3002 -0.2466
  299MPD2    H7 4513   1.124   2.291  11.212 -0.7284 -0.8763  1.0519
  300TMC3    C1 4514   0.391   2.171  10.979  0.5993  0.0818 -0.7402
  300TMC3    C2 4515   0.345   2.230  10.868 -0.0220 -0.2542 -0.9483
  300TMC3    C3 4516   0.218   2.228  10.833 -0.5835  0.1391 -0.4699
  300TMC3    C4 4517   0.301   2.111  11.063  0.1124 -0.1259 -0.1729
  300TMC3    C5 4518   0.171   2.099  11.023  0.7233  0.0412 -0.5920
  300TMC3    C6 4519   0.131   2.150  10.900  0.3888  0.1530 -0.2769
  300TMC3     C 4520   0.532   2.200  11.009 -0.5653 -0.3898  0.1505
  300TMC3     O 4521   0.590   2.262  10.921 -0.6015  0.3982  0.2728
  300TMC3     H 4522   0.416   2.283  10.805  0.3777 -0.7076 -0.8720
  300TMC3    H1 4523   0.337   2.073  11.158 -1.3388 -1.3604 -0.1145
  300TMC3    H2 4524   0.027   2.148  10.870  0.6864 -2.9260 -1.0611
  300TMC3    C7 4525   0.077   2.029  11.109  0.2130  0.7938 -0.5134
  300TMC3    C8 4526   0.152   2.326  10.751  0.2450  0.3168  0.3117
  300TMC3    O1 4527   0.112   1.918  11.151  0.1441 -0.1731 -0.4883
  300TMC3    O2 4528   0.046   2.289  10.694  0.0253  0.0413 -0.1133
  301MPD2     C 4529   2.410   3.196   1.555 -0.0292 -1.0174 -0.5286
  301MPD2    C1 4530   2.295   3.150   1.497  0.3759  1.1974 -0.3523
  301MPD2    C2 4531   2.298   3.017   1.455 -0.4032  0.5230  0.1781
  301MPD2    C3 4532   2.415   2.945   1.462  0.1716  0.4418 -0.8699
  301MPD2    C4 4533   2.532   3.008   1.506  0.3528  0.4259  0.1173
  301MPD2    C5 4534   2.529   3.130   1.551  0.4478  0.1654  0.3290
  301MPD2     H 4535   2.200   2.976   1.434 -0.6382  0.9384  0.4803
  301MPD2    H1 4536   2.619   2.944   1.515  0.3226  0.2608 -0.8306
  301MPD2    H2 4537   2.410   3.300   1.588  2.2906 -0.7395 -1.3507
  301MPD2    H3 4538   2.618   3.173   1.596  1.4393 -0.6826 -0.8340
  301MPD2     N 4539   2.427   2.812   1.412 -0.4462  1.3684 -0.0691
  301MPD2    H5 4540   2.512   2.762   1.435 -0.8572  0.9956  0.6549
  301MPD2    N1 4541   2.167   3.216   1.489 -0.7584 -0.4055 -0.1992
  301MPD2    H7 4542   2.100   3.163   1.434  2.2740 -1.3701 -2.9805
  302TMC3    C1 4543   2.388   2.629   1.270 -0.0386  0.6089 -0.6707
  302TMC3    C2 4544   2.491   2.559   1.323 -0.9277  1.1216 -1.1660
  302TMC3    C3 4545   2.539   2.452   1.262  0.1601  0.1973  0.2419
  302TMC3    C4 4546   2.341   2.589   1.146 -0.5066 -0.2279  0.0334
  302TMC3    C5 4547   2.412   2.500   1.068 -0.0143  0.6285  0.1308
  302TMC3    C6 4548   2.512   2.425   1.133  0.4135 -0.1324  0.5593
  302TMC3     C 4549   2.333   2.746   1.332 -0.0378  0.4320 -0.4252
  302TMC3     O 4550   2.222   2.785   1.295 -0.5893  0.2245 -0.4183
  302TMC3     H 4551   2.520   2.572   1.427 -0.0707  2.5250 -1.5861
  302TMC3    H1 4552   2.267   2.653   1.101 -0.3393  0.6208  0.9782
  302TMC3    H2 4553   2.577   2.354   1.083  0.8146  1.1448 -0.7466
  302TMC3    C7 4554   2.387   2.475   0.924 -0.7548  0.4566 -0.0813
  302TMC3    C8 4555   2.652   2.382   1.318 -0.6769 -0.4396  0.2810
  302TMC3    O1 4556   2.469   2.405   0.864  0.1102 -0.6942  0.1204
  302TMC3    O2 4557   2.737   2.351   1.243 -0.4549 -0.2355  0.2612
  303MPD2     C 4558   2.184   1.628  10.938  0.1504 -0.6434 -0.1878
  303MPD2    C1 4559   2.169   1.559  10.819  0.1757 -0.6675 -0.1239
  303MPD2    C2 4560   2.280   1.527  10.740  0.1358  0.1924  1.2536
  303MPD2    C3 4561   2.406   1.572  10.776 -0.0836  0.0579  0.1863
  303MPD2    C4 4562   2.427   1.633  10.900  0.2374 -0.4731  0.5416
  303MPD2    C5 4563   2.312   1.664  10.970  0.2096 -0.1628  0.1989
  303MPD2     H 4564   2.270   1.492  10.638  2.4083  0.4221  0.9457
  303MPD2    H1 4565   2.526   1.653  10.940  1.0771  1.4497 -2.3973
  303MPD2    H2 4566   2.110   1.651  11.013  0.0366 -1.0522 -0.1751
  303MPD2    H3 4567   2.330   1.730  11.054 -1.7582  1.1973 -0.4504
  303MPD2     N 4568   2.514   1.531  10.696 -0.7041  0.5340 -0.6604
  303MPD2    H5 4569   2.497   1.473  10.614  0.4609  1.4343 -1.5470
  303MPD2    N1 4570   2.038   1.538  10.781 -0.2648  0.0415 -0.7389
  303MPD2    H7 4571   1.976   1.571  10.854  1.5457  1.4244  0.1842
  304TMC3    C1 4572   1.850   1.481  10.658 -0.1917 -0.4779  0.5893
  304TMC3    C2 4573   1.808   1.505  10.527  0.7259  0.1871 -0.0672
  304TMC3    C3 4574   1.708   1.437  10.466 -0.5186  0.5241  0.3205
  304TMC3    C4 4575   1.795   1.379  10.731  0.7571  0.1400 -0.1943
  304TMC3    C5 4576   1.697   1.310  10.670  0.2013  0.6800 -0.2619
  304TMC3    C6 4577   1.653   1.343  10.545  0.3040 -1.2526 -0.4654
  304TMC3     C 4578   1.992   1.489  10.661  0.2268 -0.1813  0.5921
  304TMC3     O 4579   2.060   1.473  10.562 -0.4041 -0.2711  0.3681
  304TMC3     H 4580   1.864   1.584  10.478 -0.3626  1.9690  1.6056
  304TMC3    H1 4581   1.846   1.349  10.822  0.1062  0.1878  0.1806
  304TMC3    H2 4582   1.565   1.293  10.506 -1.3759 -1.1189  3.1134
  304TMC3    C7 4583   1.705   1.169  10.690  0.0073  0.3909  0.5039
  304TMC3    C8 4584   1.746   1.380  10.341 -0.4488  0.2135 -0.2679
  304TMC3    O1 4585   1.732   1.133  10.802  0.5849 -0.2198 -0.0536
  304TMC3    O2 4586   1.709   1.263  10.316 -0.1284 -0.0925  0.2920
  305MPD2     C 4587   0.094   3.707  14.451  0.0390 -0.0170 -0.0510
  305MPD2    C1 4588   0.218   3.753  14.401  0.4739  0.1540  0.4832
  305MPD2    C2 4589   0.239   3.753  14.260  0.0902  0.1282 -0.5665
  305MPD2    C3 4590   0.149   3.700  14.173 -0.9912 -0.4468 -0.2071
  305MPD2    C4 4591   0.037   3.643  14.230 -0.0787 -0.4549  0.1203
  305MPD2    C5 4592   0.012   3.643  14.366 -0.0242 -0.6399  0.3621
  305MPD2     H 4593   0.338   3.783  14.226  0.4092  0.1349  0.3904
  305MPD2    H1 4594   4.685   3.601  14.165  2.1775 -1.7893 -1.6297
  305MPD2    H2 4595   0.066   3.724  14.554 -0.5216  1.1367 -0.3919
  305MPD2    H3 4596   4.637   3.609  14.394 -0.9350  1.9752  0.2696
  305MPD2     N 4597   0.167   3.703  14.031  0.4053  0.4969  0.2951
  305MPD2    H5 4598   0.088   3.680  13.971  1.5400 -0.9794 -0.6286
  305MPD2    N1 4599   0.312   3.817  14.478 -0.4631  0.7218 -0.4597
  305MPD2    H7 4600   0.392   3.856  14.429  0.8489 -2.0477 -0.5008
  306TMC3    C1 4601   0.449   3.849  14.660  0.1308  0.0556  0.2359
  306TMC3    C2 4602   0.529   3.743  14.691  1.3274  0.0038  0.2816
  306TMC3    C3 4603   0.662   3.767  14.733  0.1467  0.0765 -0.0890
  306TMC3    C4 4604   0.482   3.974  14.695  0.6439 -0.4818 -0.4387
  306TMC3    C5 4605   0.604   4.000  14.747  0.4127 -0.3354 -0.0652
  306TMC3    C6 4606   0.700   3.898  14.765 -0.0035  0.1811  1.1777
  306TMC3     C 4607   0.313   3.814  14.618 -0.3079 -0.0893  0.0432
  306TMC3     O 4608   0.250   3.759  14.705  0.1362  0.0802 -0.6323
  306TMC3     H 4609   0.497   3.647  14.652 -0.9314  1.0603 -0.4603
  306TMC3    H1 4610   0.405   4.051  14.699 -0.6783 -1.8023 -0.6903
  306TMC3    H2 4611   0.799   3.920  14.803  0.8997 -2.2067  0.2062
  306TMC3    C7 4612   0.624   4.132  14.797 -0.3403 -0.3656  0.2931
  306TMC3    C8 4613   0.727   3.663  14.811  0.6969  0.0015  0.2243
  306TMC3    O1 4614   0.564   4.221  14.742  0.0087  0.1249 -0.0557
  306TMC3    O2 4615   0.844   3.684  14.843  0.0289 -0.2935 -0.3157
  307MPD2     C 4616   3.030   0.951   0.783 -0.0731 -0.4970 -0.0110
  307MPD2    C1 4617   2.993   1.078   0.746 -0.2762  0.2692  0.2429
  307MPD2    C2 4618   2.906   1.149   0.832  0.3949 -0.4841 -0.1427
  307MPD2    C3 4619   2.858   1.088   0.951 -0.3695 -0.0524 -0.2850
  307MPD2    C4 4620   2.904   0.958   0.982  0.1092 -0.0791  0.2712
  307MPD2    C5 4621   3.001   0.897   0.904 -0.1054 -0.8655  0.3583
  307MPD2     H 4622   2.866   1.244   0.800  1.0040 -0.2958 -0.3477
  307MPD2    H1 4623   2.872   0.903   1.070 -3.5980  1.8317  0.1399
  307MPD2    H2 4624   3.088   0.883   0.722  0.2313  0.2559 -0.5480
  307MPD2    H3 4625   3.041   0.797   0.919  3.3377  0.2979 -0.8782
  307MPD2     N 4626   2.752   1.160   1.014  0.7441 -0.0169  0.2475
  307MPD2    H5 4627   2.744   1.255   0.978  0.4895 -0.6438 -1.3257
  307MPD2    N1 4628   3.016   1.138   0.619 -0.3128  0.3286 -0.1311
  307MPD2    H7 4629   2.987   1.234   0.608  1.7368  0.7984 -1.3039
  308TMC3    C1 4630   2.320   1.255   1.187 -0.5839 -0.0227 -0.1715
  308TMC3    C2 4631   2.352   1.387   1.194 -0.0724  0.2226 -0.0374
  308TMC3    C3 4632   2.480   1.430   1.172  0.4090 -0.4936  0.4094
  308TMC3    C4 4633   2.417   1.163   1.154 -0.2860  0.6658 -0.3133
  308TMC3    C5 4634   2.546   1.207   1.127 -0.1892  0.3952 -0.7812
  308TMC3    C6 4635   2.579   1.342   1.138 -0.3656  0.7510 -0.1345
  308TMC3     C 4636   2.179   1.227   1.162  0.5906  0.9171  0.4488
  308TMC3     O 4637   2.133   1.114   1.172  0.1164  0.3582  0.2008
  308TMC3     H 4638   2.280   1.462   1.224 -1.3834 -0.0585 -2.5247
  308TMC3    H1 4639   2.382   1.066   1.119  0.8879 -0.5607  1.9102
  308TMC3    H2 4640   2.679   1.381   1.128  0.0339 -0.4526 -0.8344
  308TMC3    C7 4641   2.648   1.106   1.087  0.5423 -0.3005  0.2108
  308TMC3    C8 4642   2.508   1.569   1.189  0.2163 -0.7729  0.1740
  308TMC3    O1 4643   2.624   0.984   1.114  0.1238  0.1226  0.4479
  308TMC3    O2 4644   2.451   1.629   1.278  0.1094  0.2265 -0.8067
  309MPD2     C 4645   2.398   2.534  17.374 -0.2010  0.4238 -0.3058
  309MPD2    C1 4646   2.298   2.539  17.275 -1.1412  0.0140 -0.0095
  309MPD2    C2 4647   2.163   2.530  17.303 -0.2742  0.2969 -0.5032
  309MPD2    C3 4648   2.126   2.517  17.436  0.3935  0.0409 -0.4238
  309MPD2    C4 4649   2.223   2.511  17.535  0.1043 -0.1472 -0.3721
  309MPD2    C5 4650   2.351   2.527  17.508 -0.0643  0.7206 -0.0277
  309MPD2     H 4651   2.090   2.507  17.226 -0.2334 -2.9774  0.4070
  309MPD2    H1 4652   2.198   2.492  17.639  2.0043 -1.0159 -0.0676
  309MPD2    H2 4653   2.505   2.536  17.358 -0.2541  0.5151 -0.6368
  309MPD2    H3 4654   2.427   2.520  17.586  0.6660 -0.1669 -0.8095
  309MPD2     N 4655   1.990   2.489  17.462  0.4728  0.5375 -0.8503
  309MPD2    H5 4656   1.936   2.509  17.378 -1.3376 -1.3959 -0.1519
  309MPD2    N1 4657   2.333   2.540  17.141  0.1608  0.3602 -0.2573
  309MPD2    H7 4658   2.251   2.535  17.081  1.5560  0.4301 -2.1808
  310TMC3    C1 4659   2.464   2.520  16.946  0.4100  0.0390  0.1321
  310TMC3    C2 4660   2.348   2.521  16.871 -0.3165  0.6016 -0.0814
  310TMC3    C3 4661   2.341   2.452  16.757 -0.1118 -0.0423  0.0001
  310TMC3    C4 4662   2.556   2.429  16.904 -0.0001 -0.3744 -0.7978
  310TMC3    C5 4663   2.548   2.367  16.779 -0.3895 -0.8246  0.0196
  310TMC3    C6 4664   2.441   2.381  16.699  0.1210 -0.3862  0.6675
  310TMC3     C 4665   2.462   2.537  17.091  0.2953  0.3356  0.4676
  310TMC3     O 4666   2.571   2.522  17.141  0.1980 -0.3582  0.1672
  310TMC3     H 4667   2.279   2.600  16.899 -0.3840 -0.2906  2.3062
  310TMC3    H1 4668   2.641   2.406  16.967 -1.6505 -0.1282  1.5181
  310TMC3    H2 4669   2.432   2.321  16.609  1.1497 -0.2633  0.4857
  310TMC3    C7 4670   2.646   2.277  16.750 -0.1807 -0.1969 -0.2266
  310TMC3    C8 4671   2.239   2.503  16.671  0.1031  0.0809  0.7765
  310TMC3    O1 4672   2.687   2.208  16.846 -0.2067  0.0706 -0.3669
  310TMC3    O2 4673   2.140   2.563  16.722 -0.0593  0.1401 -0.1041
  311MPD2     C 4674   4.495   3.592  12.873  0.7033  0.3790 -0.2107
  311MPD2    C1 4675   4.470   3.722  12.897  0.1978 -0.3059  0.9267
  311MPD2    C2 4676   4.339   3.755  12.912 -0.0116 -0.0640  0.1234
  311MPD2    C3 4677   4.244   3.663  12.928  0.0202 -0.3432 -0.1904
  311MPD2    C4 4678   4.274   3.533  12.903  0.1558 -0.0257  0.4796
  311MPD2    C5 4679   4.398   3.501  12.868 -0.7000  0.4778 -0.5306
  311MPD2     H 4680   4.301   3.857  12.921  2.2664  0.6977  1.2400
  311MPD2    H1 4681   4.199   3.456  12.918  0.9875 -0.4257  2.5137
  311MPD2    H2 4682   4.594   3.549  12.863 -0.3315 -2.5055  2.1007
  311MPD2    H3 4683   4.422   3.399  12.842 -1.8142  0.2733 -0.7480
  311MPD2     N 4684   4.113   3.707  12.961  0.2089 -0.1316 -0.6888
  311MPD2    H5 4685   4.089   3.806  12.964  1.1916  0.1511 -1.8380
  311MPD2    N1 4686   4.577   3.825  12.900 -0.0737 -0.1102 -0.1968
  311MPD2    H7 4687   4.554   3.924  12.900 -2.0788 -0.5616 -3.1110
  312TMC3    C1 4688   3.908   3.709  13.065 -0.6546 -0.2032 -0.2008
  312TMC3    C2 4689   3.784   3.658  13.060  0.2207  0.4338  0.3520
  312TMC3    C3 4690   3.689   3.698  13.152 -0.4797 -0.8251  0.3621
  312TMC3    C4 4691   3.943   3.784  13.172  0.1277 -0.5410  0.0385
  312TMC3    C5 4692   3.855   3.799  13.279  0.1598  0.1939 -0.0929
  312TMC3    C6 4693   3.719   3.761  13.269  0.0760  0.6930 -0.9221
  312TMC3     C 4694   4.009   3.629  12.993 -0.7489 -0.2056  1.0673
  312TMC3     O 4695   3.987   3.512  12.963 -0.8645 -0.2780  0.0111
  312TMC3     H 4696   3.769   3.576  12.990  0.0957  0.2922  0.5439
  312TMC3    H1 4697   4.045   3.816  13.185 -0.4351  0.6008  1.6257
  312TMC3    H2 4698   3.642   3.778  13.343  0.0408  0.7057 -0.9619
  312TMC3    C7 4699   3.909   3.852  13.400 -0.3698  0.3565 -0.6537
  312TMC3    C8 4700   3.550   3.654  13.128 -0.8505 -0.6107  0.1449
  312TMC3    O1 4701   4.015   3.915  13.394  0.7463  0.1756  0.2249
  312TMC3    O2 4702   3.537   3.582  13.031  0.3507  0.3070  0.3530
  313MPD2     C 4703   4.371   2.554  10.786 -0.1845 -0.2933 -0.3491
  313MPD2    C1 4704   4.237   2.589  10.780 -0.2973 -0.4436 -0.0699
  313MPD2    C2 4705   4.162   2.532  10.680 -0.1613 -0.0363  0.1185
  313MPD2    C3 4706   4.216   2.441  10.586 -0.0028  0.5219  0.6165
  313MPD2    C4 4707   4.345   2.396  10.605 -0.3508  0.8552  0.3262
  313MPD2    C5 4708   4.417   2.457  10.706 -0.3248 -0.0959 -0.5595
  313MPD2     H 4709   4.056   2.557  10.679 -0.5445 -1.6186  0.2237
  313MPD2    H1 4710   4.383   2.326  10.531 -2.6174  0.1706 -0.1796
  313MPD2    H2 4711   4.450   2.590  10.851  0.9613  0.2740 -2.0494
  313MPD2    H3 4712   4.521   2.426  10.716 -0.0720  0.9094 -0.1104
  313MPD2     N 4713   4.133   2.398  10.472 -0.2894 -0.0428 -0.0570
  313MPD2    H5 4714   4.038   2.431  10.457 -0.4216 -0.0394  0.7951
  313MPD2    N1 4715   4.159   2.664  10.876  0.4930 -0.4160 -0.2257
  313MPD2    H7 4716   4.061   2.679  10.853  0.8271  1.6873 -0.2854
  314TMC3    C1 4717   4.120   2.830  11.041  0.3347 -0.3799 -0.6602
  314TMC3    C2 4718   4.161   2.908  11.147  0.0166  0.5629 -0.2384
  314TMC3    C3 4719   4.098   3.024  11.176 -0.3816  0.0282  0.1295
  314TMC3    C4 4720   4.009   2.874  10.969  0.6920  0.4824  1.0762
  314TMC3    C5 4721   3.949   2.990  11.005 -0.0388  0.3461 -0.1310
  314TMC3    C6 4722   3.991   3.075  11.100  0.1824 -0.4693  0.2840
  314TMC3     C 4723   4.204   2.724  10.990  0.2224  0.8650  0.0607
  314TMC3     O 4724   4.319   2.730  11.042  0.3079  0.3295  0.0663
  314TMC3     H 4725   4.249   2.871  11.198  1.3307  4.0075  0.0008
  314TMC3    H1 4726   3.968   2.830  10.879  1.5004  0.4220  0.7388
  314TMC3    H2 4727   3.941   3.165  11.132 -0.9516 -0.2015 -2.2115
  314TMC3    C7 4728   3.875   3.050  10.900 -0.7988  0.0057  0.1638
  314TMC3    C8 4729   4.159   3.122  11.268 -1.0768 -0.4115 -0.5573
  314TMC3    O1 4730   3.783   2.992  10.847  0.7679 -0.0057 -0.1057
  314TMC3    O2 4731   4.108   3.233  11.260 -0.3655 -0.5987  0.0920
  315MPD2     C 4732   3.271   1.764  17.574  1.0648  0.4339  0.3638
  315MPD2    C1 4733   3.303   1.791   0.003 -0.3044 -0.2910  0.4825
  315MPD2    C2 4734   3.332   1.926   0.032 -0.8162 -0.1511 -0.0910
  315MPD2    C3 4735   3.330   2.026  17.639  0.1203 -0.3126  0.0892
  315MPD2    C4 4736   3.309   1.995  17.508 -0.3880 -0.4633 -0.9026
  315MPD2    C5 4737   3.280   1.866  17.480  0.1419 -0.2905 -0.1454
  315MPD2     H 4738   3.351   1.958   0.134  0.0061 -0.2475 -0.2141
  315MPD2    H1 4739   3.331   2.063  17.426  0.4932  2.8242  2.0611
  315MPD2    H2 4740   3.247   1.667  17.532 -1.8579  1.0345  0.6235
  315MPD2    H3 4741   3.265   1.835  17.377  0.8305  1.6418 -0.8068
  315MPD2     N 4742   3.389   2.149  17.675  0.3609 -0.1919 -0.1994
  315MPD2    H5 4743   3.435   2.159   0.065  1.1379 -1.5513 -0.4427
  315MPD2    N1 4744   3.314   1.698   0.105  0.2588 -0.3236  0.0115
  315MPD2    H7 4745   3.324   1.735   0.199  0.8146  0.5476 -0.3878
  316TMC3    C1 4746   3.477   2.368  17.641  0.1342 -0.0160 -0.0077
  316TMC3    C2 4747   3.508   2.373   0.078  0.3744  0.1036  0.3144
  316TMC3    C3 4748   3.576   2.488   0.119 -0.2244 -0.2022 -0.8157
  316TMC3    C4 4749   3.490   2.479  17.565  0.1598 -0.7484  0.3734
  316TMC3    C5 4750   3.545   2.594  17.619  0.1416  0.0264  0.5912
  316TMC3    C6 4751   3.591   2.600   0.044 -0.3729  0.8304 -0.1054
  316TMC3     C 4752   3.397   2.260  17.587  0.7304  0.2460  0.5351
  316TMC3     O 4753   3.339   2.285  17.483  0.3130  0.3031  0.1126
  316TMC3     H 4754   3.476   2.295   0.147  2.4277 -1.1723 -0.1713
  316TMC3    H1 4755   3.442   2.469  17.468 -0.4652  3.0845  0.3027
  316TMC3    H2 4756   3.652   2.681   0.082  0.1110  1.2705 -1.8310
  316TMC3    C7 4757   3.594   2.690  17.526 -0.5376 -0.0806 -0.3351
  316TMC3    C8 4758   3.647   2.494   0.248  1.0773  0.3646  0.3825
  316TMC3    O1 4759   3.683   2.762  17.574  0.2046  0.7163 -0.1259
  316TMC3    O2 4760   3.654   2.607   0.302  0.1687 -0.1605  0.2330
  317MPD2     C 4761   1.167   0.444  12.271  0.8283 -0.1024 -0.0925
  317MPD2    C1 4762   1.294   0.397  12.265  0.6509  0.6819 -0.3760
  317MPD2    C2 4763   1.340   0.305  12.356 -0.3920 -0.0391  0.4686
  317MPD2    C3 4764   1.265   0.268  12.464  0.0600  0.4011 -0.3062
  317MPD2    C4 4765   1.137   0.326  12.478 -0.0824  0.4903  0.3010
  317MPD2    C5 4766   1.100   0.419  12.388 -0.2909 -0.0311  0.3358
  317MPD2     H 4767   1.443   0.272  12.347 -0.6924  0.1930 -4.1193
  317MPD2    H1 4768   1.079   0.298  12.565 -2.3268  1.0506 -1.0086
  317MPD2    H2 4769   1.115   0.518  12.211  1.0633  0.3359  0.2415
  317MPD2    H3 4770   1.008   0.473  12.411  0.0283  0.0880  1.3562
  317MPD2     N 4771   1.325   0.204  12.566 -0.1103  0.6579 -0.4035
  317MPD2    H5 4772   1.426   0.205  12.566 -0.1149 -0.0956 -2.9589
  317MPD2    N1 4773   1.374   0.415  12.149 -0.0577  0.3719  0.4731
  317MPD2    H7 4774   1.454   0.352  12.147  1.6347  2.5735 -0.6779
  318TMC3    C1 4775   1.345   0.128  12.787  0.3539  0.1681 -0.4965
  318TMC3    C2 4776   1.288   0.055  12.886 -0.6022 -0.1090  0.1704
  318TMC3    C3 4777   1.352   0.046  13.005 -1.1225  0.6195 -0.2409
  318TMC3    C4 4778   1.466   0.188  12.818 -0.0389  0.4856  0.6018
  318TMC3    C5 4779   1.537   0.161  12.932 -0.2948 -0.1180  0.2616
  318TMC3    C6 4780   1.481   0.087  13.031  0.9424  0.4935  0.4250
  318TMC3     C 4781   1.259   0.161  12.679 -0.1776  0.2571 -0.4291
  318TMC3     O 4782   1.141   0.139  12.694  0.4299  0.0611 -0.0071
  318TMC3     H 4783   1.195   0.007  12.858  0.6759 -2.5232  0.0493
  318TMC3    H1 4784   1.498   0.264  12.748  1.9873 -0.9324  0.0051
  318TMC3    H2 4785   1.522   0.083  13.132 -3.1218  0.0462  2.0720
  318TMC3    C7 4786   1.666   0.236  12.952 -0.2178  0.0889 -0.1267
  318TMC3    C8 4787   1.276   0.023  13.128  0.2452  0.8067 -0.3907
  318TMC3    O1 4788   1.701   0.297  12.852  0.3984  0.5805 -0.7696
  318TMC3    O2 4789   1.336   4.718  13.231 -0.2671  0.3055  0.1743
  319MPD2     C 4790   1.850   1.799  16.639 -0.3768 -0.2236  0.1103
  319MPD2    C1 4791   1.800   1.723  16.742 -0.1299  0.2755  0.3786
  319MPD2    C2 4792   1.666   1.692  16.735 -0.1117 -0.6800 -0.0086
  319MPD2    C3 4793   1.579   1.726  16.630  0.1263  0.5021  0.2783
  319MPD2    C4 4794   1.635   1.800  16.531  0.1978 -0.1028 -0.2506
  319MPD2    C5 4795   1.767   1.830  16.538 -0.5601 -0.0242 -0.4070
  319MPD2     H 4796   1.635   1.616  16.806  0.8462  1.0164  2.2243
  319MPD2    H1 4797   1.576   1.813  16.441  1.6821  0.3201 -1.1584
  319MPD2    H2 4798   1.954   1.826  16.622 -0.0968 -0.7939  0.9427
  319MPD2    H3 4799   1.808   1.879  16.450 -1.3045  0.5538 -0.4399
  319MPD2     N 4800   1.441   1.704  16.633  0.2618 -0.5841 -0.1863
  319MPD2    H5 4801   1.389   1.727  16.548 -0.2760  2.3995  0.9705
  319MPD2    N1 4802   1.879   1.696  16.860 -0.2749 -0.4755  0.1641
  319MPD2    H7 4803   1.828   1.640  16.927  0.0896 -0.7755  0.1905
  320TMC3    C1 4804   1.227   1.627  16.695  0.4581  0.3534 -0.3049
  320TMC3    C2 4805   1.161   1.735  16.643 -0.8604  0.2579  0.2424
  320TMC3    C3 4806   1.023   1.724  16.631 -0.2658  0.2078 -0.1893
  320TMC3    C4 4807   1.164   1.521  16.739  0.6875  0.1140  0.2781
  320TMC3    C5 4808   1.027   1.509  16.729 -0.6627 -0.0109  0.0545
  320TMC3    C6 4809   0.955   1.614  16.676 -0.6539  0.1152  0.0050
  320TMC3     C 4810   1.368   1.634  16.727 -0.1287 -0.1119 -0.2537
  320TMC3     O 4811   1.400   1.583  16.837 -0.1768  0.5487  0.6234
  320TMC3     H 4812   1.222   1.822  16.619 -0.1230 -0.1594  0.6087
  320TMC3    H1 4813   1.214   1.426  16.757  0.3204 -0.2039 -0.3867
  320TMC3    H2 4814   0.849   1.591  16.671 -0.9999  1.8443 -0.7869
  320TMC3    C7 4815   0.984   1.375  16.689 -0.0171  1.2586  0.5573
  320TMC3    C8 4816   0.956   1.812  16.547 -0.1966  0.1399 -0.2270
  320TMC3    O1 4817   0.909   1.361  16.592 -0.3641  0.1130 -0.1391
  320TMC3    O2 4818   1.025   1.898  16.495 -0.2260  0.9637 -0.0313
  321TMC3    C1 4819   2.055   1.623  16.985 -0.1580 -0.4667  0.2233
  321TMC3    C2 4820   2.012   1.495  16.981 -0.1614  0.0277  0.4460
  321TMC3    C3 4821   2.086   1.411  17.058 -0.8214  0.1095  0.0955
  321TMC3    C4 4822   2.157   1.668  17.065 -0.5980 -0.2538  0.4564
  321TMC3    C5 4823   2.233   1.581  17.131  0.3757  0.7499 -0.2563
  321TMC3    C6 4824   2.200   1.448  17.124 -0.2199 -0.7503 -0.7828
  321TMC3     C 4825   2.013   1.720  16.885  0.3162 -0.1197 -0.0537
  321TMC3     O 4826   2.098   1.770  16.815 -0.2171 -0.2276 -0.3841
  321TMC3     H 4827   1.921   1.469  16.928  0.0483 -0.3480  0.2702
  321TMC3    H1 4828   2.172   1.775  17.070  2.0414 -0.7226  2.4783
  321TMC3    H2 4829   2.266   1.371  17.163 -3.0750 -2.0037  1.6035
  321TMC3    C7 4830   2.242   1.605  17.276  0.3493  0.3311 -0.1530
  321TMC3    C8 4831   2.005   1.304  17.114  0.1685 -0.3225  0.6251
  321TMC3    O1 4832   2.253   1.509  17.347  0.7206  0.2480 -0.1530
  321TMC3    O2 4833   1.913   1.250  17.052 -0.8355 -0.1918  0.5293
  322MPD2     C 4834   0.145   2.963  14.108  0.4951 -1.0127  1.0344
  322MPD2    C1 4835   0.226   2.878  14.178  0.1183 -0.7786  0.4044
  322MPD2    C2 4836   0.275   2.767  14.111 -0.1050 -0.6902  0.1559
  322MPD2    C3 4837   0.255   2.744  13.975 -0.0042  1.0420 -0.5188
  322MPD2    C4 4838   0.185   2.841  13.906  0.4923  0.0381  0.3250
  322MPD2    C5 4839   0.121   2.943  13.974  0.3896 -0.0979 -0.0222
  322MPD2     H 4840   0.339   2.699  14.166  0.0885 -1.1509 -0.6380
  322MPD2    H1 4841   0.177   2.843  13.798 -2.6327  1.6037  0.6040
  322MPD2    H2 4842   0.089   3.038  14.164 -0.4828  0.0385 -1.3615
  322MPD2    H3 4843   0.058   3.011  13.919  0.4429  0.6193  0.7945
  322MPD2     N 4844   0.305   2.624  13.913  0.9454  0.7938 -0.6967
  322MPD2    H5 4845   0.337   2.553  13.978 -1.6064 -0.8820 -1.3038
  322MPD2    N1 4846   0.248   2.896  14.321 -0.4358 -0.2158  0.2632
  322MPD2    H7 4847   0.208   2.980  14.362  0.4432  1.2390 -1.8694
  323TMC3    C1 4848   0.330   2.873  14.535 -0.9093  0.1624  0.0765
  323TMC3    C2 4849   0.368   3.008  14.541 -0.1533 -0.1211  0.0537
  323TMC3    C3 4850   0.418   3.056  14.661 -0.1069 -0.4872 -0.6865
  323TMC3    C4 4851   0.373   2.785  14.627  0.5778  0.4321 -0.2967
  323TMC3    C5 4852   0.441   2.833  14.738 -0.3926  0.5533  0.4473
  323TMC3    C6 4853   0.445   2.966  14.763  0.0571  0.2693 -0.4289
  323TMC3     C 4854   0.325   2.815  14.403  0.5915 -0.3705 -0.2639
  323TMC3     O 4855   0.392   2.715  14.383 -0.2720 -0.5496  0.7555
  323TMC3     H 4856   0.367   3.070  14.452 -0.8078  0.9190  0.7882
  323TMC3    H1 4857   0.372   2.678  14.612  1.2867  0.2885  0.7047
  323TMC3    H2 4858   0.483   3.013  14.853  0.6249 -1.6005  0.3018
  323TMC3    C7 4859   0.554   2.742  14.777  0.4330 -0.8334  0.0544
  323TMC3    C8 4860   0.518   3.167  14.632  0.1990  0.0826  0.2009
  323TMC3    O1 4861   0.559   2.625  14.736  0.2223 -0.6407  0.0535
  323TMC3    O2 4862   0.622   3.160  14.694  0.3058  0.4154 -0.3963
  324MPD2     C 4863   2.643   4.155  14.451 -0.3228 -0.8559  0.0500
  324MPD2    C1 4864   2.670   4.283  14.471  0.4589  0.2269  0.2292
  324MPD2    C2 4865   2.573   4.380  14.490 -0.6404 -0.5245  0.1349
  324MPD2    C3 4866   2.446   4.336  14.490  0.1160  0.2045 -0.2463
  324MPD2    C4 4867   2.419   4.199  14.486 -0.5222  0.6094 -0.3556
  324MPD2    C5 4868   2.519   4.111  14.458  0.4865 -0.0867 -0.1447
  324MPD2     H 4869   2.601   4.484  14.502  0.0071 -0.5394 -1.2174
  324MPD2    H1 4870   2.319   4.160  14.502  0.0280 -1.3570 -1.8054
  324MPD2    H2 4871   2.717   4.078  14.433  0.5889 -0.0376  0.2771
  324MPD2    H3 4872   2.501   4.004  14.453  0.7652 -0.2274  1.8753
  324MPD2     N 4873   2.331   4.420  14.517  0.1337  0.2574  0.2082
  324MPD2    H5 4874   2.248   4.380  14.560 -0.7194  1.7200 -0.0958
  324MPD2    N1 4875   2.804   4.307  14.471  0.3188  0.2692 -0.0962
  324MPD2    H7 4876   2.863   4.224  14.466  0.2119  0.2180 -0.5334
  325TMC3    C1 4877   2.187   4.602  14.534  0.9903  0.3707 -1.2064
  325TMC3    C2 4878   2.088   4.510  14.536 -0.4794 -0.7476  0.1701
  325TMC3    C3 4879   1.961   4.553  14.568 -0.3253 -0.1364  0.1564
  325TMC3    C4 4880   2.175   0.014  14.533 -0.0261  1.0692  0.8194
  325TMC3    C5 4881   2.046   0.054  14.548  0.0555  0.4957 -0.3819
  325TMC3    C6 4882   1.941   4.686  14.560  0.0773  0.0249 -0.2846
  325TMC3     C 4883   2.325   4.558  14.501  0.0171 -0.1076  0.3894
  325TMC3     O 4884   2.403   4.627  14.433 -0.5071  0.0074 -0.1354
  325TMC3     H 4885   2.106   4.405  14.520 -3.0107 -1.1994  0.2483
  325TMC3    H1 4886   2.252   0.089  14.542  1.7812 -0.9569  2.2150
  325TMC3    H2 4887   1.846   0.004  14.591  0.8320  1.6798 -0.1936
  325TMC3    C7 4888   2.016   0.198  14.578  0.1044  0.2641 -0.0733
  325TMC3    C8 4889   1.863   4.455  14.551 -0.2966  0.5218 -0.1621
  325TMC3    O1 4890   2.107   0.280  14.585  0.5040 -0.0077 -0.6920
  325TMC3    O2 4891   1.895   4.338  14.544 -0.0397  0.2582  0.0888
  326MPD2     C 4892   3.384   0.656  11.308  0.2934  0.1964  0.8362
  326MPD2    C1 4893   3.508   0.591  11.322 -0.4143 -0.1273 -0.3591
  326MPD2    C2 4894   3.619   0.672  11.336 -0.9012 -0.7102 -0.9111
  326MPD2    C3 4895   3.614   0.809  11.349 -0.8059  0.3493 -0.2398
  326MPD2    C4 4896   3.492   0.870  11.339 -0.9326 -0.3934  1.1890
  326MPD2    C5 4897   3.380   0.795  11.314  0.3412  0.2766 -0.7841
  326MPD2     H 4898   3.712   0.622  11.311 -0.1242  0.4954 -0.4412
  326MPD2    H1 4899   3.491   0.979  11.344  0.4493 -0.3029 -0.3320
  326MPD2    H2 4900   3.286   0.613  11.293  2.0020 -3.2967 -0.2445
  326MPD2    H3 4901   3.286   0.848  11.319  0.6932  0.8492 -0.2570
  326MPD2     N 4902   3.727   0.898  11.363 -0.4223  0.2508 -0.2023
  326MPD2    H5 4903   3.702   0.995  11.377 -2.8389  0.0045 -2.9748
  326MPD2    N1 4904   3.528   0.455  11.291 -0.0705  0.4955 -0.2695
  326MPD2    H7 4905   3.626   0.428  11.292  0.3087  1.8232 -0.5766
  327TMC3    C1 4906   3.484   0.260  11.166  0.3004  0.1554  0.8456
  327TMC3    C2 4907   3.423   0.265  11.043 -0.2950 -0.6629  0.3557
  327TMC3    C3 4908   3.497   0.292  10.931 -0.5087 -0.2328 -0.9198
  327TMC3    C4 4909   3.619   0.244  11.171 -0.9388 -0.1374  0.1427
  327TMC3    C5 4910   3.695   0.267  11.056 -0.4394  0.1108  0.2171
  327TMC3    C6 4911   3.637   0.290  10.937 -0.1161  0.2563 -0.4041
  327TMC3     C 4912   3.432   0.367  11.254  0.2807  0.1624  0.1828
  327TMC3     O 4913   3.313   0.385  11.246 -0.3644 -0.7007  0.2021
  327TMC3     H 4914   3.315   0.257  11.042 -0.4444  1.5786 -0.9021
  327TMC3    H1 4915   3.663   0.231  11.269 -0.9042  0.9006  0.2714
  327TMC3    H2 4916   3.691   0.336  10.855 -1.8774  2.0311 -0.5896
  327TMC3    C7 4917   3.838   0.303  11.055 -0.6662 -0.1504 -0.3742
  327TMC3    C8 4918   3.447   0.414  10.874 -0.6597  0.0339  0.1603
  327TMC3    O1 4919   3.889   0.280  10.946  0.4457  0.0445  0.0255
  327TMC3    O2 4920   3.505   0.458  10.774 -0.1402 -0.2496 -0.1779
  328MPD2     C 4921   0.736   0.374   0.152  0.6618  1.3257  0.6921
  328MPD2    C1 4922   0.640   0.350   0.057  0.4054 -0.0935  0.1894
  328MPD2    C2 4923   0.652   0.393  17.625  0.9817 -0.3202 -0.6924
  328MPD2    C3 4924   0.751   0.479  17.599 -0.4449 -0.1670  0.4938
  328MPD2    C4 4925   0.860   0.487  17.687 -0.3181 -0.7745  0.4409
  328MPD2    C5 4926   0.847   0.443   0.114 -0.1297 -0.1155 -0.1120
  328MPD2     H 4927   0.572   0.378  17.553  0.9169  0.0480 -0.6997
  328MPD2    H1 4928   0.953   0.536  17.660 -0.9239 -0.4584 -1.0246
  328MPD2    H2 4929   0.730   0.330   0.250  3.2059  0.0010  0.2620
  328MPD2    H3 4930   0.932   0.454   0.180 -0.4954  1.2391  0.1228
  328MPD2     N 4931   0.764   0.555  17.479 -0.1596  0.0016 -0.0928
  328MPD2    H5 4932   0.848   0.608  17.459 -1.5029  2.3397  0.4423
  328MPD2    N1 4933   0.531   0.272   0.102  0.4929  0.3218  0.2827
  328MPD2    H7 4934   0.518   0.255   0.202  0.2088  0.5666  0.2898
  329TMC3    C1 4935   0.295   0.227   0.080  0.0721  0.2630  0.4029
  329TMC3    C2 4936   0.238   0.339   0.126  0.0402  0.6043  0.6180
  329TMC3    C3 4937   0.115   0.385   0.080  0.5532 -0.8116 -0.2725
  329TMC3    C4 4938   0.220   0.145   0.001  0.0422  0.3465  0.1921
  329TMC3    C5 4939   0.105   0.195  17.644  0.0265 -0.5627 -0.2068
  329TMC3    C6 4940   0.049   0.317  17.680  0.6725 -0.1790 -0.6696
  329TMC3     C 4941   0.430   0.233   0.020  0.0731 -0.2981 -0.1321
  329TMC3     O 4942   0.441   0.203  17.600 -0.4054  0.1600  0.0718
  329TMC3     H 4943   0.314   0.403   0.170 -0.0043  1.0825 -0.0060
  329TMC3    H1 4944   0.269   0.054  17.667  1.1619  1.3567 -0.9123
  329TMC3    H2 4945   4.677   0.347  17.640  0.4549 -0.8802 -0.6701
  329TMC3    C7 4946   0.060   0.120  17.527 -0.4292  0.1248  0.5119
  329TMC3    C8 4947   0.100   0.527   0.082 -0.6614 -0.1884  0.6557
  329TMC3    O1 4948   0.108   0.010  17.515 -0.0372 -0.4906  0.8119
  329TMC3    O2 4949   0.032   0.571  17.686 -0.0474  0.5575  0.0807
  330TMC3    C1 4950   0.229   4.670   9.936  0.7873 -0.6987  0.0707
  330TMC3    C2 4951   0.225   4.571   9.836  0.6515 -0.0642 -0.3916
  330TMC3    C3 4952   0.225   4.442   9.879  0.0532 -0.2486 -0.0213
  330TMC3    C4 4953   0.224   4.641  10.070  0.1707 -0.1794  0.2154
  330TMC3    C5 4954   0.210   4.515  10.104 -0.0299  0.2287  0.4779
  330TMC3    C6 4955   0.202   4.411  10.012  0.2513 -0.2040  0.1668
  330TMC3     C 4956   0.247   0.080   9.897 -0.5619  0.2156 -0.0620
  330TMC3     O 4957   0.309   0.152   9.972 -0.1927  0.3023  0.1463
  330TMC3     H 4958   0.205   4.580   9.730 -0.4984 -0.0483 -0.1700
  330TMC3    H1 4959   0.232   4.717  10.147  0.7814  0.5828 -0.5976
  330TMC3    H2 4960   0.181   4.313  10.054  2.7097 -0.2701  1.2805
  330TMC3    C7 4961   0.170   4.510  10.249 -0.8249  0.4493  0.5428
  330TMC3    C8 4962   0.206   4.345   9.775 -0.5404  0.6735 -0.4243
  330TMC3    O1 4963   0.249   4.569  10.322 -0.1161  0.4023  0.3950
  330TMC3    O2 4964   0.245   4.371   9.663 -0.0628 -0.5759 -0.0393
  331MPD2     C 4965   1.455   3.014  12.919 -0.5334  0.7929 -0.3318
  331MPD2    C1 4966   1.550   3.078  12.849 -0.0357  0.2488 -0.1052
  331MPD2    C2 4967   1.631   3.011  12.757 -0.0147 -0.3186 -0.3202
  331MPD2    C3 4968   1.641   2.874  12.761 -0.2789  0.8499 -0.2379
  331MPD2    C4 4969   1.549   2.807  12.851  0.6759  0.2274 -0.3564
  331MPD2    C5 4970   1.455   2.880  12.922 -0.1001 -0.1552  0.1471
  331MPD2     H 4971   1.683   3.067  12.679  0.4438 -1.1944 -0.6509
  331MPD2    H1 4972   1.551   2.698  12.849 -0.3808  0.2429 -1.9971
  331MPD2    H2 4973   1.389   3.075  12.980 -2.4419  1.9167 -3.5397
  331MPD2    H3 4974   1.392   2.830  12.996 -0.0417 -0.5154 -0.0463
  331MPD2     N 4975   1.743   2.810  12.691  0.0769 -0.4554  0.4655
  331MPD2    H5 4976   1.802   2.866  12.630 -2.3518  1.5509 -0.0348
  331MPD2    N1 4977   1.548   3.218  12.858 -0.9659  0.1535  0.3155
  331MPD2    H7 4978   1.488   3.249  12.933 -0.0805  1.1567  0.6001
  332TMC3    C1 4979   1.929   2.673  12.636  0.5618  0.3625 -0.3173
  332TMC3    C2 4980   1.946   2.781  12.557 -0.0275 -0.2371  0.5197
  332TMC3    C3 4981   2.072   2.837  12.567  0.4088 -0.2054 -0.8731
  332TMC3    C4 4982   2.026   2.623  12.716  0.2976 -0.1211  0.0897
  332TMC3    C5 4983   2.145   2.688  12.726  0.3182 -0.2834  0.2557
  332TMC3    C6 4984   2.172   2.804  12.651  0.0735 -0.1893 -0.3909
  332TMC3     C 4985   1.804   2.691  12.714 -0.7761 -0.3551  0.3732
  332TMC3     O 4986   1.784   2.607  12.800 -0.4806  0.2749 -0.0823
  332TMC3     H 4987   1.880   2.820  12.480  2.3900 -3.0794 -2.9733
  332TMC3    H1 4988   1.998   2.543  12.784 -0.5658  0.8425  0.8611
  332TMC3    H2 4989   2.261   2.865  12.639  1.0052 -1.4858 -0.0328
  332TMC3    C7 4990   2.254   2.638  12.818  0.0950  0.5724 -0.4657
  332TMC3    C8 4991   2.105   2.947  12.479 -0.2985  0.1392  0.2063
  332TMC3    O1 4992   2.242   2.531  12.875  0.2001 -0.1466 -0.2858
  332TMC3    O2 4993   2.179   3.034  12.524  0.1639 -0.2155 -0.0854
  333MPD2     C 4994   2.380   3.764  11.371  0.1473  0.7939 -0.0725
  333MPD2    C1 4995   2.407   3.687  11.257  0.2998  0.1597 -0.8151
  333MPD2    C2 4996   2.339   3.565  11.244 -0.0275  0.1422  0.5861
  333MPD2    C3 4997   2.253   3.524  11.346  0.2898 -0.1865  0.0171
  333MPD2    C4 4998   2.228   3.607  11.450 -0.2098  0.3047  0.2660
  333MPD2    C5 4999   2.291   3.729  11.468  0.1144  0.4487 -0.1804
  333MPD2     H 5000   2.351   3.506  11.154 -2.0352  0.6166  0.0063
  333MPD2    H1 5001   2.163   3.576  11.531  2.1993 -4.2650  0.4759
  333MPD2    H2 5002   2.438   3.855  11.374  1.1324  0.1565  0.2092
  333MPD2    H3 5003   2.280   3.797  11.552  1.4282  0.0605  0.3061
  333MPD2     N 5004   2.201   3.391  11.334  0.6769 -0.3287 -0.0080
  333MPD2    H5 5005   2.191   3.351  11.241 -1.8761  1.4776 -0.4930
  333MPD2    N1 5006   2.497   3.742  11.165  0.5393 -0.7049  0.0319
  333MPD2    H7 5007   2.539   3.831  11.189  0.4419 -0.6957  0.1733
  334TMC3    C1 5008   2.640   3.749  10.985 -0.6128  0.2156  0.1290
  334TMC3    C2 5009   2.725   3.677  10.909  0.1948  0.4981  0.3249
  334TMC3    C3 5010   2.833   3.743  10.856 -0.0922 -0.4452 -0.0148
  334TMC3    C4 5011   2.656   3.885  11.003 -0.3745  0.3305  0.0590
  334TMC3    C5 5012   2.764   3.951  10.944  0.2122  0.3618  0.0229
  334TMC3    C6 5013   2.851   3.880  10.868  0.5313  0.4246 -0.0970
  334TMC3     C 5014   2.539   3.681  11.049 -0.1337  0.1895 -0.5023
  334TMC3     O 5015   2.522   3.569  11.010 -0.6139  0.6640  0.0765
  334TMC3     H 5016   2.715   3.569  10.913  1.5792  0.2519 -2.3076
  334TMC3    H1 5017   2.581   3.950  11.045  0.4115  1.1272  0.2254
  334TMC3    H2 5018   2.931   3.931  10.816  0.3941 -1.3766 -2.1053
  334TMC3    C7 5019   2.775   4.092  10.964  0.1451 -0.3061 -0.2369
  334TMC3    C8 5020   2.909   3.669  10.765  0.2888 -0.2455 -0.3735
  334TMC3    O1 5021   2.753   4.128  11.076 -0.0043  0.3173 -0.1318
  334TMC3    O2 5022   2.872   3.568  10.705  0.2461  0.5988 -0.0690
  335TMC3    C1 5023   1.884   0.629   0.005 -0.7441 -0.0827  0.6275
  335TMC3    C2 5024   1.782   0.635  17.613 -0.4892 -0.8425  0.4568
  335TMC3    C3 5025   1.798   0.722  17.503  0.0688 -0.1409 -0.2165
  335TMC3    C4 5026   2.000   0.694  17.680  0.6972  0.1544 -1.2043
  335TMC3    C5 5027   2.007   0.782  17.573  0.8310 -0.0508 -0.2792
  335TMC3    C6 5028   1.902   0.804  17.488 -0.4310  1.0948  0.1376
  335TMC3     C 5029   1.858   0.556   0.131 -0.0915 -0.3170  0.5990
  335TMC3     O 5030   1.761   0.481   0.128 -0.1761  0.0637  0.3609
  335TMC3     H 5031   1.687   0.586  17.632 -0.9001 -0.8858 -1.6638
  335TMC3    H1 5032   2.085   0.692   0.047  0.7752  0.8466 -1.2763
  335TMC3    H2 5033   1.914   0.859  17.395 -1.9823  0.2796 -0.5462
  335TMC3    C7 5034   2.134   0.801  17.530 -0.8042  0.3891  0.9120
  335TMC3    C8 5035   1.695   0.716  17.399  0.3526 -0.0712 -0.6071
  335TMC3    O1 5036   2.207   0.702  17.549 -0.0881  0.1841  0.6127
  335TMC3    O2 5037   1.661   0.811  17.331  0.0837 -0.5162  0.0721
  336MPD2     C 5038   1.178   2.918  16.504  0.6057  0.1891  0.9073
  336MPD2    C1 5039   1.171   2.847  16.388 -0.4678 -0.0105 -0.1241
  336MPD2    C2 5040   1.180   2.708  16.395  0.3281 -0.2810  0.0886
  336MPD2    C3 5041   1.191   2.645  16.518  0.3703  0.7767  1.7509
  336MPD2    C4 5042   1.186   2.713  16.639  0.4723 -0.2668 -0.3996
  336MPD2    C5 5043   1.189   2.850  16.621 -0.5608  0.9715 -0.1836
  336MPD2     H 5044   1.168   2.650  16.304  1.1798  1.4835 -1.1486
  336MPD2    H1 5045   1.182   2.669  16.738 -1.0322 -0.1816 -0.4198
  336MPD2    H2 5046   1.170   3.026  16.500 -0.8678  0.0622  0.7249
  336MPD2    H3 5047   1.184   2.913  16.709  2.8911 -0.9491  1.3430
  336MPD2     N 5048   1.212   2.505  16.529 -0.2267 -0.4608  0.3548
  336MPD2    H5 5049   1.228   2.472  16.624  1.7019 -0.8200 -0.1080
  336MPD2    N1 5050   1.144   2.905  16.263 -0.3921 -0.2899  0.2983
  336MPD2    H7 5051   1.115   2.847  16.185  0.2670  0.2682 -0.3569
  337TMC3    C1 5052   1.051   3.066  16.130  0.4508  0.8863  0.3023
  337TMC3    C2 5053   0.966   2.967  16.082  1.0934  0.4064 -0.6680
  337TMC3    C3 5054   0.869   3.007  15.994 -0.1859  0.0899  0.6183
  337TMC3    C4 5055   1.037   3.201  16.106 -0.2958  0.3535 -0.6064
  337TMC3    C5 5056   0.934   3.232  16.021  0.0744 -0.3785  0.0597
  337TMC3    C6 5057   0.850   3.140  15.961 -0.3614  0.7469 -0.1103
  337TMC3     C 5058   1.124   3.040  16.249 -0.3430  0.3635  0.7745
  337TMC3     O 5059   1.180   3.130  16.309 -0.2044 -0.4230  0.2150
  337TMC3     H 5060   0.989   2.861  16.076  3.4573  0.8594  0.5855
  337TMC3    H1 5061   1.104   3.272  16.153  2.0869 -0.5153 -2.7133
  337TMC3    H2 5062   0.764   3.164  15.898 -0.0651 -0.5062 -1.0133
  337TMC3    C7 5063   0.895   3.380  16.024  0.1265 -0.3805  0.7150
  337TMC3    C8 5064   0.777   2.910  15.947 -0.4845  0.7436  0.3063
  337TMC3    O1 5065   0.938   3.446  16.119  0.5050  0.0872  0.0614
  337TMC3    O2 5066   0.772   2.804  16.008 -0.7097  0.0709 -0.5597
  338MPD2     C 5067   1.291   2.075   1.102 -0.0685  0.1360  0.1437
  338MPD2    C1 5068   1.289   2.083   0.964  0.5495  0.3383  0.2256
  338MPD2    C2 5069   1.176   2.101   0.890  0.4456 -0.5281  0.0745
  338MPD2    C3 5070   1.056   2.091   0.950 -0.5136  0.1799 -0.3851
  338MPD2    C4 5071   1.051   2.082   1.089 -0.2640  0.6288  0.5487
  338MPD2    C5 5072   1.170   2.081   1.165 -0.0012  0.2553 -0.1450
  338MPD2     H 5073   1.181   2.095   0.782  0.9611 -0.4456  0.0921
  338MPD2    H1 5074   0.963   2.105   1.149 -0.9970 -0.7026 -0.0303
  338MPD2    H2 5075   1.383   2.064   1.157  0.5802 -1.2827 -1.2058
  338MPD2    H3 5076   1.159   2.078   1.273 -2.1094  1.3527 -0.3308
  338MPD2     N 5077   0.939   2.098   0.874 -0.3662  0.0255  0.2531
  338MPD2    H5 5078   0.948   2.129   0.778 -0.0818  0.9984  0.5907
  338MPD2    N1 5079   1.411   2.048   0.898  0.6755  0.3860  0.1741
  338MPD2    H7 5080   1.409   2.035   0.797 -2.4559  0.5431  0.2339
  339TMC3    C1 5081   0.730   2.082   0.794 -0.5464 -0.6057  0.1249
  339TMC3    C2 5082   0.697   1.953   0.776  0.0182  0.6941  0.7056
  339TMC3    C3 5083   0.672   1.902   0.649  0.3457 -0.4879  0.4382
  339TMC3    C4 5084   0.752   2.169   0.688  0.2596 -0.2583 -0.8154
  339TMC3    C5 5085   0.743   2.111   0.561 -0.2947  0.2305  0.0227
  339TMC3    C6 5086   0.706   1.983   0.545  0.1420  0.0622  0.0963
  339TMC3     C 5087   0.808   2.095   0.921 -0.0244 -0.1878 -0.0872
  339TMC3     O 5088   0.759   2.042   1.023 -0.5767 -0.4046 -0.0847
  339TMC3     H 5089   0.697   1.890   0.864 -0.4618 -0.2583  0.0273
  339TMC3    H1 5090   0.787   2.271   0.706 -0.9401 -0.2108  1.1744
  339TMC3    H2 5091   0.696   1.951   0.442 -0.5329  0.7320 -0.0509
  339TMC3    C7 5092   0.825   2.169   0.462  0.3902  0.6071  0.2277
  339TMC3    C8 5093   0.696   1.765   0.628 -0.5378 -0.5141  0.9830
  339TMC3    O1 5094   0.811   2.290   0.452 -0.2369  0.1123  0.7124
  339TMC3    O2 5095   0.767   1.736   0.533  0.9728  0.3266  0.1840
  340MPD2     C 5096   2.899   0.534   9.971 -0.1202 -0.3990  0.3286
  340MPD2    C1 5097   3.006   0.455   9.948  0.1562 -0.3142  0.2904
  340MPD2    C2 5098   3.140   0.496   9.972  0.2978 -0.3090 -1.0157
  340MPD2    C3 5099   3.159   0.629  10.011  0.4383 -0.5492  0.1078
  340MPD2    C4 5100   3.050   0.712  10.019 -0.2335 -0.4478 -0.1663
  340MPD2    C5 5101   2.921   0.666  10.003 -0.1263 -0.2550 -0.8506
  340MPD2     H 5102   3.225   0.431   9.953  0.7107  0.4225 -1.6596
  340MPD2    H1 5103   3.068   0.818  10.033  0.6976 -0.5935 -0.2687
  340MPD2    H2 5104   2.797   0.504   9.955 -0.8289  1.9982  0.3143
  340MPD2    H3 5105   2.842   0.740   9.997  0.4445  0.5906  2.4078
  340MPD2     N 5106   3.288   0.683  10.041 -0.1290  0.2209 -0.3330
  340MPD2    H5 5107   3.295   0.781  10.068  0.3287  0.7942 -2.5058
  340MPD2    N1 5108   2.969   0.321   9.923  0.1062 -0.1152  0.2666
  340MPD2    H7 5109   2.871   0.297   9.920 -0.0017  0.2087  1.3020
  341TMC3    C1 5110   2.970   0.094   9.882  0.9545 -0.2117 -0.5598
  341TMC3    C2 5111   2.840   0.078   9.908  0.1396  0.1400  0.1490
  341TMC3    C3 5112   2.769   4.691   9.859  0.3639  0.1418  0.0713
  341TMC3    C4 5113   3.041   4.717   9.809  0.5337 -0.1749  0.4389
  341TMC3    C5 5114   2.962   4.615   9.755  0.1682 -0.0182  0.3272
  341TMC3    C6 5115   2.827   4.603   9.773  0.0383 -0.6039  0.0109
  341TMC3     C 5116   3.049   0.213   9.901 -0.2847 -0.1168  0.0713
  341TMC3     O 5117   3.165   0.213   9.861  0.0176 -0.1396  0.1155
  341TMC3     H 5118   2.786   0.158   9.957 -0.9218 -0.2915 -0.3159
  341TMC3    H1 5119   3.146   0.007   9.783  0.4498 -0.3059  0.0213
  341TMC3    H2 5120   2.769   4.524   9.726  2.8798 -2.6175 -0.1020
  341TMC3    C7 5121   3.039   4.518   9.685  0.0165 -0.0544 -0.9876
  341TMC3    C8 5122   2.627   4.691   9.873 -1.1494 -0.2608 -0.2098
  341TMC3    O1 5123   3.162   4.523   9.687 -0.2558 -0.5479  0.4764
  341TMC3    O2 5124   2.568   4.667   9.774  0.1072 -0.1450 -0.0183
  342MPD2     C 5125   4.192   3.443   0.052  0.0706 -0.4602  0.2768
  342MPD2    C1 5126   4.306   3.444  17.674 -0.6613  0.5587  0.2658
  342MPD2    C2 5127   4.352   3.561  17.606 -0.2602  0.8204  0.2834
  342MPD2    C3 5128   4.291   3.685  17.620 -0.3641  0.5277  0.5193
  342MPD2    C4 5129   4.172   3.677  17.693  0.0486  0.0995 -0.2354
  342MPD2    C5 5130   4.124   3.562   0.060  0.2688  0.3152  0.8647
  342MPD2     H 5131   4.446   3.552  17.554 -0.7717  0.4153 -0.5718
  342MPD2    H1 5132   4.111   3.765   0.009  1.3178  1.4876 -3.1216
  342MPD2    H2 5133   4.170   3.358   0.117  0.1850 -1.9380 -1.6166
  342MPD2    H3 5134   4.031   3.565   0.115  0.3366 -0.2929  1.0028
  342MPD2     N 5135   4.327   3.800  17.552  0.6432  0.4575  0.0150
  342MPD2    H5 5136   4.265   3.880  17.556 -1.0855 -1.0059  3.3123
  342MPD2    N1 5137   4.380   3.326  17.661  0.0985 -0.3473  0.4631
  342MPD2    H7 5138   4.438   3.318  17.578  0.0882 -1.0748  0.5216
  343TMC3    C1 5139   4.424   3.091  17.656 -0.6701 -0.7066  0.2670
  343TMC3    C2 5140   4.509   3.121  17.563 -0.1620  0.0127  0.3737
  343TMC3    C3 5141   4.526   3.026  17.462 -0.4486  0.3530 -0.4019
  343TMC3    C4 5142   4.336   2.987  17.656  0.3705 -0.1120  0.2613
  343TMC3    C5 5143   4.357   2.894  17.557 -0.1199  0.4639  0.4117
  343TMC3    C6 5144   4.447   2.914  17.456 -0.6163 -0.0061  0.4985
  343TMC3     C 5145   4.369   3.208   0.031 -0.0464 -0.1073 -0.4948
  343TMC3     O 5146   4.316   3.180   0.139  0.0211  0.1915  0.1956
  343TMC3     H 5147   4.575   3.206  17.569  0.5398 -0.4786 -0.2932
  343TMC3    H1 5148   4.252   2.981   0.025 -1.2839 -0.1276 -1.7403
  343TMC3    H2 5149   4.450   2.849  17.369  2.0861 -0.4469  0.9301
  343TMC3    C7 5150   4.303   2.759  17.573 -0.3678  0.6545  0.0245
  343TMC3    C8 5151   4.613   3.055  17.350 -0.0625  0.5436 -0.3491
  343TMC3    O1 5152   4.325   2.678  17.483 -0.0057  0.4688  0.6928
  343TMC3    O2 5153   4.650   3.170  17.331  0.0057 -1.1799  0.5795
  344MPD2     C 5154   1.008   2.914  10.681 -0.2049 -0.6951  0.2065
  344MPD2    C1 5155   1.114   2.923  10.768  0.1283  0.6448 -0.5095
  344MPD2    C2 5156   1.180   3.041  10.782 -0.1675  0.2280  0.4964
  344MPD2    C3 5157   1.142   3.149  10.709 -0.3733 -0.5072  0.2126
  344MPD2    C4 5158   1.037   3.142  10.627 -0.0982  0.4625  0.1688
  344MPD2    C5 5159   0.968   3.028  10.617 -0.6037  0.2201  0.0586
  344MPD2     H 5160   1.258   3.042  10.858  0.3473  0.2650 -0.0379
  344MPD2    H1 5161   1.001   3.229  10.574 -1.5471 -1.4609 -1.9703
  344MPD2    H2 5162   0.950   2.829  10.648 -1.4247  0.1742  0.1231
  344MPD2    H3 5163   0.882   3.017  10.553  0.3509 -1.0050 -1.0208
  344MPD2     N 5164   1.214   3.275  10.713  0.5868  0.2469 -0.1677
  344MPD2    H5 5165   1.178   3.331  10.636 -2.3146 -1.1251  0.1775
  344MPD2    N1 5166   1.159   2.821  10.850  0.1350 -0.1041  0.3910
  344MPD2    H7 5167   1.229   2.847  10.918 -0.9615 -2.6537  2.4784
  345TMC3    C1 5168   1.389   3.414  10.739 -0.4223  0.2485 -0.0217
  345TMC3    C2 5169   1.494   3.463  10.806  0.2535 -0.3741 -0.7287
  345TMC3    C3 5170   1.571   3.561  10.751  0.0366  0.0898  0.1618
  345TMC3    C4 5171   1.367   3.469  10.619  0.1831 -0.4061 -0.4061
  345TMC3    C5 5172   1.450   3.564  10.564  0.0189 -0.1316 -0.2511
  345TMC3    C6 5173   1.553   3.613  10.631 -0.5703 -0.1755 -0.4601
  345TMC3     C 5174   1.320   3.295  10.787 -0.3431 -0.2309  0.5546
  345TMC3     O 5175   1.359   3.239  10.888 -0.1677  0.3545  0.2620
  345TMC3     H 5176   1.524   3.431  10.906  1.0927  2.7643  0.0459
  345TMC3    H1 5177   1.278   3.447  10.560 -0.0780  2.3189 -1.0081
  345TMC3    H2 5178   1.611   3.692  10.585 -1.0202 -0.9967 -2.4295
  345TMC3    C7 5179   1.403   3.652  10.456 -0.2987 -0.3124 -0.1426
  345TMC3    C8 5180   1.638   3.647  10.850 -0.2818 -0.0320 -0.8765
  345TMC3    O1 5181   1.435   3.768  10.460  0.0225  0.1175  0.0091
  345TMC3    O2 5182   1.582   3.665  10.961 -0.3171  0.7360 -0.1328
  346MPD2     C 5183   1.399   4.528  14.104 -0.1723 -0.5439 -0.3628
  346MPD2    C1 5184   1.415   4.647  14.031  0.5423 -0.2148  0.9283
  346MPD2    C2 5185   1.335   0.030  14.068  0.0276 -0.2633 -0.2161
  346MPD2    C3 5186   1.247   0.032  14.171  0.0158 -0.3825  0.2095
  346MPD2    C4 5187   1.225   4.632  14.230  0.0761  0.8190 -0.9551
  346MPD2    C5 5188   1.294   4.516  14.191  0.3032  0.0998  0.1108
  346MPD2     H 5189   1.357   0.123  14.018  0.6951  0.7012  1.8854
  346MPD2    H1 5190   1.158   4.622  14.314  0.9485  0.9171 -0.2438
  346MPD2    H2 5191   1.464   4.442  14.096 -0.4151 -0.7590 -0.0007
  346MPD2    H3 5192   1.279   4.424  14.246 -0.1613  0.0922 -0.0262
  346MPD2     N 5193   1.182   0.154  14.203 -0.2068 -0.0418 -0.1082
  346MPD2    H5 5194   1.219   0.235  14.154 -0.4875 -0.8567 -1.6672
  346MPD2    N1 5195   1.501   4.667  13.924  0.6040 -0.1598 -0.0084
  346MPD2    H7 5196   1.496   0.028  13.870  0.5332 -2.0031 -2.9453
  347TMC3    C1 5197   1.110   0.325  14.329  0.4078 -0.9288 -0.1126
  347TMC3    C2 5198   1.235   0.380  14.326  0.0555  0.1733  0.3502
  347TMC3    C3 5199   1.282   0.430  14.444 -0.0818 -0.4566 -0.0411
  347TMC3    C4 5200   1.030   0.350  14.439  0.5321 -0.1053  0.3308
  347TMC3    C5 5201   1.086   0.405  14.554 -0.2695  0.9166 -0.1249
  347TMC3    C6 5202   1.210   0.449  14.558 -0.4488  0.3915 -0.1275
  347TMC3     C 5203   1.097   0.185  14.299 -0.1884 -0.2821  0.0686
  347TMC3     O 5204   1.028   0.115  14.372 -0.1873  0.1919 -0.2490
  347TMC3     H 5205   1.296   0.357  14.240 -1.0560 -0.0310 -0.3826
  347TMC3    H1 5206   0.926   0.320  14.438 -0.6433  3.9040 -0.0376
  347TMC3    H2 5207   1.258   0.473  14.652  1.9928  1.1220 -1.5940
  347TMC3    C7 5208   1.017   0.358  14.681 -0.6451 -0.1918  0.1753
  347TMC3    C8 5209   1.429   0.411  14.455 -0.1856 -0.2901  1.0481
  347TMC3    O1 5210   1.051   0.404  14.791  0.2068 -0.0870 -0.3007
  347TMC3    O2 5211   1.469   0.335  14.367  0.0140  0.0445 -0.2864
  348MPD2     C 5212   4.228   4.340  12.436 -0.2043 -0.1185 -0.3889
  348MPD2    C1 5213   4.356   4.350  12.385 -0.1228 -0.2653  0.2455
  348MPD2    C2 5214   4.379   4.411  12.266 -0.7827  0.6585 -0.0956
  348MPD2    C3 5215   4.279   4.463  12.186 -0.5486 -0.2431 -0.0208
  348MPD2    C4 5216   4.150   4.462  12.239  0.9069  0.2045  0.5333
  348MPD2    C5 5217   4.124   4.399  12.357  0.2873 -0.1720 -0.3654
  348MPD2     H 5218   4.484   4.427  12.243 -0.6418 -0.7934 -0.4628
  348MPD2    H1 5219   4.070   4.522  12.195  0.5142 -1.3602 -0.8759
  348MPD2    H2 5220   4.195   4.295  12.529 -0.6490 -0.2915 -0.6281
  348MPD2    H3 5221   4.022   4.410  12.390  0.2656  0.1710 -0.5443
  348MPD2     N 5222   4.316   4.522  12.062  0.2189  0.2332 -0.6789
  348MPD2    H5 5223   4.413   4.541  12.040  0.7558 -1.0553  0.5896
  348MPD2    N1 5224   4.472   4.296  12.452 -0.4085 -0.2010 -0.8471
  348MPD2    H7 5225   4.559   4.323  12.409 -0.3776  2.3985  0.8589
  349TMC3    C1 5226   4.611   4.124  12.550  0.4952  0.2191  0.3025
  349TMC3    C2 5227   4.617   3.986  12.573 -1.2278  0.0669  0.0803
  349TMC3    C3 5228   4.704   3.915  12.499 -0.3087  0.3798 -0.6279
  349TMC3    C4 5229   4.710   4.185  12.474 -0.0709 -0.3173  0.1316
  349TMC3    C5 5230   0.072   4.105  12.406  0.2179  0.1555 -0.2878
  349TMC3    C6 5231   0.075   3.971  12.419  0.4172 -0.0698  0.1138
  349TMC3     C 5232   4.477   4.195  12.546 -0.1657  0.2883  0.3743
  349TMC3     O 5233   4.381   4.139  12.601  0.2278 -0.6335  0.0419
  349TMC3     H 5234   4.538   3.936  12.627  0.0951  0.9996  2.8940
  349TMC3    H1 5235   4.708   4.291  12.454  1.1392 -0.2910  0.1383
  349TMC3    H2 5236   0.133   3.910  12.351  0.5824  0.5357 -0.2884
  349TMC3    C7 5237   0.084   4.151  12.269 -0.0915 -0.5209 -0.1142
  349TMC3    C8 5238   4.703   3.770  12.517  0.2609 -0.6394 -0.1545
  349TMC3    O1 5239   0.066   4.084  12.168 -0.6096 -0.3264 -0.3218
  349TMC3    O2 5240   4.608   3.725  12.580  0.9363 -0.3922  0.0677
  350MPD2     C 5241   4.445   3.009  10.011  0.0554 -0.1923  0.4342
  350MPD2    C1 5242   4.485   2.886   9.965  0.2926 -0.2632  0.2716
  350MPD2    C2 5243   4.403   2.776   9.991 -1.3943 -0.3305  0.1936
  350MPD2    C3 5244   4.268   2.794  10.034  0.1656  0.6216 -0.0075
  350MPD2    C4 5245   4.232   2.919  10.085  0.1780  0.1299 -0.0837
  350MPD2    C5 5246   4.319   3.022  10.064  0.5742  0.5490 -0.1843
  350MPD2     H 5247   4.439   2.680   9.958 -1.7131 -0.3721 -0.0263
  350MPD2    H1 5248   4.128   2.929  10.113  0.1785 -1.9298  0.5877
  350MPD2    H2 5249   4.505   3.096   9.986 -0.4027  0.1654  0.5642
  350MPD2    H3 5250   4.291   3.121  10.100  0.3197  0.4049  0.0196
  350MPD2     N 5251   4.198   2.672  10.065  0.3142  0.5534  0.0210
  350MPD2    H5 5252   4.234   2.581  10.039 -1.1437 -0.3792  1.2799
  350MPD2    N1 5253   4.609   2.855   9.905 -0.5666  0.1835  0.0416
  350MPD2    H7 5254   4.630   2.758   9.886  1.4450  0.2828  1.7440
  351TMC3    C1 5255   0.115   2.890   9.907 -0.3897 -0.1244 -0.9513
  351TMC3    C2 5256   0.134   2.777   9.989 -0.1709  0.0994 -0.5016
  351TMC3    C3 5257   0.257   2.762  10.047 -0.5964  0.2046 -0.1144
  351TMC3    C4 5258   0.226   2.970   9.877 -0.5799 -0.3956  0.2039
  351TMC3    C5 5259   0.347   2.941   9.928  0.0710  1.2886  0.1034
  351TMC3    C6 5260   0.370   2.837  10.018  0.1774  0.0644 -0.4281
  351TMC3     C 5261   4.708   2.946   9.890  0.8982 -0.0421 -0.3019
  351TMC3     O 5262   4.701   3.064   9.871  0.1942  0.4501 -0.4494
  351TMC3     H 5263   0.055   2.725  10.041  0.2388 -1.0988 -1.0572
  351TMC3    H1 5264   0.213   3.060   9.819 -1.3294 -0.6980 -0.1042
  351TMC3    H2 5265   0.461   2.825  10.074 -0.1719 -2.0579 -0.3225
  351TMC3    C7 5266   0.440   3.050   9.915  0.8460 -0.1858  0.5252
  351TMC3    C8 5267   0.260   2.648  10.140 -0.5477 -0.3516 -0.1067
  351TMC3    O1 5268   0.404   3.152   9.866  0.4525  0.7994 -0.0888
  351TMC3    O2 5269   0.188   2.552  10.116  0.2962 -0.7261  0.0675
  352MPD2     C 5270   1.837   3.990   1.029  0.2133 -0.5319  0.0408
  352MPD2    C1 5271   1.735   3.973   1.121  0.4433  0.9017  0.0318
  352MPD2    C2 5272   1.761   3.884   1.225 -0.2128 -0.0541 -0.1043
  352MPD2    C3 5273   1.868   3.798   1.222  0.1472  0.1214 -0.1195
  352MPD2    C4 5274   1.965   3.809   1.120 -0.1549 -0.8014 -0.0449
  352MPD2    C5 5275   1.941   3.912   1.031 -1.2047 -0.1043 -0.7850
  352MPD2     H 5276   1.699   3.893   1.314 -1.3285  0.1034 -0.9009
  352MPD2    H1 5277   2.051   3.744   1.110  0.4454 -0.0743  0.4144
  352MPD2    H2 5278   1.833   4.068   0.954 -1.4828  0.3029  0.9785
  352MPD2    H3 5279   2.011   3.924   0.949  0.2299 -1.7691  0.1924
  352MPD2     N 5280   1.893   3.698   1.324 -0.1487  0.3295 -0.3580
  352MPD2    H5 5281   1.969   3.635   1.301  0.6444  1.3545 -0.5340
  352MPD2    N1 5282   1.624   4.065   1.120  0.5397  0.1566  0.6702
  352MPD2    H7 5283   1.626   4.143   1.055  0.0723 -0.7062 -0.3738
  353TMC3    C1 5284   1.850   3.564   1.505  0.1579  1.0322 -0.2164
  353TMC3    C2 5285   1.986   3.525   1.502  0.6059  0.2139 -0.3136
  353TMC3    C3 5286   2.008   3.390   1.528  0.1488  0.7310  0.0700
  353TMC3    C4 5287   1.745   3.478   1.529 -0.8990 -0.0600  0.0406
  353TMC3    C5 5288   1.782   3.346   1.551  0.0039 -0.7778  0.2102
  353TMC3    C6 5289   1.908   3.296   1.549 -0.2578  0.1914 -0.7535
  353TMC3     C 5290   1.820   3.690   1.441 -0.0377  0.4776  0.0866
  353TMC3     O 5291   1.709   3.734   1.474  0.0165  0.0881 -0.4648
  353TMC3     H 5292   2.069   3.594   1.489  0.8911 -0.0996 -0.1669
  353TMC3    H1 5293   1.642   3.503   1.507 -0.2119  1.3861 -1.5180
  353TMC3    H2 5294   1.921   3.191   1.570  1.8963  0.0315 -2.8973
  353TMC3    C7 5295   1.667   3.259   1.527  0.5970  0.3546  0.4029
  353TMC3    C8 5296   2.144   3.345   1.534  0.2201  0.2102 -0.5249
  353TMC3    O1 5297   1.562   3.285   1.583 -0.1759 -0.3804  0.1659
  353TMC3    O2 5298   2.225   3.428   1.575  0.1541 -0.0767  0.1485
  354TMC3    C1 5299   3.282   1.080  13.611 -0.1638  0.0933 -0.6845
  354TMC3    C2 5300   3.234   1.172  13.529 -0.2624  0.3208 -0.5378
  354TMC3    C3 5301   3.274   1.182  13.398 -0.7553  0.3363 -0.4150
  354TMC3    C4 5302   3.373   0.990  13.572 -0.3560  0.2962 -0.2518
  354TMC3    C5 5303   3.391   0.993  13.431  0.0686  0.3963 -0.7320
  354TMC3    C6 5304   3.345   1.088  13.343  0.7937 -0.5064 -0.1604
  354TMC3     C 5305   3.215   1.055  13.740  0.2355  0.1011  0.3897
  354TMC3     O 5306   3.105   1.101  13.757  0.6307 -0.0852 -0.3835
  354TMC3     H 5307   3.149   1.230  13.566 -1.5852 -1.4268 -0.8597
  354TMC3    H1 5308   3.396   0.896  13.620  0.3639  0.8335  0.4614
  354TMC3    H2 5309   3.378   1.083  13.240  0.0640  0.8188 -0.4578
  354TMC3    C7 5310   3.409   0.864  13.372  0.3911  0.2694 -0.1057
  354TMC3    C8 5311   3.254   1.300  13.322  0.4112  0.1515 -0.1535
  354TMC3    O1 5312   3.350   0.769  13.427 -0.0293  0.3955 -0.1980
  354TMC3    O2 5313   3.283   1.303  13.203  0.1935  0.2524 -0.0183
  355MPD2     C 5314   3.477   1.844  11.983  0.6049 -0.2249 -0.1200
  355MPD2    C1 5315   3.537   1.870  11.861 -0.3950  0.1340  0.1776
  355MPD2    C2 5316   3.677   1.886  11.859 -0.0883 -0.4129  0.0986
  355MPD2    C3 5317   3.750   1.881  11.983 -0.0389  0.0289  0.4936
  355MPD2    C4 5318   3.690   1.871  12.101 -0.1351  0.2224 -0.2582
  355MPD2    C5 5319   3.553   1.856  12.095 -0.7025  0.1072 -0.1681
  355MPD2     H 5320   3.730   1.884  11.765 -1.6233  1.8454 -0.8169
  355MPD2    H1 5321   3.744   1.867  12.195  2.9030  2.4954 -1.8937
  355MPD2    H2 5322   3.370   1.854  11.997  0.3551 -1.0287 -1.4628
  355MPD2    H3 5323   3.500   1.842  12.189  0.7550 -1.9464  0.3637
  355MPD2     N 5324   3.890   1.894  11.995  0.3976 -0.8095 -0.0821
  355MPD2    H5 5325   3.921   1.903  12.091 -0.5555 -1.6603  0.3082
  355MPD2    N1 5326   3.454   1.872  11.740  0.5787 -0.2112 -0.3869
  355MPD2    H7 5327   3.359   1.838  11.755  0.6049  0.4396  1.3224
  356TMC3    C1 5328   4.112   1.956  11.926 -0.0917  0.1987  0.2233
  356TMC3    C2 5329   4.182   2.006  11.824 -0.4964 -0.0385 -0.5497
  356TMC3    C3 5330   4.301   2.061  11.855 -0.1185 -0.2827 -0.2328
  356TMC3    C4 5331   4.149   1.964  12.062 -0.5273  0.0446  0.4847
  356TMC3    C5 5332   4.267   2.027  12.088 -0.1065 -0.2985  0.1012
  356TMC3    C6 5333   4.341   2.084  11.985  0.2606  0.0924 -0.0476
  356TMC3     C 5334   3.985   1.893  11.890  0.0359 -0.3290  0.2599
  356TMC3     O 5335   3.961   1.876  11.770 -0.1523 -0.0340  0.1673
  356TMC3     H 5336   4.155   1.979  11.723 -0.2645  2.1306 -1.1998
  356TMC3    H1 5337   4.100   1.917  12.147 -1.6016  0.6306  0.1880
  356TMC3    H2 5338   4.437   2.129  12.004  0.5366  0.0375 -1.3422
  356TMC3    C7 5339   4.310   2.031  12.223 -0.2722 -0.0480 -0.4063
  356TMC3    C8 5340   4.365   2.129  11.745  0.1919 -0.1316  0.8944
  356TMC3    O1 5341   4.253   1.965  12.308  0.3656  0.6301  0.8142
  356TMC3    O2 5342   4.322   2.102  11.633 -0.1805  0.7446 -0.3045
  357MPD2     C 5343   2.792   0.708   0.706  0.1561 -0.3257 -0.5338
  357MPD2    C1 5344   2.847   0.596   0.762  0.3306 -0.3395 -0.5919
  357MPD2    C2 5345   2.771   0.517   0.847  0.6032  0.9325  1.1612
  357MPD2    C3 5346   2.636   0.543   0.862 -1.0220 -0.6274  0.0835
  357MPD2    C4 5347   2.580   0.648   0.797 -0.0075  0.0606 -0.1571
  357MPD2    C5 5348   2.660   0.734   0.726 -0.0985 -0.0262  0.8159
  357MPD2     H 5349   2.803   0.425   0.894  0.2552 -0.0242 -0.4770
  357MPD2    H1 5350   2.478   0.677   0.818  0.1898 -1.4855  2.9637
  357MPD2    H2 5351   2.853   0.781   0.653 -1.0505 -1.2544 -3.1943
  357MPD2    H3 5352   2.621   0.816   0.667  1.0305  0.6291  0.9758
  357MPD2     N 5353   2.552   0.465   0.947 -0.1680  0.1830  0.1072
  357MPD2    H5 5354   2.459   0.504   0.960 -0.7956 -1.4055  0.3148
  357MPD2    N1 5355   2.981   0.569   0.727 -0.3229  0.2089  0.3027
  357MPD2    H7 5356   3.020   0.611   0.643 -1.0681  2.1107  0.9148
  358TMC3    C1 5357   3.176   0.433   0.741  0.4226  0.4491 -0.0651
  358TMC3    C2 5358   3.184   0.404   0.612  0.4779 -0.2958 -0.5448
  358TMC3    C3 5359   3.235   0.286   0.570 -0.0668 -0.2127  0.4443
  358TMC3    C4 5360   3.266   0.372   0.822 -0.1068  0.3553 -0.2212
  358TMC3    C5 5361   3.343   0.273   0.772  0.0046 -0.2619  0.8295
  358TMC3    C6 5362   3.305   0.211   0.657  0.0723  1.3637  1.1240
  358TMC3     C 5363   3.056   0.480   0.799 -0.0756 -0.1935  0.3632
  358TMC3     O 5364   3.041   0.459   0.919  0.2617  0.1633 -0.4133
  358TMC3     H 5365   3.125   0.459   0.540 -2.0266  2.2558  3.4650
  358TMC3    H1 5366   3.279   0.406   0.924 -0.4378 -1.6684  0.4907
  358TMC3    H2 5367   3.369   0.134   0.615  0.6542  2.3696  0.1845
  358TMC3    C7 5368   3.409   0.192   0.874 -0.0356 -0.2291  0.4652
  358TMC3    C8 5369   3.260   0.268   0.427  0.7262  0.3887  0.2875
  358TMC3    O1 5370   3.431   0.256   0.974  0.8780  0.0413  0.3135
  358TMC3    O2 5371   3.246   0.373   0.368 -0.4737 -0.2324 -0.1579
  359MPD2     C 5372   4.455   0.373  13.137 -0.7277  0.1716 -0.1476
  359MPD2    C1 5373   4.436   0.347  12.997  0.3088  0.1420 -0.0558
  359MPD2    C2 5374   4.333   0.263  12.952 -0.0308 -0.3542 -0.4921
  359MPD2    C3 5375   4.243   0.216  13.045 -0.1941 -0.3709  0.5700
  359MPD2    C4 5376   4.264   0.236  13.177 -0.1897 -0.2221  0.0694
  359MPD2    C5 5377   4.371   0.310  13.223 -0.3471  0.0526  0.7034
  359MPD2     H 5378   4.316   0.248  12.846  1.6314  0.0616 -0.8162
  359MPD2    H1 5379   4.210   0.189  13.258  0.6442  1.0823  1.3803
  359MPD2    H2 5380   4.532   0.435  13.180  0.6796 -1.5837 -0.1434
  359MPD2    H3 5381   4.382   0.322  13.330  0.1734  0.9621  0.5428
  359MPD2     N 5382   4.117   0.150  13.011  0.4982 -0.0764  0.2982
  359MPD2    H5 5383   4.057   0.138  13.092 -0.1261 -0.8992 -0.2901
  359MPD2    N1 5384   4.528   0.385  12.899 -0.1018  0.1981 -0.5056
  359MPD2    H7 5385   4.515   0.343  12.808 -1.7800  1.2668 -0.7496
  360TMC3    C1 5386   4.701   0.474  12.772 -0.3607 -0.0093 -0.3499
  360TMC3    C2 5387   0.111   0.499  12.771 -0.2191 -0.0670 -0.1683
  360TMC3    C3 5388   0.191   0.479  12.663 -0.3845 -0.6429 -0.1068
  360TMC3    C4 5389   4.648   0.417  12.659 -0.2124  0.6569  0.4951
  360TMC3    C5 5390   0.001   0.403  12.549  0.2239  0.6460  0.3597
  360TMC3    C6 5391   0.133   0.437  12.545 -0.0497  0.5929  0.3030
  360TMC3     C 5392   4.639   0.468  12.909  0.3156  0.3893  0.4116
  360TMC3     O 5393   4.687   0.518  13.006  0.6463  0.1703  0.0245
  360TMC3     H 5394   0.156   0.514  12.869  0.1994 -2.4343 -0.0084
  360TMC3    H1 5395   4.541   0.415  12.645 -0.2938 -3.2332  1.6066
  360TMC3    H2 5396   0.191   0.410  12.457  2.3216  0.3709  1.9155
  360TMC3    C7 5397   4.659   0.379  12.422  0.4238  0.1851 -0.9386
  360TMC3    C8 5398   0.331   0.456  12.683  0.3908 -0.1376  0.6115
  360TMC3    O1 5399   4.697   0.453  12.328  0.5986 -0.0529 -0.2390
  360TMC3    O2 5400   0.375   0.413  12.794 -0.4413 -0.4901  0.0077
  361MPD2     C 5401   0.747   3.826  16.896  0.6449 -0.4606 -0.6047
  361MPD2    C1 5402   0.786   3.880  17.021  0.5525  0.5773 -0.4375
  361MPD2    C2 5403   0.887   3.817  17.100  0.8217 -1.2317  0.3241
  361MPD2    C3 5404   0.954   3.707  17.050  0.1636 -0.0800  0.3888
  361MPD2    C4 5405   0.916   3.655  16.929  0.2001 -0.0437  0.3563
  361MPD2    C5 5406   0.819   3.712  16.847  0.2191  0.7152 -0.6447
  361MPD2     H 5407   0.925   3.872  17.185 -0.4573  1.1431 -0.6437
  361MPD2    H1 5408   0.959   3.563  16.891  0.6765  0.7590 -1.0688
  361MPD2    H2 5409   0.659   3.860  16.842 -0.3891 -1.2126  0.5967
  361MPD2    H3 5410   0.785   3.665  16.756  0.5960 -0.2544 -0.2852
  361MPD2     N 5411   1.068   3.639  17.110 -0.5678 -0.2844  0.4852
  361MPD2    H5 5412   1.105   3.577  17.038 -1.8816 -1.9109  1.2375
  361MPD2    N1 5413   0.722   4.001  17.057  0.0842  0.6763  0.0190
  361MPD2    H7 5414   0.646   4.035  17.000 -0.1951  2.1746  1.2684
  362TMC3    C1 5415   0.665   4.195  17.174  0.0867  0.0646 -0.0012
  362TMC3    C2 5416   0.530   4.152  17.181  0.2603 -0.3174 -0.5374
  362TMC3    C3 5417   0.438   4.240  17.145 -0.2063 -0.3969 -0.4571
  362TMC3    C4 5418   0.698   4.318  17.111  0.3088  0.2165 -0.6064
  362TMC3    C5 5419   0.592   4.395  17.074 -0.0993 -0.9159 -0.1104
  362TMC3    C6 5420   0.464   4.365  17.108 -0.2846  0.2192  1.1115
  362TMC3     C 5421   0.757   4.080  17.162 -0.3413 -0.2415  0.7617
  362TMC3     O 5422   0.850   4.073  17.240  0.6817  0.3205 -0.0493
  362TMC3     H 5423   0.517   4.048  17.210 -0.5250  0.4542  1.8542
  362TMC3    H1 5424   0.802   4.329  17.082  1.0562 -0.2834  1.8185
  362TMC3    H2 5425   0.384   4.434  17.085 -1.0428 -0.8414  0.5611
  362TMC3    C7 5426   0.601   4.507  16.977 -0.6237  0.0467  0.1921
  362TMC3    C8 5427   0.309   4.178  17.124  0.1699 -0.8238 -0.0951
  362TMC3    O1 5428   0.500   4.542  16.915  0.4245  0.1758 -0.0520
  362TMC3    O2 5429   0.306   4.061  17.093  0.0624  0.4971  0.3839
  363TMC3    C1 5430   0.007   1.185   9.755 -0.0729  0.6467  0.9730
  363TMC3    C2 5431   0.126   1.149   9.685 -0.4523  0.5459  0.4942
  363TMC3    C3 5432   0.237   1.164   9.758  0.4394  0.6045 -0.8309
  363TMC3    C4 5433   0.000   1.224   9.890 -0.3822 -0.4467 -0.4157
  363TMC3    C5 5434   0.127   1.252   9.945  0.3102  0.0991  0.1776
  363TMC3    C6 5435   0.245   1.217   9.883 -0.7495 -0.3565  0.0651
  363TMC3     C 5436   4.608   1.157   9.696 -0.0008  0.6758 -0.2404
  363TMC3     O 5437   4.514   1.147   9.775 -0.0036  0.4390 -0.0187
  363TMC3     H 5438   0.128   1.108   9.585 -1.1675  1.7951 -0.0307
  363TMC3    H1 5439   4.629   1.235   9.939  0.2369  1.7766  0.2621
  363TMC3    H2 5440   0.341   1.235   9.929 -0.2971  1.2862 -1.5363
  363TMC3    C7 5441   0.145   1.281  10.086 -0.2420  0.2465  0.0145
  363TMC3    C8 5442   0.365   1.117   9.691  0.0719 -0.0755  0.3630
  363TMC3    O1 5443   0.249   1.234  10.133 -0.6047  0.1662 -0.0372
  363TMC3    O2 5444   0.370   1.110   9.571 -0.1499 -0.1197  0.6420
  364MPD2     C 5445   3.186   0.853  10.891 -0.6453 -0.5246  0.8281
  364MPD2    C1 5446   3.282   0.813  10.801  0.3928  0.0467 -0.3076
  364MPD2    C2 5447   3.350   0.692  10.826 -0.5692  0.0916  0.1968
  364MPD2    C3 5448   3.308   0.608  10.928  0.1914  0.0411  0.4268
  364MPD2    C4 5449   3.207   0.650  11.010  0.5905 -0.5235  0.2083
  364MPD2    C5 5450   3.144   0.771  10.989  0.5578 -0.6014 -0.2050
  364MPD2     H 5451   3.431   0.658  10.763 -0.7250 -1.0440  0.6147
  364MPD2    H1 5452   3.166   0.598  11.096  0.4001  0.4841  0.7264
  364MPD2    H2 5453   3.129   0.942  10.869 -1.8557 -1.2711  0.9250
  364MPD2    H3 5454   3.069   0.800  11.062  1.5670 -1.4999  1.2010
  364MPD2     N 5455   3.362   0.485  10.957  0.2292 -0.0562  0.2123
  364MPD2    H5 5456   3.327   0.443  11.042 -2.0817 -0.6601 -1.0428
  364MPD2    N1 5457   3.303   0.898  10.685 -0.1352  0.0801 -0.0878
  364MPD2    H7 5458   3.237   0.975  10.676  1.5918  1.5390 -0.3469
  365TMC3    C1 5459   3.401   0.999  10.498 -0.5225 -0.0461  0.0504
  365TMC3    C2 5460   3.473   0.986  10.382 -0.9809 -1.2875 -0.7741
  365TMC3    C3 5461   3.474   1.094  10.298 -0.0197 -0.2885  0.5097
  365TMC3    C4 5462   3.327   1.112  10.522 -0.3838 -0.4158  0.1880
  365TMC3    C5 5463   3.327   1.212  10.430  0.3719 -0.2256 -0.3698
  365TMC3    C6 5464   3.402   1.209  10.317  0.1994  0.3192  0.3572
  365TMC3     C 5465   3.406   0.885  10.590 -0.0205 -0.3013 -0.1069
  365TMC3     O 5466   3.477   0.784  10.568  0.2993 -0.1655  0.1270
  365TMC3     H 5467   3.527   0.897  10.351  3.1248  1.8781 -2.7248
  365TMC3    H1 5468   3.262   1.124  10.608  1.3089 -1.6818  1.6403
  365TMC3    H2 5469   3.395   1.286  10.241 -1.1230  1.3528  1.5182
  365TMC3    C7 5470   3.263   1.347  10.458  0.1699  0.5272 -0.9431
  365TMC3    C8 5471   3.567   1.086  10.188 -0.1562 -0.4242 -0.2975
  365TMC3    O1 5472   3.282   1.432  10.373 -0.3962  0.2267 -0.0650
  365TMC3    O2 5473   3.544   1.159  10.092 -0.0193  0.0415  0.2549
  366MPD2     C 5474   0.595   1.990  15.821  0.3228  0.4406 -0.7668
  366MPD2    C1 5475   0.695   2.024  15.735  0.3116 -0.5982 -0.0719
  366MPD2    C2 5476   0.789   1.926  15.706  0.9814 -0.3100 -0.0290
  366MPD2    C3 5477   0.788   1.811  15.778 -0.3466 -0.0896  0.3311
  366MPD2    C4 5478   0.698   1.783  15.870 -0.1917  0.0605  0.3318
  366MPD2    C5 5479   0.598   1.876  15.882  0.0916 -0.1959 -0.4094
  366MPD2     H 5480   0.852   1.947  15.620  0.9274  1.9250  0.4918
  366MPD2    H1 5481   0.703   1.685  15.916 -0.4980 -0.2429 -0.2809
  366MPD2    H2 5482   0.511   2.056  15.838 -0.0258  0.2921 -1.9362
  366MPD2    H3 5483   0.508   1.844  15.933 -0.5240  0.8710 -0.8298
  366MPD2     N 5484   0.898   1.723  15.745  0.2795  0.6816  0.2117
  366MPD2    H5 5485   0.962   1.748  15.671 -0.3401 -0.4640 -0.7036
  366MPD2    N1 5486   0.704   2.152  15.670 -0.1536 -0.1164 -0.1617
  366MPD2    H7 5487   0.787   2.183  15.620  1.2847 -0.8044  1.7802
  367TMC3    C1 5488   0.666   2.379  15.641 -0.1419  0.3079 -0.1886
  367TMC3    C2 5489   0.785   2.426  15.687  0.0450 -0.3865  0.1255
  367TMC3    C3 5490   0.841   2.542  15.626  0.1924 -0.8786 -0.3780
  367TMC3    C4 5491   0.605   2.433  15.533 -0.4128  0.7129 -0.4342
  367TMC3    C5 5492   0.660   2.544  15.477  0.8889  0.3858  0.1200
  367TMC3    C6 5493   0.776   2.599  15.522 -0.9029  0.1424 -0.9495
  367TMC3     C 5494   0.610   2.254  15.690  0.0012 -1.0818  0.1968
  367TMC3     O 5495   0.491   2.239  15.711 -0.2357 -0.4557 -0.0950
  367TMC3     H 5496   0.838   2.376  15.767 -0.0584 -0.7110 -0.0099
  367TMC3    H1 5497   0.517   2.387  15.490 -0.6967 -0.1011  0.9971
  367TMC3    H2 5498   0.816   2.687  15.474 -2.5393  1.8172  0.7997
  367TMC3    C7 5499   0.594   2.606  15.370  0.4751  0.2415 -0.2534
  367TMC3    C8 5500   0.938   2.619  15.715  1.0792  0.1861  0.5262
  367TMC3    O1 5501   0.626   2.725  15.360  0.6836 -0.1818 -0.1290
  367TMC3    O2 5502   0.970   2.564  15.822 -0.0650  0.1399 -0.4821
  368MPD2     C 5503   2.400   4.155  13.514 -0.1876  0.4621 -0.1653
  368MPD2    C1 5504   2.400   4.202  13.382  0.4516 -0.6798  0.0340
  368MPD2    C2 5505   2.521   4.240  13.324  0.6399 -0.1853 -0.5588
  368MPD2    C3 5506   2.639   4.259  13.396  0.2446  0.4492 -0.4962
  368MPD2    C4 5507   2.626   4.230  13.534 -0.2705  0.5681  0.4555
  368MPD2    C5 5508   2.514   4.173  13.590  0.1576 -0.1149 -0.0402
  368MPD2     H 5509   2.513   4.271  13.221  0.0015  2.7074  0.3557
  368MPD2    H1 5510   2.705   4.261  13.601  0.5608  1.4749 -0.9592
  368MPD2    H2 5511   2.313   4.104  13.552  0.5250 -0.4803  0.2024
  368MPD2    H3 5512   2.514   4.145  13.695  1.2476 -0.7948 -0.2188
  368MPD2     N 5513   2.756   4.320  13.335 -0.6093 -0.2955 -0.4393
  368MPD2    H5 5514   2.829   4.350  13.399 -0.3955  2.2703 -1.8827
  368MPD2    N1 5515   2.276   4.184  13.311  0.2045 -0.2339  0.6671
  368MPD2    H7 5516   2.199   4.166  13.375  1.1746 -3.2529  0.9614
  369TMC3    C1 5517   2.120   4.228  13.137  0.3675  0.2834 -0.0357
  369TMC3    C2 5518   2.096   4.277  13.009  0.0795 -0.5736 -0.3905
  369TMC3    C3 5519   1.977   4.334  12.980  0.4115  0.4410 -0.2621
  369TMC3    C4 5520   2.022   4.226  13.230 -0.1878  0.0068 -0.4738
  369TMC3    C5 5521   1.896   4.268  13.190  0.3594  0.2014 -0.5716
  369TMC3    C6 5522   1.872   4.329  13.070 -0.5866 -0.3124 -0.1911
  369TMC3     C 5523   2.258   4.214  13.180  0.6269  0.6436 -0.2261
  369TMC3     O 5524   2.339   4.242  13.094 -0.4768 -0.2617  0.1495
  369TMC3     H 5525   2.176   4.260  12.939  1.9326 -0.8114  1.7703
  369TMC3    H1 5526   2.033   4.198  13.334  0.8226  3.0286  0.2448
  369TMC3    H2 5527   1.771   4.358  13.043  0.2106  1.0323 -1.6627
  369TMC3    C7 5528   1.791   4.251  13.290  0.4793  0.5344 -0.3310
  369TMC3    C8 5529   1.955   4.380  12.843 -0.2956 -0.0291  0.2276
  369TMC3    O1 5530   1.824   4.182  13.379  0.8574  0.3518  0.2810
  369TMC3    O2 5531   1.837   4.383  12.808  0.1045 -0.5660  0.1979
  370TMC3    C1 5532   1.809   0.111  16.400 -0.1379  0.2833 -0.4651
  370TMC3    C2 5533   1.724   0.051  16.491 -0.1168 -0.3296  0.7865
  370TMC3    C3 5534   1.643   4.672  16.446 -0.2816  0.7560 -1.2013
  370TMC3    C4 5535   1.807   0.060  16.271  0.4509 -0.5013  0.3023
  370TMC3    C5 5536   1.719   4.689  16.228  0.1665  0.5127 -0.9301
  370TMC3    C6 5537   1.635   4.633  16.316  0.5218 -0.5082  0.6446
  370TMC3     C 5538   1.856   0.242  16.449 -0.0953 -0.0824 -0.6592
  370TMC3     O 5539   1.829   0.264  16.561  0.4793 -0.0494 -0.3217
  370TMC3     H 5540   1.716   0.094  16.590  0.9456 -3.3360  2.1855
  370TMC3    H1 5541   1.877   0.101  16.199 -1.7160  0.3722 -1.3189
  370TMC3    H2 5542   1.581   4.542  16.294  1.2521 -0.9189  0.5668
  370TMC3    C7 5543   1.768   4.599  16.122  0.2014 -0.4168 -0.3241
  370TMC3    C8 5544   1.552   4.602  16.540 -0.7618  0.0637  1.0111
  370TMC3    O1 5545   1.889   4.592  16.119  0.9457 -0.2433  0.0778
  370TMC3    O2 5546   1.453   4.544  16.501 -0.0801  0.0917  0.0673
  371TMC3    C1 5547   2.706   2.753  15.777 -0.1977 -1.0712 -0.3731
  371TMC3    C2 5548   2.593   2.797  15.841 -0.2889  0.2669 -0.0268
  371TMC3    C3 5549   2.583   2.931  15.857 -0.9701  0.5195 -1.1728
  371TMC3    C4 5550   2.803   2.837  15.736  0.6062  0.0686 -0.0661
  371TMC3    C5 5551   2.787   2.970  15.753 -0.6622  0.1295  0.1083
  371TMC3    C6 5552   2.685   3.021  15.820  0.1147  0.2662  0.0870
  371TMC3     C 5553   2.732   2.612  15.745 -0.1386  0.1564  0.2934
  371TMC3     O 5554   2.848   2.576  15.736 -0.4035  0.4183 -0.2007
  371TMC3     H 5555   2.510   2.730  15.864 -0.4342  1.0038  1.6031
  371TMC3    H1 5556   2.882   2.786  15.681 -0.3146  0.2145 -1.5024
  371TMC3    H2 5557   2.667   3.128  15.814 -1.1028  0.1943  2.4951
  371TMC3    C7 5558   2.893   3.062  15.717  0.5711  0.8249 -0.4156
  371TMC3    C8 5559   2.448   2.977  15.873 -0.4798  0.3791 -0.1880
  371TMC3    O1 5560   2.874   3.181  15.699 -0.4528 -0.1207  0.1385
  371TMC3    O2 5561   2.369   2.889  15.905 -0.0624 -0.6061 -0.0658
  372MPD2     C 5562   2.489   4.510  13.794  0.2045  0.1839 -0.6259
  372MPD2    C1 5563   2.545   4.435  13.899 -0.7616  0.0169  0.0991
  372MPD2    C2 5564   2.465   4.332  13.958  0.4093  0.6433  0.0828
  372MPD2    C3 5565   2.347   4.295  13.908  0.0508 -0.0955  0.0356
  372MPD2    C4 5566   2.294   4.370  13.806 -0.0058 -0.2914  0.0178
  372MPD2    C5 5567   2.364   4.471  13.753  0.0347  0.3424  0.0207
  372MPD2     H 5568   2.510   4.284  14.044 -1.4706 -0.3149  0.5151
  372MPD2    H1 5569   2.196   4.342  13.769 -0.1172  0.2913 -0.1256
  372MPD2    H2 5570   2.544   4.587  13.741  2.8156 -0.5790  0.9880
  372MPD2    H3 5571   2.329   4.512  13.659 -1.0638 -0.8390 -0.0870
  372MPD2     N 5572   2.288   4.177  13.958  0.1485 -0.2107 -0.7969
  372MPD2    H5 5573   2.345   4.128  14.026 -1.6755  0.9307  1.5452
  372MPD2    N1 5574   2.672   4.445  13.946 -0.5215 -0.0100  0.4231
  372MPD2    H7 5575   2.688   4.383  14.025 -0.1171  1.7338  1.7027
  373TMC3    C1 5576   2.160   3.977  13.982 -0.3216 -0.2664  0.6561
  373TMC3    C2 5577   2.176   3.976  14.119 -0.2174 -0.0010 -0.1631
  373TMC3    C3 5578   2.196   3.853  14.176 -0.2381 -0.2261  0.1451
  373TMC3    C4 5579   2.153   3.866  13.901 -0.8552  0.2930 -0.6090
  373TMC3    C5 5580   2.171   3.749  13.959  0.6275 -0.1051  0.6357
  373TMC3    C6 5581   2.197   3.746  14.093  0.0066 -0.5889  0.2719
  373TMC3     C 5582   2.185   4.101  13.907 -0.2921 -0.2610  0.3494
  373TMC3     O 5583   2.123   4.117  13.803 -0.4798 -0.0033 -0.2939
  373TMC3     H 5584   2.179   4.065  14.180  1.8021 -0.6795  0.7383
  373TMC3    H1 5585   2.162   3.875  13.794 -0.1489 -0.4240 -0.6148
  373TMC3    H2 5586   2.231   3.650  14.132  0.1008 -0.4711  0.4822
  373TMC3    C7 5587   2.275   3.666  13.897  0.5565  0.0052  0.6264
  373TMC3    C8 5588   2.261   3.835  14.307 -0.4972 -0.3651  0.7808
  373TMC3    O1 5589   2.385   3.720  13.893  0.1325  0.2111  0.2032
  373TMC3    O2 5590   2.358   3.761  14.313 -0.2007  0.3163  0.5199
  374TMC3    C1 5591   4.364   4.282   9.688  0.3833 -0.2184 -0.8900
  374TMC3    C2 5592   4.412   4.392   9.763  0.1574  0.7402  0.2002
  374TMC3    C3 5593   4.536   4.447   9.721  0.0960  0.5450 -0.8412
  374TMC3    C4 5594   4.424   4.252   9.571 -0.7382  0.3692  0.1162
  374TMC3    C5 5595   4.539   4.318   9.538 -0.6530  0.4481  0.6977
  374TMC3    C6 5596   4.596   4.415   9.603  0.9188 -0.3646 -0.0630
  374TMC3     C 5597   4.224   4.243   9.711 -0.4287  0.3921  0.1157
  374TMC3     O 5598   4.168   4.317   9.790 -0.1185 -0.1340  0.2411
  374TMC3     H 5599   4.368   4.426   9.856 -1.3240 -2.0037  0.4680
  374TMC3    H1 5600   4.369   4.196   9.496 -1.5060  2.1961 -0.6991
  374TMC3    H2 5601   4.686   4.466   9.572 -0.8122  1.5652 -1.8951
  374TMC3    C7 5602   4.577   4.300   9.405 -0.0275 -0.2506  0.0725
  374TMC3    C8 5603   4.591   4.554   9.797  0.1575  0.4220 -0.2514
  374TMC3    O1 5604   4.622   4.401   9.356  0.5650  0.3121 -0.3998
  374TMC3    O2 5605   4.675   4.620   9.733  0.5558 -0.1124 -0.4605
  375MPD2     C 5606   3.478   0.662  17.161 -0.0425  0.1823 -0.2683
  375MPD2    C1 5607   3.387   0.561  17.130  0.1417 -0.2318  0.3386
  375MPD2    C2 5608   3.432   0.448  17.073 -0.1318 -0.2215  0.4974
  375MPD2    C3 5609   3.568   0.434  17.044  0.8490 -0.2765  0.3058
  375MPD2    C4 5610   3.652   0.539  17.068 -0.2539  0.4799  0.1638
  375MPD2    C5 5611   3.613   0.645  17.134  0.9146  0.0269 -0.0804
  375MPD2     H 5612   3.363   0.364  17.073  0.1561 -0.4579  0.4060
  375MPD2    H1 5613   3.759   0.527  17.051 -0.6036 -0.6198 -1.2473
  375MPD2    H2 5614   3.461   0.756  17.213  0.5216  0.4571 -0.5806
  375MPD2    H3 5615   3.681   0.723  17.166 -0.2196  0.5734  0.9878
  375MPD2     N 5616   3.619   0.316  16.989 -0.5411 -0.5397 -0.5529
  375MPD2    H5 5617   3.710   0.325  16.946 -0.5033  2.5455  0.1997
  375MPD2    N1 5618   3.246   0.571  17.161  0.0274 -0.5121  0.3682
  375MPD2    H7 5619   3.183   0.497  17.132 -0.0949 -0.8700  1.5729
  376TMC3    C1 5620   3.614   0.137  16.855 -0.7219  0.2677  0.4344
  376TMC3    C2 5621   3.749   0.123  16.842 -0.8411  0.2223  0.5003
  376TMC3    C3 5622   3.795   0.092  16.709  0.6540 -0.2055  0.0361
  376TMC3    C4 5623   3.531   0.116  16.755  0.0096  0.0799 -0.4012
  376TMC3    C5 5624   3.574   0.089  16.630  0.3609 -0.4511  0.6560
  376TMC3    C6 5625   3.708   0.084  16.604  0.6613 -0.5075  0.0967
  376TMC3     C 5626   3.546   0.209  16.959  0.8188  0.0155 -0.2764
  376TMC3     O 5627   3.449   0.163  17.012 -0.6798 -0.4207  0.1804
  376TMC3     H 5628   3.807   0.147  16.931 -0.7637  0.8319  0.2817
  376TMC3    H1 5629   3.425   0.133  16.764  0.0087 -0.5666  0.7981
  376TMC3    H2 5630   3.754   0.072  16.507 -1.9348 -1.9146 -0.9645
  376TMC3    C7 5631   3.492   0.121  16.517  0.4722  0.1615  0.1874
  376TMC3    C8 5632   3.937   0.098  16.685 -0.2492 -0.2102  0.3515
  376TMC3    O1 5633   3.402   0.200  16.542 -0.0388  1.0505  0.3819
  376TMC3    O2 5634   3.979   0.137  16.576  0.0121 -0.2127 -0.0912
  377MPD2     C 5635   1.404   4.449  12.505  0.2482  0.3025 -0.3313
  377MPD2    C1 5636   1.420   4.382  12.622  0.5471  0.6007  0.0556
  377MPD2    C2 5637   1.329   4.384  12.725  0.2851 -0.1112 -0.2303
  377MPD2    C3 5638   1.219   4.460  12.699 -0.1877 -0.2733  0.6166
  377MPD2    C4 5639   1.213   4.545  12.584 -0.4058 -0.1087  0.1367
  377MPD2    C5 5640   1.308   4.536  12.487 -0.5709 -0.6956 -0.4479
  377MPD2     H 5641   1.336   4.328  12.818  0.9369 -2.0402 -1.4545
  377MPD2    H1 5642   1.122   4.601  12.565  1.3675  2.8015  0.2498
  377MPD2    H2 5643   1.483   4.437  12.431  0.5035 -0.3811  0.0522
  377MPD2    H3 5644   1.293   4.599  12.400  0.8431  0.4575  0.1368
  377MPD2     N 5645   1.108   4.473  12.787 -0.1625  0.5506  0.5181
  377MPD2    H5 5646   1.032   4.526  12.746 -0.8755 -1.0587 -0.2145
  377MPD2    N1 5647   1.535   4.297  12.625  0.7115  0.3024 -0.8449
  377MPD2    H7 5648   1.598   4.309  12.547  0.4773  2.3072 -0.7314
  378TMC3    C1 5649   1.880   4.092  12.562  0.1374 -0.7023 -0.2396
  378TMC3    C2 5650   1.754   4.157  12.577 -0.1200 -0.1793  0.6443
  378TMC3    C3 5651   1.689   4.129  12.690  0.4493  0.4046 -0.1240
  378TMC3    C4 5652   1.948   4.034  12.663 -0.0418 -0.6944  0.1951
  378TMC3    C5 5653   1.883   4.039  12.786 -0.2743 -1.0952 -0.6927
  378TMC3    C6 5654   1.752   4.085  12.798  0.2662  0.1819 -0.1970
  378TMC3     C 5655   1.941   4.125  12.437 -0.2315  1.0500  0.1078
  378TMC3     O 5656   1.866   4.166  12.347  1.1528 -0.1808  0.5445
  378TMC3     H 5657   1.700   4.184  12.487  1.9705  2.5039  0.2417
  378TMC3    H1 5658   2.042   3.982  12.645 -0.2099 -0.6394 -0.8682
  378TMC3    H2 5659   1.704   4.085  12.895  3.9662 -2.6438  1.6070
  378TMC3    C7 5660   1.942   3.993  12.910 -0.3166  0.2618  0.2552
  378TMC3    C8 5661   1.569   4.202  12.724  0.2657  0.6176 -0.1430
  378TMC3    O1 5662   1.865   3.986  13.001  0.4603 -0.1556 -0.2376
  378TMC3    O2 5663   1.521   4.173  12.835  0.1424 -0.8055  0.4014
  379MPD2     C 5664   2.086   2.637  16.210  0.4169 -0.6175  0.1575
  379MPD2    C1 5665   2.021   2.658  16.333 -0.0868  0.2257 -0.2810
  379MPD2    C2 5666   2.092   2.624  16.451 -0.5125  0.7881  0.5175
  379MPD2    C3 5667   2.213   2.567  16.441  0.1306 -0.5202 -0.1157
  379MPD2    C4 5668   2.275   2.547  16.316 -0.7597 -0.2063 -0.1204
  379MPD2    C5 5669   2.210   2.585  16.202 -1.0512 -0.5019  0.0952
  379MPD2     H 5670   2.036   2.629  16.543 -0.4238  2.1665  0.4941
  379MPD2    H1 5671   2.376   2.507  16.315 -0.1467  1.3134  1.0200
  379MPD2    H2 5672   2.038   2.646  16.113 -1.1527 -0.9550  0.9168
  379MPD2    H3 5673   2.254   2.569  16.104  1.1155  2.2309  0.6177
  379MPD2     N 5674   2.289   2.518  16.543 -0.3342 -0.3772  0.0579
  379MPD2    H5 5675   2.386   2.498  16.523 -0.4960 -0.7602 -0.3438
  379MPD2    N1 5676   1.894   2.705  16.340 -0.4554  0.4473 -0.2620
  379MPD2    H7 5677   1.848   2.700  16.431  0.1575  1.3460  0.0967
  380TMC3    C1 5678   1.686   2.790  16.280 -0.2384  0.3069  0.0665
  380TMC3    C2 5679   1.645   2.663  16.312  0.2976  0.0088 -0.3706
  380TMC3    C3 5680   1.540   2.609  16.235 -0.1948  0.2951  0.1056
  380TMC3    C4 5681   1.621   2.861  16.182  0.0558 -0.4762 -0.5984
  380TMC3    C5 5682   1.516   2.806  16.113  0.7546 -0.3952 -0.2608
  380TMC3    C6 5683   1.477   2.679  16.138  0.0742  0.2302  0.3209
  380TMC3     C 5684   1.824   2.777  16.246 -0.1850 -0.2944  0.0106
  380TMC3     O 5685   1.851   2.807  16.131  0.2893  0.0618 -0.2190
  380TMC3     H 5686   1.666   2.623  16.411  1.8457 -0.2707 -0.8156
  380TMC3    H1 5687   1.656   2.960  16.153 -0.4019  0.1402  0.9730
  380TMC3    H2 5688   1.394   2.629  16.090  0.2905  0.0566  0.1246
  380TMC3    C7 5689   1.441   2.894  16.013 -0.1643  0.4768 -0.4424
  380TMC3    C8 5690   1.588   2.493  16.165 -0.1318 -0.3992  0.3499
  380TMC3    O1 5691   1.470   3.014  16.022 -0.1297 -1.2481 -0.3806
  380TMC3    O2 5692   1.549   2.481  16.049  0.1682 -0.2437  0.1616
  381TMC3    C1 5693   1.182   4.133  16.074 -0.3202 -0.0872  0.4880
  381TMC3    C2 5694   1.316   4.156  16.086 -0.2770  0.3890 -0.0035
  381TMC3    C3 5695   1.353   4.217  16.202 -0.8340  0.3469 -0.1196
  381TMC3    C4 5696   1.092   4.195  16.155  0.1332 -0.2322 -0.3098
  381TMC3    C5 5697   1.140   4.259  16.269  0.2431 -0.1971 -0.0608
  381TMC3    C6 5698   1.272   4.278  16.291 -0.6374 -0.4417  0.8443
  381TMC3     C 5699   1.135   4.059  15.963 -0.0453  0.3846 -0.6242
  381TMC3     O 5700   1.214   3.984  15.910 -0.1698 -0.2890  0.6954
  381TMC3     H 5701   1.391   4.104  16.027 -1.5114 -1.8011  0.3485
  381TMC3    H1 5702   0.984   4.191  16.141  0.0810 -0.1242  0.0817
  381TMC3    H2 5703   1.314   4.318  16.382  0.7571  0.2111 -0.0846
  381TMC3    C7 5704   1.048   4.254  16.374 -0.0054  0.2680  0.5696
  381TMC3    C8 5705   1.493   4.237  16.223 -0.2951 -0.0312  0.5940
  381TMC3    O1 5706   0.951   4.180  16.355 -0.5499 -0.0413 -0.6136
  381TMC3    O2 5707   1.562   4.212  16.125  0.0667  0.6829  0.2384
  382MPD2     C 5708   1.215   1.614  17.619  0.7884  0.4245 -0.0144
  382MPD2    C1 5709   1.079   1.628  17.621  0.1651  0.9226 -0.3049
  382MPD2    C2 5710   1.002   1.522  17.662 -0.0581 -0.1094  0.2435
  382MPD2    C3 5711   1.066   1.398  17.678 -0.1688  0.4325 -0.4961
  382MPD2    C4 5712   1.204   1.384  17.657  0.0087  0.4940  0.5353
  382MPD2    C5 5713   1.276   1.496  17.630 -0.3365  0.9186  0.6290
  382MPD2     H 5714   0.894   1.534  17.666  0.1636  1.0264  2.5614
  382MPD2    H1 5715   1.254   1.288  17.668  0.6800  0.6720 -0.9736
  382MPD2    H2 5716   1.278   1.699  17.596  1.4159  0.1239  0.5896
  382MPD2    H3 5717   1.382   1.493  17.606 -0.4473 -0.7942  0.3390
  382MPD2     N 5718   1.003   1.277   0.009  0.6851 -0.3500  0.3668
  382MPD2    H5 5719   1.063   1.195   0.009  0.7094 -0.3318  0.8253
  382MPD2    N1 5720   1.012   1.752  17.585  0.6761 -0.6048 -0.3021
  382MPD2    H7 5721   0.922   1.767  17.630  0.3920  1.6184 -1.6119
  383TMC3    C1 5722   0.822   1.135   0.018  0.0343 -0.2926  0.4183
  383TMC3    C2 5723   0.708   1.100  17.648  0.0894  0.4607 -0.4506
  383TMC3    C3 5724   0.666   0.966  17.649  0.5836 -0.4386  0.2441
  383TMC3    C4 5725   0.891   1.042   0.092 -0.3513 -0.0824 -0.6187
  383TMC3    C5 5726   0.858   0.914   0.083 -0.8365  0.2089  0.4064
  383TMC3    C6 5727   0.748   0.870   0.004  0.1090 -0.0032 -0.4461
  383TMC3     C 5728   0.867   1.268   0.034 -0.3608  0.4196 -0.6393
  383TMC3     O 5729   0.786   1.357   0.035  1.1808 -0.1088 -0.4640
  383TMC3     H 5730   0.638   1.176  17.614 -1.8167 -1.5153 -0.9247
  383TMC3    H1 5731   0.969   1.081   0.156 -0.0082 -0.2649 -0.9185
  383TMC3    H2 5732   0.724   0.765  17.696 -1.0280  0.1743  0.7419
  383TMC3    C7 5733   0.884   0.826   0.193  0.5394 -0.0890 -0.3867
  383TMC3    C8 5734   0.554   0.924  17.565 -0.1874  0.4058 -0.0684
  383TMC3    O1 5735   0.792   0.745   0.213  0.0233 -0.1906  0.2354
  383TMC3    O2 5736   0.509   1.014  17.490  0.4133  0.0090  0.2446
  384MPD2     C 5737   3.067   2.621  12.303 -0.1226 -0.0740 -0.1302
  384MPD2    C1 5738   3.043   2.508  12.366  0.2001 -0.1248 -0.0214
  384MPD2    C2 5739   3.116   2.394  12.343 -0.0389 -0.0472  0.0506
  384MPD2    C3 5740   3.195   2.384  12.227 -0.1254  0.3154  0.3925
  384MPD2    C4 5741   3.209   2.499  12.156  0.4198 -0.1666  0.5279
  384MPD2    C5 5742   3.140   2.616  12.190 -0.6836 -0.5424  0.0125
  384MPD2     H 5743   3.100   2.304  12.402  1.6013 -1.2636 -1.3322
  384MPD2    H1 5744   3.269   2.500  12.067 -0.0526  0.0572  0.2105
  384MPD2    H2 5745   3.029   2.719  12.330 -1.0309 -0.2942 -0.5982
  384MPD2    H3 5746   3.156   2.710  12.139 -3.5298 -0.7953 -1.3840
  384MPD2     N 5747   3.239   2.258  12.173 -0.1967 -0.2055  0.6604
  384MPD2    H5 5748   3.300   2.258  12.092  3.5115 -0.4789  3.4439
  384MPD2    N1 5749   2.957   2.507  12.475  0.2676 -0.1176 -0.0500
  384MPD2    H7 5750   2.967   2.421  12.526 -0.6252 -1.0368 -1.4103
  385TMC3    C1 5751   3.230   2.027  12.128  0.5686  0.0519  0.0901
  385TMC3    C2 5752   3.203   2.053  11.998 -0.3696  0.1616 -0.2697
  385TMC3    C3 5753   3.133   1.967  11.921  0.5351 -0.0599 -0.9280
  385TMC3    C4 5754   3.169   1.919  12.178 -0.1980 -0.3681  0.0866
  385TMC3    C5 5755   3.089   1.838  12.103  0.5292 -0.2584  0.0119
  385TMC3    C6 5756   3.072   1.856  11.974 -0.0310 -0.4585 -0.0295
  385TMC3     C 5757   3.207   2.135  12.224 -0.3515 -0.0949  0.4876
  385TMC3     O 5758   3.127   2.107  12.312 -0.8476  0.5326  0.2202
  385TMC3     H 5759   3.257   2.135  11.951 -0.0469 -1.4515 -2.7659
  385TMC3    H1 5760   3.197   1.902  12.281 -0.9743 -0.6796  0.2464
  385TMC3    H2 5761   3.005   1.787  11.922  0.1015 -0.5759 -0.0447
  385TMC3    C7 5762   2.979   1.788  12.174 -0.4843 -1.1980 -0.1163
  385TMC3    C8 5763   3.129   1.987  11.777 -0.1159  0.1247  0.3981
  385TMC3    O1 5764   2.898   1.716  12.121  0.3383  0.0738 -0.8489
  385TMC3    O2 5765   3.200   2.071  11.730  0.3724  0.3173  0.2989
  386TMC3    C1 5766   2.720   4.505  12.328 -1.0733 -0.1095  0.2375
  386TMC3    C2 5767   2.823   4.462  12.239 -0.3072 -0.1803 -0.7610
  386TMC3    C3 5768   2.801   4.462  12.106  0.3019 -0.5523  0.1864
  386TMC3    C4 5769   2.598   4.546  12.278 -0.1405 -1.0283  0.0533
  386TMC3    C5 5770   2.586   4.552  12.143  0.6987 -0.1613  0.0649
  386TMC3    C6 5771   2.685   4.515  12.057  0.0572  0.3350 -0.0606
  386TMC3     C 5772   2.741   4.485  12.466  0.6061 -0.4325  0.3652
  386TMC3     O 5773   2.647   4.457  12.533 -0.0621 -0.8197  0.2030
  386TMC3     H 5774   2.914   4.417  12.275  1.0404  0.4384 -3.4165
  386TMC3    H1 5775   2.513   4.560  12.343 -0.7768 -1.3955 -0.7030
  386TMC3    H2 5776   2.662   4.521  11.952  0.7956 -0.9835 -0.3064
  386TMC3    C7 5777   2.465   4.606  12.092 -0.1549  0.0337 -0.3110
  386TMC3    C8 5778   2.907   4.422  12.021  0.1088  0.3541 -0.5821
  386TMC3    O1 5779   2.375   4.620  12.172  0.2037 -0.0711 -1.1449
  386TMC3    O2 5780   2.974   4.326  12.053 -0.4080  0.3206  0.0444
  387MPD2     C 5781   1.400   0.236  10.323  0.0421  0.2796  0.5398
  387MPD2    C1 5782   1.326   0.227  10.208  0.2172 -0.4119  0.2889
  387MPD2    C2 5783   1.304   0.103  10.156  0.0881  0.6882 -0.2412
  387MPD2    C3 5784   1.346   4.712  10.216  0.1464 -1.3312 -0.1445
  387MPD2    C4 5785   1.410   4.719  10.342 -0.4657  0.1228 -0.1703
  387MPD2    C5 5786   1.435   0.122  10.394  0.2559  0.1837  0.2864
  387MPD2     H 5787   1.253   0.100  10.061  0.3743  3.2353 -0.4705
  387MPD2    H1 5788   1.429   4.636  10.409 -0.5529  1.0332  0.9983
  387MPD2    H2 5789   1.417   0.335  10.362 -1.8191  0.5710  0.6300
  387MPD2    H3 5790   1.490   0.131  10.487 -0.0324  0.7240  0.4020
  387MPD2     N 5791   1.315   4.590  10.144  0.4134 -0.3552  0.6486
  387MPD2    H5 5792   1.246   4.598  10.070 -2.7154 -1.5397  3.4345
  387MPD2    N1 5793   1.287   0.338  10.129  0.6989 -0.4665 -0.4671
  387MPD2    H7 5794   1.236   0.306  10.047  1.3503  0.6607 -1.3143
  388TMC3    C1 5795   1.285   0.542  10.014  0.0126  0.1769  0.5361
  388TMC3    C2 5796   1.256   0.677  10.006 -0.8468 -0.5951  0.6465
  388TMC3    C3 5797   1.248   0.736   9.883  0.6520 -0.7558  0.8417
  388TMC3    C4 5798   1.304   0.466   9.902 -0.4693  0.3311 -0.5828
  388TMC3    C5 5799   1.275   0.521   9.785 -0.0203 -0.8736 -0.3417
  388TMC3    C6 5800   1.258   0.657   9.769 -0.6262  0.1418 -0.0538
  388TMC3     C 5801   1.313   0.475  10.141  0.2897 -0.4478  0.5883
  388TMC3     O 5802   1.347   0.544  10.238 -0.1962  0.1889  0.0251
  388TMC3     H 5803   1.243   0.731  10.099  1.4163 -0.4645  0.8936
  388TMC3    H1 5804   1.330   0.361   9.910 -1.2837  0.2884  1.7314
  388TMC3    H2 5805   1.249   0.695   9.668  0.5917 -0.1594 -0.2723
  388TMC3    C7 5806   1.276   0.433   9.668  0.6922  0.0929  1.0686
  388TMC3    C8 5807   1.194   0.874   9.868  0.0843  0.4350 -0.3252
  388TMC3    O1 5808   1.334   0.475   9.566 -0.1983  0.1522  0.2411
  388TMC3    O2 5809   1.155   0.921   9.974 -0.1999  0.5862  0.1786
  389MPD2     C 5810   0.404   3.141  11.632  0.4049  0.1957 -0.1218
  389MPD2    C1 5811   0.310   3.070  11.566  0.2209 -0.0576 -0.2386
  389MPD2    C2 5812   0.213   2.997  11.635  0.0722  0.2010  0.4149
  389MPD2    C3 5813   0.199   3.005  11.775 -0.1372  0.0274  0.0063
  389MPD2    C4 5814   0.300   3.078  11.843  0.3373 -0.1214  0.2813
  389MPD2    C5 5815   0.395   3.149  11.771  0.2357 -0.3204  0.6640
  389MPD2     H 5816   0.130   2.951  11.582 -1.4091 -0.6836  3.5068
  389MPD2    H1 5817   0.301   3.078  11.952  0.2494  0.5707  0.2800
  389MPD2    H2 5818   0.482   3.194  11.577 -0.9881  1.9754 -0.3691
  389MPD2    H3 5819   0.473   3.195  11.830 -0.1358  1.8515 -0.5394
  389MPD2     N 5820   0.086   2.962  11.846  0.8304  0.0769  0.0076
  389MPD2    H5 5821   0.071   2.997  11.940 -0.4439 -2.8398  0.9008
  389MPD2    N1 5822   0.317   3.065  11.425 -0.4136  0.4900 -0.0598
  389MPD2    H7 5823   0.376   3.135  11.382 -1.3355 -0.5766 -3.0507
  390TMC3    C1 5824   4.617   2.824  11.905 -0.2608  0.2484  0.4182
  390TMC3    C2 5825   4.552   2.705  11.877 -0.1684  0.3464 -0.0707
  390TMC3    C3 5826   4.444   2.678  11.962  0.2124 -0.4127 -0.0261
  390TMC3    C4 5827   4.591   2.912  12.004  0.0633 -0.0648  0.1268
  390TMC3    C5 5828   4.481   2.875  12.080  0.4821  0.4550 -0.7190
  390TMC3    C6 5829   4.418   2.759  12.069 -0.3973 -0.4405  0.2250
  390TMC3     C 5830   4.721   2.869  11.802 -0.3798  0.2496  0.1150
  390TMC3     O 5831   4.709   2.802  11.704 -0.3724  0.1518 -0.1468
  390TMC3     H 5832   4.563   2.634  11.796 -0.8224 -1.6305  1.5877
  390TMC3    H1 5833   4.643   3.007  12.002 -0.4064  0.2081  0.7364
  390TMC3    H2 5834   4.326   2.727  12.117 -1.5845 -0.8627 -2.3132
  390TMC3    C7 5835   4.408   2.983  12.148  0.8625  0.0739 -0.2675
  390TMC3    C8 5836   4.348   2.586  11.912  0.0794  0.1170  0.7874
  390TMC3    O1 5837   4.468   3.091  12.157  0.2087 -0.4885  0.5274
  390TMC3    O2 5838   4.332   2.575  11.790  0.1318 -0.1922 -0.1069
  391MPD2     C 5839   4.059   4.394  11.292 -0.0538 -0.0405 -0.9885
  391MPD2    C1 5840   4.182   4.456  11.322 -0.1428 -0.3377  0.0176
  391MPD2    C2 5841   4.273   4.471  11.217 -0.1966  0.2357  0.0345
  391MPD2    C3 5842   4.236   4.441  11.091 -0.2164 -0.2063 -0.2484
  391MPD2    C4 5843   4.111   4.388  11.058 -0.0366  0.3303 -0.6471
  391MPD2    C5 5844   4.024   4.369  11.164 -0.5073 -1.0323 -0.2874
  391MPD2     H 5845   4.368   4.522  11.229 -0.4018  0.3371  1.2381
  391MPD2    H1 5846   4.087   4.362  10.955  1.5327  0.4494 -1.0436
  391MPD2    H2 5847   3.984   4.378  11.369 -0.4354  1.3805 -1.0572
  391MPD2    H3 5848   3.927   4.326  11.138 -1.2320 -0.0692  0.8513
  391MPD2     N 5849   4.336   4.469  10.994 -0.4266  0.5547 -0.3723
  391MPD2    H5 5850   4.430   4.475  11.032 -0.8024 -0.8251  0.8161
  391MPD2    N1 5851   4.214   4.495  11.455  0.7313  0.4525  0.3095
  391MPD2    H7 5852   4.154   4.461  11.530 -1.2528  0.4692 -1.2455
  392TMC3    C1 5853   4.448   4.521  10.799  0.2959  0.5206  0.5293
  392TMC3    C2 5854   4.443   4.524  10.659  0.8598  0.4406 -0.2214
  392TMC3    C3 5855   4.532   4.602  10.592  0.7598 -0.0660  0.1054
  392TMC3    C4 5856   4.554   4.593  10.865  0.4510 -0.1145 -0.2380
  392TMC3    C5 5857   4.643   4.669  10.795 -0.0279  0.0058 -0.0437
  392TMC3    C6 5858   4.632   4.672  10.657  0.4364 -1.0246  0.6080
  392TMC3     C 5859   4.324   4.485  10.861  0.4706  0.0148 -0.1243
  392TMC3     O 5860   4.220   4.476  10.793 -1.0839 -0.2218 -0.0463
  392TMC3     H 5861   4.371   4.464  10.605  1.7484 -0.3198 -0.5576
  392TMC3    H1 5862   4.572   4.590  10.971  0.3291  1.6988 -0.1678
  392TMC3    H2 5863   4.693   0.012  10.596 -0.0652 -0.3765  0.7833
  392TMC3    C7 5864   0.033   0.002  10.874 -0.0308  0.4350 -0.1977
  392TMC3    C8 5865   4.523   4.597  10.443 -0.3451  1.2201  0.0005
  392TMC3    O1 5866   0.032   4.721  10.997 -0.1767  0.5335  0.6308
  392TMC3    O2 5867   4.463   4.501  10.396  0.0524 -0.3427 -0.0241
  393TMC3    C1 5868   2.944   2.483  10.191 -0.0810 -0.9483 -0.5935
  393TMC3    C2 5869   2.823   2.512  10.252  0.8600  0.2838  0.0607
  393TMC3    C3 5870   2.790   2.436  10.362  0.5765  0.5857 -0.0789
  393TMC3    C4 5871   3.025   2.385  10.238  0.0234  0.5454 -0.2074
  393TMC3    C5 5872   2.991   2.323  10.354 -0.1691 -0.6628  0.3730
  393TMC3    C6 5873   2.878   2.345  10.416  0.3403  0.0346 -0.9991
  393TMC3     C 5874   3.011   2.582  10.094  0.5222 -0.1029  0.6426
  393TMC3     O 5875   3.100   2.538  10.018  0.0200 -0.2135 -0.7315
  393TMC3     H 5876   2.755   2.588  10.216 -1.6731 -2.1497 -0.2789
  393TMC3    H1 5877   3.112   2.352  10.182 -0.6402  0.1493 -1.0009
  393TMC3    H2 5878   2.846   2.290  10.504  2.0276 -0.8246 -0.9396
  393TMC3    C7 5879   3.088   2.221  10.406  0.1976 -0.2103  0.0487
  393TMC3    C8 5880   2.676   2.477  10.443 -0.1532 -0.1391  0.2123
  393TMC3    O1 5881   3.045   2.134  10.481  0.2125  0.2622 -0.1230
  393TMC3    O2 5882   2.672   2.444  10.563 -0.0697 -0.1345 -0.4311
  394TMC3    C1 5883   0.242   3.049  11.203  0.1008 -0.0043 -0.0852
  394TMC3    C2 5884   0.140   3.003  11.124 -0.3135 -0.5703 -0.3025
  394TMC3    C3 5885   0.100   3.091  11.020 -0.2157 -0.3284  0.1723
  394TMC3    C4 5886   0.315   3.162  11.170  0.8160 -0.4713  0.4574
  394TMC3    C5 5887   0.287   3.235  11.067 -0.4813  0.2183 -0.1544
  394TMC3    C6 5888   0.177   3.205  10.989 -1.1082  0.3790  0.0292
  394TMC3     C 5889   0.245   2.989  11.337  0.0811 -0.4134 -0.0352
  394TMC3     O 5890   0.190   2.884  11.362  0.3769  0.5269  0.4838
  394TMC3     H 5891   0.091   2.907  11.128 -0.9000 -0.1942  1.5262
  394TMC3    H1 5892   0.397   3.197  11.231 -1.0748 -0.7512  3.1884
  394TMC3    H2 5893   0.157   3.259  10.896 -1.4709  0.8477  0.3802
  394TMC3    C7 5894   0.392   3.279  10.976 -0.7099  0.8025  0.4203
  394TMC3    C8 5895   0.055   3.023  10.900 -0.8924 -0.9737 -0.0936
  394TMC3    O1 5896   0.363   3.349  10.881  0.0570  0.6539 -0.1068
  394TMC3    O2 5897   4.687   3.071  10.837 -0.2376 -0.5488 -0.0268
  395TMC3    C1 5898   3.789   0.236  14.991 -0.7165  0.8562 -0.8730
  395TMC3    C2 5899   3.727   0.288  15.105  0.0813  0.5300 -0.3508
  395TMC3    C3 5900   3.786   0.394  15.171 -0.9520  0.2310 -0.2359
  395TMC3    C4 5901   3.904   0.293  14.939  0.5728 -0.3811 -0.1150
  395TMC3    C5 5902   3.962   0.389  15.012  0.4313  0.2976  0.3961
  395TMC3    C6 5903   3.901   0.447  15.124 -0.1390 -0.4562  0.1141
  395TMC3     C 5904   3.724   0.147  14.900  0.0030 -0.4602  0.0523
  395TMC3     O 5905   3.755   0.168  14.784  0.3164  0.4281 -0.0849
  395TMC3     H 5906   3.630   0.247  15.128 -0.0005  0.8370 -0.1449
  395TMC3    H1 5907   3.948   0.251  14.849  0.4097 -0.2599 -0.2520
  395TMC3    H2 5908   3.963   0.519  15.175  0.2746 -0.4986 -0.3264
  395TMC3    C7 5909   4.098   0.442  14.985 -0.4482 -0.6555 -0.7803
  395TMC3    C8 5910   3.741   0.412  15.302 -0.4565  0.5539 -0.3647
  395TMC3    O1 5911   4.103   0.558  15.012 -0.0987  0.3341  0.1178
  395TMC3    O2 5912   3.722   0.522  15.351  0.1327 -0.1842  0.6273
  396MPD2     C 5913   3.792   1.187  17.018 -0.1065 -0.1420 -0.9234
  396MPD2    C1 5914   3.917   1.182  17.083 -0.0652 -0.2004  0.4974
  396MPD2    C2 5915   4.018   1.248  17.021 -0.0130  0.2836 -0.2906
  396MPD2    C3 5916   3.993   1.341  16.916  0.3335 -0.7111  0.7838
  396MPD2    C4 5917   3.863   1.356  16.879 -0.1928 -0.6436  0.8249
  396MPD2    C5 5918   3.763   1.277  16.926  0.1404 -0.3531 -0.3095
  396MPD2     H 5919   4.122   1.242  17.048 -0.5736 -0.0805  1.8140
  396MPD2    H1 5920   3.834   1.424  16.799  0.4247 -0.6604  0.5841
  396MPD2    H2 5921   3.708   1.131  17.057 -0.7280  2.2783  1.2135
  396MPD2    H3 5922   3.664   1.295  16.886 -0.3039 -1.0974  0.4395
  396MPD2     N 5923   4.101   1.407  16.853 -0.3348  0.4539 -0.2137
  396MPD2    H5 5924   4.193   1.417  16.894 -0.2079 -1.4041 -0.0591
  396MPD2    N1 5925   3.944   1.095  17.187 -0.2004 -0.5824 -0.3887
  396MPD2    H7 5926   3.864   1.046  17.228 -0.0848  1.5287  2.3297
  397TMC3    C1 5927   4.067   0.982  17.348  0.1785 -0.1279  0.3434
  397TMC3    C2 5928   4.185   0.970  17.413  1.3788  0.6225  0.4529
  397TMC3    C3 5929   4.247   0.845  17.419  0.4207  0.1845 -0.6127
  397TMC3    C4 5930   4.001   0.873  17.310  0.4002  0.0709  0.0133
  397TMC3    C5 5931   4.058   0.749  17.338  0.1585 -0.5787  0.2203
  397TMC3    C6 5932   4.178   0.728  17.398  0.4822 -0.0647  0.0591
  397TMC3     C 5933   4.059   1.095  17.253  0.2436 -0.0976  0.3383
  397TMC3     O 5934   4.143   1.185  17.261  0.0660  0.1642 -0.6975
  397TMC3     H 5935   4.249   1.058  17.419  1.3489  0.7627 -1.3620
  397TMC3    H1 5936   3.909   0.871  17.253  1.0115  0.1045 -0.9554
  397TMC3    H2 5937   4.238   0.638  17.398  1.0117  0.2998 -1.8202
  397TMC3    C7 5938   3.969   0.639  17.328  0.2253 -0.2722 -0.4439
  397TMC3    C8 5939   4.386   0.830  17.449 -0.4091  0.4792 -0.7882
  397TMC3    O1 5940   3.895   0.633  17.232  0.3716  0.1312  0.0068
  397TMC3    O2 5941   4.425   0.723  17.489 -0.3675  0.0726 -0.4584
  398MPD2     C 5942   1.946   2.013   0.303 -0.3341  0.6487 -0.5191
  398MPD2    C1 5943   2.009   1.951   0.407 -0.2974 -0.8285  0.3861
  398MPD2    C2 5944   2.118   2.005   0.467  0.4004  0.4482  0.0363
  398MPD2    C3 5945   2.185   2.114   0.417 -0.1214  0.0566  0.1927
  398MPD2    C4 5946   2.125   2.171   0.306 -0.0902  1.0225 -0.0095
  398MPD2    C5 5947   2.006   2.127   0.254 -0.0650 -0.6491 -0.3774
  398MPD2     H 5948   2.167   1.956   0.550  1.2757  0.3609 -0.5253
  398MPD2    H1 5949   2.176   2.255   0.259  0.8503  0.0511 -0.7351
  398MPD2    H2 5950   1.853   1.977   0.260 -0.9273  2.2299 -0.5633
  398MPD2    H3 5951   1.964   2.166   0.163 -1.3016 -1.5081 -0.1678
  398MPD2     N 5952   2.307   2.152   0.473  0.2638  0.1928  0.2229
  398MPD2    H5 5953   2.342   2.091   0.547 -0.9847  0.1610  0.7938
  398MPD2    N1 5954   1.955   1.831   0.462  0.3366  0.8373 -0.2623
  398MPD2    H7 5955   1.981   1.806   0.557  1.0467  0.1009 -0.6498
  399TMC3    C1 5956   1.870   1.612   0.468 -0.2693 -1.0112  0.3207
  399TMC3    C2 5957   1.962   1.562   0.552  0.5528 -0.3874 -0.2170
  399TMC3    C3 5958   1.970   1.427   0.567  0.4824 -0.3467 -0.1438
  399TMC3    C4 5959   1.781   1.532   0.406 -0.5252 -0.2459 -0.2287
  399TMC3    C5 5960   1.790   1.402   0.432  0.0455 -0.4276  0.2759
  399TMC3    C6 5961   1.882   1.343   0.513 -0.4175  0.5968  0.1325
  399TMC3     C 5962   1.884   1.739   0.394 -0.2383 -0.3834 -0.5592
  399TMC3     O 5963   1.853   1.740   0.277  0.4045  0.5819  0.4298
  399TMC3     H 5964   2.036   1.620   0.605  0.4772  1.2498 -1.9155
  399TMC3    H1 5965   1.706   1.579   0.344 -1.4666 -0.2653  0.8880
  399TMC3    H2 5966   1.903   1.237   0.498  3.8077  1.4456  0.2517
  399TMC3    C7 5967   1.714   1.307   0.350  0.0447  0.0315  0.0928
  399TMC3    C8 5968   2.105   1.384   0.604  0.0973  0.3439  0.0730
  399TMC3    O1 5969   1.671   1.207   0.408 -0.0558 -0.1564 -0.0796
  399TMC3    O2 5970   2.190   1.465   0.577 -0.4017 -0.0878  0.0358
  400TMC3    C1 5971   0.691   0.666  17.271 -0.1404 -0.7605 -0.1239
  400TMC3    C2 5972   0.581   0.665  17.188  0.2927 -0.2712 -0.4827
  400TMC3    C3 5973   0.549   0.793  17.135  0.2709  0.0387  0.3210
  400TMC3    C4 5974   0.764   0.775  17.306 -0.5079 -1.0355 -0.1988
  400TMC3    C5 5975   0.728   0.895  17.241 -0.1175 -0.2115  0.0654
  400TMC3    C6 5976   0.627   0.899  17.151  0.2198 -0.7426  0.9996
  400TMC3     C 5977   0.683   0.551  17.366  0.4081 -0.3132  0.8797
  400TMC3     O 5978   0.600   0.462  17.344 -0.0406  0.7078  0.1950
  400TMC3     H 5979   0.519   0.577  17.184  2.6805 -2.0230  1.2563
  400TMC3    H1 5980   0.855   0.769  17.364 -0.7375  0.5798  0.3274
  400TMC3    H2 5981   0.610   0.989  17.093 -1.4238 -0.2258  2.2709
  400TMC3    C7 5982   0.796   1.019  17.272 -0.1187 -0.5083  0.6134
  400TMC3    C8 5983   0.442   0.806  17.034  0.2147 -0.0048 -0.0741
  400TMC3    O1 5984   0.907   1.010  17.328 -0.0534  0.1892  0.1352
  400TMC3    O2 5985   0.393   0.914  17.003 -0.3747  0.2599  0.1189
  401MPD2     C 5986   3.779   3.847   1.296 -0.4013 -0.2239 -0.8078
  401MPD2    C1 5987   3.848   3.833   1.185 -0.2355 -0.1999  0.6037
  401MPD2    C2 5988   3.790   3.788   1.068  0.1978 -0.0035  0.3555
  401MPD2    C3 5989   3.663   3.746   1.084  0.7508 -0.1253  0.0239
  401MPD2    C4 5990   3.589   3.766   1.197 -0.2288  0.5517 -0.2820
  401MPD2    C5 5991   3.645   3.828   1.302 -0.5007 -0.2264 -0.4407
  401MPD2     H 5992   3.841   3.770   0.974 -0.7332  0.0382 -0.1683
  401MPD2    H1 5993   3.492   3.719   1.197  0.6755 -1.3151 -2.0103
  401MPD2    H2 5994   3.815   3.893   1.387 -2.1080 -4.0915  1.8019
  401MPD2    H3 5995   3.578   3.844   1.385 -0.5213 -2.3469 -0.0487
  401MPD2     N 5996   3.594   3.664   0.995 -0.2379 -0.1619  0.7549
  401MPD2    H5 5997   3.497   3.640   1.013 -0.3010  0.5127  1.3332
  401MPD2    N1 5998   3.983   3.859   1.177  0.9460  0.7203  0.3091
  401MPD2    H7 5999   4.033   3.851   1.088  0.7605 -0.6332  0.3219
  402TMC3    C1 6000   3.582   3.464   0.879  0.2084 -0.0848 -0.7364
  402TMC3    C2 6001   3.536   3.396   0.982  0.6083  0.0543  0.5065
  402TMC3    C3 6002   3.521   3.258   0.967  0.3808  0.7184  0.1542
  402TMC3    C4 6003   3.623   3.402   0.761 -0.4638 -0.1152  0.5696
  402TMC3    C5 6004   3.609   3.262   0.752 -0.3227 -0.0929  0.3870
  402TMC3    C6 6005   3.559   3.184   0.856  0.0847  0.3988  0.3074
  402TMC3     C 6006   3.661   3.584   0.901  1.1459 -0.0539 -0.4598
  402TMC3     O 6007   3.777   3.585   0.853 -0.1270 -0.0851  0.3662
  402TMC3     H 6008   3.506   3.434   1.079 -1.9272 -0.7134  0.0219
  402TMC3    H1 6009   3.657   3.460   0.676  2.2549 -1.1338  0.9541
  402TMC3    H2 6010   3.555   3.076   0.843 -3.0971  0.4917  0.6531
  402TMC3    C7 6011   3.710   3.196   0.678 -0.0733 -0.0991  0.4929
  402TMC3    C8 6012   3.537   3.182   1.098  0.2792  0.0668 -0.4239
  402TMC3    O1 6013   3.694   3.082   0.648 -0.7070 -0.1775  0.2082
  402TMC3    O2 6014   3.596   3.074   1.097  0.2256 -0.1329 -0.4625
  403MPD2     C 6015   2.074   2.786  13.715 -0.5875 -0.7534  0.5277
  403MPD2    C1 6016   2.107   2.658  13.765  0.1795 -0.1815 -0.8291
  403MPD2    C2 6017   2.183   2.638  13.876 -0.2318 -0.0688 -0.0397
  403MPD2    C3 6018   2.252   2.743  13.926  0.0150  0.3565 -0.1558
  403MPD2    C4 6019   2.233   2.873  13.868  0.0002  0.0174  0.2662
  403MPD2    C5 6020   2.148   2.886  13.765  0.2557  0.2331 -0.9068
  403MPD2     H 6021   2.211   2.538  13.907 -0.4037 -0.4484 -1.0976
  403MPD2    H1 6022   2.286   2.959  13.907  1.4062 -1.4027  1.4788
  403MPD2    H2 6023   1.990   2.813  13.651  1.4352  1.6657 -1.1071
  403MPD2    H3 6024   2.127   2.980  13.715  1.4465 -1.0200 -3.7734
  403MPD2     N 6025   2.333   2.728  14.038  0.1344 -0.3346  0.3839
  403MPD2    H5 6026   2.343   2.634  14.073 -0.9727  0.9685  4.2354
  403MPD2    N1 6027   2.041   2.547  13.697  1.0640  0.8046  0.1239
  403MPD2    H7 6028   1.983   2.574  13.618  0.0011 -1.1392  0.2503
  404TMC3    C1 6029   1.971   2.323  13.637  0.4578  0.1134  0.3688
  404TMC3    C2 6030   1.957   2.195  13.685  0.3974  0.0579 -0.3045
  404TMC3    C3 6031   1.981   2.083  13.608  0.1635  0.1178  0.0843
  404TMC3    C4 6032   2.000   2.339  13.506  0.7916  0.1005  0.3779
  404TMC3    C5 6033   2.025   2.229  13.433  0.8005 -0.5594 -1.1959
  404TMC3    C6 6034   2.018   2.096  13.479  0.5491  0.2814  0.3730
  404TMC3     C 6035   2.055   2.410  13.724  0.0094  0.0592 -0.5955
  404TMC3     O 6036   2.133   2.346  13.789 -0.6127 -0.2502 -0.0489
  404TMC3     H 6037   1.950   2.180  13.792 -0.7895 -2.3757 -0.7190
  404TMC3    H1 6038   2.030   2.436  13.468  0.1916 -0.3640 -1.2437
  404TMC3    H2 6039   2.041   2.009  13.419 -0.1959  0.5186 -0.2566
  404TMC3    C7 6040   2.083   2.251  13.304 -0.1601  1.0932  0.5698
  404TMC3    C8 6041   2.031   1.963  13.675  0.5813 -0.6635  0.5982
  404TMC3    O1 6042   2.143   2.360  13.289  0.1153  0.4757 -0.6603
  404TMC3    O2 6043   2.070   1.871  13.603 -0.3975 -0.5077  0.4517
  405MPD2     C 6044   2.325   2.978  14.849 -0.2712  0.3928  0.3596
  405MPD2    C1 6045   2.275   2.960  14.723 -0.4012  0.3655  0.1916
  405MPD2    C2 6046   2.230   3.072  14.654  0.0396  0.1569  0.2993
  405MPD2    C3 6047   2.240   3.199  14.709 -0.4410  0.5071  0.1120
  405MPD2    C4 6048   2.284   3.214  14.836 -1.0494  0.6244  0.3412
  405MPD2    C5 6049   2.338   3.104  14.899 -0.3807 -0.0529 -0.0050
  405MPD2     H 6050   2.195   3.057  14.552 -0.1805 -0.5456  0.4791
  405MPD2    H1 6051   2.301   3.315  14.873  1.9548  0.2549 -0.0491
  405MPD2    H2 6052   2.334   2.891  14.913 -1.3052  1.2255  1.6271
  405MPD2    H3 6053   2.367   3.119  15.002  0.1906 -0.5797 -0.0897
  405MPD2     N 6054   2.191   3.304  14.626  0.0014 -0.4144  0.5358
  405MPD2    H5 6055   2.153   3.268  14.539  2.4214 -0.5703 -0.4348
  405MPD2    N1 6056   2.261   2.830  14.669  0.2475  0.3521 -0.4337
  405MPD2    H7 6057   2.290   2.748  14.722 -0.2207  1.4433  1.5226
  406TMC3    C1 6058   1.932   3.616  14.477 -0.1616 -0.2490  0.8052
  406TMC3    C2 6059   1.958   3.582  14.347 -0.1380  0.2022  0.3901
  406TMC3    C3 6060   2.071   3.506  14.317 -0.7701 -0.1494  0.1411
  406TMC3    C4 6061   2.017   3.583  14.576  0.0460 -0.3939 -0.1130
  406TMC3    C5 6062   2.126   3.511  14.544  0.3810 -0.6622 -0.4697
  406TMC3    C6 6063   2.160   3.465  14.420 -0.3974  1.0138 -0.9556
  406TMC3     C 6064   1.800   3.642  14.511  0.7090  0.2470 -0.7681
  406TMC3     O 6065   1.740   3.719  14.438  0.0488  0.2171 -0.3141
  406TMC3     H 6066   1.887   3.600  14.268 -0.2719  1.4371  0.7959
  406TMC3    H1 6067   2.004   3.619  14.678  0.2467 -1.0306  0.1418
  406TMC3    H2 6068   2.255   3.414  14.409 -0.1826  1.2251 -0.1118
  406TMC3    C7 6069   2.180   3.441  14.656 -0.1588 -0.4143  0.7185
  406TMC3    C8 6070   2.066   3.422  14.201 -0.1071  0.4429  0.8235
  406TMC3    O1 6071   2.179   3.490  14.766 -0.8881 -0.5608 -0.3608
  406TMC3    O2 6072   1.981   3.444  14.119  0.3283 -0.0763 -0.5484
  407MPD2     C 6073   0.670   4.266   9.682 -0.0275  0.1942  0.1049
  407MPD2    C1 6074   0.773   4.200   9.743 -0.0154  0.0969  0.1561
  407MPD2    C2 6075   0.795   4.220   9.881  0.3638  0.4434  0.3384
  407MPD2    C3 6076   0.713   4.311   9.959 -0.2506 -0.3393  0.4991
  407MPD2    C4 6077   0.631   4.394   9.884  0.0905  0.4097 -0.5926
  407MPD2    C5 6078   0.611   4.371   9.746  0.1587 -0.2154 -0.4330
  407MPD2     H 6079   0.874   4.165   9.931  0.8860 -0.1575 -1.1223
  407MPD2    H1 6080   0.563   4.466   9.929  1.2764  0.6202  0.8459
  407MPD2    H2 6081   0.650   4.261   9.575  1.2513 -0.7636 -0.0880
  407MPD2    H3 6082   0.531   4.419   9.691 -0.8675 -0.0318  1.1940
  407MPD2     N 6083   0.720   4.326  10.100 -0.0111 -0.3688 -0.6171
  407MPD2    H5 6084   0.654   4.396  10.133 -0.1025 -0.2091 -1.1354
  407MPD2    N1 6085   0.847   4.101   9.674 -0.0416  0.5678 -0.1044
  407MPD2    H7 6086   0.911   4.046   9.731  0.4644  2.4352  1.1260
  408TMC3    C1 6087   0.920   3.948   9.508  0.2612  0.1076 -0.9309
  408TMC3    C2 6088   1.050   3.973   9.548 -0.2952  0.1808  0.2902
  408TMC3    C3 6089   1.141   3.869   9.522 -0.1504  0.4190  0.7960
  408TMC3    C4 6090   0.876   3.829   9.449 -0.0270 -0.5833 -0.0334
  408TMC3    C5 6091   0.969   3.738   9.422  0.1694  0.3657 -0.7766
  408TMC3    C6 6092   1.099   3.751   9.462 -0.0978 -0.0783  0.8495
  408TMC3     C 6093   0.822   4.053   9.550 -0.2016 -0.3902  0.8100
  408TMC3     O 6094   0.725   4.080   9.478  0.1100 -0.2706  0.4763
  408TMC3     H 6095   1.072   4.064   9.602  0.3879  0.1261  0.1040
  408TMC3    H1 6096   0.771   3.802   9.461  0.3023 -1.5096  0.7450
  408TMC3    H2 6097   1.175   3.675   9.451 -0.3574 -0.3368  0.8419
  408TMC3    C7 6098   0.922   3.607   9.369  0.0562 -0.0665 -1.0262
  408TMC3    C8 6099   1.274   3.872   9.576  0.1542  0.5378 -0.1489
  408TMC3    O1 6100   0.997   3.510   9.389  0.4435 -0.6106 -0.4224
  408TMC3    O2 6101   1.296   3.790   9.663 -0.5002  0.7508  0.3484
  409MPD2     C 6102   4.083   0.274  17.078  0.2933  0.4030  0.2367
  409MPD2    C1 6103   4.167   0.305  17.191 -0.3400 -0.3759  0.6142
  409MPD2    C2 6104   4.237   0.423  17.191 -0.2089  0.2654  0.4005
  409MPD2    C3 6105   4.244   0.503  17.073 -0.0637  0.3165 -0.0344
  409MPD2    C4 6106   4.159   0.472  16.968 -0.4314  0.7526 -0.1609
  409MPD2    C5 6107   4.079   0.360  16.969 -1.0195 -0.7919  0.6320
  409MPD2     H 6108   4.296   0.443  17.280  0.7390 -0.6712 -0.0145
  409MPD2    H1 6109   4.153   0.526  16.874  1.3049  0.0005 -0.7191
  409MPD2    H2 6110   4.026   0.182  17.071 -0.0271  0.5501  0.9530
  409MPD2    H3 6111   4.012   0.344  16.885  2.1632 -0.6769 -1.9234
  409MPD2     N 6112   4.329   0.610  17.057 -0.6133 -0.1892 -0.0005
  409MPD2    H5 6113   4.324   0.670  16.975  1.9737  2.0319  1.4769
  409MPD2    N1 6114   4.178   0.215  17.301  0.0921  0.2666 -0.2494
  409MPD2    H7 6115   4.243   0.235  17.376  0.0140 -0.2414 -0.0484
  410TMC3    C1 6116   4.542   0.719  17.082 -0.2128 -1.2028  0.5750
  410TMC3    C2 6117   4.651   0.742  17.166 -0.0464 -0.3157 -0.0187
  410TMC3    C3 6118   0.010   0.843  17.126  0.0168 -0.3974  0.2882
  410TMC3    C4 6119   4.518   0.789  16.970 -0.7253  0.0272  0.5718
  410TMC3    C5 6120   4.606   0.882  16.939  0.1807 -0.0580 -0.8169
  410TMC3    C6 6121   4.709   0.922  17.020  0.3198 -0.2291 -0.0994
  410TMC3     C 6122   4.449   0.615  17.120  0.5812 -0.9102  0.4491
  410TMC3     O 6123   4.490   0.550  17.216  0.2902 -0.0514  0.2004
  410TMC3     H 6124   4.653   0.683  17.257  0.0680 -0.0911  0.1216
  410TMC3    H1 6125   4.423   0.784  16.919 -2.3077 -0.2652  3.5519
  410TMC3    H2 6126   0.047   1.004  16.988 -0.8235  1.2947  1.5582
  410TMC3    C7 6127   4.596   0.926  16.799  0.5012 -0.5375 -0.7159
  410TMC3    C8 6128   0.127   0.859  17.211  0.2125  0.5923 -0.1197
  410TMC3    O1 6129   4.519   0.853  16.738  0.1656 -0.2030 -0.1862
  410TMC3    O2 6130   0.182   0.967  17.225  0.0009  0.0596 -0.2821
  411MPD2     C 6131   4.633   1.201  14.655 -0.2334 -0.1968 -0.1267
  411MPD2    C1 6132   4.503   1.174  14.641  0.3607 -0.4552  0.0113
  411MPD2    C2 6133   4.466   1.048  14.618  0.2181  0.1136  0.0577
  411MPD2    C3 6134   4.548   0.937  14.617 -0.3432 -0.1645  0.6191
  411MPD2    C4 6135   4.681   0.959  14.653 -0.5161 -0.2142  0.4091
  411MPD2    C5 6136   4.719   1.089  14.670  0.0850  0.5579  0.2280
  411MPD2     H 6137   4.359   1.036  14.602  0.3084 -1.1666  0.4116
  411MPD2    H1 6138   0.035   0.885  14.638  0.1360  0.8649 -1.4179
  411MPD2    H2 6139   4.672   1.302  14.665  1.4514 -0.6804 -1.7991
  411MPD2    H3 6140   0.100   1.109  14.678  0.2536  0.2853 -1.3106
  411MPD2     N 6141   4.503   0.808  14.600  0.4037 -0.6028  0.0249
  411MPD2    H5 6142   4.567   0.735  14.570  0.9700 -0.0413 -0.1430
  411MPD2    N1 6143   4.410   1.274  14.649 -0.0053  0.0922  0.5848
  411MPD2    H7 6144   4.312   1.250  14.637 -0.4303  2.6142 -0.9457
  412TMC3    C1 6145   4.340   0.629  14.599 -1.0627 -0.1623  0.0155
  412TMC3    C2 6146   4.213   0.590  14.648  0.4921  0.0700  0.3085
  412TMC3    C3 6147   4.149   0.481  14.588  0.1494 -0.5131 -0.3423
  412TMC3    C4 6148   4.398   0.567  14.487  0.0658 -0.3758 -0.1619
  412TMC3    C5 6149   4.340   0.453  14.442 -0.2237  0.9177  0.0558
  412TMC3    C6 6150   4.218   0.412  14.495  0.5415 -0.8201 -0.0788
  412TMC3     C 6151   4.371   0.770  14.635  0.3075  0.7746 -0.5762
  412TMC3     O 6152   4.285   0.834  14.696 -0.1434  0.2898 -0.4097
  412TMC3     H 6153   4.161   0.645  14.726  1.7517  0.0349  1.1568
  412TMC3    H1 6154   4.503   0.579  14.465  0.1596  0.2263  0.5650
  412TMC3    H2 6155   4.163   0.333  14.446 -0.9736  0.7094 -0.8470
  412TMC3    C7 6156   4.335   0.446  14.301  0.4361  0.4907 -0.5206
  412TMC3    C8 6157   4.004   0.491  14.572  0.1591 -0.1971  0.2517
  412TMC3    O1 6158   4.330   0.330  14.258  0.1142  0.4297  0.1389
  412TMC3    O2 6159   3.953   0.598  14.592 -0.1602  0.6957 -0.5963
  413MPD2     C 6160   1.539   3.860  15.885 -0.5662 -0.2785 -0.1736
  413MPD2    C1 6161   1.528   3.902  15.750  0.4732  0.1217 -0.2260
  413MPD2    C2 6162   1.623   3.852  15.664 -0.8883  0.0201 -0.1487
  413MPD2    C3 6163   1.715   3.755  15.702 -0.0977  0.3650  0.4555
  413MPD2    C4 6164   1.718   3.708  15.836  0.5381  0.4806 -0.1188
  413MPD2    C5 6165   1.633   3.767  15.928  0.2989 -0.3515 -0.3413
  413MPD2     H 6166   1.617   3.875  15.558 -0.9412  1.5436  0.1862
  413MPD2    H1 6167   1.792   3.635  15.865 -2.0786 -2.6201 -1.2074
  413MPD2    H2 6168   1.462   3.889  15.955 -0.0341  0.5947  0.0504
  413MPD2    H3 6169   1.621   3.732  16.030 -0.9724  1.0017 -0.0117
  413MPD2     N 6170   1.814   3.706  15.620  0.4162 -0.0337 -0.3273
  413MPD2    H5 6171   1.882   3.640  15.658  1.3165  1.5475  0.8380
  413MPD2    N1 6172   1.418   3.982  15.706  0.1879  0.1913  0.1227
  413MPD2    H7 6173   1.357   4.014  15.781 -0.3815 -0.6383  0.0203
  414TMC3    C1 6174   1.938   3.648  15.439 -0.1134  0.2023  0.7785
  414TMC3    C2 6175   1.964   3.519  15.482  0.0710  0.6991  0.5314
  414TMC3    C3 6176   2.029   3.433  15.397  0.4914  0.5348 -0.3486
  414TMC3    C4 6177   1.982   3.688  15.313 -0.8409 -0.3209  0.5293
  414TMC3    C5 6178   2.069   3.603  15.248 -0.3126  0.4015  0.2685
  414TMC3    C6 6179   2.086   3.472  15.277 -0.6162 -0.6106 -0.1487
  414TMC3     C 6180   1.835   3.738  15.490 -0.8195 -1.2481 -0.0743
  414TMC3     O 6181   1.781   3.817  15.411 -0.4257  0.3578 -0.2643
  414TMC3     H 6182   1.944   3.488  15.584 -2.0287  0.1819 -0.0161
  414TMC3    H1 6183   1.955   3.785  15.272 -0.2298 -0.1710  0.4721
  414TMC3    H2 6184   2.116   3.398  15.204  1.1433 -0.2420  0.2093
  414TMC3    C7 6185   2.093   3.646  15.107 -0.0814 -0.4780 -0.6181
  414TMC3    C8 6186   2.077   3.322  15.464 -0.1439 -0.1406  0.4605
  414TMC3    O1 6187   2.005   3.709  15.058 -0.2511 -0.1985 -0.0538
  414TMC3    O2 6188   2.008   3.266  15.546  0.9368 -0.4621  0.5401
  415TMC3    C1 6189   2.719   1.575  10.574 -0.1691 -0.7455  0.5682
  415TMC3    C2 6190   2.811   1.678  10.541 -0.4293  0.2638  0.1288
  415TMC3    C3 6191   2.886   1.656  10.434  0.5137 -0.0509 -0.5212
  415TMC3    C4 6192   2.722   1.456  10.517 -0.5572  0.2239  0.1583
  415TMC3    C5 6193   2.798   1.445  10.407 -0.1311  1.0016  0.0178
  415TMC3    C6 6194   2.885   1.541  10.365 -0.6968 -0.1805  0.3104
  415TMC3     C 6195   2.633   1.602  10.693  0.3630 -0.8629 -0.2822
  415TMC3     O 6196   2.669   1.702  10.755  0.5616 -0.3616 -0.4163
  415TMC3     H 6197   2.807   1.778  10.581 -1.9561  0.0829  0.4355
  415TMC3    H1 6198   2.656   1.377  10.551  1.2407 -1.1192  0.4729
  415TMC3    H2 6199   2.949   1.514  10.282 -0.3195 -0.9300  0.8419
  415TMC3    C7 6200   2.820   1.309  10.363  0.1660 -0.0728 -0.4940
  415TMC3    C8 6201   2.890   1.775  10.348  0.0360 -0.4466 -0.2213
  415TMC3    O1 6202   2.934   1.289  10.320 -0.0718  0.2829  0.4767
  415TMC3    O2 6203   2.811   1.865  10.368  0.4402  0.7394  0.2256
  416MPD2     C 6204   4.291   1.414  11.623  0.1531 -0.1356  0.2138
  416MPD2    C1 6205   4.195   1.358  11.705 -0.2928 -0.6406 -0.0268
  416MPD2    C2 6206   4.212   1.219  11.740 -0.4550 -0.1761  0.3778
  416MPD2    C3 6207   4.317   1.146  11.681  0.2492 -0.4475 -0.1693
  416MPD2    C4 6208   4.410   1.210  11.604 -0.2831 -0.1995  0.7399
  416MPD2    C5 6209   4.388   1.337  11.566 -0.4731  0.4969 -0.0415
  416MPD2     H 6210   4.134   1.172  11.797  0.2549 -0.7025  0.9115
  416MPD2    H1 6211   4.471   1.159  11.531 -2.5893 -1.7771 -0.0822
  416MPD2    H2 6212   4.270   1.511  11.578  0.2247  0.1025  0.6988
  416MPD2    H3 6213   4.455   1.389  11.499 -1.5131  1.4331 -0.3453
  416MPD2     N 6214   4.318   1.005  11.672  0.4572 -0.0126  0.1145
  416MPD2    H5 6215   4.394   0.963  11.620  1.1078  2.1531 -0.7002
  416MPD2    N1 6216   4.085   1.438  11.740 -0.0040  0.5547  0.6896
  416MPD2    H7 6217   4.084   1.535  11.710 -0.0900  0.0505 -0.9332
  417TMC3    C1 6218   3.888   1.484  11.872 -0.7355  0.2566 -0.6622
  417TMC3    C2 6219   3.807   1.461  11.979 -0.3008  0.2860 -0.5979
  417TMC3    C3 6220   3.678   1.496  11.966  0.3887  0.1334  0.4423
  417TMC3    C4 6221   3.825   1.529  11.757 -0.2139  0.0976 -0.0355
  417TMC3    C5 6222   3.700   1.563  11.757  0.0272  0.1853 -0.4879
  417TMC3    C6 6223   3.616   1.556  11.865  0.7468 -0.3498  0.1501
  417TMC3     C 6224   3.999   1.403  11.850 -0.4671  0.2702  0.4393
  417TMC3     O 6225   4.006   1.311  11.929  0.6297 -0.0707  0.0205
  417TMC3     H 6226   3.844   1.431  12.077  0.2705  0.2797 -0.8187
  417TMC3    H1 6227   3.877   1.546  11.664  1.4539  2.8432  1.3950
  417TMC3    H2 6228   3.513   1.588  11.863  0.3976 -1.4790 -0.0826
  417TMC3    C7 6229   3.642   1.594  11.623 -0.4017 -0.1386  0.4823
  417TMC3    C8 6230   3.599   1.517  12.085 -0.5395  0.2513 -0.3970
  417TMC3    O1 6231   3.717   1.643  11.541  0.3600  0.0251  0.1598
  417TMC3    O2 6232   3.661   1.523  12.192 -0.3890 -0.0109  0.3012
  418TMC3    C1 6233   2.691   2.090   0.352 -0.2140 -0.1860 -0.0367
  418TMC3    C2 6234   2.599   2.193   0.352 -0.0144  0.4433  0.1925
  418TMC3    C3 6235   2.530   2.216   0.463 -0.0554 -0.1138  0.0092
  418TMC3    C4 6236   2.717   2.013   0.458  0.2705 -0.1592  0.5068
  418TMC3    C5 6237   2.639   2.034   0.563 -0.2974 -0.3358  0.3180
  418TMC3    C6 6238   2.543   2.128   0.570 -0.3176  1.0617 -0.8706
  418TMC3     C 6239   2.736   2.045   0.230  0.1958 -0.5037  0.8992
  418TMC3     O 6240   2.762   2.126   0.142  0.3797  0.1569  0.2395
  418TMC3     H 6241   2.589   2.262   0.269  0.9669  0.4151  0.0445
  418TMC3    H1 6242   2.801   1.945   0.461 -0.3599 -0.9502  0.3308
  418TMC3    H2 6243   2.481   2.138   0.658  1.5806  0.2063  0.5771
  418TMC3    C7 6244   2.661   1.943   0.674 -0.6605 -0.1937 -0.1995
  418TMC3    C8 6245   2.395   2.249   0.427  0.2179  0.1495  0.5324
  418TMC3    O1 6246   2.696   1.829   0.653  0.5856  0.0535  0.1271
  418TMC3    O2 6247   2.375   2.322   0.333 -0.5995  0.3668  0.1851
  419MPD2     C 6248   1.495   0.621  12.501  0.4402  0.8874  0.1762
  419MPD2    C1 6249   1.382   0.702  12.477  0.3647 -0.0401  0.9086
  419MPD2    C2 6250   1.280   0.702  12.564  0.5671  0.1379  0.1405
  419MPD2    C3 6251   1.284   0.621  12.677  0.4312 -0.3780  0.1271
  419MPD2    C4 6252   1.393   0.544  12.708 -0.6264  0.4538 -0.2625
  419MPD2    C5 6253   1.496   0.541  12.613 -0.1026  0.1064 -0.3993
  419MPD2     H 6254   1.185   0.753  12.547  1.4050  1.1095 -1.6010
  419MPD2    H1 6255   1.405   0.488  12.800 -1.7356 -0.7788 -0.8598
  419MPD2    H2 6256   1.587   0.623  12.445  0.5313 -2.1170  0.2141
  419MPD2    H3 6257   1.594   0.502  12.634  0.0789  0.8767  0.1914
  419MPD2     N 6258   1.171   0.635  12.762  0.0701 -0.3625 -0.1060
  419MPD2    H5 6259   1.101   0.706  12.741  0.4634  0.4556  1.3489
  419MPD2    N1 6260   1.369   0.774  12.354 -0.4861 -0.7191 -0.5673
  419MPD2    H7 6261   1.290   0.837  12.343 -0.8244 -1.0835 -0.2406
  420TMC3    C1 6262   1.016   0.569  12.914  0.5110  0.3837 -0.5473
  420TMC3    C2 6263   0.924   0.641  12.848  0.2822  0.5028 -0.0048
  420TMC3    C3 6264   0.800   0.664  12.909 -0.0870 -0.5619 -0.3118
  420TMC3    C4 6265   0.994   0.525  13.043 -0.3007  0.4295  0.5456
  420TMC3    C5 6266   0.871   0.555  13.100  0.2841  0.4215  0.1870
  420TMC3    C6 6267   0.777   0.627  13.037 -0.7689  0.3355  0.1038
  420TMC3     C 6268   1.143   0.543  12.858  0.3011  0.2574  0.0577
  420TMC3     O 6269   1.194   0.438  12.892  0.0038  0.2039 -0.5676
  420TMC3     H 6270   0.936   0.681  12.748  0.9378  1.6724  0.5376
  420TMC3    H1 6271   1.082   0.490  13.094  0.2191  2.1360  0.8042
  420TMC3    H2 6272   0.685   0.663  13.081  0.1406  0.1316  2.1571
  420TMC3    C7 6273   0.860   0.538  13.244 -0.9329 -0.0195  0.3544
  420TMC3    C8 6274   0.713   0.753  12.839 -0.1709 -1.2438  0.1655
  420TMC3    O1 6275   0.959   0.508  13.305  0.7207 -0.2217  0.0366
  420TMC3    O2 6276   0.771   0.823  12.757  0.1382  0.1011  0.0991
  421TMC3    C1 6277   2.502   2.774  14.206 -0.8608 -0.6331  0.3106
  421TMC3    C2 6278   2.556   2.872  14.283  0.8438 -0.2497  0.3618
  421TMC3    C3 6279   2.598   2.854  14.409  0.3288  0.1869  0.1191
  421TMC3    C4 6280   2.526   2.647  14.240 -0.1013 -0.8391 -0.4655
  421TMC3    C5 6281   2.580   2.627  14.363  0.5025 -0.6734 -1.1565
  421TMC3    C6 6282   2.607   2.726  14.451  0.0420  0.4430  0.2677
  421TMC3     C 6283   2.407   2.820  14.108 -0.5120  0.3835  0.0247
  421TMC3     O 6284   2.410   2.942  14.093  0.3416 -0.0647  0.8663
  421TMC3     H 6285   2.574   2.972  14.245 -3.0557  0.5285  0.5028
  421TMC3    H1 6286   2.487   2.568  14.177  2.5933 -0.5972 -2.4014
  421TMC3    H2 6287   2.663   2.701  14.541  1.5797  0.0664 -0.8041
  421TMC3    C7 6288   2.677   2.519  14.358  0.1429  0.2254  0.8891
  421TMC3    C8 6289   2.613   2.962  14.508  0.4168  0.1475  0.1317
  421TMC3    O1 6290   2.741   2.509  14.255  0.6526  0.5682 -0.3463
  421TMC3    O2 6291   2.589   2.934  14.629  0.5150 -0.2477 -0.8196
  422TMC3    C1 6292   0.267   3.960  12.753  0.6462  0.7286 -0.3702
  422TMC3    C2 6293   0.230   4.089  12.760 -0.7546  0.3523  0.6761
  422TMC3    C3 6294   0.114   4.119  12.832  0.8876  0.0054  0.5120
  422TMC3    C4 6295   0.189   3.863  12.811 -0.7971  0.2703 -0.4269
  422TMC3    C5 6296   0.074   3.901  12.876 -0.3259 -0.1872  0.3560
  422TMC3    C6 6297   0.039   4.029  12.899  0.0498  0.2942 -0.5135
  422TMC3     C 6298   0.370   3.919  12.663 -0.4247 -0.0059 -0.2918
  422TMC3     O 6299   0.382   3.990  12.560  0.3397  0.2725 -0.2177
  422TMC3     H 6300   0.280   4.162  12.697 -0.6951  1.0848  1.5704
  422TMC3    H1 6301   0.199   3.761  12.776 -4.0793 -1.0901  2.5666
  422TMC3    H2 6302   4.671   4.051  12.952 -0.6007  0.5969 -1.7778
  422TMC3    C7 6303   4.709   3.794  12.911 -0.3244 -0.0543 -0.6720
  422TMC3    C8 6304   0.081   4.263  12.855  0.0608 -0.4044  0.4231
  422TMC3    O1 6305   0.043   3.685  12.922 -0.5851  0.1384  0.2256
  422TMC3    O2 6306   0.161   4.343  12.806  0.3202 -0.2650  0.0406
  423MPD2     C 6307   1.315   4.632   0.751  0.0869  0.6402 -0.1747
  423MPD2    C1 6308   1.373   4.504   0.760 -0.2886  0.0465  0.0018
  423MPD2    C2 6309   1.466   4.475   0.663 -0.4268  0.2664  0.3730
  423MPD2    C3 6310   1.498   4.570   0.560 -0.3940  0.1816 -0.5046
  423MPD2    C4 6311   1.426   4.685   0.542 -0.1735  0.9137  0.0848
  423MPD2    C5 6312   1.338   4.719   0.644 -1.0879 -0.2787 -0.1253
  423MPD2     H 6313   1.532   4.390   0.675  1.7460  1.9616  0.2156
  423MPD2    H1 6314   1.441   0.030   0.460 -0.4316  1.4005  0.4532
  423MPD2    H2 6315   1.233   4.655   0.817 -0.8641 -1.4708 -0.6118
  423MPD2    H3 6316   1.263   0.069   0.620 -2.7246 -1.6634  0.7223
  423MPD2     N 6317   1.603   4.539   0.464 -0.2407  0.1529  0.2171
  423MPD2    H5 6318   1.609   4.619   0.401 -2.1703 -2.2513 -3.0135
  423MPD2    N1 6319   1.357   4.412   0.864 -0.0638  0.1435  0.1765
  423MPD2    H7 6320   1.429   4.340   0.862 -0.3729 -0.1696  0.3574
  424TMC3    C1 6321   1.280   4.305   1.067 -0.4349 -0.1749  0.8460
  424TMC3    C2 6322   1.394   4.226   1.069 -0.2197  0.4776 -0.2687
  424TMC3    C3 6323   1.407   4.156   1.179 -0.2297  0.1804 -0.0057
  424TMC3    C4 6324   1.183   4.314   1.164  0.1140  0.5840 -0.2157
  424TMC3    C5 6325   1.219   4.253   1.286  0.8451 -0.0394 -0.0317
  424TMC3    C6 6326   1.326   4.172   1.291  0.4873 -0.3962  0.0741
  424TMC3     C 6327   1.271   4.421   0.975 -0.0859  0.1034  0.4708
  424TMC3     O 6328   1.196   4.514   1.004 -0.2259  0.1418 -0.6133
  424TMC3     H 6329   1.455   4.209   0.981  1.0921 -0.1074  0.7591
  424TMC3    H1 6330   1.094   4.376   1.163 -0.7142 -0.5989  0.0955
  424TMC3    H2 6331   1.342   4.111   1.379 -0.1173 -0.5944  0.0507
  424TMC3    C7 6332   1.120   4.254   1.387  0.2351  0.1237 -0.6649
  424TMC3    C8 6333   1.507   4.056   1.200 -0.9339 -0.1920  0.1937
  424TMC3    O1 6334   1.004   4.286   1.361  0.9155  0.2865 -0.2819
  424TMC3    O2 6335   1.482   3.976   1.291  0.7486 -0.5977 -0.0605
  425MPD2     C 6336   0.513   4.063  17.564 -0.1343 -0.2074 -0.7205
  425MPD2    C1 6337   0.461   3.966  17.480 -0.0589 -0.1072  0.2057
  425MPD2    C2 6338   0.330   3.975  17.445 -0.3577 -0.2469  0.7489
  425MPD2    C3 6339   0.251   4.074  17.493  0.4324 -0.5994  0.2572
  425MPD2    C4 6340   0.302   4.160  17.595  0.2845  1.0974 -0.2801
  425MPD2    C5 6341   0.440   4.167  17.615  0.6488  0.8414 -0.4046
  425MPD2     H 6342   0.289   3.908  17.371 -1.1387  0.6452  0.3711
  425MPD2    H1 6343   0.247   4.238  17.647 -1.3051  1.5911 -2.6657
  425MPD2    H2 6344   0.619   4.068  17.582 -0.1520 -0.3017 -0.5973
  425MPD2    H3 6345   0.479   4.239  17.687  0.3844 -2.0410  2.6001
  425MPD2     N 6346   0.114   4.084  17.457  0.3971  0.2201  0.2970
  425MPD2    H5 6347   0.085   4.011  17.393 -1.3359 -0.9483  2.4206
  425MPD2    N1 6348   0.536   3.862  17.423 -0.2521 -0.3246  0.6688
  425MPD2    H7 6349   0.487   3.795  17.363  0.4804 -1.7666  1.6844
  426TMC3    C1 6350   0.718   3.714  17.398 -0.2573 -0.6696  0.2502
  426TMC3    C2 6351   0.652   3.652  17.292 -0.2943  0.6149 -0.4049
  426TMC3    C3 6352   0.707   3.536  17.240 -0.2015 -0.4476 -0.0323
  426TMC3    C4 6353   0.836   3.673  17.453 -0.5253 -0.6950  0.0055
  426TMC3    C5 6354   0.875   3.547  17.411 -0.0008  0.6676 -0.1209
  426TMC3    C6 6355   0.813   3.479  17.308 -0.2353 -0.2095 -0.4489
  426TMC3     C 6356   0.666   3.839  17.453 -0.4348  0.5452 -0.0924
  426TMC3     O 6357   0.748   3.912  17.512  0.4960 -0.0477 -0.1794
  426TMC3     H 6358   0.581   3.717  17.242 -0.6582  0.1980 -0.4301
  426TMC3    H1 6359   0.896   3.741  17.513 -1.7725 -0.6973  1.2573
  426TMC3    H2 6360   0.865   3.387  17.284  1.8798  0.8782 -0.0267
  426TMC3    C7 6361   0.978   3.481  17.485 -0.4579 -0.4432  0.5059
  426TMC3    C8 6362   0.644   3.453  17.141 -1.0377 -0.1970  0.4182
  426TMC3    O1 6363   1.010   3.370  17.439  0.1405  0.2353  0.4275
  426TMC3    O2 6364   0.699   3.347  17.122  0.4822 -0.8065  0.1257
  427MPD2     C 6365   3.673   0.952  14.946 -0.8006 -0.1324 -0.3401
  427MPD2    C1 6366   3.676   0.986  15.080 -0.1473 -0.5969  0.3752
  427MPD2    C2 6367   3.566   1.065  15.124  0.5783  0.3538  0.3292
  427MPD2    C3 6368   3.463   1.105  15.042 -0.1122 -0.3708  0.2242
  427MPD2    C4 6369   3.469   1.067  14.912  0.3765 -0.8124 -0.3354
  427MPD2    C5 6370   3.568   0.990  14.867 -0.1371 -0.0789  0.4245
  427MPD2     H 6371   3.561   1.083  15.230  0.1468  1.1090  0.1781
  427MPD2    H1 6372   3.386   1.091  14.846 -1.1526 -3.7984  0.5000
  427MPD2    H2 6373   3.756   0.909  14.891 -0.4979  0.1316 -0.0883
  427MPD2    H3 6374   3.566   0.972  14.760  3.4484  3.4474 -0.2340
  427MPD2     N 6375   3.358   1.184  15.083 -0.2259 -0.2782  0.2260
  427MPD2    H5 6376   3.288   1.208  15.014 -1.2486 -2.6916  0.4530
  427MPD2    N1 6377   3.789   0.945  15.157  0.6519 -0.0257 -0.4378
  427MPD2    H7 6378   3.869   0.903  15.110  1.7017  0.4185  0.9409
  428TMC3    C1 6379   3.912   0.899  15.348 -0.0949  1.1034 -0.0196
  428TMC3    C2 6380   3.897   0.786  15.419 -0.1090 -0.7496  0.2952
  428TMC3    C3 6381   4.015   0.746  15.482  0.2718  0.0140  0.0509
  428TMC3    C4 6382   4.032   0.959  15.315  0.5923  0.5539 -0.2432
  428TMC3    C5 6383   4.143   0.920  15.394 -0.0593 -0.6899 -0.2955
  428TMC3    C6 6384   4.135   0.813  15.475 -0.1562  0.9871  0.2327
  428TMC3     C 6385   3.787   0.942  15.292 -0.3836  0.3716 -0.2010
  428TMC3     O 6386   3.694   0.944  15.373  0.6022 -0.1825  0.2035
  428TMC3     H 6387   3.809   0.722  15.415 -1.0703  0.3801  3.2305
  428TMC3    H1 6388   4.029   1.043  15.247  0.0882  0.0796 -0.8014
  428TMC3    H2 6389   4.226   0.772  15.519 -1.1261  0.0788  1.3836
  428TMC3    C7 6390   4.274   0.980  15.391  0.1507 -0.0753 -0.4972
  428TMC3    C8 6391   4.038   0.606  15.525  0.0941  0.4978  0.0378
  428TMC3    O1 6392   4.340   0.967  15.490 -0.4315  0.5974 -0.6781
  428TMC3    O2 6393   4.146   0.557  15.497  0.0356 -0.4958  1.3228
  429MPD2     C 6394   4.348   1.233  17.596 -0.1828 -0.1148  0.0823
  429MPD2    C1 6395   4.463   1.206  17.668  0.0435 -0.2235 -0.3306
  429MPD2    C2 6396   4.563   1.297  17.657  0.1155  0.0649  0.1210
  429MPD2    C3 6397   4.556   1.412  17.578  0.6514  0.3667 -0.5500
  429MPD2    C4 6398   4.437   1.429  17.503  0.7683 -0.2714 -0.1885
  429MPD2    C5 6399   4.332   1.343  17.521 -0.0075  0.2477 -0.1819
  429MPD2     H 6400   4.651   1.301   0.022  0.6361  0.7071 -0.6234
  429MPD2    H1 6401   4.423   1.511  17.434 -2.9326  1.4153  2.5570
  429MPD2    H2 6402   4.261   1.169  17.612  0.2748  0.2755  4.3225
  429MPD2    H3 6403   4.240   1.351  17.464  0.8134  2.1876 -1.1967
  429MPD2     N 6404   4.675   1.500  17.566 -0.2638  0.2842  0.4060
  429MPD2    H5 6405   0.021   1.464  17.630  0.9971  2.0515  0.0110
  429MPD2    N1 6406   4.475   1.106   0.068  1.0114 -0.6444  0.3132
  429MPD2    H7 6407   4.562   1.105   0.119  0.9694  0.9577  0.4062
  430TMC3    C1 6408   0.091   1.673  17.485  0.2003  0.3563  0.7267
  430TMC3    C2 6409   0.102   1.791  17.409 -0.0800 -0.4918 -0.2541
  430TMC3    C3 6410   0.223   1.828  17.362  0.3456  0.0288 -0.8916
  430TMC3    C4 6411   0.197   1.601  17.511  0.0950  0.2927 -0.2484
  430TMC3    C5 6412   0.315   1.637  17.453  0.9527  0.3112 -0.1925
  430TMC3    C6 6413   0.330   1.747  17.377  0.1509  0.9058 -0.3361
  430TMC3     C 6414   4.676   1.628  17.513 -0.8767  0.6557 -0.8177
  430TMC3     O 6415   4.579   1.703  17.484 -0.2332 -0.6432 -0.1205
  430TMC3     H 6416   0.012   1.849  17.394  0.2280 -0.3651 -1.6403
  430TMC3    H1 6417   0.186   1.498  17.543 -1.2929  0.5385  0.0721
  430TMC3    H2 6418   0.418   1.761  17.315 -0.0434  0.1045 -0.7986
  430TMC3    C7 6419   0.396   1.527  17.422  0.5672  0.5037 -0.2606
  430TMC3    C8 6420   0.208   1.871  17.225  0.3415 -0.1133  0.7507
  430TMC3    O1 6421   0.337   1.421  17.406 -0.4875 -0.1920 -0.6806
  430TMC3    O2 6422   0.274   1.807  17.148  0.2372 -0.2891 -0.0167
  431MPD2     C 6423   1.257   1.586  12.472 -0.1648 -0.3415 -0.1033
  431MPD2    C1 6424   1.384   1.585  12.410  0.8376  0.0126 -0.1170
  431MPD2    C2 6425   1.409   1.484  12.316 -0.2042  0.1096  0.1897
  431MPD2    C3 6426   1.328   1.373  12.310 -0.3306  0.8987 -0.5865
  431MPD2    C4 6427   1.209   1.369  12.390 -0.1009  0.2812 -0.3824
  431MPD2    C5 6428   1.173   1.481  12.461  0.5567 -0.6679 -0.4064
  431MPD2     H 6429   1.503   1.499  12.264  0.7694 -2.8199  1.0960
  431MPD2    H1 6430   1.143   1.283  12.394 -3.1076  2.7142  2.1507
  431MPD2    H2 6431   1.230   1.672  12.533 -2.4685 -1.2518  0.1541
  431MPD2    H3 6432   1.078   1.485  12.513  0.9979  1.3336  0.2721
  431MPD2     N 6433   1.355   1.255  12.234  0.3272  0.4845 -0.6639
  431MPD2    H5 6434   1.283   1.184  12.246 -0.6310  1.6130  0.1891
  431MPD2    N1 6435   1.485   1.677  12.437 -0.1870 -0.8909 -1.2563
  431MPD2    H7 6436   1.568   1.677  12.379  1.4503  1.8764  1.1068
  432TMC3    C1 6437   1.458   1.089  12.104 -0.4157 -0.6525  0.6474
  432TMC3    C2 6438   1.524   1.059  11.989 -0.0067 -0.2221 -0.2025
  432TMC3    C3 6439   1.541   0.926  11.954  1.2006 -0.6474  0.4325
  432TMC3    C4 6440   1.402   0.990  12.180 -0.2470  0.0439  0.0041
  432TMC3    C5 6441   1.431   0.863  12.137  0.3899 -0.1005  0.0223
  432TMC3    C6 6442   1.487   0.830  12.024 -0.8128 -0.7699 -0.1322
  432TMC3     C 6443   1.458   1.229  12.150 -0.4961  0.2694 -0.4794
  432TMC3     O 6444   1.542   1.307  12.100 -0.0677 -0.7079 -0.0666
  432TMC3     H 6445   1.549   1.135  11.916  1.5479  0.6520  1.2545
  432TMC3    H1 6446   1.369   1.012  12.281 -1.0972 -1.9523  0.1577
  432TMC3    H2 6447   1.505   0.724  12.005 -0.6071 -0.8021  0.2570
  432TMC3    C7 6448   1.459   0.771  12.241 -0.2819  0.9170 -0.2322
  432TMC3    C8 6449   1.577   0.906  11.811  0.2805  0.6903  0.1999
  432TMC3    O1 6450   1.556   0.703  12.216 -0.1407 -0.0179  0.3019
  432TMC3    O2 6451   1.530   0.810  11.752 -0.0747 -0.1254 -0.0647
  433MPD2     C 6452   0.646   0.196  11.162  0.4967  0.2521 -0.0771
  433MPD2    C1 6453   0.562   0.100  11.217  0.4749  0.2618 -0.1454
  433MPD2    C2 6454   0.549   0.096  11.355  0.0876 -0.4602 -0.0637
  433MPD2    C3 6455   0.624   0.179  11.434  0.0902 -0.1168 -0.1594
  433MPD2    C4 6456   0.712   0.272  11.379 -0.3040  0.0509  0.1587
  433MPD2    C5 6457   0.726   0.281  11.244 -0.5774  0.2623 -0.3716
  433MPD2     H 6458   0.487   0.020  11.400  0.6131 -0.3906  0.7887
  433MPD2    H1 6459   0.774   0.341  11.436  0.4978  1.9699 -3.0392
  433MPD2    H2 6460   0.659   0.208  11.055  1.5249  1.8490  0.2320
  433MPD2    H3 6461   0.799   0.349  11.202 -1.5291  0.2461 -2.0628
  433MPD2     N 6462   0.607   0.170  11.573  0.1196 -0.1404 -0.0759
  433MPD2    H5 6463   0.562   0.084  11.604  1.6388 -1.0266 -0.2781
  433MPD2    N1 6464   0.475   0.022  11.131 -0.6555  0.5940 -0.3436
  433MPD2    H7 6465   0.493   0.012  11.032  1.8099  0.7079  0.0798
  434TMC3    C1 6466   0.340   4.571  11.113 -0.3053  0.2154 -0.5107
  434TMC3    C2 6467   0.299   4.475  11.200  0.1584  0.3779  0.1896
  434TMC3    C3 6468   0.323   4.347  11.153 -0.8087 -0.0489 -0.3246
  434TMC3    C4 6469   0.388   4.546  10.986  0.1539 -0.1652  0.0688
  434TMC3    C5 6470   0.410   4.410  10.949 -0.0065 -0.1691 -0.2920
  434TMC3    C6 6471   0.374   4.312  11.033 -0.0593  0.0222 -0.1960
  434TMC3     C 6472   0.361   4.693  11.177 -0.4717  0.0042  0.2707
  434TMC3     O 6473   0.291   4.724  11.271 -0.4375 -0.0084 -0.1031
  434TMC3     H 6474   0.266   4.497  11.301  0.5741  1.1604  0.1501
  434TMC3    H1 6475   0.423   4.632  10.930 -0.7800 -1.3771 -2.3633
  434TMC3    H2 6476   0.409   4.210  11.026  0.8035  0.3821 -1.0533
  434TMC3    C7 6477   0.423   4.370  10.810  0.0457  0.0605 -0.2475
  434TMC3    C8 6478   0.327   4.247  11.253  0.2177  1.0015 -0.1562
  434TMC3    O1 6479   0.466   4.455  10.731  0.3175  0.1659 -0.1806
  434TMC3    O2 6480   0.370   4.294  11.361 -0.1665 -0.6876 -0.3107
  435MPD2     C 6481   1.978   4.369  15.510  0.1848 -0.3388  0.2130
  435MPD2    C1 6482   1.947   4.477  15.591  0.0077  0.2801  0.1362
  435MPD2    C2 6483   2.023   4.510  15.701 -0.3174 -0.1303  0.2804
  435MPD2    C3 6484   2.126   4.431  15.736 -0.4039  0.5001 -0.4947
  435MPD2    C4 6485   2.164   4.328  15.654  1.1941  0.2617  0.1570
  435MPD2    C5 6486   2.088   4.293  15.542  0.6700  0.0630 -0.5421
  435MPD2     H 6487   1.982   4.589  15.764  0.5630  0.2575  0.3664
  435MPD2    H1 6488   2.227   4.244  15.681  1.2154 -0.1132 -1.0476
  435MPD2    H2 6489   1.920   4.336  15.424 -1.6451  1.8566  0.6083
  435MPD2    H3 6490   2.111   4.205  15.483 -0.0747 -0.8869  0.5936
  435MPD2     N 6491   2.173   4.450  15.865 -0.0413 -0.3894  0.3517
  435MPD2    H5 6492   2.131   4.530  15.912  2.2877  0.7440  0.5233
  435MPD2    N1 6493   1.831   4.551  15.562  0.7539 -0.5119  0.5619
  435MPD2    H7 6494   1.821   4.642  15.607  2.2275 -1.0280  1.9407
  436TMC3    C1 6495   1.456   4.657  15.675  0.7618  0.0459  0.2595
  436TMC3    C2 6496   1.586   4.631  15.642 -0.4541 -0.4212  0.3136
  436TMC3    C3 6497   1.617   4.595  15.513 -0.2288 -0.2246  0.4000
  436TMC3    C4 6498   1.351   4.650  15.588  0.0704 -0.0642  0.1101
  436TMC3    C5 6499   1.388   4.611  15.458 -0.7419 -0.4562 -0.2542
  436TMC3    C6 6500   1.520   4.584  15.424  0.3044  0.1195 -0.2154
  436TMC3     C 6501   1.443   0.003  15.795  0.7627 -0.0346 -0.3161
  436TMC3     O 6502   1.334   0.000  15.856  0.4423 -0.6339  0.2334
  436TMC3     H 6503   1.665   4.623  15.716  1.3889 -1.5457 -1.7777
  436TMC3    H1 6504   1.250   4.673  15.620  0.3458  1.6395 -0.2627
  436TMC3    H2 6505   1.539   4.544  15.325 -1.3255 -1.6982  0.2137
  436TMC3    C7 6506   1.280   4.601  15.363  0.1450  0.1604 -0.0980
  436TMC3    C8 6507   1.731   4.516  15.473 -0.4277 -0.1321  0.1710
  436TMC3    O1 6508   1.174   4.550  15.407 -0.2421  0.2051  0.1040
  436TMC3    O2 6509   1.710   4.406  15.423  0.4606  0.1859  0.1345
  437TMC3    C1 6510   0.676   2.480  12.849  0.0716 -0.1509  0.0009
  437TMC3    C2 6511   0.669   2.587  12.938 -0.5677  0.1946  0.2638
  437TMC3    C3 6512   0.715   2.702  12.885  0.5365 -0.2374  0.6507
  437TMC3    C4 6513   0.754   2.480  12.736  0.6891  0.8316  0.8552
  437TMC3    C5 6514   0.808   2.601  12.690  0.3011  0.5252  0.4967
  437TMC3    C6 6515   0.767   2.707  12.756 -0.1227  0.3172 -0.5243
  437TMC3     C 6516   0.643   2.356  12.909 -0.0583 -0.4032 -0.7059
  437TMC3     O 6517   0.547   2.364  12.987 -0.0851  0.2279 -0.4244
  437TMC3     H 6518   0.620   2.583  13.034 -0.0086 -0.8089  0.5149
  437TMC3    H1 6519   0.757   2.390  12.676 -1.4404  0.1593  1.7594
  437TMC3    H2 6520   0.805   2.805  12.728  1.3171  0.3097  1.3804
  437TMC3    C7 6521   0.895   2.602  12.576 -0.0403 -0.3105  0.8946
  437TMC3    C8 6522   0.738   2.813  12.974 -0.4248 -0.1546  0.3006
  437TMC3    O1 6523   0.912   2.715  12.525  0.0008  0.2522 -0.2869
  437TMC3    O2 6524   0.728   2.922  12.921  0.3644  0.2362  0.2281
  438MPD2     C 6525   2.895   2.538  16.766  0.2134 -0.2327 -0.2581
  438MPD2    C1 6526   2.981   2.454  16.834 -0.9281 -0.2426  0.0845
  438MPD2    C2 6527   2.971   2.453  16.971 -0.3068 -0.6009 -0.1484
  438MPD2    C3 6528   2.889   2.539  17.046 -0.1342 -0.2348 -0.3252
  438MPD2    C4 6529   2.826   2.636  16.973  0.3222  0.1384  0.6179
  438MPD2    C5 6530   2.829   2.634  16.837 -0.5515  0.1540 -0.9332
  438MPD2     H 6531   3.031   2.383  17.029 -0.8718  0.7559  2.0780
  438MPD2    H1 6532   2.769   2.717  17.017 -0.0361 -0.3804  1.1215
  438MPD2    H2 6533   2.872   2.529  16.661  0.7625  0.3748 -0.4303
  438MPD2    H3 6534   2.754   2.692  16.784 -0.0717 -0.4247 -2.2248
  438MPD2     N 6535   2.874   2.533  17.186  0.9029  0.0423  0.5684
  438MPD2    H5 6536   2.798   2.579  17.235  1.3112  2.3277 -0.9347
  438MPD2    N1 6537   3.071   2.361  16.769  0.1956 -0.3092  0.9007
  438MPD2    H7 6538   3.133   2.297  16.818  1.8646  1.8167  1.5678
  439TMC3    C1 6539   3.199   2.266  16.591 -0.0703  0.2639 -0.8365
  439TMC3    C2 6540   3.214   2.236  16.455 -0.6030  0.3766  0.4390
  439TMC3    C3 6541   3.309   2.148  16.413 -0.0456 -0.0274  0.1838
  439TMC3    C4 6542   3.276   2.197  16.680  0.5498 -0.8323  0.0165
  439TMC3    C5 6543   3.373   2.113  16.629  0.3574 -0.3638 -0.3276
  439TMC3    C6 6544   3.390   2.082  16.503  0.3898  0.0904  0.8310
  439TMC3     C 6545   3.098   2.362  16.633 -0.2856 -0.3659  0.1159
  439TMC3     O 6546   3.036   2.418  16.545 -0.1028 -0.0780 -0.3365
  439TMC3     H 6547   3.146   2.280  16.383 -1.0521 -1.9585 -0.5487
  439TMC3    H1 6548   3.265   2.209  16.787  0.5372 -2.6943  0.2252
  439TMC3    H2 6549   3.480   2.037  16.462  0.3952 -1.1525  2.2030
  439TMC3    C7 6550   3.494   2.088  16.710  0.5744  0.6634  0.1542
  439TMC3    C8 6551   3.331   2.102  16.274 -0.2059  0.1363 -0.0474
  439TMC3    O1 6552   3.504   2.166  16.805  0.0247  0.3474  0.1531
  439TMC3    O2 6553   3.395   2.001  16.265 -0.1642 -0.2043  0.4397
  440MPD2     C 6554   1.957   3.044  15.024 -0.0651 -0.0939  0.0341
  440MPD2    C1 6555   1.885   3.050  15.143 -0.0458 -0.7826 -0.1531
  440MPD2    C2 6556   1.870   2.934  15.214  0.3861  1.0069  0.5830
  440MPD2    C3 6557   1.916   2.807  15.165 -0.3133 -0.2693 -0.1690
  440MPD2    C4 6558   1.973   2.807  15.038  0.6727 -0.0849  0.3961
  440MPD2    C5 6559   1.997   2.924  14.968  0.8930 -0.2509  0.2192
  440MPD2     H 6560   1.820   2.940  15.310  0.4234 -1.0505  0.7231
  440MPD2    H1 6561   2.006   2.717  14.987  0.5269  1.8448 -3.1332
  440MPD2    H2 6562   1.973   3.127  14.958 -1.3374  1.1156  1.2560
  440MPD2    H3 6563   2.039   2.921  14.868 -1.5313  0.4340 -0.8279
  440MPD2     N 6564   1.931   2.687  15.239  0.3077 -0.1246 -0.1019
  440MPD2    H5 6565   1.987   2.610  15.203 -0.8440 -0.8211 -0.3901
  440MPD2    N1 6566   1.825   3.163  15.202  0.1597 -0.5131 -0.2253
  440MPD2    H7 6567   1.741   3.149  15.257  1.4150  1.6585  2.2249
  441TMC3    C1 6568   1.964   2.564  15.425  0.3868 -0.3901 -0.1206
  441TMC3    C2 6569   2.096   2.605  15.436 -0.3808 -0.0000 -0.2807
  441TMC3    C3 6570   2.161   2.594  15.552  0.4948  0.1345 -0.5358
  441TMC3    C4 6571   1.909   2.499  15.529 -1.0274 -0.2155  0.1484
  441TMC3    C5 6572   1.981   2.481  15.648 -0.0771  0.5854  0.2718
  441TMC3    C6 6573   2.110   2.527  15.661  0.4347  0.4742  0.0604
  441TMC3     C 6574   1.877   2.665  15.366 -0.0182  0.3022 -0.6548
  441TMC3     O 6575   1.782   2.723  15.419 -0.0895 -0.5721  0.3193
  441TMC3     H 6576   2.144   2.648  15.348 -0.4844  1.0060  0.1611
  441TMC3    H1 6577   1.803   2.477  15.523 -0.5939 -2.1480 -0.3789
  441TMC3    H2 6578   2.146   2.539  15.763  0.8126  1.0308 -0.1376
  441TMC3    C7 6579   1.901   2.435  15.763 -0.5123  0.5950 -0.4364
  441TMC3    C8 6580   2.260   2.695  15.574  0.0896 -0.1969 -0.4166
  441TMC3    O1 6581   1.778   2.452  15.758 -0.4305 -0.5598  0.2558
  441TMC3    O2 6582   2.347   2.674  15.656 -0.1608  0.0712  0.3110
  442MPD2     C 6583   4.581   3.529  16.965 -0.1525  0.2954  0.2352
  442MPD2    C1 6584   4.515   3.420  17.018 -0.2406  0.6077 -0.1482
  442MPD2    C2 6585   4.540   3.298  16.958  0.2085 -0.2062  0.0025
  442MPD2    C3 6586   4.637   3.283  16.866  0.6442 -0.1818  0.4756
  442MPD2    C4 6587   4.724   3.385  16.840 -0.3715  0.2786  0.0561
  442MPD2    C5 6588   4.684   3.511  16.877  0.4782 -0.2071  0.9919
  442MPD2     H 6589   4.471   3.217  16.982  0.7932 -1.4877 -2.5668
  442MPD2    H1 6590   0.074   3.366  16.763  2.0720  0.5415  2.3489
  442MPD2    H2 6591   4.571   3.624  17.015 -0.0787  0.0396  0.7265
  442MPD2    H3 6592   0.030   3.591  16.856 -0.8064  0.5104 -0.5392
  442MPD2     N 6593   4.661   3.159  16.792 -0.0549 -0.1555 -0.2340
  442MPD2    H5 6594   0.013   3.154  16.726 -0.7869  0.4224 -1.1186
  442MPD2    N1 6595   4.418   3.427  17.122  0.1625  0.2662 -0.2265
  442MPD2    H7 6596   4.391   3.339  17.163  1.6480  0.1163  0.4360
  443TMC3    C1 6597   4.265   3.523  17.271  0.0975 -0.1749  0.5550
  443TMC3    C2 6598   4.152   3.604  17.276  0.0567  0.1233 -0.7441
  443TMC3    C3 6599   4.037   3.558  17.317 -0.0175 -0.4442 -0.8803
  443TMC3    C4 6600   4.266   3.402  17.335  0.3667  0.1203 -0.1533
  443TMC3    C5 6601   4.153   3.365  17.399  0.1304  0.0935 -0.5839
  443TMC3    C6 6602   4.036   3.442  17.395  0.0881  0.7384  0.0003
  443TMC3     C 6603   4.369   3.547  17.170  0.3193 -0.5916 -0.4980
  443TMC3     O 6604   4.393   3.664  17.139  0.3582 -0.2690  0.1139
  443TMC3     H 6605   4.160   3.700  17.226  3.1701  1.2549  1.9075
  443TMC3    H1 6606   4.355   3.340  17.342  0.1857 -0.1328 -0.1159
  443TMC3    H2 6607   3.939   3.411  17.431  1.3797 -2.9484  0.3668
  443TMC3    C7 6608   4.143   3.239  17.460 -0.1820 -0.1474 -0.1762
  443TMC3    C8 6609   3.940   3.547  17.207 -0.2181 -0.1599 -0.2987
  443TMC3    O1 6610   4.211   3.149  17.410  0.6458  0.4619  0.0933
  443TMC3    O2 6611   3.897   3.435  17.181 -0.3661 -0.0166 -0.0809
  444MPD2     C 6612   0.095   3.051  17.147 -0.0504 -0.5272  0.9732
  444MPD2    C1 6613   0.042   2.940  17.209 -0.7203 -0.6499  0.3546
  444MPD2    C2 6614   0.112   2.821  17.195 -0.1582  0.5233 -0.4567
  444MPD2    C3 6615   0.235   2.810  17.135  0.2090 -0.3838  0.2954
  444MPD2    C4 6616   0.288   2.927  17.075 -0.4590  0.2133  0.5043
  444MPD2    C5 6617   0.213   3.047  17.079 -0.1443 -0.7007 -0.2336
  444MPD2     H 6618   0.073   2.730  17.238 -2.0250  0.5023 -2.1861
  444MPD2    H1 6619   0.391   2.937  17.045 -0.5275 -0.6752 -0.0394
  444MPD2    H2 6620   0.049   3.150  17.147  0.3058 -0.3593  1.0904
  444MPD2    H3 6621   0.255   3.135  17.032 -2.0692 -0.4379 -1.4497
  444MPD2     N 6622   0.301   2.686  17.140 -0.0818  0.1492 -0.6079
  444MPD2    H5 6623   0.256   2.601  17.172 -1.7244  1.2231 -0.0711
  444MPD2    N1 6624   4.657   2.940  17.293  0.0665 -0.6688 -0.1935
  444MPD2    H7 6625   4.635   2.851  17.336 -2.3243 -0.2735 -0.5500
  445TMC3    C1 6626   0.477   2.531  17.113  0.3240  0.3965  0.2854
  445TMC3    C2 6627   0.378   2.440  17.086  0.7626 -0.2167  0.3736
  445TMC3    C3 6628   0.420   2.318  17.042  0.0983 -0.2707 -0.4015
  445TMC3    C4 6629   0.606   2.510  17.118  0.5708 -0.1404  0.3321
  445TMC3    C5 6630   0.638   2.374  17.105 -0.5124 -0.2702 -0.6899
  445TMC3    C6 6631   0.547   2.282  17.064  0.0458 -0.5605  1.0746
  445TMC3     C 6632   0.439   2.672  17.126  0.1951 -1.0166 -0.1756
  445TMC3     O 6633   0.523   2.754  17.098 -0.1518  0.2807  0.0480
  445TMC3     H 6634   0.272   2.461  17.080  1.2150  1.6230 -1.3098
  445TMC3    H1 6635   0.675   2.589  17.147 -1.5259  1.5561  0.6816
  445TMC3    H2 6636   0.574   2.181  17.036 -0.4188 -0.4369  0.1767
  445TMC3    C7 6637   0.783   2.347  17.091 -0.3844 -0.0161  0.8828
  445TMC3    C8 6638   0.350   2.268  16.923  0.9012 -0.5558  0.5200
  445TMC3    O1 6639   0.852   2.423  17.024  0.2964  0.0811  0.5605
  445TMC3    O2 6640   0.290   2.347  16.854 -0.1172  0.8773  0.2049
  446MPD2     C 6641   0.144   4.023  11.782  0.1124 -0.3532  0.5818
  446MPD2    C1 6642   0.140   4.059  11.649 -0.0448 -0.2249 -0.4855
  446MPD2    C2 6643   0.230   4.153  11.612 -0.1256 -0.7391 -0.2014
  446MPD2    C3 6644   0.333   4.203  11.690  0.4631 -0.7042  0.9806
  446MPD2    C4 6645   0.333   4.167  11.821  0.5470 -0.0509  0.4049
  446MPD2    C5 6646   0.240   4.073  11.865  0.3369 -0.2692  0.6089
  446MPD2     H 6647   0.235   4.174  11.505 -0.9344  1.2627  0.1551
  446MPD2    H1 6648   0.401   4.222  11.885 -1.2914  2.1796  0.4249
  446MPD2    H2 6649   0.062   3.972  11.832  0.3943 -1.5474 -0.1827
  446MPD2    H3 6650   0.235   4.033  11.966  1.5338 -3.2688 -0.5139
  446MPD2     N 6651   0.437   4.284  11.628  0.0673  0.3345 -0.4173
  446MPD2    H5 6652   0.432   4.327  11.536 -0.7834 -0.1108 -0.5770
  446MPD2    N1 6653   0.053   3.999  11.550  0.3481 -0.8744 -0.2109
  446MPD2    H7 6654   0.047   4.042  11.459 -0.6253  1.3753  0.9255
  447TMC3    C1 6655   0.667   4.359  11.604  0.2984  0.2003 -0.4386
  447TMC3    C2 6656   0.628   4.432  11.497 -0.3760 -0.0803  0.6749
  447TMC3    C3 6657   0.725   4.488  11.418 -0.6466 -0.1528  0.5828
  447TMC3    C4 6658   0.795   4.350  11.646  1.0732  0.2337 -0.1005
  447TMC3    C5 6659   0.894   4.408  11.566 -0.0699 -0.2911 -1.0590
  447TMC3    C6 6660   0.854   4.478  11.455 -0.2627  0.4381  0.6356
  447TMC3     C 6661   0.564   4.290  11.686 -0.3216  0.3123 -0.1932
  447TMC3     O 6662   0.609   4.214  11.773 -0.1139 -0.4341  0.6963
  447TMC3     H 6663   0.524   4.450  11.475 -0.3269 -1.0786 -0.3936
  447TMC3    H1 6664   0.812   4.294  11.737  0.2095 -0.1524 -0.1829
  447TMC3    H2 6665   0.933   4.496  11.383 -0.2204 -0.8546  0.3598
  447TMC3    C7 6666   1.034   4.353  11.569  0.4320 -0.1130  0.2459
  447TMC3    C8 6667   0.716   4.451  11.282  0.1414 -0.4555 -0.1615
  447TMC3    O1 6668   1.092   4.361  11.459 -0.1080 -0.5206  0.7361
  447TMC3    O2 6669   0.725   4.538  11.196 -0.2161 -0.2115 -0.1108
  448TMC3    C1 6670   3.195   4.021  16.989  0.4312  0.3484 -0.0775
  448TMC3    C2 6671   3.164   3.910  16.919  0.2047 -0.5134 -0.5885
  448TMC3    C3 6672   3.209   3.794  16.976 -0.7050  0.0249 -0.5629
  448TMC3    C4 6673   3.295   4.032  17.077 -0.0191 -0.2055 -0.0357
  448TMC3    C5 6674   3.348   3.911  17.124 -0.2859 -0.0197 -0.0692
  448TMC3    C6 6675   3.300   3.788  17.075  0.5925 -0.4160  0.1563
  448TMC3     C 6676   3.151   4.147  16.932  0.5755  0.7402  0.3848
  448TMC3     O 6677   3.180   4.249  16.992  0.3244 -0.0848 -0.7777
  448TMC3     H 6678   3.083   3.902  16.848  1.5021 -2.4343 -1.8569
  448TMC3    H1 6679   3.325   4.131  17.109 -2.5834  0.0105  1.6478
  448TMC3    H2 6680   3.345   3.691  17.093  1.1728 -0.4005 -1.2165
  448TMC3    C7 6681   3.453   3.913  17.223 -0.4857 -0.0410  0.1797
  448TMC3    C8 6682   3.184   3.662  16.912  0.2441  0.5273 -0.1947
  448TMC3    O1 6683   3.505   4.019  17.258 -0.8096  0.2854 -0.3749
  448TMC3    O2 6684   3.208   3.557  16.971  0.7418 -1.0781 -0.0182
  449MPD2     C 6685   4.582   2.222  14.188  0.0783  0.0873  0.3391
  449MPD2    C1 6686   4.486   2.274  14.103 -0.5197  0.3233 -0.1871
  449MPD2    C2 6687   4.356   2.244  14.114  0.0869  0.0700  0.2620
  449MPD2    C3 6688   4.318   2.154  14.206  0.3668 -0.2657 -0.7403
  449MPD2    C4 6689   4.414   2.095  14.286  0.0070 -0.0045 -0.0832
  449MPD2    C5 6690   4.548   2.129  14.275  0.0020  0.7913  0.2366
  449MPD2     H 6691   4.295   2.290  14.037  1.0943  0.9046 -0.0305
  449MPD2    H1 6692   4.391   2.015  14.356 -1.5443  1.4432  1.0798
  449MPD2    H2 6693   4.683   2.259  14.181 -0.7231  1.4963 -4.1285
  449MPD2    H3 6694   4.619   2.091  14.347 -0.2252  1.3191  0.7383
  449MPD2     N 6695   4.183   2.117  14.214 -0.2376  0.5085 -0.6609
  449MPD2    H5 6696   4.132   2.139  14.129 -0.8171 -2.3949 -1.0789
  449MPD2    N1 6697   4.514   2.379  14.013 -0.2828 -0.1739 -0.0519
  449MPD2    H7 6698   4.429   2.420  13.977  0.9173  0.5360 -2.0757
  450TMC3    C1 6699   4.606   2.533  13.870 -0.4982 -0.2172  0.1889
  450TMC3    C2 6700   4.662   2.491  13.757 -0.1817 -0.1941 -0.0452
  450TMC3    C3 6701   4.580   2.505  13.647 -0.4800  0.1318 -0.2766
  450TMC3    C4 6702   4.479   2.581  13.878  0.7056  0.3573  1.0008
  450TMC3    C5 6703   4.401   2.598  13.771 -0.4384 -0.7872  0.8164
  450TMC3    C6 6704   4.456   2.563  13.651 -0.1747 -0.3698  0.0176
  450TMC3     C 6705   4.632   2.442  13.981 -0.1982 -0.2946 -0.5919
  450TMC3     O 6706   0.023   2.400  13.994 -0.2520  0.4126  0.5874
  450TMC3     H 6707   0.037   2.450  13.765  0.1832  0.6629 -0.2199
  450TMC3    H1 6708   4.438   2.598  13.977  1.4280 -2.1663  1.7333
  450TMC3    H2 6709   4.401   2.575  13.558 -0.9884 -0.1143  0.5233
  450TMC3    C7 6710   4.275   2.538  13.794  0.2986 -0.4242 -0.1286
  450TMC3    C8 6711   4.646   2.519  13.521 -0.1320  0.0488 -0.0160
  450TMC3    O1 6712   4.275   2.459  13.885 -0.7457 -0.3350  0.5647
  450TMC3    O2 6713   4.595   2.604  13.454 -0.3406  0.4980  0.0886
  451MPD2     C 6714   0.557   0.271   1.418 -0.1594 -0.2040 -0.6233
  451MPD2    C1 6715   0.619   0.357   1.329  0.2978  0.5847 -1.1134
  451MPD2    C2 6716   0.733   0.310   1.264  0.3393  0.8186 -0.0086
  451MPD2    C3 6717   0.793   0.190   1.296 -0.1030  0.3264  0.5436
  451MPD2    C4 6718   0.741   0.122   1.406 -0.2870  0.0964 -0.2390
  451MPD2    C5 6719   0.625   0.164   1.466  0.1036 -0.2806 -0.2831
  451MPD2     H 6720   0.766   0.372   1.181 -1.5830  0.5658 -0.9498
  451MPD2    H1 6721   0.790   0.032   1.443 -2.7286 -1.8424 -1.7435
  451MPD2    H2 6722   0.464   0.292   1.469 -0.1722 -0.8998 -0.3606
  451MPD2    H3 6723   0.584   0.112   1.551  0.2824 -0.3210 -0.2207
  451MPD2     N 6724   0.894   0.140   1.214 -0.2459 -0.2586  0.6278
  451MPD2    H5 6725   0.958   0.073   1.256  3.0117  1.5491 -1.4583
  451MPD2    N1 6726   0.550   0.469   1.297  0.8451 -0.5640 -0.0457
  451MPD2    H7 6727   0.454   0.463   1.329  1.5204 -0.4089  2.0449
  452TMC3    C1 6728   1.073   0.165   1.061 -0.2072 -0.4501 -0.0596
  452TMC3    C2 6729   1.159   0.082   1.136 -0.4819 -0.3693 -0.4621
  452TMC3    C3 6730   1.294   0.077   1.101 -0.6019  0.2969 -0.0723
  452TMC3    C4 6731   1.128   0.244   0.957  0.4192  0.2933  0.7764
  452TMC3    C5 6732   1.263   0.232   0.929  1.1501  0.7045  0.1047
  452TMC3    C6 6733   1.346   0.146   0.992  0.7657  0.2570 -0.0156
  452TMC3     C 6734   0.934   0.190   1.089  0.2855 -0.4380 -0.1760
  452TMC3     O 6735   0.874   0.267   1.015 -0.5882 -0.1210 -0.0812
  452TMC3     H 6736   1.123   0.014   1.212 -0.2730 -1.4718 -1.3612
  452TMC3    H1 6737   1.068   0.318   0.905  2.2763  1.6050  0.4839
  452TMC3    H2 6738   1.453   0.142   0.974  0.5808 -1.5665 -0.7110
  452TMC3    C7 6739   1.318   0.311   0.816  0.0303  0.5491 -0.1637
  452TMC3    C8 6740   1.389   4.721   1.177  0.4268  0.0439 -0.4754
  452TMC3    O1 6741   1.241   0.342   0.725  0.5377  0.0359 -1.0554
  452TMC3    O2 6742   1.506   4.715   1.133  0.7935  0.0234 -0.2512
  453TMC3    C1 6743   2.612   3.267  11.842 -0.3994  0.1713  0.1164
  453TMC3    C2 6744   2.521   3.163  11.860  0.6344  0.1972  0.0095
  453TMC3    C3 6745   2.437   3.122  11.758 -0.7496 -0.1843  0.5427
  453TMC3    C4 6746   2.615   3.337  11.716  0.3850 -0.3318  0.1929
  453TMC3    C5 6747   2.530   3.288  11.617 -0.3694  0.3384 -0.5580
  453TMC3    C6 6748   2.432   3.190  11.642  0.2169 -0.0923 -0.5123
  453TMC3     C 6749   2.699   3.322  11.951  0.3147  0.2816 -0.0647
  453TMC3     O 6750   2.781   3.405  11.919 -0.7226  0.6668 -0.2026
  453TMC3     H 6751   2.522   3.108  11.954 -1.0606 -0.7779 -0.5477
  453TMC3    H1 6752   2.672   3.429  11.711  1.3152 -1.0289 -1.9713
  453TMC3    H2 6753   2.375   3.148  11.559 -1.3804 -0.9010  0.9961
  453TMC3    C7 6754   2.549   3.324  11.479 -0.6528  0.6308  0.4015
  453TMC3    C8 6755   2.376   2.987  11.751 -0.2022 -0.4380 -0.5116
  453TMC3    O1 6756   2.524   3.240  11.394 -0.5786  0.5227 -0.0147
  453TMC3    O2 6757   2.275   2.979  11.682 -0.3503 -0.5564 -0.0585
  454MPD2     C 6758   0.897   2.309  16.515  0.0609  0.8556 -0.6303
  454MPD2    C1 6759   0.876   2.433  16.465  0.2813  0.4300  0.3148
  454MPD2    C2 6760   0.805   2.519  16.537 -0.3629 -0.0206  0.1709
  454MPD2    C3 6761   0.753   2.489  16.663 -0.0834  0.1781  0.0597
  454MPD2    C4 6762   0.771   2.360  16.713  0.5987  0.6905  0.3628
  454MPD2    C5 6763   0.839   2.272  16.632 -0.2940  0.2364 -0.2858
  454MPD2     H 6764   0.770   2.607  16.484  0.7654 -0.1234 -0.7443
  454MPD2    H1 6765   0.709   2.322  16.793 -1.4764  2.2357 -0.5084
  454MPD2    H2 6766   0.937   2.227  16.457 -0.1582  1.3226 -1.4337
  454MPD2    H3 6767   0.849   2.167  16.656  1.9397  1.2798  3.4273
  454MPD2     N 6768   0.659   2.576  16.732 -0.3014 -0.1384  0.1892
  454MPD2    H5 6769   0.624   2.544  16.821  1.1190  0.6164  1.0242
  454MPD2    N1 6770   0.873   2.463  16.329  0.8417 -0.5561 -0.2389
  454MPD2    H7 6771   0.840   2.558  16.311  3.4947  0.1584 -1.3399
  455TMC3    C1 6772   0.495   2.745  16.729 -0.1370  0.2861 -0.2764
  455TMC3    C2 6773   0.479   2.884  16.735 -1.1012 -0.1055 -0.2681
  455TMC3    C3 6774   0.346   2.920  16.749  0.1287 -0.3103  0.4278
  455TMC3    C4 6775   0.403   2.651  16.764 -0.6022 -0.1741 -0.0510
  455TMC3    C5 6776   0.280   2.699  16.788  0.2546  0.4420  0.1722
  455TMC3    C6 6777   0.249   2.830  16.774 -0.2645  0.0243  0.6675
  455TMC3     C 6778   0.630   2.705  16.683 -0.4298  0.2685 -0.0377
  455TMC3     O 6779   0.695   2.782  16.612  0.3842 -0.0257 -0.0469
  455TMC3     H 6780   0.566   2.947  16.733 -1.4494  0.4055  0.6637
  455TMC3    H1 6781   0.420   2.545  16.750  0.7398  0.2527 -1.7281
  455TMC3    H2 6782   0.148   2.868  16.786 -1.1017 -1.4833 -1.6983
  455TMC3    C7 6783   0.177   2.619  16.730 -0.0186  0.2711  0.2907
  455TMC3    C8 6784   0.313   3.064  16.736 -0.0735  0.1190  0.3084
  455TMC3    O1 6785   0.065   2.620  16.782 -0.0754  0.3891 -0.4148
  455TMC3    O2 6786   0.211   3.100  16.679 -0.2026 -0.3106 -0.0629
  456MPD2     C 6787   3.340   2.540  16.101  0.3625  0.3301 -0.5063
  456MPD2    C1 6788   3.420   2.507  16.208 -0.5334 -0.1789 -0.1988
  456MPD2    C2 6789   3.375   2.558  16.336 -0.4463 -0.1662  0.4354
  456MPD2    C3 6790   3.254   2.627  16.345  0.5087  0.0079  0.3146
  456MPD2    C4 6791   3.180   2.653  16.230 -0.3233  0.2666 -0.1367
  456MPD2    C5 6792   3.224   2.606  16.107  0.1678  0.3794  1.0352
  456MPD2     H 6793   3.437   2.538  16.423  1.9299  3.0564 -0.5433
  456MPD2    H1 6794   3.102   2.728  16.224 -1.2735 -0.7774 -0.6306
  456MPD2    H2 6795   3.373   2.507  16.003 -0.2410 -0.1173 -0.5627
  456MPD2    H3 6796   3.174   2.636  16.016  3.4892  3.2578  0.1462
  456MPD2     N 6797   3.225   2.694  16.467  0.3785 -0.0965 -0.0263
  456MPD2    H5 6798   3.289   2.670  16.542 -2.0845  0.7223  2.3409
  456MPD2    N1 6799   3.526   2.423  16.180  0.5617 -0.0236 -0.4023
  456MPD2    H7 6800   3.537   2.383  16.087  0.0235 -0.7048 -0.1786
  457TMC3    C1 6801   3.113   2.803  16.636 -0.2963  0.5837 -0.8126
  457TMC3    C2 6802   3.117   2.941  16.629 -0.1413 -0.1044  0.2664
  457TMC3    C3 6803   3.200   3.017  16.706 -0.8910  0.1130  0.2497
  457TMC3    C4 6804   3.202   2.736  16.718 -0.4353 -0.1916  0.1141
  457TMC3    C5 6805   3.283   2.810  16.798  0.1910 -0.3717 -0.8719
  457TMC3    C6 6806   3.270   2.952  16.803  0.7319 -0.1178  0.8112
  457TMC3     C 6807   3.107   2.754  16.499 -0.7154  0.0472 -0.4740
  457TMC3     O 6808   3.000   2.754  16.436  0.1821 -0.2932  0.0144
  457TMC3     H 6809   3.060   2.988  16.549  0.2458  0.6707  0.4407
  457TMC3    H1 6810   3.196   2.628  16.711  0.9544 -0.2742  0.1634
  457TMC3    H2 6811   3.320   3.015  16.875  0.7435  0.1305  0.5852
  457TMC3    C7 6812   3.367   2.755  16.904  0.0241  0.1347 -0.9994
  457TMC3    C8 6813   3.164   3.152  16.729  0.0314 -0.1432 -0.1505
  457TMC3    O1 6814   3.344   2.637  16.935 -0.2600  0.2568  0.2427
  457TMC3    O2 6815   3.189   3.196  16.842 -0.5624 -0.4074 -0.1147
  458MPD2     C 6816   1.248   2.420  12.255  0.6131 -0.9839 -0.0838
  458MPD2    C1 6817   1.257   2.369  12.388 -0.1198  0.6413 -0.2272
  458MPD2    C2 6818   1.168   2.391  12.486 -0.0615  0.1031 -0.2555
  458MPD2    C3 6819   1.061   2.474  12.464 -0.0088  0.4837 -0.5163
  458MPD2    C4 6820   1.045   2.529  12.335 -0.5634 -0.1266  1.0443
  458MPD2    C5 6821   1.139   2.502  12.231  0.3469 -0.3868 -0.6676
  458MPD2     H 6822   1.175   2.359  12.589  2.2520  1.7146  0.0954
  458MPD2    H1 6823   0.961   2.591  12.305  1.0903  1.6977  0.1832
  458MPD2    H2 6824   1.322   2.399  12.180 -0.0032  0.5918 -1.1349
  458MPD2    H3 6825   1.127   2.533  12.128  0.2828  0.7781 -0.3140
  458MPD2     N 6826   0.974   2.490  12.568 -0.0701 -0.1965  0.3910
  458MPD2    H5 6827   0.983   2.419  12.641 -1.2794  0.0264  0.7523
  458MPD2    N1 6828   1.371   2.288  12.413  0.5278 -0.7716  0.6521
  458MPD2    H7 6829   1.452   2.286  12.352 -1.9089  1.2757 -2.6126
  459TMC3    C1 6830   1.510   2.172  12.559  0.1465 -0.9565  0.5958
  459TMC3    C2 6831   1.616   2.244  12.520  0.5205 -0.1011 -0.2336
  459TMC3    C3 6832   1.724   2.263  12.604 -0.9817 -0.2124 -0.3884
  459TMC3    C4 6833   1.503   2.119  12.683 -0.0349 -0.1008 -0.4971
  459TMC3    C5 6834   1.608   2.148  12.771 -0.5862 -0.6469  0.4689
  459TMC3    C6 6835   1.713   2.228  12.731 -0.4865  0.3284  0.0710
  459TMC3     C 6836   1.381   2.213  12.524  0.2450  0.1490 -0.2766
  459TMC3     O 6837   1.287   2.177  12.592 -0.3224  0.2809 -0.4837
  459TMC3     H 6838   1.622   2.289  12.421  0.5313  1.8913  0.6664
  459TMC3    H1 6839   1.418   2.065  12.724 -1.0049  0.6448 -1.5216
  459TMC3    H2 6840   1.803   2.236  12.790 -0.7196 -0.0243  0.4825
  459TMC3    C7 6841   1.593   2.090  12.896 -0.6879  0.7734  0.3416
  459TMC3    C8 6842   1.854   2.294  12.553 -0.2451  0.0088  0.1578
  459TMC3    O1 6843   1.525   1.988  12.905 -0.1852  0.0491  0.0844
  459TMC3    O2 6844   1.945   2.235  12.601  0.3689  0.0481  0.2188
  460MPD2     C 6845   0.631   4.125  11.152  0.4314 -0.1251 -0.2291
  460MPD2    C1 6846   0.695   4.244  11.147 -0.6355 -0.0851 -0.0779
  460MPD2    C2 6847   0.737   4.286  11.025  0.8321 -0.1368 -0.0514
  460MPD2    C3 6848   0.719   4.207  10.914 -0.3782 -0.2622  0.1361
  460MPD2    C4 6849   0.657   4.085  10.925  0.0712 -0.0784 -0.2598
  460MPD2    C5 6850   0.621   4.038  11.047  0.2242  0.3831  0.5628
  460MPD2     H 6851   0.768   4.390  11.018  1.1289 -0.1153  1.6482
  460MPD2    H1 6852   0.650   4.022  10.837  0.1816 -1.2040  0.5379
  460MPD2    H2 6853   0.584   4.090  11.244 -1.2574  1.9191 -0.3030
  460MPD2    H3 6854   0.589   3.938  11.070 -1.4003  0.5608 -0.9618
  460MPD2     N 6855   0.750   4.265  10.790  0.2745 -0.7667 -0.6491
  460MPD2    H5 6856   0.760   4.366  10.798 -0.0200 -0.5208 -3.4240
  460MPD2    N1 6857   0.700   4.318  11.271 -0.5943  0.1422 -0.8070
  460MPD2    H7 6858   0.691   4.265  11.357  0.9437  0.1286 -0.6403
  461TMC3    C1 6859   0.763   4.286  10.558  0.0506  0.0105 -0.5524
  461TMC3    C2 6860   0.754   4.225  10.436  0.0469 -0.9278  0.1504
  461TMC3    C3 6861   0.764   4.299  10.323  0.5304 -0.0774 -0.2895
  461TMC3    C4 6862   0.777   4.426  10.570 -0.6102  0.4187 -0.2456
  461TMC3    C5 6863   0.789   4.490  10.455  0.0490  0.0897 -0.5171
  461TMC3    C6 6864   0.773   4.433  10.333 -0.2385 -0.3641 -0.0145
  461TMC3     C 6865   0.750   4.196  10.667 -0.2778  0.3355 -0.7320
  461TMC3     O 6866   0.755   4.078  10.643 -0.6317 -0.4432 -0.2865
  461TMC3     H 6867   0.742   4.118  10.428 -0.4488 -0.8033 -0.6863
  461TMC3    H1 6868   0.760   4.484  10.659 -0.0450 -0.6420  0.5597
  461TMC3    H2 6869   0.810   4.494  10.252  0.5299  1.2839  1.5552
  461TMC3    C7 6870   0.856   4.617  10.458 -0.1738  0.2785  0.0731
  461TMC3    C8 6871   0.773   4.238  10.193  0.1137 -0.7442  0.4005
  461TMC3    O1 6872   0.831   4.680  10.358  0.5741 -0.8563  0.0192
  461TMC3    O2 6873   0.822   4.125  10.181  0.3034  0.3324 -0.3007
  462TMC3    C1 6874   0.096   1.057   0.953  0.3728  0.0983  0.9556
  462TMC3    C2 6875   0.157   1.086   0.832  0.4393  1.3208  0.1639
  462TMC3    C3 6876   0.199   0.981   0.751 -0.9929  0.0278  0.3355
  462TMC3    C4 6877   0.057   0.928   0.991 -0.4654  0.0703 -0.5539
  462TMC3    C5 6878   0.094   0.831   0.905  0.1361  0.7834 -0.5314
  462TMC3    C6 6879   0.178   0.853   0.798  0.0347  0.3916 -0.2992
  462TMC3     C 6880   0.067   1.159   1.050 -1.0368  0.4924 -0.0486
  462TMC3     O 6881   0.066   1.113   1.163 -0.1316  0.6942  0.5957
  462TMC3     H 6882   0.185   1.187   0.808  0.5517  1.1466 -0.4387
  462TMC3    H1 6883   4.703   0.909   1.063  0.7900  0.7199  0.9872
  462TMC3    H2 6884   0.174   0.785   0.714 -1.7328  0.5555 -0.3513
  462TMC3    C7 6885   0.001   0.723   0.879 -0.3689  0.7512 -0.9501
  462TMC3    C8 6886   0.215   1.011   0.611  0.1091 -1.1846 -0.4544
  462TMC3    O1 6887   0.048   0.625   0.822  0.0893  0.0835 -0.0456
  462TMC3    O2 6888   0.176   1.120   0.578 -0.1408 -0.4573 -0.3519
  463MPD2     C 6889   1.914   2.924   1.806 -0.2889  0.7987  0.5311
  463MPD2    C1 6890   1.862   3.035   1.866 -0.1387 -0.0556  0.5156
  463MPD2    C2 6891   1.949   3.138   1.893 -0.2172  0.2253  0.0330
  463MPD2    C3 6892   2.084   3.127   1.870  0.4978 -0.2686  0.5149
  463MPD2    C4 6893   2.135   3.014   1.812  0.0894  0.3980 -0.8017
  463MPD2    C5 6894   2.049   2.909   1.787  0.4389  0.1551  0.4523
  463MPD2     H 6895   1.898   3.229   1.921 -1.0671 -0.6861  1.4518
  463MPD2    H1 6896   2.240   3.006   1.790  0.0221  0.7161 -1.2294
  463MPD2    H2 6897   1.852   2.844   1.766  0.6169 -0.2438  1.1794
  463MPD2    H3 6898   2.083   2.820   1.735  3.1247  1.8546 -0.7308
  463MPD2     N 6899   2.180   3.227   1.892 -0.3594 -0.4608  0.6637
  463MPD2    H5 6900   2.279   3.208   1.886  0.0688  2.4628 -1.2998
  463MPD2    N1 6901   1.722   3.044   1.896  0.5021 -0.0241  0.4976
  463MPD2    H7 6902   1.686   3.136   1.916  0.7689  0.4214 -1.1173
  464TMC3    C1 6903   1.498   2.993   1.918 -0.5874  0.2361 -0.4763
  464TMC3    C2 6904   1.470   3.120   1.883  0.5794 -1.2523  0.2673
  464TMC3    C3 6905   1.344   3.160   1.892 -0.2563 -0.3391  0.5266
  464TMC3    C4 6906   1.403   2.905   1.968 -0.8678  0.5022 -0.3636
  464TMC3    C5 6907   1.280   2.961   1.980 -0.0323 -0.5832  0.0140
  464TMC3    C6 6908   1.244   3.082   1.929 -0.1109 -1.4136  0.4400
  464TMC3     C 6909   1.631   2.943   1.893 -0.0238  0.3595 -0.1911
  464TMC3     O 6910   1.650   2.823   1.906  0.4683  0.3458  0.3150
  464TMC3     H 6911   1.540   3.184   1.831 -0.0444 -1.5334 -0.9254
  464TMC3    H1 6912   1.412   2.798   1.983 -0.0868  0.8095  1.3426
  464TMC3    H2 6913   1.142   3.117   1.942 -0.8095 -3.5564  0.6551
  464TMC3    C7 6914   1.173   2.870   2.019  0.3449 -0.0918 -0.0707
  464TMC3    C8 6915   1.308   3.300   1.856 -0.5633 -0.2561 -0.1524
  464TMC3    O1 6916   1.209   2.790   2.104  0.0512  0.2672  0.0807
  464TMC3    O2 6917   1.190   3.322   1.842  0.2449 -0.5055 -0.1845
  465MPD2     C 6918   2.737   3.093  16.649 -0.6600  0.4925 -0.3331
  465MPD2    C1 6919   2.613   3.053  16.694  1.2431  0.3121  0.4648
  465MPD2    C2 6920   2.512   3.067  16.599 -0.1198 -0.3448 -0.6429
  465MPD2    C3 6921   2.517   3.135  16.483 -0.2582  0.0080 -0.0769
  465MPD2    C4 6922   2.643   3.175  16.449  0.1365  0.3883 -0.0182
  465MPD2    C5 6923   2.753   3.159  16.531 -0.1238 -0.3281  0.2582
  465MPD2     H 6924   2.415   3.027  16.628 -0.2963  1.5772  1.4679
  465MPD2    H1 6925   2.665   3.214  16.350 -0.7797  2.9913  0.8013
  465MPD2    H2 6926   2.827   3.071  16.706 -0.1845  0.8646 -0.9421
  465MPD2    H3 6927   2.844   3.187  16.479  0.4863 -1.4878  0.7008
  465MPD2     N 6928   2.401   3.156  16.409 -0.3827  0.3995  0.3047
  465MPD2    H5 6929   2.323   3.117  16.461 -0.5983  0.7446  0.2336
  465MPD2    N1 6930   2.587   2.994  16.821  0.1040  0.4467 -0.5242
  465MPD2    H7 6931   2.488   2.972  16.829  0.5637 -0.7920  1.8708
  466TMC3    C1 6932   2.031   3.179  16.257  0.1679 -0.6027 -0.3115
  466TMC3    C2 6933   1.981   3.307  16.251 -0.5915  0.0719 -0.3441
  466TMC3    C3 6934   2.072   3.411  16.238 -0.4387 -0.5707  0.4902
  466TMC3    C4 6935   2.161   3.152  16.273 -0.2244  0.6765 -0.6653
  466TMC3    C5 6936   2.247   3.259  16.248 -0.2408  0.2693 -1.0510
  466TMC3    C6 6937   2.207   3.389  16.241 -0.5031  0.1721 -0.2795
  466TMC3     C 6938   1.960   3.098  16.350 -0.6050  0.3161  0.0061
  466TMC3     O 6939   2.021   3.074  16.451 -0.1843  0.0888  0.1098
  466TMC3     H 6940   1.876   3.334  16.246 -0.6077  0.2029  0.6199
  466TMC3    H1 6941   2.197   3.053  16.299 -1.7208  0.2572 -0.2079
  466TMC3    H2 6942   2.274   3.470  16.216 -1.4921  0.9681 -0.3847
  466TMC3    C7 6943   2.385   3.241  16.299  0.2548 -0.2950 -0.5857
  466TMC3    C8 6944   2.033   3.553  16.229  0.2900 -0.4598  0.0539
  466TMC3    O1 6945   2.469   3.305  16.240 -0.4815  0.1529  0.2110
  466TMC3    O2 6946   2.124   3.634  16.219  0.0719 -0.1617  0.2717
  467TMC3    C1 6947   2.886   1.837  13.692 -0.6467  0.5199 -0.5145
  467TMC3    C2 6948   2.896   1.944  13.607 -0.0542 -0.2019 -0.0384
  467TMC3    C3 6949   2.824   1.939  13.490  0.0754 -0.1285 -0.2765
  467TMC3    C4 6950   2.796   1.735  13.667  0.6260  0.0170 -0.3356
  467TMC3    C5 6951   2.722   1.736  13.555  0.2763  0.5994  0.1166
  467TMC3    C6 6952   2.743   1.834  13.458 -0.4104  0.0667  0.2009
  467TMC3     C 6953   2.992   1.806  13.780 -0.0458 -0.0148  0.1959
  467TMC3     O 6954   3.099   1.853  13.747  0.0727  0.3719 -0.1284
  467TMC3     H 6955   2.952   2.031  13.640 -1.4824  0.3554  0.9264
  467TMC3    H1 6956   2.778   1.659  13.743  2.2683  0.6193  0.6634
  467TMC3    H2 6957   2.672   1.838  13.376  0.3579  0.7187 -0.4321
  467TMC3    C7 6958   2.606   1.652  13.537 -0.2445  0.2869  0.6135
  467TMC3    C8 6959   2.859   2.037  13.393 -0.0205 -0.3603 -0.3203
  467TMC3    O1 6960   2.552   1.655  13.428 -0.1383  0.3169  0.1772
  467TMC3    O2 6961   2.912   2.137  13.431  0.2644  0.8078 -0.7832
  468MPD2     C 6962   2.987   4.518  10.769  0.1780 -0.8439  0.0380
  468MPD2    C1 6963   2.924   4.501  10.891 -0.5033  0.0109  0.2039
  468MPD2    C2 6964   2.860   4.384  10.925 -0.0598  0.4259  0.0632
  468MPD2    C3 6965   2.850   4.289  10.826  0.0987  0.1902 -0.2315
  468MPD2    C4 6966   2.889   4.317  10.692 -0.4795 -0.5380 -0.2146
  468MPD2    C5 6967   2.974   4.424  10.671  0.1359 -0.1201 -0.3166
  468MPD2     H 6968   2.814   4.370  11.022  2.4339  0.6659  1.2763
  468MPD2    H1 6969   2.871   4.244  10.614 -0.2318 -0.7915 -0.0350
  468MPD2    H2 6970   3.042   4.607  10.740  0.0163 -1.6667 -2.8190
  468MPD2    H3 6971   3.022   4.434  10.574 -0.0838 -3.0204 -0.7175
  468MPD2     N 6972   2.817   4.151  10.848  0.4916  0.4618  0.3127
  468MPD2    H5 6973   2.803   4.100  10.762  2.9405  0.2343  0.0367
  468MPD2    N1 6974   2.929   4.602  10.990  0.0711 -0.1210 -0.0756
  468MPD2    H7 6975   2.882   4.576  11.076  0.4900 -0.6842 -0.0150
  469TMC3    C1 6976   2.978   0.068  11.103  0.2555  0.0533  0.2506
  469TMC3    C2 6977   3.015   0.003  11.229  0.0311 -0.0831 -0.0265
  469TMC3    C3 6978   3.031   0.083  11.340 -0.0481 -0.3074  0.0974
  469TMC3    C4 6979   2.986   0.199  11.093  0.5456 -0.3878  0.2706
  469TMC3    C5 6980   3.008   0.273  11.204  0.3331  0.2506  0.5553
  469TMC3    C6 6981   3.039   0.219  11.329  0.6585  0.1377  0.0781
  469TMC3     C 6982   2.983   4.724  10.981  0.3109 -0.1204  0.9314
  469TMC3     O 6983   2.997   0.067  10.879  0.2444 -0.4786 -0.5316
  469TMC3     H 6984   2.998   4.621  11.237  1.1397 -0.2771 -0.3244
  469TMC3    H1 6985   2.959   0.257  11.005  0.9423 -1.1476 -0.3548
  469TMC3    H2 6986   3.038   0.280  11.419  1.6751 -0.6216  0.6023
  469TMC3    C7 6987   2.981   0.418  11.197  0.7957  0.2078 -0.4044
  469TMC3    C8 6988   3.014   0.024  11.468 -0.0062  0.1630 -0.3400
  469TMC3    O1 6989   2.933   0.453  11.089 -0.3678 -0.8285  0.5036
  469TMC3    O2 6990   2.954   0.089  11.551  0.4827  0.1150 -0.1672
  470TMC3    C1 6991   4.044   0.082   0.662  0.4898  0.6619  0.2068
  470TMC3    C2 6992   4.018   0.212   0.643 -0.7461 -0.9565  0.0691
  470TMC3    C3 6993   4.071   0.295   0.745  0.1152  0.2487 -0.6304
  470TMC3    C4 6994   4.122   0.029   0.765 -0.3127 -0.2092  0.3515
  470TMC3    C5 6995   4.165   0.114   0.860 -0.5572 -0.3358  0.3839
  470TMC3    C6 6996   4.133   0.245   0.854 -0.0160 -0.1209 -0.2245
  470TMC3     C 6997   3.988   4.720   0.562 -1.0929  0.8066  0.7077
  470TMC3     O 6998   3.996   0.032   0.446  0.2938  0.1396  1.0693
  470TMC3     H 6999   3.953   0.249   0.564  1.7597  2.3621 -0.4255
  470TMC3    H1 7000   4.157   4.651   0.766 -1.7468 -0.7002  0.1477
  470TMC3    H2 7001   4.164   0.308   0.937  0.6100  2.3639 -2.3344
  470TMC3    C7 7002   4.255   0.072   0.958 -0.1233 -0.0671 -0.6107
  470TMC3    C8 7003   4.025   0.433   0.761  0.3755  0.0404 -0.0427
  470TMC3    O1 7004   4.334   0.156   1.002 -0.3161  0.5275 -0.3061
  470TMC3    O2 7005   4.051   0.477   0.870  0.5192  0.3166 -0.2277
  471MPD2     C 7006   4.659   2.091  16.849  1.2538 -0.0419 -0.0238
  471MPD2    C1 7007   0.023   1.987  16.851 -0.3484  0.9645 -0.3997
  471MPD2    C2 7008   0.092   1.950  16.962 -0.0073 -0.0749 -0.5278
  471MPD2    C3 7009   0.072   2.018  17.080  0.4765  0.0044 -0.8195
  471MPD2    C4 7010   4.711   2.124  17.083 -0.6628  0.0830 -0.3079
  471MPD2    C5 7011   4.644   2.160  16.968 -0.2134  0.1349  0.9097
  471MPD2     H 7012   0.160   1.866  16.957 -1.4534 -1.2856  0.0928
  471MPD2    H1 7013   4.678   2.175  17.173 -1.2769  0.8992 -1.0103
  471MPD2    H2 7014   4.605   2.129  16.763  0.6955  1.5117  1.0135
  471MPD2    H3 7015   4.583   2.250  16.970 -0.8099 -0.1617 -2.8481
  471MPD2     N 7016   0.111   1.969  17.205  0.1112  0.4241 -0.0570
  471MPD2    H5 7017   0.071   2.022  17.282 -2.8223 -2.2743  0.2800
  471MPD2    N1 7018   0.039   1.912  16.738  0.3678  0.3645 -0.2267
  471MPD2    H7 7019   0.110   1.839  16.742 -2.2104 -2.2393 -1.9143
  472TMC3    C1 7020   0.034   1.819  16.527 -0.5793 -0.8699  0.0137
  472TMC3    C2 7021   0.006   1.824  16.396 -0.9527 -0.2410  0.1308
  472TMC3    C3 7022   0.038   1.724  16.316  0.0088  0.3703 -0.3831
  472TMC3    C4 7023   0.102   1.711  16.584 -0.2456 -0.4479  0.3232
  472TMC3    C5 7024   0.133   1.611  16.500 -0.0609 -0.3825 -0.4276
  472TMC3    C6 7025   0.105   1.617  16.365  0.1143 -0.4473  0.4721
  472TMC3     C 7026   4.701   1.920  16.617 -0.5124  0.6160 -0.2505
  472TMC3     O 7027   4.603   1.982  16.579 -0.4294 -0.4373 -0.3525
  472TMC3     H 7028   4.674   1.908  16.357 -0.5054 -0.1179 -0.2455
  472TMC3    H1 7029   0.122   1.698  16.690  0.0478 -1.9423  0.0867
  472TMC3    H2 7030   0.136   1.542  16.292  2.4713  0.0845  0.9308
  472TMC3    C7 7031   0.127   1.482  16.562  0.7155  0.2558 -0.1910
  472TMC3    C8 7032   4.645   1.688  16.234 -1.0761 -0.5585  0.0344
  472TMC3    O1 7033   0.129   1.479  16.685 -0.2071  0.0716 -0.0484
  472TMC3    O2 7034   4.601   1.764  16.150 -0.5806 -0.1769 -0.3694
  473MPD2     C 7035   4.379   3.742  14.047  0.5323  0.2842  0.2441
  473MPD2    C1 7036   4.467   3.781  13.947 -0.0906  0.3897 -1.0318
  473MPD2    C2 7037   4.572   3.867  13.986  0.5178  0.4176 -0.9616
  473MPD2    C3 7038   4.588   3.910  14.113 -0.5728 -0.0571  0.5910
  473MPD2    C4 7039   4.510   3.855  14.212 -0.2077 -0.6222  0.3635
  473MPD2    C5 7040   4.410   3.768  14.177 -0.4184 -0.4017 -0.7164
  473MPD2     H 7041   4.650   3.892  13.915  1.4579  0.5059  0.1161
  473MPD2    H1 7042   4.529   3.883  14.315 -0.3452  0.0410  0.2090
  473MPD2    H2 7043   4.291   3.683  14.025  0.2536  0.8595 -0.1727
  473MPD2    H3 7044   4.338   3.740  14.253 -0.2278  2.0036  0.3444
  473MPD2     N 7045   4.695   3.991  14.159 -0.0431  0.5054 -0.2194
  473MPD2    H5 7046   4.694   4.019  14.256  3.3987  1.0388 -0.3488
  473MPD2    N1 7047   4.449   3.752  13.816 -0.4074  0.4634 -0.1635
  473MPD2    H7 7048   4.498   3.805  13.745  0.1902  0.0543 -0.0578
  474TMC3    C1 7049   0.137   4.151  14.147 -0.4671  0.1448 -0.1503
  474TMC3    C2 7050   0.165   4.259  14.075  0.3341  0.7328 -0.4111
  474TMC3    C3 7051   0.198   4.382  14.129 -0.4310  0.1381 -0.0515
  474TMC3    C4 7052   0.149   4.161  14.286 -1.0146  0.8655 -1.1756
  474TMC3    C5 7053   0.194   4.275  14.342 -0.0688  1.0041  0.1387
  474TMC3    C6 7054   0.214   4.388  14.264 -0.0509  0.4187  0.1164
  474TMC3     C 7055   0.078   4.038  14.081  0.4773  0.1911  0.2474
  474TMC3     O 7056   0.105   4.018  13.962  0.0221 -0.2639 -0.5271
  474TMC3     H 7057   0.148   4.261  13.968  1.5702  1.4179 -0.5948
  474TMC3    H1 7058   0.157   4.071  14.347 -1.5233  0.9127 -1.0429
  474TMC3    H2 7059   0.220   4.485  14.312 -0.9149  0.1017  0.8716
  474TMC3    C7 7060   0.210   4.293  14.486  0.3493  0.2832 -0.5562
  474TMC3    C8 7061   0.125   4.486  14.063 -0.5847  0.4586 -0.2990
  474TMC3    O1 7062   0.288   4.376  14.526  0.4262  0.1981  0.4739
  474TMC3    O2 7063   0.047   4.437  13.980  0.1494 -0.5083 -0.0062
  475MPD2     C 7064   3.570   2.059  10.402 -0.8485  0.2311  0.1280
  475MPD2    C1 7065   3.569   2.195  10.355  0.0821 -0.3676  0.1693
  475MPD2    C2 7066   3.448   2.263  10.366  0.3322 -0.2136 -0.0988
  475MPD2    C3 7067   3.333   2.200  10.406 -0.0671  0.2069  0.4443
  475MPD2    C4 7068   3.333   2.065  10.431 -0.7174 -0.4393  0.0077
  475MPD2    C5 7069   3.453   1.994  10.432 -0.5412 -0.0150  0.1998
  475MPD2     H 7070   3.435   2.367  10.336 -3.0304 -0.8243 -0.7549
  475MPD2    H1 7071   3.242   2.007  10.440 -2.1375  2.0665  1.8357
  475MPD2    H2 7072   3.660   1.999  10.407 -0.4503  0.8667  0.5492
  475MPD2    H3 7073   3.441   1.888  10.449  1.1219 -0.3079 -0.5613
  475MPD2     N 7074   3.214   2.272  10.391  0.0047 -0.4826 -0.8340
  475MPD2    H5 7075   3.217   2.366  10.355 -1.0492  0.0640  0.5104
  475MPD2    N1 7076   3.694   2.255  10.313  0.3851 -0.4251 -0.3675
  475MPD2    H7 7077   3.769   2.187  10.297  1.6179  0.5259  1.3356
  476TMC3    C1 7078   3.859   2.399  10.242 -0.1935  0.5729  0.2366
  476TMC3    C2 7079   3.892   2.500  10.160 -0.2282 -0.3361 -0.1302
  476TMC3    C3 7080   4.026   2.518  10.127  0.1821 -0.1075  0.0462
  476TMC3    C4 7081   3.954   2.314  10.300  0.0740 -0.3662  0.5776
  476TMC3    C5 7082   4.080   2.332  10.260  0.0305  0.1293 -0.7013
  476TMC3    C6 7083   4.122   2.436  10.180  0.1238  0.0511 -0.9117
  476TMC3     C 7084   3.714   2.380  10.266 -0.3876  0.2676  0.8268
  476TMC3     O 7085   3.637   2.471  10.234 -0.2217  0.2712  0.7703
  476TMC3     H 7086   3.821   2.580  10.143  1.2431  0.5841 -1.9504
  476TMC3    H1 7087   3.931   2.239  10.374 -2.3844 -0.2837 -0.0979
  476TMC3    H2 7088   4.228   2.450  10.164 -0.1056  1.0232 -1.6121
  476TMC3    C7 7089   4.178   2.321  10.368 -0.2894  0.4333 -0.8105
  476TMC3    C8 7090   4.077   2.657  10.133 -0.2391 -0.3181  0.0696
  476TMC3    O1 7091   4.295   2.307  10.333  0.0935  0.1570 -0.0093
  476TMC3    O2 7092   4.005   2.738  10.191 -0.2808 -0.3866 -0.4866
  477MPD2     C 7093   1.191   3.790  11.862  0.7115  0.3837  0.4969
  477MPD2    C1 7094   1.105   3.717  11.944  0.7023  0.6118 -0.2307
  477MPD2    C2 7095   1.165   3.640  12.043 -0.2151  0.5258 -0.0058
  477MPD2    C3 7096   1.307   3.635  12.056 -0.1728 -0.6768 -0.0287
  477MPD2    C4 7097   1.385   3.706  11.971  0.3498  0.0186  0.6162
  477MPD2    C5 7098   1.328   3.785  11.868  0.0635  0.0676 -0.1856
  477MPD2     H 7099   1.102   3.576  12.103 -1.1584  0.5980 -0.9276
  477MPD2    H1 7100   1.493   3.695  11.978  0.4254 -0.7934 -1.6251
  477MPD2    H2 7101   1.160   3.851  11.778 -2.9446 -1.2509  0.6657
  477MPD2    H3 7102   1.383   3.852  11.803  1.3112  1.0500  1.8871
  477MPD2     N 7103   1.363   3.538  12.147  0.8631 -0.6584  0.3641
  477MPD2    H5 7104   1.292   3.496  12.206 -1.4914  1.6512 -0.7935
  477MPD2    N1 7105   0.970   3.723  11.918 -0.2989 -0.6272 -0.6798
  477MPD2    H7 7106   0.935   3.772  11.836  0.6443 -1.9004 -1.8427
  478TMC3    C1 7107   0.741   3.691  11.924  0.1244 -0.1131 -0.5087
  478TMC3    C2 7108   0.681   3.759  12.020  0.2059 -0.8195 -1.1305
  478TMC3    C3 7109   0.609   3.872  11.982 -0.4664  0.1189  0.6727
  478TMC3    C4 7110   0.746   3.726  11.794  0.9719 -0.2892 -0.3971
  478TMC3    C5 7111   0.669   3.830  11.759 -0.8708 -0.8938  0.0451
  478TMC3    C6 7112   0.602   3.907  11.853 -0.4114 -0.3886  0.2186
  478TMC3     C 7113   0.869   3.648  11.978 -0.2454 -0.0403  0.7492
  478TMC3     O 7114   0.873   3.567  12.068 -0.1619 -0.3301  0.4232
  478TMC3     H 7115   0.695   3.726  12.122 -2.1205  1.7352  0.0301
  478TMC3    H1 7116   0.783   3.659  11.717  0.3911  0.0655 -0.9915
  478TMC3    H2 7117   0.544   3.993  11.822  0.1960  0.9088  2.6624
  478TMC3    C7 7118   0.580   3.791  11.654  0.1234 -0.4742  0.8639
  478TMC3    C8 7119   0.566   3.964  12.083  0.1889  1.4037 -0.1319
  478TMC3    O1 7120   0.573   3.674  11.635 -0.3134 -0.2345 -0.6024
  478TMC3    O2 7121   0.576   3.918  12.196 -0.1643 -0.0367 -0.4634
  479MPD2     C 7122   4.432   1.194  15.135 -0.2114 -0.0345  0.3259
  479MPD2    C1 7123   4.417   1.125  15.253  0.1893 -0.0217  0.5033
  479MPD2    C2 7124   4.496   1.172  15.360  0.4222  0.3606  0.0678
  479MPD2    C3 7125   4.579   1.283  15.344  0.1590  0.0710 -0.0991
  479MPD2    C4 7126   4.593   1.342  15.224 -0.0174 -0.6927  0.0265
  479MPD2    C5 7127   4.507   1.308  15.118  1.0059 -0.2649  0.4628
  479MPD2     H 7128   4.507   1.117  15.452 -0.9142 -0.0940 -0.0486
  479MPD2    H1 7129   4.651   1.433  15.218 -0.5958 -0.2567  1.2113
  479MPD2    H2 7130   4.368   1.173  15.050  0.6592 -0.9158 -0.1146
  479MPD2    H3 7131   4.507   1.363  15.025  0.9810 -2.7874 -1.0226
  479MPD2     N 7132   4.675   1.329  15.445 -0.3959  1.0956 -0.7127
  479MPD2    H5 7133   0.039   1.363  15.409 -0.7849 -0.3123 -2.9801
  479MPD2    N1 7134   4.305   1.041  15.272 -0.1277  0.7617  0.0555
  479MPD2    H7 7135   4.239   1.027  15.195  0.3329 -1.0103 -0.0033
  480TMC3    C1 7136   4.458   1.161  15.838  0.7237 -0.1051 -0.3263
  480TMC3    C2 7137   4.330   1.197  15.800 -0.3344 -0.5988  0.0696
  480TMC3    C3 7138   4.316   1.279  15.688 -0.4060  0.4424 -1.1250
  480TMC3    C4 7139   4.570   1.199  15.769 -1.0616  0.0936  0.2485
  480TMC3    C5 7140   4.549   1.265  15.651  0.0610  0.0357  0.8775
  480TMC3    C6 7141   4.426   1.309  15.611 -0.0580  0.1144  0.7260
  480TMC3     C 7142   4.486   1.068  15.944 -0.2064 -0.1798  0.0335
  480TMC3     O 7143   4.602   1.037  15.970 -0.1225  0.8615 -0.1755
  480TMC3     H 7144   4.242   1.188  15.863 -0.9008 -1.5542 -0.8614
  480TMC3    H1 7145   4.669   1.172  15.803 -1.3701  0.4033  1.3936
  480TMC3    H2 7146   4.420   1.373  15.523  0.4384 -1.2020 -0.2678
  480TMC3    C7 7147   4.670   1.316  15.584 -0.3021  0.1817 -0.1512
  480TMC3    C8 7148   4.185   1.271  15.616 -0.3921  0.3175  0.2505
  480TMC3    O1 7149   0.049   1.333  15.653 -0.0721  0.3619 -0.1480
  480TMC3    O2 7150   4.082   1.266  15.683 -0.0765  0.3273  0.6474
  481MPD2     C 7151   1.425   0.885  14.424  0.1388  0.2037  0.5867
  481MPD2    C1 7152   1.298   0.840  14.424  0.0504 -1.0091  0.0016
  481MPD2    C2 7153   1.234   0.808  14.543 -0.2417  0.1915 -0.8145
  481MPD2    C3 7154   1.296   0.833  14.661 -0.1922  0.1341  0.3623
  481MPD2    C4 7155   1.423   0.895  14.658 -0.1527 -0.5447  0.5867
  481MPD2    C5 7156   1.488   0.917  14.542  0.0434 -0.0565 -0.0582
  481MPD2     H 7157   1.137   0.760  14.549 -0.6715  1.1544 -0.0962
  481MPD2    H1 7158   1.488   0.921  14.741 -4.2835 -1.5330  4.1632
  481MPD2    H2 7159   1.486   0.923  14.343 -3.0631  1.8785 -1.0627
  481MPD2    H3 7160   1.582   0.970  14.545 -1.1824  2.0438  1.8246
  481MPD2     N 7161   1.255   0.789  14.791  0.1920  0.2447 -0.0634
  481MPD2    H5 7162   1.321   0.811  14.865 -0.1933  1.1919 -0.0138
  481MPD2    N1 7163   1.248   0.817  14.295 -0.5962  0.0688  0.1831
  481MPD2    H7 7164   1.319   0.838  14.225 -0.0425 -1.0288  0.4119
  482TMC3    C1 7165   1.113   0.757  14.120  0.2852 -0.3115 -0.0762
  482TMC3    C2 7166   1.227   0.722  14.050  0.9830 -0.4085 -0.6226
  482TMC3    C3 7167   1.214   0.703  13.916  0.1389  0.1790  0.8750
  482TMC3    C4 7168   0.992   0.764  14.062 -0.2331  0.1046  0.0084
  482TMC3    C5 7169   0.987   0.748  13.924  0.6179  1.1821 -0.0380
  482TMC3    C6 7170   1.097   0.716  13.851  0.0091  0.1800  0.1514
  482TMC3     C 7171   1.120   0.778  14.263 -0.3102  0.4685 -0.2722
  482TMC3     O 7172   1.017   0.779  14.333 -0.2501  0.0994 -0.4118
  482TMC3     H 7173   1.324   0.707  14.097 -0.5218 -2.5472  1.7729
  482TMC3    H1 7174   0.903   0.799  14.113  1.6969  1.9594  2.1322
  482TMC3    H2 7175   1.093   0.696  13.745 -0.7385  2.8785 -0.3156
  482TMC3    C7 7176   0.858   0.702  13.877  0.2349 -0.0938  1.0598
  482TMC3    C8 7177   1.332   0.648  13.851  0.0740 -0.6303  0.3928
  482TMC3    O1 7178   0.767   0.689  13.957 -0.0754 -0.0656 -0.3662
  482TMC3    O2 7179   1.405   0.580  13.921  0.5898 -0.2783 -0.2236
  483TMC3    C1 7180   4.204   3.902   1.251  0.1879 -0.5520 -0.2338
  483TMC3    C2 7181   4.236   3.980   1.144 -0.2024 -0.1158 -0.4637
  483TMC3    C3 7182   4.367   3.998   1.114 -0.2596 -1.0743  0.3320
  483TMC3    C4 7183   4.293   3.827   1.322 -0.3622 -0.2158 -0.2886
  483TMC3    C5 7184   4.417   3.828   1.272  0.0868 -0.2205  0.3929
  483TMC3    C6 7185   4.462   3.918   1.170  0.6865  0.1364  0.0396
  483TMC3     C 7186   4.065   3.875   1.285 -0.0673 -0.3292  0.7211
  483TMC3     O 7187   4.042   3.843   1.398 -0.1149  0.0957 -0.5258
  483TMC3     H 7188   4.156   4.031   1.092 -1.4572 -0.5804  1.0361
  483TMC3    H1 7189   4.259   3.769   1.407 -1.9472  0.7369 -0.2629
  483TMC3    H2 7190   4.563   3.906   1.132  0.7013  2.3787 -0.5769
  483TMC3    C7 7191   4.517   3.742   1.322 -0.3843 -0.8296  0.5483
  483TMC3    C8 7192   4.394   4.106   1.024 -0.8590  0.0329 -0.1086
  483TMC3    O1 7193   4.630   3.793   1.333 -0.4463  0.3441 -0.1051
  483TMC3    O2 7194   4.307   4.154   0.951 -0.3510 -0.4253 -0.1629
  484MPD2     C 7195   1.966   2.543  12.316 -0.3521  0.1848 -0.5194
  484MPD2    C1 7196   1.984   2.456  12.422 -0.3439 -0.0314  0.4761
  484MPD2    C2 7197   2.114   2.443  12.477  0.4719 -0.2798  0.1500
  484MPD2    C3 7198   2.217   2.521  12.424  1.3202 -0.1940 -0.4626
  484MPD2    C4 7199   2.188   2.608  12.324  0.6986 -0.6331 -0.3643
  484MPD2    C5 7200   2.067   2.608  12.261 -0.0247 -0.2916 -0.3056
  484MPD2     H 7201   2.128   2.385  12.568  0.1104  0.7275  0.8477
  484MPD2    H1 7202   2.264   2.681  12.296  0.2827 -0.3054 -0.6392
  484MPD2    H2 7203   1.867   2.549  12.271 -0.5830  1.9266  0.2431
  484MPD2    H3 7204   2.049   2.651  12.163  0.8658  1.4575  0.3033
  484MPD2     N 7205   2.349   2.527  12.478  0.1434  0.3714 -0.1933
  484MPD2    H5 7206   2.396   2.610  12.445 -0.4279  0.1570 -1.5815
  484MPD2    N1 7207   1.865   2.405  12.474 -0.6749  0.3569 -0.2956
  484MPD2    H7 7208   1.774   2.441  12.449 -0.7638 -0.4709 -1.1669
  485TMC3    C1 7209   2.540   2.439  12.594  0.5615 -0.0113  0.0029
  485TMC3    C2 7210   2.595   2.323  12.651 -0.0962 -0.0119 -0.5492
  485TMC3    C3 7211   2.730   2.325  12.679 -0.5253  0.1061  1.0578
  485TMC3    C4 7212   2.618   2.543  12.554  0.5537  0.4323  0.0519
  485TMC3    C5 7213   2.755   2.541  12.587 -0.5286  0.1373  0.0589
  485TMC3    C6 7214   2.813   2.431  12.657  0.4259  0.1723  0.9946
  485TMC3     C 7215   2.405   2.422  12.547 -0.6310  0.9711  0.5146
  485TMC3     O 7216   2.374   2.303  12.538 -0.2035 -0.0576  0.4249
  485TMC3     H 7217   2.535   2.241  12.688 -0.9664  0.3530 -1.1596
  485TMC3    H1 7218   2.581   2.630  12.499 -0.0765 -0.4293 -0.8945
  485TMC3    H2 7219   2.910   2.440  12.705  0.7976  0.5058  0.1889
  485TMC3    C7 7220   2.850   2.591  12.490  0.0607  0.2162 -0.4457
  485TMC3    C8 7221   2.796   2.209  12.627  0.1553  0.7475  0.6386
  485TMC3    O1 7222   2.812   2.689  12.426  0.1190  0.2190 -0.0169
  485TMC3    O2 7223   2.901   2.243  12.573 -0.2164 -0.1188  0.1736
  486MPD2     C 7224   3.600   1.398  13.168  0.6461 -0.4010 -0.1591
  486MPD2    C1 7225   3.681   1.386  13.056 -0.1908 -0.0678 -0.8808
  486MPD2    C2 7226   3.727   1.501  12.990  1.0002  0.6102  0.9954
  486MPD2    C3 7227   3.672   1.624  13.027  0.4188  0.2235 -0.2216
  486MPD2    C4 7228   3.586   1.634  13.130 -0.2968  0.7703 -0.2402
  486MPD2    C5 7229   3.553   1.521  13.201  0.3836 -0.3415  0.2720
  486MPD2     H 7230   3.794   1.492  12.905 -0.4382  0.1506 -0.0972
  486MPD2    H1 7231   3.541   1.729  13.155 -1.3715  0.3926 -0.7297
  486MPD2    H2 7232   3.553   1.316  13.221 -0.2333  0.4931  0.4457
  486MPD2    H3 7233   3.474   1.526  13.276 -0.3288 -0.2612 -0.4851
  486MPD2     N 7234   3.721   1.740  12.961 -0.6254  0.0289 -0.3321
  486MPD2    H5 7235   3.765   1.730  12.870 -0.7579 -0.6816 -0.3200
  486MPD2    N1 7236   3.723   1.256  13.030  0.0241  0.1240  0.0288
  486MPD2    H7 7237   3.709   1.195  13.109 -2.1823  0.7549  0.1119
  487TMC3    C1 7238   3.848   1.084  12.940  0.0607  0.6981  0.1194
  487TMC3    C2 7239   3.819   1.000  12.833 -0.5494 -0.3650 -0.3233
  487TMC3    C3 7240   3.813   0.871  12.868  0.0559  0.7526  0.2056
  487TMC3    C4 7241   3.895   1.034  13.058  0.4776 -0.3983 -0.4604
  487TMC3    C5 7242   3.905   0.898  13.079  0.2930 -0.0624 -0.2355
  487TMC3    C6 7243   3.869   0.815  12.983  1.0585  0.7448  0.1057
  487TMC3     C 7244   3.801   1.218  12.926 -0.6401  0.0656  0.6988
  487TMC3     O 7245   3.819   1.283  12.825  0.3120  0.5796  0.1725
  487TMC3     H 7246   3.771   1.042  12.745 -2.0677 -3.1526 -0.8175
  487TMC3    H1 7247   3.949   1.102  13.124  0.6414  0.0964 -1.0981
  487TMC3    H2 7248   3.855   0.708  12.995  0.9162  0.7748  0.2039
  487TMC3    C7 7249   3.901   0.857  13.216  0.1406  0.2079  0.2140
  487TMC3    C8 7250   3.722   0.793  12.782 -0.3776 -0.2500  0.4381
  487TMC3    O1 7251   3.888   0.947  13.302 -0.0866  0.2007 -0.0952
  487TMC3    O2 7252   3.730   0.816  12.661 -0.6091  0.8414 -0.0315
  488MPD2     C 7253   4.133   2.730  16.574 -0.2969  0.4620 -0.9173
  488MPD2    C1 7254   4.131   2.831  16.667  0.1209 -0.2214 -1.1803
  488MPD2    C2 7255   4.064   2.814  16.787 -0.8355 -0.2190  0.1001
  488MPD2    C3 7256   3.990   2.696  16.809  0.5155  0.1783  0.0090
  488MPD2    C4 7257   3.989   2.602  16.708 -0.5083  0.3769  0.6520
  488MPD2    C5 7258   4.064   2.613  16.597  1.1263 -0.1388 -0.1347
  488MPD2     H 7259   4.084   2.884  16.867  0.5847 -2.1290  1.3984
  488MPD2    H1 7260   3.935   2.509  16.725  0.2944  0.0230  1.2651
  488MPD2    H2 7261   4.192   2.739  16.483 -1.3979  0.0661 -1.6589
  488MPD2    H3 7262   4.058   2.543  16.515  0.0525  0.9620 -0.9945
  488MPD2     N 7263   3.938   2.673  16.937 -0.0076  0.2735  0.6515
  488MPD2    H5 7264   3.958   2.742  17.008  0.3490  1.9631 -1.0780
  488MPD2    N1 7265   4.202   2.951  16.650  0.1241  0.0016  0.2692
  488MPD2    H7 7266   4.189   3.020  16.724  1.4289  0.8704 -0.3165
  489TMC3    C1 7267   3.873   2.550  17.130  0.9015  0.4702 -0.5622
  489TMC3    C2 7268   3.960   2.619  17.202 -0.0675 -0.0326  0.5568
  489TMC3    C3 7269   3.951   2.617  17.340 -0.5795 -0.9018 -0.1399
  489TMC3    C4 7270   3.789   2.457  17.183  0.3208 -0.0572  0.0492
  489TMC3    C5 7271   3.794   2.451  17.325  0.3029 -0.6869 -0.5703
  489TMC3    C6 7272   3.871   2.526  17.404  0.6312  0.1425 -0.1838
  489TMC3     C 7273   3.876   2.562  16.984  0.1846  0.1085 -0.1758
  489TMC3     O 7274   3.819   2.472  16.923  0.1176  0.2381  0.0819
  489TMC3     H 7275   4.028   2.687  17.152  2.0495 -2.6809 -0.1483
  489TMC3    H1 7276   3.725   2.396  17.120  0.4502  0.6444 -0.7606
  489TMC3    H2 7277   3.866   2.528  17.513  1.7012 -1.3799 -0.1133
  489TMC3    C7 7278   3.741   2.335  17.401 -0.0225  0.5935 -0.3702
  489TMC3    C8 7279   4.011   2.737  17.407  0.1713  0.2446 -0.0406
  489TMC3    O1 7280   3.761   2.333  17.523  0.0097  0.1470  0.2721
  489TMC3    O2 7281   4.087   2.804  17.344  0.3721  0.2385 -0.4402
  490MPD2     C 7282   4.584   2.789   0.124 -0.1330  0.2137 -0.6071
  490MPD2    C1 7283   4.631   2.734   0.009  0.0786 -0.5979 -0.7915
  490MPD2    C2 7284   4.720   2.802  17.631 -0.0581  0.0828  0.2623
  490MPD2    C3 7285   0.055   2.916  17.679 -0.4630  0.3379  0.1151
  490MPD2    C4 7286   0.006   2.975   0.096  0.3924  0.1268  0.3479
  490MPD2    C5 7287   4.638   2.907   0.170 -0.4174 -0.0911 -0.5225
  490MPD2     H 7288   0.022   2.769  17.531 -1.4650 -3.5634  1.0995
  490MPD2    H1 7289   0.064   3.059   0.133  1.9938 -0.2808 -1.2536
  490MPD2    H2 7290   4.514   2.734   0.186  0.3822 -2.1638 -2.1605
  490MPD2    H3 7291   4.609   2.939   0.270 -0.3578 -1.0088 -0.2130
  490MPD2     N 7292   0.159   2.979  17.614  0.3170 -0.1095 -0.1408
  490MPD2    H5 7293   0.203   3.065  17.646  0.5016 -0.6112  0.9395
  490MPD2    N1 7294   4.577   2.612  17.663 -0.4604 -0.2727  0.0670
  490MPD2    H7 7295   4.521   2.562   0.032  0.9789 -0.4705  1.0960
  491TMC3    C1 7296   4.558   2.418  17.541 -0.3829  0.0388 -0.6938
  491TMC3    C2 7297   4.584   2.339  17.653 -0.1046  0.0960 -0.2341
  491TMC3    C3 7298   4.570   2.203  17.633 -0.7686 -0.2767  0.8123
  491TMC3    C4 7299   4.506   2.365  17.423 -0.3687 -0.2051  0.6652
  491TMC3    C5 7300   4.482   2.235  17.418 -0.2661 -0.1555 -0.4018
  491TMC3    C6 7301   4.511   2.147  17.523  0.5622 -0.5927 -0.4710
  491TMC3     C 7302   4.607   2.550  17.541 -0.1447  0.0333  0.3392
  491TMC3     O 7303   4.659   2.586  17.438 -0.0797  0.1048 -0.3462
  491TMC3     H 7304   4.647   2.377   0.033 -0.2956 -2.7513  1.3082
  491TMC3    H1 7305   4.498   2.419  17.329 -1.0371 -0.8536  0.3514
  491TMC3    H2 7306   4.489   2.041  17.515 -1.4499 -0.3077  1.1501
  491TMC3    C7 7307   4.433   2.164  17.300 -0.4821 -0.0218  0.6825
  491TMC3    C8 7308   4.599   2.125   0.048  0.7045  0.1856  0.5398
  491TMC3    O1 7309   4.453   2.045  17.292 -0.0765 -0.4973 -0.1173
  491TMC3    O2 7310   4.552   2.156   0.158  0.0147  0.7096 -0.7215
  492MPD2     C 7311   1.291   2.827  11.510 -0.5519  0.3031  0.6131
  492MPD2    C1 7312   1.220   2.722  11.459 -0.9168  0.5805  0.5028
  492MPD2    C2 7313   1.124   2.659  11.538 -0.1780  0.8341 -0.0657
  492MPD2    C3 7314   1.095   2.704  11.665  0.1186 -0.3733 -0.2678
  492MPD2    C4 7315   1.149   2.822  11.708 -0.5554  0.7075  0.0505
  492MPD2    C5 7316   1.249   2.882  11.630  0.1873 -0.1973 -0.1377
  492MPD2     H 7317   1.062   2.584  11.491  1.8429 -1.4967  0.9632
  492MPD2    H1 7318   1.120   2.869  11.802 -0.9113 -0.1411  0.3695
  492MPD2    H2 7319   1.383   2.857  11.461  0.2144  0.9198  2.4102
  492MPD2    H3 7320   1.300   2.969  11.670  2.3672 -1.8010  0.6085
  492MPD2     N 7321   0.990   2.645  11.739 -0.3636  0.3691  0.0874
  492MPD2    H5 7322   0.961   2.707  11.815 -3.9800 -0.7892 -0.3452
  492MPD2    N1 7323   1.250   2.685  11.327  0.2871 -0.7374 -0.4125
  492MPD2    H7 7324   1.300   2.749  11.267 -0.9277  1.4558  0.9241
  493TMC3    C1 7325   1.264   2.541  11.138  0.3485 -0.2609 -0.0706
  493TMC3    C2 7326   1.226   2.639  11.048 -0.2051  0.7198 -0.5520
  493TMC3    C3 7327   1.194   2.592  10.924 -0.1051 -0.4930  0.4529
  493TMC3    C4 7328   1.249   2.406  11.114 -0.3675  0.2406  0.4283
  493TMC3    C5 7329   1.201   2.360  10.987  0.1554 -0.1803 -0.0260
  493TMC3    C6 7330   1.178   2.460  10.897  0.7999  0.9043 -1.2976
  493TMC3     C 7331   1.225   2.560  11.277 -0.8250  0.4133 -0.0632
  493TMC3     O 7332   1.173   2.457  11.328  0.1782  0.2539 -0.1281
  493TMC3     H 7333   1.216   2.743  11.075 -0.3786  0.4867  0.2968
  493TMC3    H1 7334   1.284   2.332  11.186  0.1011 -0.0656 -0.1121
  493TMC3    H2 7335   1.136   2.424  10.804  0.8332 -1.6927 -0.3233
  493TMC3    C7 7336   1.078   2.284  11.017 -0.4624 -0.6332  0.3100
  493TMC3    C8 7337   1.141   2.689  10.823 -0.2022  0.1546  0.4652
  493TMC3    O1 7338   0.999   2.269  10.925 -0.0689  0.1827 -0.6034
  493TMC3    O2 7339   1.090   2.637  10.729 -0.0805 -0.4135  0.1986
  494TMC3    C1 7340   1.379   4.001   0.558 -0.2153  0.6454  0.3674
  494TMC3    C2 7341   1.393   3.871   0.512 -0.3576 -0.0996  0.2557
  494TMC3    C3 7342   1.430   3.858   0.374  0.5252  0.1355  0.0208
  494TMC3    C4 7343   1.393   4.109   0.486  0.2697  0.7955 -0.0965
  494TMC3    C5 7344   1.417   4.099   0.350  0.0252 -0.3167 -0.7510
  494TMC3    C6 7345   1.439   3.973   0.299  0.0042 -0.1330  0.1913
  494TMC3     C 7346   1.326   4.012   0.695  0.0063 -0.1833 -0.9911
  494TMC3     O 7347   1.370   3.933   0.777 -0.4257 -0.2881 -0.4194
  494TMC3     H 7348   1.389   3.783   0.574  1.4996 -0.2919  0.0919
  494TMC3    H1 7349   1.389   4.210   0.526  0.8593  0.0133  1.8912
  494TMC3    H2 7350   1.451   3.956   0.193  1.9276 -2.5744  0.7987
  494TMC3    C7 7351   1.409   4.206   0.259  0.7243 -0.8526 -0.5799
  494TMC3    C8 7352   1.440   3.727   0.306  0.2256  0.0912  0.0725
  494TMC3    O1 7353   1.443   4.167   0.150  0.0705 -0.2466  0.3950
  494TMC3    O2 7354   1.441   3.732   0.184 -0.5514  0.2504  0.5013
  495TMC3    C1 7355   4.299   1.469  14.680  0.7814  0.1195  0.3960
  495TMC3    C2 7356   4.199   1.420  14.605  0.2981  0.1369 -0.5916
  495TMC3    C3 7357   4.069   1.427  14.642 -0.4429  0.3565  0.0804
  495TMC3    C4 7358   4.270   1.520  14.799 -0.3271 -0.2369  0.0226
  495TMC3    C5 7359   4.147   1.510  14.851 -0.1050 -0.4593 -0.2059
  495TMC3    C6 7360   4.041   1.474  14.770 -0.0902 -0.0640 -0.4673
  495TMC3     C 7361   4.427   1.405  14.677  0.3297  0.1999 -0.1573
  495TMC3     O 7362   4.521   1.471  14.724  0.4173  0.4008  0.1754
  495TMC3     H 7363   4.225   1.393  14.503  2.2906  0.3784 -0.1493
  495TMC3    H1 7364   4.353   1.536  14.867 -0.7061  3.5432 -0.4029
  495TMC3    H2 7365   3.941   1.453  14.806  0.1751 -2.5759 -1.1809
  495TMC3    C7 7366   4.139   1.487  14.989 -0.2556 -0.1007 -0.2347
  495TMC3    C8 7367   3.953   1.405  14.555 -0.0443 -0.2313 -0.3792
  495TMC3    O1 7368   4.239   1.515  15.056 -0.7396 -0.4436  0.4550
  495TMC3    O2 7369   3.847   1.429  14.607  0.4649 -0.1736 -0.0016
  496MPD2     C 7370   1.372   1.036  15.244 -0.3723  0.3403  0.3997
  496MPD2    C1 7371   1.451   1.061  15.352 -0.0867 -0.3593  0.0811
  496MPD2    C2 7372   1.391   1.079  15.474  0.1048  0.3126  0.0928
  496MPD2    C3 7373   1.254   1.081  15.483  0.2324  0.1526 -0.4123
  496MPD2    C4 7374   1.177   1.047  15.376  0.3141  0.2689 -0.1756
  496MPD2    C5 7375   1.240   1.032  15.254 -0.0461  0.0814 -0.3486
  496MPD2     H 7376   1.448   1.116  15.558 -0.5172 -0.6443  0.9366
  496MPD2    H1 7377   1.070   1.059  15.381  0.3652  0.4709  0.5421
  496MPD2    H2 7378   1.412   1.014  15.146  0.3378  2.4055  0.2318
  496MPD2    H3 7379   1.179   1.008  15.167 -0.5210  1.5328 -0.4176
  496MPD2     N 7380   1.186   1.120  15.599  0.5379  0.2404 -0.0435
  496MPD2    H5 7381   1.086   1.103  15.602  0.3855  1.0006 -0.9104
  496MPD2    N1 7382   1.593   1.068  15.330  0.0243  0.1239 -0.2860
  496MPD2    H7 7383   1.623   1.054  15.234 -1.0718  1.7761 -0.8608
  497TMC3    C1 7384   1.130   1.172  15.828 -0.6974  1.0005 -0.1950
  497TMC3    C2 7385   1.004   1.209  15.790 -1.2333 -0.8466 -0.5191
  497TMC3    C3 7386   0.917   1.255  15.883  0.2427  0.0773 -1.0372
  497TMC3    C4 7387   1.180   1.216  15.947  0.2213  0.4295 -0.2751
  497TMC3    C5 7388   1.091   1.276  16.036 -0.4981  0.2644  0.2288
  497TMC3    C6 7389   0.958   1.294  16.004 -0.2951  0.5137 -0.7186
  497TMC3     C 7390   1.234   1.148  15.727  0.2320 -0.0012 -0.3633
  497TMC3     O 7391   1.347   1.172  15.767  0.0240  0.1011  0.1797
  497TMC3     H 7392   0.967   1.180  15.692 -3.0056  0.5523 -0.2561
  497TMC3    H1 7393   1.283   1.203  15.978 -0.1896  0.0851  0.9494
  497TMC3    H2 7394   0.892   1.350  16.069  0.6798  1.1027 -0.2299
  497TMC3    C7 7395   1.109   1.274  16.183 -0.0007  0.1402 -0.0063
  497TMC3    C8 7396   0.787   1.293  15.821  0.1862  0.0846 -1.0688
  497TMC3    O1 7397   1.011   1.269  16.251 -0.3851 -0.7312 -0.1567
  497TMC3    O2 7398   0.762   1.267  15.705  0.1047 -0.7902  0.2007
  498MPD2     C 7399   3.097   2.102  10.000  0.0949 -0.0494 -0.1742
  498MPD2    C1 7400   3.191   2.008  10.041 -0.6704 -0.2165  0.2293
  498MPD2    C2 7401   3.159   1.901  10.122  0.5273  0.1509 -0.2036
  498MPD2    C3 7402   3.035   1.883  10.178  0.0899  0.2235  0.4891
  498MPD2    C4 7403   2.939   1.983  10.141  0.5406  0.1241 -0.4859
  498MPD2    C5 7404   2.968   2.087  10.048 -0.0770 -0.3376  0.9713
  498MPD2     H 7405   3.233   1.823  10.137 -0.0001 -0.0851  1.1446
  498MPD2    H1 7406   2.837   1.988  10.177  0.6655  1.7290 -0.3596
  498MPD2    H2 7407   3.131   2.191   9.949  0.7172  1.0508  2.1232
  498MPD2    H3 7408   2.901   2.171  10.036  0.1326  0.0638  2.7144
  498MPD2     N 7409   3.000   1.775  10.263  0.3554 -0.1445  0.2507
  498MPD2    H5 7410   3.064   1.696  10.268  0.3761 -0.1123  0.5415
  498MPD2    N1 7411   3.329   2.023  10.002  0.6141  0.1731  0.2637
  498MPD2    H7 7412   3.397   1.974  10.059  0.2502  1.0641  1.4884
  499TMC3    C1 7413   3.520   2.117   9.890  0.3160  0.2585  0.0217
  499TMC3    C2 7414   3.587   2.007   9.933 -0.0553 -0.8006  0.0424
  499TMC3    C3 7415   3.726   2.021   9.951 -0.1396 -0.1043  0.4009
  499TMC3    C4 7416   3.572   2.242   9.871 -0.0719 -0.0386 -0.2896
  499TMC3    C5 7417   3.700   2.257   9.910  0.7526 -0.1759 -0.0224
  499TMC3    C6 7418   3.783   2.148   9.929 -0.1972  0.4415 -0.1056
  499TMC3     C 7419   3.376   2.113   9.905  0.7757  0.2799 -0.1862
  499TMC3     O 7420   3.318   2.184   9.822  0.1389 -0.1665 -0.4812
  499TMC3     H 7421   3.543   1.908   9.925  0.8337 -1.2562  0.6553
  499TMC3    H1 7422   3.508   2.322   9.834  1.1670  0.8222 -0.5478
  499TMC3    H2 7423   3.889   2.159   9.951  0.2020 -0.3364 -1.5864
  499TMC3    C7 7424   3.766   2.380   9.873 -0.9171 -0.0652  0.5409
  499TMC3    C8 7425   3.815   1.904   9.950  0.0702  0.3594  0.4784
  499TMC3    O1 7426   3.882   2.373   9.832  0.1892 -1.2027 -0.4813
  499TMC3    O2 7427   3.923   1.914   9.891  0.6727  0.5723  0.0617
  500MPD2     C 7428   0.000   3.536  11.086 -0.6615 -0.5915  0.3319
  500MPD2    C1 7429   0.038   3.617  10.985 -0.4307  1.0786  0.1283
  500MPD2    C2 7430   4.683   3.632  10.874 -0.2314 -0.4469 -0.0880
  500MPD2    C3 7431   4.555   3.580  10.857  0.5698  0.2646  0.8936
  500MPD2    C4 7432   4.515   3.503  10.969 -0.6600  0.3847 -0.2826
  500MPD2    C5 7433   4.601   3.476  11.074 -1.1198  0.1996 -0.7423
  500MPD2     H 7434   4.716   3.707  10.804  1.2960 -1.4196 -0.4182
  500MPD2    H1 7435   4.415   3.461  10.964 -0.0749 -1.0487 -0.0416
  500MPD2    H2 7436   0.058   3.523  11.177  0.2882 -0.7459 -0.2982
  500MPD2    H3 7437   4.560   3.424  11.160  0.0241 -0.7146 -0.7454
  500MPD2     N 7438   4.470   3.598  10.739 -0.5860 -0.6075  0.1497
  500MPD2    H5 7439   4.381   3.550  10.740  0.6803 -2.8983  1.5926
  500MPD2    N1 7440   0.160   3.672  10.963  0.1291  0.2619  0.4478
  500MPD2    H7 7441   0.175   3.726  10.879  1.9410  2.6811  2.3586
  501TMC3    C1 7442   0.386   3.693  10.973  1.0840 -0.0968  0.1929
  501TMC3    C2 7443   0.383   3.735  10.845 -0.2504 -0.6547 -0.2148
  501TMC3    C3 7444   0.505   3.754  10.778 -0.1126 -0.3479 -0.3382
  501TMC3    C4 7445   0.510   3.665  11.030 -0.2689 -0.3484 -0.0350
  501TMC3    C5 7446   0.630   3.676  10.955  0.1176 -0.6209  0.3983
  501TMC3    C6 7447   0.626   3.729  10.827  0.0165 -0.9020  0.0356
  501TMC3     C 7448   0.274   3.629  11.029  0.4971  0.6347 -0.0706
  501TMC3     O 7449   0.282   3.540  11.114  0.0513  0.0084  0.0091
  501TMC3     H 7450   0.294   3.750  10.785 -0.2194 -2.3034 -0.6965
  501TMC3    H1 7451   0.503   3.620  11.129 -1.3221 -1.9547 -0.8356
  501TMC3    H2 7452   0.710   3.755  10.764  0.2986 -0.2325  0.6808
  501TMC3    C7 7453   0.754   3.639  11.019 -0.2782 -0.3096  0.0970
  501TMC3    C8 7454   0.496   3.721  10.640  0.4825 -0.6142  0.1120
  501TMC3    O1 7455   0.748   3.568  11.117  0.1909  0.0431 -0.2342
  501TMC3    O2 7456   0.524   3.605  10.617 -0.5641 -0.3433  1.0295
  502TMC3    C1 7457   3.999   2.217  14.825 -0.6664 -0.3781  0.4187
  502TMC3    C2 7458   3.984   2.340  14.773 -0.1669 -0.5843 -0.1628
  502TMC3    C3 7459   3.863   2.394  14.756  0.6447  0.0829 -0.1317
  502TMC3    C4 7460   3.894   2.148  14.858  0.2764 -0.2417 -0.1189
  502TMC3    C5 7461   3.765   2.196  14.836 -0.0239  0.4365 -0.3086
  502TMC3    C6 7462   3.746   2.322  14.776  0.3166 -0.2588  0.1006
  502TMC3     C 7463   4.101   2.210  14.917 -0.4155  0.3464  0.3915
  502TMC3     O 7464   4.207   2.256  14.879 -0.0909  0.1987 -0.3773
  502TMC3     H 7465   4.072   2.403  14.760  1.2666 -1.8724  3.0903
  502TMC3    H1 7466   3.898   2.046  14.895  0.4982 -0.2100 -0.0595
  502TMC3    H2 7467   3.648   2.355  14.745 -0.4868 -0.6505  2.2147
  502TMC3    C7 7468   3.697   2.173  14.960 -0.4660 -0.8111 -0.0748
  502TMC3    C8 7469   3.863   2.537  14.803 -0.4677 -0.3228 -0.1460
  502TMC3    O1 7470   3.765   2.129  15.051 -0.3583  0.1545 -0.4686
  502TMC3    O2 7471   3.971   2.596  14.832  0.0021 -0.3003 -0.0715
  503MPD2     C 7472   1.368   2.949  17.066 -0.2745  1.1891 -0.0338
  503MPD2    C1 7473   1.402   2.988  17.196  1.0422 -0.3725  0.1244
  503MPD2    C2 7474   1.458   2.893  17.274 -0.0231 -1.1575 -0.2015
  503MPD2    C3 7475   1.484   2.767  17.227  0.1346 -0.4354  0.3387
  503MPD2    C4 7476   1.453   2.731  17.091 -0.7701 -0.2451 -1.2783
  503MPD2    C5 7477   1.394   2.825  17.011 -0.0166  0.5423 -0.0713
  503MPD2     H 7478   1.485   2.916  17.377  4.0448  0.0907 -1.5780
  503MPD2    H1 7479   1.485   2.638  17.045  0.8070  0.8186 -2.2836
  503MPD2    H2 7480   1.325   3.023  17.000 -1.0827 -0.5852 -1.4762
  503MPD2    H3 7481   1.363   2.791  16.913 -0.9137  1.3928 -0.0818
  503MPD2     N 7482   1.530   2.669  17.320 -0.1813  0.3110 -0.4510
  503MPD2    H5 7483   1.553   2.706  17.412 -0.5812  4.2761 -1.9484
  503MPD2    N1 7484   1.365   3.113  17.259 -0.4971  0.1291  0.1053
  503MPD2    H7 7485   1.378   3.119  17.359  0.3672  1.1082 -0.0619
  504TMC3    C1 7486   1.597   2.460  17.418 -0.2961 -0.1721  0.1585
  504TMC3    C2 7487   1.557   2.332  17.441 -0.2699 -0.4347  0.3051
  504TMC3    C3 7488   1.623   2.263  17.534 -0.1448 -0.2518  0.0475
  504TMC3    C4 7489   1.720   2.498  17.466  0.6232 -0.0475 -0.1805
  504TMC3    C5 7490   1.784   2.429  17.558 -0.9311  0.0482  0.3855
  504TMC3    C6 7491   1.736   2.313  17.602 -0.7306  0.0019  0.2328
  504TMC3     C 7492   1.546   2.533  17.300  0.0863 -0.4748  0.1516
  504TMC3     O 7493   1.517   2.467  17.197 -0.4438  0.5500 -0.3939
  504TMC3     H 7494   1.478   2.282  17.385 -0.1373  1.7000 -1.8198
  504TMC3    H1 7495   1.760   2.591  17.426 -1.6653  1.3603  0.8322
  504TMC3    H2 7496   1.794   2.253  17.671  0.5378  1.5572  0.5272
  504TMC3    C7 7497   1.930   2.435  17.569  0.7121  0.0151  0.4447
  504TMC3    C8 7498   1.567   2.129  17.578 -0.2725  0.0917  0.2597
  504TMC3    O1 7499   1.988   2.394  17.668  0.1745  0.1548  0.4614
  504TMC3    O2 7500   1.509   2.068  17.494  0.6107  0.2828  0.1631
  505MPD2     C 7501   2.057   1.330   9.943 -0.0930  0.2202 -0.0221
  505MPD2    C1 7502   2.000   1.235  10.018 -0.6919  0.2345 -0.3603
  505MPD2    C2 7503   1.934   1.278  10.131 -0.7442 -0.4702 -0.1580
  505MPD2    C3 7504   1.913   1.411  10.164 -0.2527 -0.7258  0.0523
  505MPD2    C4 7505   1.980   1.504  10.090 -0.3247  0.4244  0.3390
  505MPD2    C5 7506   2.056   1.459   9.984  0.1686 -0.3540  0.5539
  505MPD2     H 7507   1.888   1.200  10.190 -0.3037  0.5776  1.5843
  505MPD2    H1 7508   1.977   1.611  10.103  1.1901  0.4674  0.3305
  505MPD2    H2 7509   2.110   1.314   9.850 -2.8707  2.5199 -1.9859
  505MPD2    H3 7510   2.109   1.530   9.921 -0.7492 -0.5777 -0.4681
  505MPD2     N 7511   1.834   1.460  10.271 -0.3704 -0.1585  0.9919
  505MPD2    H5 7512   1.837   1.558  10.298 -2.5475 -0.5364  2.6255
  505MPD2    N1 7513   2.029   1.099   9.991 -0.6403 -0.3616 -0.7116
  505MPD2    H7 7514   2.095   1.078   9.917 -0.3367  0.5620 -0.7140
  506TMC3    C1 7515   2.040   0.861  10.026 -0.2835 -0.7907 -0.9062
  506TMC3    C2 7516   2.175   0.873  10.049  0.1400  0.0954  0.1041
  506TMC3    C3 7517   2.244   0.765  10.096 -0.1617 -0.3764  0.6818
  506TMC3    C4 7518   1.972   0.760  10.079  0.5734 -0.7712  0.2257
  506TMC3    C5 7519   2.036   0.665  10.158  0.3215  0.0999 -0.2173
  506TMC3    C6 7520   2.175   0.665  10.160 -0.0113 -0.3240 -0.0854
  506TMC3     C 7521   1.975   0.987  10.059 -0.0537 -0.5342  0.7435
  506TMC3     O 7522   1.884   0.983  10.140 -0.4147 -0.0628 -0.0316
  506TMC3     H 7523   2.226   0.941   9.982 -0.5769  0.4505 -0.0818
  506TMC3    H1 7524   1.863   0.760  10.071  0.7514 -0.4540 -2.4394
  506TMC3    H2 7525   2.223   0.591  10.222 -2.3571 -1.1837  0.7215
  506TMC3    C7 7526   1.973   0.639  10.288 -0.2462 -0.1238 -0.7164
  506TMC3    C8 7527   2.384   0.775  10.132  0.1275 -0.0277  0.4361
  506TMC3    O1 7528   2.014   0.553  10.363  0.5719 -0.2705 -0.5206
  506TMC3    O2 7529   2.450   0.672  10.131 -0.9143 -0.0062  0.1046
  507TMC3    C1 7530   1.968   2.590  14.553  0.5129 -0.8187  0.2713
  507TMC3    C2 7531   1.938   2.593  14.417  0.2241 -0.1663  0.0319
  507TMC3    C3 7532   2.039   2.621  14.329  0.2834  0.6112  0.0245
  507TMC3    C4 7533   2.093   2.626  14.600 -0.9289 -0.3417  0.4404
  507TMC3    C5 7534   2.179   2.677  14.508  0.4190 -0.3953 -0.0090
  507TMC3    C6 7535   2.158   2.668  14.375 -1.0429 -0.1082  0.0427
  507TMC3     C 7536   1.871   2.599  14.656  0.5896 -0.9350  0.2160
  507TMC3     O 7537   1.902   2.650  14.765  0.2774  0.2383 -0.2310
  507TMC3     H 7538   1.837   2.604  14.381  0.1671 -2.7264 -0.6425
  507TMC3    H1 7539   2.116   2.620  14.706  3.6186 -1.6018 -0.6307
  507TMC3    H2 7540   2.243   2.686  14.310 -0.0184  0.6709  1.5984
  507TMC3    C7 7541   2.237   2.808  14.537 -0.3591 -0.3806  0.4163
  507TMC3    C8 7542   1.991   2.711  14.222 -0.0431 -0.5154  0.4982
  507TMC3    O1 7543   2.250   2.874  14.434 -0.0801 -0.3669  1.1622
  507TMC3    O2 7544   1.879   2.690  14.178  0.3627  0.3749 -0.1218
  508MPD2     C 7545   3.418   4.687  16.196 -0.3595  0.3608 -0.3918
  508MPD2    C1 7546   3.433   0.064  16.285 -0.0678  0.1743 -0.3838
  508MPD2    C2 7547   3.366   0.185  16.258  0.3255 -0.4250 -0.7015
  508MPD2    C3 7548   3.284   0.198  16.147 -0.4585 -0.8198  0.5513
  508MPD2    C4 7549   3.262   0.088  16.061 -0.0375  0.2887  0.7691
  508MPD2    C5 7550   3.334   4.699  16.083  0.6603  0.4998 -0.9047
  508MPD2     H 7551   3.373   0.274  16.320  2.2522 -1.1239  0.0738
  508MPD2    H1 7552   3.198   0.103  15.975 -0.1387 -2.0100  0.4576
  508MPD2    H2 7553   3.473   4.594  16.204 -2.0240 -0.3134  2.8591
  508MPD2    H3 7554   3.323   4.612  16.019  0.1750 -0.0067 -0.1309
  508MPD2     N 7555   3.226   0.325  16.132  0.1557  0.5420 -0.1121
  508MPD2    H5 7556   3.248   0.398  16.199  0.7851 -0.7889  1.1322
  508MPD2    N1 7557   3.515   0.047  16.404 -0.6527 -0.2973  0.1591
  508MPD2    H7 7558   3.585   4.699  16.414 -1.4346 -1.3453 -2.0782
  509TMC3    C1 7559   2.989   0.663  15.928  0.5109 -0.7120 -0.8981
  509TMC3    C2 7560   3.047   0.759  16.010  0.6872  0.6811 -0.2280
  509TMC3    C3 7561   3.123   0.721  16.116 -0.0423 -1.2433  1.2692
  509TMC3    C4 7562   2.992   0.525  15.953 -0.3181 -0.2465 -0.3797
  509TMC3    C5 7563   3.094   0.496  16.046  0.0794  0.8809 -0.6035
  509TMC3    C6 7564   3.157   0.585  16.127 -0.2535 -0.1000 -0.1210
  509TMC3     C 7565   2.897   0.703  15.819  0.7748 -0.9925 -0.4021
  509TMC3     O 7566   2.828   0.612  15.766  0.1730  0.2028  0.0666
  509TMC3     H 7567   3.028   0.866  16.008  0.5674  0.6715  0.4143
  509TMC3    H1 7568   2.940   0.457  15.888 -3.7144  0.4011  1.6784
  509TMC3    H2 7569   3.227   0.560  16.206  0.3848 -0.8692 -0.9287
  509TMC3    C7 7570   3.138   0.360  16.029  0.1425 -0.0308 -0.4653
  509TMC3    C8 7571   3.218   0.812  16.169 -0.0508 -0.1505 -0.5089
  509TMC3    O1 7572   3.076   0.290  15.947  0.0104  0.6393  0.3757
  509TMC3    O2 7573   3.314   0.765  16.227  0.5671 -0.3763 -0.0176
  510MPD2     C 7574   1.021   1.701  14.624 -0.1323  0.0382 -0.1993
  510MPD2    C1 7575   1.073   1.748  14.740  0.3243 -0.5541 -0.0430
  510MPD2    C2 7576   1.210   1.781  14.749 -0.3439 -0.2784 -0.7631
  510MPD2    C3 7577   1.293   1.766  14.635  0.6144 -0.2164  0.2228
  510MPD2    C4 7578   1.230   1.733  14.515 -0.5777 -0.0404 -0.3156
  510MPD2    C5 7579   1.098   1.712  14.507 -0.7181  0.0844  0.1128
  510MPD2     H 7580   1.251   1.816  14.843 -0.8178 -1.6359 -0.0354
  510MPD2    H1 7581   1.282   1.728  14.420 -0.9590 -0.5021 -0.4999
  510MPD2    H2 7582   0.913   1.700  14.614 -0.1398  1.0011 -0.2231
  510MPD2    H3 7583   1.051   1.699  14.410 -0.1042 -1.1213 -0.0384
  510MPD2     N 7584   1.438   1.775  14.642 -0.1727  0.3052  0.6773
  510MPD2    H5 7585   1.482   1.795  14.731 -1.3738  2.0892  0.8546
  510MPD2    N1 7586   0.993   1.746  14.855  0.3111  0.7033 -0.4956
  510MPD2    H7 7587   0.905   1.695  14.857 -1.2528  3.3745 -1.6726
  511TMC3    C1 7588   0.929   1.744  15.083 -0.2705  0.8046  0.0241
  511TMC3    C2 7589   0.870   1.830  15.172  0.2705 -0.2553 -0.1733
  511TMC3    C3 7590   0.772   1.767  15.252  0.1262  0.1008  0.8071
  511TMC3    C4 7591   0.902   1.615  15.074  0.2060  0.5600  0.2359
  511TMC3    C5 7592   0.825   1.548  15.169  0.7638 -0.3678  0.2948
  511TMC3    C6 7593   0.758   1.629  15.256 -0.0628  0.1815  0.3407
  511TMC3     C 7594   1.022   1.796  14.981 -0.8943  0.3630 -0.5471
  511TMC3     O 7595   1.088   1.889  15.020 -0.0064 -0.3738  0.7174
  511TMC3     H 7596   0.890   1.937  15.163  0.6073 -0.2801  0.2580
  511TMC3    H1 7597   0.961   1.558  15.003  0.4743  0.2834  0.6838
  511TMC3    H2 7598   0.703   1.581  15.336  1.2585 -0.2370  1.0127
  511TMC3    C7 7599   0.788   1.409  15.152 -0.2048 -0.5992 -0.4528
  511TMC3    C8 7600   0.663   1.843  15.318  0.6127 -0.2767 -0.0490
  511TMC3    O1 7601   0.739   1.360  15.250 -0.5087 -0.3109 -0.2033
  511TMC3    O2 7602   0.681   1.964  15.340  0.3326  0.1459 -0.2645
  512TMC3    C1 7603   4.379   1.133  13.014  0.1949  0.1563 -0.7574
  512TMC3    C2 7604   4.331   1.253  13.068 -0.3601 -0.0721 -0.4320
  512TMC3    C3 7605   4.412   1.314  13.164  0.0265  0.1722  0.3123
  512TMC3    C4 7606   4.494   1.073  13.054  0.5915 -0.8925  0.0122
  512TMC3    C5 7607   4.571   1.136  13.153  0.3434  1.0448 -0.3891
  512TMC3    C6 7608   4.533   1.263  13.196  0.1592  0.4865  0.0357
  512TMC3     C 7609   4.294   1.063  12.928  0.0616 -0.2458 -0.0399
  512TMC3     O 7610   4.203   1.126  12.876  0.4485  0.0173 -0.3087
  512TMC3     H 7611   4.228   1.286  13.058 -0.3610 -0.5920 -2.1482
  512TMC3    H1 7612   4.523   0.983  13.000  0.1493 -1.0499  0.0371
  512TMC3    H2 7613   4.605   1.323  13.251  1.3211 -1.7930  1.0058
  512TMC3    C7 7614   4.706   1.101  13.170 -0.0285  0.2138 -0.0006
  512TMC3    C8 7615   4.357   1.439  13.221 -0.0607  0.3969 -0.1572
  512TMC3    O1 7616   0.055   1.185  13.218  0.0728 -0.4550  0.4056
  512TMC3    O2 7617   4.238   1.457  13.193 -0.3663 -0.4723  0.0976
  513MPD2     C 7618   1.715   0.640  12.894  0.8747 -0.3160 -0.1098
  513MPD2    C1 7619   1.839   0.675  12.862  0.4196 -0.2656  0.1977
  513MPD2    C2 7620   1.896   0.779  12.937  0.4320 -0.6317 -0.4762
  513MPD2    C3 7621   1.834   0.831  13.046 -0.2814 -0.0087 -0.1382
  513MPD2    C4 7622   1.714   0.781  13.086  0.2683  0.1804 -0.5536
  513MPD2    C5 7623   1.650   0.689  13.007  0.3288  0.1096  0.6005
  513MPD2     H 7624   1.993   0.817  12.907 -0.5404  1.5142 -0.9234
  513MPD2    H1 7625   1.654   0.818  13.168 -0.0774  0.4444 -0.9249
  513MPD2    H2 7626   1.666   0.555  12.847 -0.7738 -0.3786  1.7151
  513MPD2    H3 7627   1.563   0.640  13.049 -0.8043  1.3460 -0.2965
  513MPD2     N 7628   1.909   0.937  13.103  0.0480 -0.4823  0.1186
  513MPD2    H5 7629   1.979   0.971  13.039 -0.5388  1.2655  0.4076
  513MPD2    N1 7630   1.913   0.611  12.758 -0.0927 -0.6925 -0.3007
  513MPD2    H7 7631   1.876   0.531  12.708  0.4851 -1.0724 -0.1107
  514TMC3    C1 7632   2.106   0.539  12.634 -1.0321  0.7684 -0.3221
  514TMC3    C2 7633   2.028   0.533  12.522 -0.2539  0.1433  0.4573
  514TMC3    C3 7634   2.086   0.559  12.400 -0.0675 -0.3642  0.8738
  514TMC3    C4 7635   2.240   0.560  12.628  0.6764  0.1753 -0.6120
  514TMC3    C5 7636   2.294   0.588  12.508 -0.0589  0.6679 -0.0424
  514TMC3    C6 7637   2.223   0.578  12.390  1.2401 -0.4413 -0.2898
  514TMC3     C 7638   2.045   0.617  12.742 -0.2768  0.5767 -0.3982
  514TMC3     O 7639   2.123   0.697  12.788 -0.3568 -0.5162  0.0442
  514TMC3     H 7640   1.920   0.541  12.521 -0.3822 -1.5043  1.0318
  514TMC3    H1 7641   2.292   0.577  12.722  0.9752 -1.8020 -0.4151
  514TMC3    H2 7642   2.274   0.600  12.297  0.2099  0.2717 -0.6809
  514TMC3    C7 7643   2.366   0.716  12.506 -0.6036  0.3832  0.1487
  514TMC3    C8 7644   1.999   0.611  12.286  0.5557 -0.2617 -0.3038
  514TMC3    O1 7645   2.415   0.748  12.400  0.1679  0.6992  0.6365
  514TMC3    O2 7646   1.884   0.587  12.287  0.7370  0.1780  0.2996
  515MPD2     C 7647   0.103   2.282  15.129  0.3335 -0.0509  1.0706
  515MPD2    C1 7648   0.009   2.357  15.056 -0.1747 -0.2268  0.6127
  515MPD2    C2 7649   4.707   2.487  15.104  0.1113 -0.4591  0.0139
  515MPD2    C3 7650   0.036   2.542  15.213 -0.4409  0.2128  0.7001
  515MPD2    C4 7651   0.121   2.463  15.290  0.8459  0.7167  0.2183
  515MPD2    C5 7652   0.151   2.335  15.249  0.5710 -0.4131 -0.6509
  515MPD2     H 7653   4.644   2.547  15.039  0.8537 -1.3788 -1.5529
  515MPD2    H1 7654   0.175   2.492  15.379  0.1390 -0.3567  0.9974
  515MPD2    H2 7655   0.129   2.181  15.096  1.2998  0.5749 -0.0875
  515MPD2    H3 7656   0.229   2.284  15.304  0.0426  0.6775  1.0958
  515MPD2     N 7657   0.025   2.675  15.255 -0.0281 -0.1172 -0.5646
  515MPD2    H5 7658   0.073   2.712  15.337 -0.9300  0.0988 -0.1317
  515MPD2    N1 7659   4.677   2.308  14.936  0.1243  1.2757  0.9743
  515MPD2    H7 7660   4.606   2.363  14.888 -0.1999  1.5973  1.8297
  516TMC3    C1 7661   4.609   2.164  14.769 -0.3090 -0.3785 -0.2007
  516TMC3    C2 7662   4.570   2.275  14.703 -0.2335  0.3796  0.5043
  516TMC3    C3 7663   4.452   2.270  14.642  0.1796 -0.1101 -0.3250
  516TMC3    C4 7664   4.544   2.047  14.762  0.5250  0.2365 -0.0964
  516TMC3    C5 7665   4.421   2.047  14.700 -0.0977  0.4833  0.3985
  516TMC3    C6 7666   4.376   2.155  14.637  0.2142  0.4953  0.0826
  516TMC3     C 7667   4.697   2.189  14.881 -0.4887 -0.2461  0.2728
  516TMC3     O 7668   0.036   2.085  14.912  0.1318 -0.0709  0.2474
  516TMC3     H 7669   4.624   2.368  14.708  2.9483 -1.4178 -0.2322
  516TMC3    H1 7670   4.573   1.966  14.827 -0.8550 -0.0220  0.1903
  516TMC3    H2 7671   4.283   2.157  14.581 -2.4491  0.5958  4.4772
  516TMC3    C7 7672   4.327   1.946  14.757 -0.0485  0.0051 -0.6929
  516TMC3    C8 7673   4.410   2.371  14.550 -0.3941 -0.0428  0.2941
  516TMC3    O1 7674   4.370   1.891  14.858 -0.0403 -0.1536 -0.5105
  516TMC3    O2 7675   4.289   2.380  14.529  0.0499  0.2987  0.8469
  517MPD2     C 7676   4.082   4.477  17.627 -0.5537  0.2174 -0.0795
  517MPD2    C1 7677   4.195   4.431  17.680 -0.1983 -0.4468 -0.4045
  517MPD2    C2 7678   4.243   4.500   0.088 -0.4763  0.0521  0.0637
  517MPD2    C3 7679   4.175   4.599   0.159 -0.0827  0.3532  0.0944
  517MPD2    C4 7680   4.049   4.630   0.111  0.2398  0.2865  0.5268
  517MPD2    C5 7681   4.016   4.572  17.697  0.2260  0.1184  0.1658
  517MPD2     H 7682   4.334   4.456   0.128 -0.7365  1.1463  1.8400
  517MPD2    H1 7683   3.978   4.697   0.159  0.5527  0.0296  1.3549
  517MPD2    H2 7684   4.042   4.427  17.540 -0.5493 -0.9375  0.5885
  517MPD2    H3 7685   3.917   4.586  17.653  0.3162 -0.5314 -0.2532
  517MPD2     N 7686   4.215   4.657   0.283  0.3869 -0.2591  0.7683
  517MPD2    H5 7687   4.151   4.723   0.325 -1.5708 -0.5151 -1.7527
  517MPD2    N1 7688   4.276   4.328  17.625 -0.1254  0.3781  0.4615
  517MPD2    H7 7689   4.359   4.303  17.679  1.2295  1.7665 -0.9618
  518TMC3    C1 7690   4.368   4.158  17.489 -0.5819 -0.0980  0.0096
  518TMC3    C2 7691   4.342   4.029  17.445  0.0634 -0.4138  0.1900
  518TMC3    C3 7692   4.451   3.946  17.429 -0.4333 -0.1848  0.5243
  518TMC3    C4 7693   4.492   4.209  17.501 -0.1575  0.4537  0.6402
  518TMC3    C5 7694   4.596   4.122  17.479  0.3939  0.1287  0.1522
  518TMC3    C6 7695   4.575   3.996  17.448  0.7522 -0.2155 -0.4815
  518TMC3     C 7696   4.254   4.249  17.514 -0.0440 -0.7134 -0.3374
  518TMC3     O 7697   4.161   4.252  17.435 -0.3569 -0.3038  0.9710
  518TMC3     H 7698   4.239   3.995  17.435  0.7795 -2.0567 -1.6616
  518TMC3    H1 7699   4.512   4.310  17.535  1.6040  0.3895 -0.2118
  518TMC3    H2 7700   4.660   3.929  17.455  0.6917 -0.0842  1.3565
  518TMC3    C7 7701   0.010   4.172  17.495 -0.2186 -0.5481  0.6517
  518TMC3    C8 7702   4.439   3.811  17.473  0.0187 -0.0613  0.0371
  518TMC3    O1 7703   0.032   4.278  17.550  0.4646  0.1127 -0.4707
  518TMC3    O2 7704   4.536   3.738  17.471 -0.5023 -0.2948 -0.3949
  519MPD2     C 7705   1.187   2.964  14.715 -0.2278  0.3221 -0.2422
  519MPD2    C1 7706   1.154   2.987  14.583  0.1568 -0.3307 -0.3064
  519MPD2    C2 7707   1.227   2.934  14.481 -0.4568 -0.0408 -0.3121
  519MPD2    C3 7708   1.332   2.846  14.512 -0.0029 -0.2254  0.3993
  519MPD2    C4 7709   1.367   2.826  14.646 -0.1502 -0.3367 -0.3679
  519MPD2    C5 7710   1.293   2.890  14.747  0.1828  0.5640  0.0275
  519MPD2     H 7711   1.200   2.952  14.378 -0.2780 -0.9600 -0.5204
  519MPD2    H1 7712   1.450   2.759  14.667  0.1582  0.1800  0.0463
  519MPD2    H2 7713   1.130   3.021  14.787 -0.6275  0.1949 -0.4572
  519MPD2    H3 7714   1.310   2.880  14.853  0.3524  4.6063  0.3641
  519MPD2     N 7715   1.389   2.755  14.422  0.2419  0.0622 -0.6719
  519MPD2    H5 7716   1.450   2.683  14.458  2.3791  1.4619 -1.5003
  519MPD2    N1 7717   1.035   3.049  14.562 -0.3311 -0.0817  0.3399
  519MPD2    H7 7718   0.971   3.061  14.640 -2.0740 -1.8729 -0.8063
  520TMC3    C1 7719   1.456   2.666  14.207 -0.2148  0.2429 -0.1219
  520TMC3    C2 7720   1.391   2.623  14.094  0.1598 -0.1275 -0.4981
  520TMC3    C3 7721   1.442   2.509  14.036 -0.6174  0.7907 -0.7073
  520TMC3    C4 7722   1.554   2.594  14.265 -0.4086  0.0888 -0.6552
  520TMC3    C5 7723   1.607   2.488  14.195  0.0862  0.0220  1.0783
  520TMC3    C6 7724   1.555   2.447  14.077 -0.5043 -0.3028  0.1230
  520TMC3     C 7725   1.376   2.766  14.279  0.1541  0.2321 -0.3245
  520TMC3     O 7726   1.301   2.848  14.221  0.5077  0.1398 -0.1737
  520TMC3     H 7727   1.300   2.666  14.054  0.2014  1.9412  1.6383
  520TMC3    H1 7728   1.609   2.629  14.352 -0.4161 -0.9639 -0.2336
  520TMC3    H2 7729   1.597   2.363  14.023 -1.3387 -1.0417  0.6207
  520TMC3    C7 7730   1.716   2.410  14.255  0.4908 -0.1012  0.3353
  520TMC3    C8 7731   1.393   2.470  13.910 -0.1616 -0.2758 -0.3510
  520TMC3    O1 7732   1.710   2.400  14.377  0.0545  0.1978  0.4848
  520TMC3    O2 7733   1.472   2.450  13.817 -0.0859 -0.3922 -0.7146
  521MPD2     C 7734   2.318   1.089  17.396  0.1511  0.0440 -1.1530
  521MPD2    C1 7735   2.302   0.956  17.430  0.2764 -0.0377 -1.1510
  521MPD2    C2 7736   2.403   0.866  17.415  0.3368  0.1193  0.2169
  521MPD2    C3 7737   2.525   0.917  17.385  0.3212  0.2741  0.1986
  521MPD2    C4 7738   2.543   1.046  17.360  0.3685 -0.6837  0.1187
  521MPD2    C5 7739   2.439   1.130  17.359  0.2804  0.2772 -0.4642
  521MPD2     H 7740   2.392   0.758  17.422  1.3498 -0.0810 -1.4937
  521MPD2    H1 7741   2.641   1.086  17.339 -0.4086  0.6161 -1.0297
  521MPD2    H2 7742   2.237   1.162  17.402 -0.1403 -0.4426  0.7158
  521MPD2    H3 7743   2.460   1.235  17.342  0.6116  0.1878 -0.6097
  521MPD2     N 7744   2.626   0.818  17.360 -0.2904  0.1982 -0.5522
  521MPD2    H5 7745   2.605   0.720  17.374 -0.7857  0.5126  0.9596
  521MPD2    N1 7746   2.166   0.923  17.476  1.1612 -0.0610  0.0003
  521MPD2    H7 7747   2.091   0.990  17.461 -1.0693 -2.2415  1.3332
  522TMC3    C1 7748   2.830   0.719  17.290  0.2602  0.6344  0.1357
  522TMC3    C2 7749   2.961   0.747  17.270 -0.0389  0.6343  0.1557
  522TMC3    C3 7750   3.033   0.669  17.195 -0.1058  0.0324  0.2496
  522TMC3    C4 7751   2.768   0.617  17.224  0.1547 -0.1259  0.3790
  522TMC3    C5 7752   2.843   0.547  17.132  0.6618 -0.2795 -0.8865
  522TMC3    C6 7753   2.977   0.565  17.126  0.7875  0.2626  0.1895
  522TMC3     C 7754   2.756   0.843  17.316 -0.4483  0.1483 -0.0836
  522TMC3     O 7755   2.806   0.951  17.280  0.2830 -0.4437 -0.2458
  522TMC3     H 7756   3.007   0.828  17.326 -2.8523  2.1309  0.2931
  522TMC3    H1 7757   2.667   0.585  17.244 -0.2619  0.0946 -1.3582
  522TMC3    H2 7758   3.036   0.500  17.062  1.0011  0.9478 -0.3040
  522TMC3    C7 7759   2.788   0.471  17.021 -0.5234 -0.1898  0.2276
  522TMC3    C8 7760   3.179   0.693  17.191 -0.0985 -0.0182 -0.5447
  522TMC3    O1 7761   2.857   0.391  16.953  0.1606  0.3220 -0.8478
  522TMC3    O2 7762   3.230   0.802  17.229 -0.5002  0.3063  0.4225
  523MPD2     C 7763   1.109   0.034  10.674 -0.3021 -0.4333  0.0000
  523MPD2    C1 7764   1.025   0.032  10.568  0.0834 -0.0398 -0.4119
  523MPD2    C2 7765   1.018   0.145  10.482 -0.2954 -0.1894  0.6571
  523MPD2    C3 7766   1.085   0.257  10.516  0.1143 -0.2435  0.4375
  523MPD2    C4 7767   1.168   0.254  10.629 -0.1153  0.0747  0.0634
  523MPD2    C5 7768   1.181   0.145  10.702  0.4234  0.3981  0.0911
  523MPD2     H 7769   0.944   0.146  10.403  0.1833  0.9308  0.2189
  523MPD2    H1 7770   1.224   0.343  10.654 -0.9702  1.0758 -1.6419
  523MPD2    H2 7771   1.125   4.672  10.738 -1.3731  1.1810  2.4533
  523MPD2    H3 7772   1.250   0.154  10.785  1.5087 -0.2585 -0.7302
  523MPD2     N 7773   1.078   0.372  10.445 -0.1446 -0.0205 -0.7114
  523MPD2    H5 7774   1.121   0.452  10.491 -0.7355  0.6059 -1.2299
  523MPD2    N1 7775   0.946   4.639  10.560  0.0845 -0.4434 -0.6475
  523MPD2    H7 7776   0.952   4.560  10.623 -0.2793 -0.0346 -0.0865
  524TMC3    C1 7777   1.008   0.545  10.303  0.4226  0.6200 -0.0585
  524TMC3    C2 7778   1.039   0.643  10.393 -0.0094 -0.2152  0.4785
  524TMC3    C3 7779   1.018   0.775  10.361 -0.5525 -0.1367 -0.9043
  524TMC3    C4 7780   0.956   0.563  10.177  0.3985  0.7382 -0.4543
  524TMC3    C5 7781   0.921   0.693  10.150  0.0477 -0.1632 -0.3066
  524TMC3    C6 7782   0.953   0.794  10.239 -0.4127 -0.5897 -0.2611
  524TMC3     C 7783   1.004   0.404  10.339  0.1706  0.1384  0.1260
  524TMC3     O 7784   0.949   0.325  10.264  0.2303 -0.2881 -0.4938
  524TMC3     H 7785   1.102   0.616  10.477  0.9253  1.7057  0.3957
  524TMC3    H1 7786   0.916   0.492  10.105  3.7830 -0.2618 -1.3346
  524TMC3    H2 7787   0.920   0.895  10.217  0.5125 -0.1437  0.3766
  524TMC3    C7 7788   0.898   0.729  10.017  0.1183  0.0987  0.4156
  524TMC3    C8 7789   1.028   0.873  10.471 -0.4948  0.4787  0.0089
  524TMC3    O1 7790   0.944   0.648   9.935  0.4357  0.3782 -1.0054
  524TMC3    O2 7791   1.054   0.823  10.578 -0.7457 -0.6189 -0.2199
  525MPD2     C 7792   2.859   2.375  14.901  0.9565 -0.1130 -0.7394
  525MPD2    C1 7793   2.977   2.301  14.878  0.3026 -0.0403  0.0037
  525MPD2    C2 7794   3.055   2.347  14.770 -0.7212 -0.6064 -0.1163
  525MPD2    C3 7795   3.028   2.465  14.699 -0.4384  0.3913 -0.3185
  525MPD2    C4 7796   2.906   2.534  14.724 -0.4313  0.3793  0.3816
  525MPD2    C5 7797   2.824   2.481  14.823 -0.5216 -0.4382  0.8009
  525MPD2     H 7798   3.143   2.290  14.741 -0.0538 -0.2915  1.2833
  525MPD2    H1 7799   2.863   2.609  14.658 -2.6318 -0.8138  0.4587
  525MPD2    H2 7800   2.785   2.369  14.979  2.3223  0.7263  0.6317
  525MPD2    H3 7801   2.729   2.531  14.836 -0.0229  0.1985  1.9869
  525MPD2     N 7802   3.106   2.521  14.595 -0.4916 -0.0090 -0.3010
  525MPD2    H5 7803   3.072   2.611  14.563 -4.3312 -1.3171  0.0661
  525MPD2    N1 7804   3.014   2.183  14.947 -0.1736  0.2182 -0.7470
  525MPD2    H7 7805   3.099   2.134  14.921 -0.3967  0.3974 -1.8310
  526TMC3    C1 7806   3.027   2.044  15.153 -0.1325  0.4159 -0.1800
  526TMC3    C2 7807   2.966   2.030  15.280 -0.4645  0.2372  0.3476
  526TMC3    C3 7808   2.984   1.909  15.347 -0.2156  0.0508 -0.8566
  526TMC3    C4 7809   3.093   1.936  15.093 -0.0459 -0.6582  0.2920
  526TMC3    C5 7810   3.125   1.835  15.177 -0.2021  0.0813  0.0024
  526TMC3    C6 7811   3.065   1.811  15.298 -0.0667 -0.4149 -0.3417
  526TMC3     C 7812   2.952   2.138  15.066 -0.3623  0.0397  0.3254
  526TMC3     O 7813   2.848   2.175  15.111 -0.4337 -0.0682  0.5725
  526TMC3     H 7814   2.905   2.106  15.327  0.1049  0.7889  0.1895
  526TMC3    H1 7815   3.127   1.944  14.991 -0.9921  1.6552  0.1522
  526TMC3    H2 7816   3.070   1.713  15.343  0.3536  0.5729  1.7581
  526TMC3    C7 7817   3.221   1.734  15.139 -0.4799 -0.8554  0.9286
  526TMC3    C8 7818   2.863   1.872  15.418 -0.8187 -0.6061 -0.1358
  526TMC3    O1 7819   3.272   1.674  15.229 -0.7144 -0.3347  0.3718
  526TMC3    O2 7820   2.760   1.930  15.376 -0.2951 -0.1668  0.5346
  527MPD2     C 7821   1.019   4.103   1.864 -0.1687 -0.2334 -0.0365
  527MPD2    C1 7822   1.150   4.074   1.834 -0.1842  0.2903  0.2014
  527MPD2    C2 7823   1.198   4.132   1.721 -0.3419 -0.2972  0.5942
  527MPD2    C3 7824   1.119   4.196   1.635  0.1240 -0.3844 -0.3776
  527MPD2    C4 7825   0.985   4.220   1.665 -0.3809  0.0473 -0.3988
  527MPD2    C5 7826   0.936   4.172   1.782  0.4040 -0.6426  0.3919
  527MPD2     H 7827   1.295   4.106   1.679 -0.4807 -0.1104  0.1532
  527MPD2    H1 7828   0.911   4.247   1.590  1.1536  1.7928 -1.3056
  527MPD2    H2 7829   0.966   4.051   1.943  1.0684 -0.5579  0.5874
  527MPD2    H3 7830   0.828   4.176   1.796  0.5857  0.8068  1.3897
  527MPD2     N 7831   1.180   4.214   1.504  0.5277 -0.2394  0.9273
  527MPD2    H5 7832   1.279   4.193   1.494  0.5775  1.6703 -2.8515
  527MPD2    N1 7833   1.237   3.990   1.895  0.2080  0.1041 -0.3695
  527MPD2    H7 7834   1.329   3.979   1.853  1.2005  0.0343  1.8077
  528TMC3    C1 7835   1.336   3.849   2.065 -0.1738  0.3263 -0.0227
  528TMC3    C2 7836   1.457   3.916   2.054  0.4662 -0.1786 -0.2089
  528TMC3    C3 7837   1.574   3.840   2.067  0.2679 -0.2859  0.0717
  528TMC3    C4 7838   1.319   3.720   2.107 -0.7452  0.1461  0.3018
  528TMC3    C5 7839   1.432   3.646   2.128  0.6690  0.1845  0.2440
  528TMC3    C6 7840   1.557   3.703   2.099  0.5739 -0.2301 -0.4733
  528TMC3     C 7841   1.212   3.911   2.006  0.3048 -0.7242 -0.1678
  528TMC3     O 7842   1.103   3.881   2.056 -0.5285 -0.0329  0.1265
  528TMC3     H 7843   1.462   4.024   2.042  1.9117 -0.3262 -0.9169
  528TMC3    H1 7844   1.228   3.675   2.069 -0.9893 -0.4407  1.5776
  528TMC3    H2 7845   1.650   3.652   2.124 -0.7900 -1.8673  1.2369
  528TMC3    C7 7846   1.428   3.503   2.155 -0.6217  0.6614  0.0628
  528TMC3    C8 7847   1.687   3.885   1.990 -0.3481  0.0267 -0.0729
  528TMC3    O1 7848   1.538   3.451   2.172  0.3786  0.2363  0.0194
  528TMC3    O2 7849   1.655   3.982   1.920 -0.1598 -0.3632  0.1594
  529MPD2     C 7850   3.280   3.210   0.636 -0.2939  0.5851  0.8210
  529MPD2    C1 7851   3.330   3.086   0.603  0.4085  1.2159  0.0954
  529MPD2    C2 7852   3.380   3.070   0.480  1.0419  0.3518  0.1158
  529MPD2    C3 7853   3.399   3.180   0.395 -0.0741  0.2210  0.1916
  529MPD2    C4 7854   3.357   3.307   0.431 -0.0105  0.4842  0.1384
  529MPD2    C5 7855   3.288   3.320   0.554  0.2331  0.2873  0.1726
  529MPD2     H 7856   3.429   2.977   0.453  1.4208  0.8282 -0.8539
  529MPD2    H1 7857   3.359   3.396   0.369 -1.1734  1.0640  0.9495
  529MPD2    H2 7858   3.245   3.228   0.737  1.7305 -2.4729  2.0527
  529MPD2    H3 7859   3.235   3.407   0.591  0.5359  0.4338  0.2599
  529MPD2     N 7860   3.453   3.166   0.266  0.6904 -0.6081  0.5079
  529MPD2    H5 7861   3.464   3.251   0.213  1.2206 -0.0145  1.5771
  529MPD2    N1 7862   3.325   2.970   0.684 -0.3202 -0.4660 -0.2994
  529MPD2    H7 7863   3.366   2.883   0.650  2.4755  1.3734 -1.5755
  530TMC3    C1 7864   3.287   2.819   0.852 -0.5198  0.1782  0.5372
  530TMC3    C2 7865   3.328   2.809   0.981 -0.0377  0.5610  0.9039
  530TMC3    C3 7866   3.283   2.695   1.047  0.4002 -0.0618  0.0014
  530TMC3    C4 7867   3.201   2.727   0.784  0.1326 -0.0125  0.3356
  530TMC3    C5 7868   3.166   2.617   0.854 -0.2196  0.8420 -0.1910
  530TMC3    C6 7869   3.211   2.594   0.982  0.2581  0.4237 -0.5251
  530TMC3     C 7870   3.280   2.962   0.812  0.4837  0.6179  0.4735
  530TMC3     O 7871   3.240   3.053   0.885  0.3038  1.1112  0.5716
  530TMC3     H 7872   3.383   2.888   1.031 -1.2827  0.9322  1.6996
  530TMC3    H1 7873   3.152   2.752   0.691 -0.6269  1.8667  1.2473
  530TMC3    H2 7874   3.185   2.506   1.039  0.9225  0.5941  0.0392
  530TMC3    C7 7875   3.101   2.509   0.774 -0.0206 -0.0078  0.1690
  530TMC3    C8 7876   3.359   2.637   1.157  0.4238 -0.5307  0.2079
  530TMC3    O1 7877   3.034   2.530   0.674  0.2948 -0.2252  0.1003
  530TMC3    O2 7878   3.389   2.516   1.151 -0.4541 -0.2441  0.5452
  531MPD2     C 7879   2.504   1.146  12.752 -0.4596  0.0988  0.5056
  531MPD2    C1 7880   2.390   1.094  12.810 -0.3676  0.2618  0.1489
  531MPD2    C2 7881   2.343   0.972  12.765  0.1493  0.1007  0.3328
  531MPD2    C3 7882   2.388   0.909  12.655  0.7886 -0.3649  0.1354
  531MPD2    C4 7883   2.490   0.959  12.588  0.1555 -0.3176  0.0549
  531MPD2    C5 7884   2.548   1.076  12.640 -0.1408 -0.6504  0.1530
  531MPD2     H 7885   2.269   0.915  12.819 -0.6772  0.2340 -0.6720
  531MPD2    H1 7886   2.542   0.913  12.505 -1.4558  1.1032 -1.7478
  531MPD2    H2 7887   2.548   1.241  12.780 -1.2599  0.4816  0.4557
  531MPD2    H3 7888   2.630   1.121  12.585 -0.1950 -0.0009  0.5966
  531MPD2     N 7889   2.340   0.782  12.623  0.0991  0.1868  0.2163
  531MPD2    H5 7890   2.273   0.741  12.687  1.1141 -2.4126 -0.4200
  531MPD2    N1 7891   2.328   1.163  12.916 -0.3082  0.5646  0.0385
  531MPD2    H7 7892   2.372   1.244  12.959  1.4460 -1.6286  2.4182
  532TMC3    C1 7893   2.172   1.173  13.098  0.0476 -0.9347 -0.5089
  532TMC3    C2 7894   2.040   1.148  13.115  0.3266 -0.5894 -0.9008
  532TMC3    C3 7895   2.001   1.105  13.235 -0.3627  0.6275 -0.1672
  532TMC3    C4 7896   2.266   1.168  13.194  0.2980  0.4374  0.2599
  532TMC3    C5 7897   2.222   1.148  13.320 -0.6859 -0.2213 -0.3506
  532TMC3    C6 7898   2.092   1.102  13.343 -0.1898 -0.2645 -0.5343
  532TMC3     C 7899   2.206   1.126  12.970  0.0088  0.2825  0.8875
  532TMC3     O 7900   2.121   1.060  12.913 -0.0830 -0.1294 -0.2083
  532TMC3     H 7901   1.968   1.165  13.036  1.2556  1.5757 -1.2786
  532TMC3    H1 7902   2.372   1.181  13.173  0.5050  0.3085  1.1964
  532TMC3    H2 7903   2.065   1.063  13.440  0.7964  1.2517  0.3375
  532TMC3    C7 7904   2.313   1.119  13.438 -0.1698 -0.7353 -0.9675
  532TMC3    C8 7905   1.905   0.996  13.229  0.0123  0.4766  0.1413
  532TMC3    O1 7906   2.261   1.089  13.547 -0.0222 -0.1316  0.1834
  532TMC3    O2 7907   1.843   0.961  13.327 -0.2191  0.8021  0.7082
  533TMC3    C1 7908   3.268   2.562  14.432 -0.1317 -0.2820 -0.1696
  533TMC3    C2 7909   3.394   2.597  14.458  0.2715 -0.8037 -0.2367
  533TMC3    C3 7910   3.415   2.737  14.452 -0.5945  0.2700  0.1550
  533TMC3    C4 7911   3.171   2.648  14.403 -0.2067 -0.2942  0.2904
  533TMC3    C5 7912   3.191   2.787  14.403  0.5096  0.4512  0.0848
  533TMC3    C6 7913   3.314   2.830  14.435  0.1546 -1.0622  0.0268
  533TMC3     C 7914   3.229   2.480  14.541 -0.4011  0.5299 -0.0949
  533TMC3     O 7915   3.301   2.390  14.574 -0.3398  0.2025  0.7965
  533TMC3     H 7916   3.471   2.526  14.489  2.0735  0.8013 -1.0371
  533TMC3    H1 7917   3.080   2.610  14.357  0.6550 -1.2714 -0.5790
  533TMC3    H2 7918   3.347   2.933  14.428 -0.0934 -0.9711  0.1900
  533TMC3    C7 7919   3.081   2.846  14.479  0.4897  0.7634 -0.2383
  533TMC3    C8 7920   3.539   2.781  14.516  1.0650 -0.4303  0.9139
  533TMC3    O1 7921   2.990   2.771  14.502  0.4784 -1.0751 -0.4510
  533TMC3    O2 7922   3.534   2.884  14.584 -0.2001  0.5117  0.0537
  534MPD2     C 7923   0.917   2.729   2.065 -0.0181 -0.1611 -0.3381
  534MPD2    C1 7924   0.936   2.819   1.966 -0.4871  0.0220 -0.8490
  534MPD2    C2 7925   0.827   2.856   1.883 -0.1497 -0.3374 -0.5195
  534MPD2    C3 7926   0.693   2.823   1.920 -0.2550 -0.1359  0.2518
  534MPD2    C4 7927   0.679   2.732   2.016 -0.3530  1.1869  0.2117
  534MPD2    C5 7928   0.788   2.682   2.086 -1.2645  0.0201 -0.9495
  534MPD2     H 7929   0.837   2.917   1.795 -0.1336  1.2553  0.5883
  534MPD2    H1 7930   0.581   2.699   2.049 -0.2030  0.5011 -0.0207
  534MPD2    H2 7931   0.995   2.689   2.130 -1.3973 -3.2300 -0.5955
  534MPD2    H3 7932   0.768   2.609   2.164  3.0506  0.0413  0.1832
  534MPD2     N 7933   0.572   2.878   1.861  0.1463 -0.1073  0.2790
  534MPD2    H5 7934   0.488   2.838   1.899 -0.7906  0.0824 -1.5812
  534MPD2    N1 7935   1.059   2.881   1.941  0.0417 -0.9235  0.1344
  534MPD2    H7 7936   1.057   2.948   1.865  2.5395  0.8558  1.6383
  535TMC3    C1 7937   0.459   2.975   1.679 -0.1881  0.2248  0.0706
  535TMC3    C2 7938   0.338   2.939   1.722 -0.3654  0.1573 -0.5542
  535TMC3    C3 7939   0.230   2.972   1.640 -0.5552 -0.0241  0.7740
  535TMC3    C4 7940   0.479   3.032   1.561  0.0018 -0.1103 -0.3307
  535TMC3    C5 7941   0.372   3.050   1.475 -0.3140  0.3061  0.6831
  535TMC3    C6 7942   0.245   3.025   1.518  0.5081  0.1135  0.1201
  535TMC3     C 7943   0.576   2.966   1.756 -0.9930 -0.3835 -0.8425
  535TMC3     O 7944   0.669   3.034   1.718  0.8628  0.5011  0.1238
  535TMC3     H 7945   0.328   2.889   1.818  0.3080  0.1645 -0.4807
  535TMC3    H1 7946   0.575   3.062   1.522 -0.8469  0.4068 -2.0332
  535TMC3    H2 7947   0.154   3.040   1.461  0.4201 -0.1291  0.1973
  535TMC3    C7 7948   0.394   3.135   1.355 -0.2847  0.3175  0.0652
  535TMC3    C8 7949   0.090   2.952   1.677  0.0530  0.0880  0.0346
  535TMC3    O1 7950   0.512   3.157   1.326  0.2119 -0.0041  0.0974
  535TMC3    O2 7951   0.006   2.946   1.586  0.3400 -0.1859 -0.1602
  536MPD2     C 7952   4.442   2.077  16.268  0.8914  0.1769 -0.4011
  536MPD2    C1 7953   4.375   1.960  16.280  0.1118  0.0830  0.0262
  536MPD2    C2 7954   4.314   1.915  16.166 -0.5862 -0.3555 -0.1594
  536MPD2    C3 7955   4.292   1.991  16.048 -0.5105 -0.1890 -0.7783
  536MPD2    C4 7956   4.367   2.104  16.033 -0.0459 -0.3335  0.3837
  536MPD2    C5 7957   4.442   2.147  16.147 -0.2067 -0.2661  0.5654
  536MPD2     H 7958   4.272   1.815  16.161  2.0977 -1.5359  0.6597
  536MPD2    H1 7959   4.370   2.163  15.942 -0.7845  0.1232  0.6619
  536MPD2    H2 7960   4.513   2.104  16.345 -0.2653  0.3515  0.6005
  536MPD2    H3 7961   4.499   2.239  16.134  0.1576 -0.6981 -0.9780
  536MPD2     N 7962   4.205   1.948  15.943  0.1663 -0.3272  0.0032
  536MPD2    H5 7963   4.209   2.006  15.859 -1.1817  0.6753  0.6303
  536MPD2    N1 7964   4.379   1.887  16.401  0.2193  0.2251  0.0018
  536MPD2    H7 7965   4.431   1.927  16.479 -0.8753 -0.6528  1.1851
  537TMC3    C1 7966   4.300   1.714  16.560  0.3890  0.6556 -0.4699
  537TMC3    C2 7967   4.337   1.791  16.663  0.8070 -0.2026  0.6617
  537TMC3    C3 7968   4.321   1.738  16.789  0.1215 -0.3608  0.4108
  537TMC3    C4 7969   4.218   1.603  16.576  0.4074 -0.2673 -0.7147
  537TMC3    C5 7970   4.206   1.556  16.703  0.6121 -0.1723  0.5169
  537TMC3    C6 7971   4.258   1.621  16.811 -0.0684  0.2783  0.6427
  537TMC3     C 7972   4.293   1.786  16.431 -0.1676  0.3347  0.3386
  537TMC3     O 7973   4.199   1.748  16.360 -0.0701  0.5114  0.7381
  537TMC3     H 7974   4.369   1.894  16.650  1.8515 -0.6936 -0.6722
  537TMC3    H1 7975   4.182   1.568  16.480  0.3151 -2.8186  0.2456
  537TMC3    H2 7976   4.272   1.579  16.910 -1.5617  0.5421  0.9555
  537TMC3    C7 7977   4.099   1.461  16.725 -0.2086 -0.2650 -0.7500
  537TMC3    C8 7978   4.302   1.834  16.899 -0.2868 -0.2128 -0.7983
  537TMC3    O1 7979   4.008   1.462  16.642  0.0944 -0.4357 -0.1936
  537TMC3    O2 7980   4.349   1.794  17.006  0.6754 -0.4492  0.1579
  538TMC3    C1 7981   1.322   0.210  11.396 -0.3852 -0.0393  0.3837
  538TMC3    C2 7982   1.378   0.166  11.274 -0.2408 -0.1061  0.8292
  538TMC3    C3 7983   1.362   0.247  11.163 -0.5827  0.1219  0.5329
  538TMC3    C4 7984   1.235   0.314  11.408 -0.6253 -0.1299  0.2921
  538TMC3    C5 7985   1.219   0.390  11.295  0.3383 -0.3256 -0.0825
  538TMC3    C6 7986   1.292   0.364  11.180  1.1241  0.0983 -0.2237
  538TMC3     C 7987   1.330   0.119  11.516 -0.1459 -0.1145 -0.2121
  538TMC3     O 7988   1.256   0.145  11.609  0.8775 -0.3449  0.2120
  538TMC3     H 7989   1.445   0.081  11.273 -0.4079 -0.1786 -2.8489
  538TMC3    H1 7990   1.193   0.335  11.506 -2.4787 -0.2427 -0.4779
  538TMC3    H2 7991   1.284   0.428  11.093  0.5027 -0.1623 -0.3642
  538TMC3    C7 7992   1.097   0.462  11.284  0.7085 -0.8062  0.2682
  538TMC3    C8 7993   1.456   0.227  11.057 -0.4159 -0.5854  0.1575
  538TMC3    O1 7994   1.027   0.457  11.384  0.1783  0.1967  0.0342
  538TMC3    O2 7995   1.550   0.148  11.068 -0.0852 -0.3390 -0.0466
  539MPD2     C 7996   0.552   4.197  12.263 -0.1869  0.1310 -0.0754
  539MPD2    C1 7997   0.564   4.209  12.124 -0.6490 -0.1384  0.0502
  539MPD2    C2 7998   0.575   4.337  12.071  0.0798 -0.0153  0.3260
  539MPD2    C3 7999   0.602   4.449  12.150 -0.0361  0.4049 -0.3964
  539MPD2    C4 8000   0.606   4.433  12.285 -0.0034 -0.5322 -0.6561
  539MPD2    C5 8001   0.572   4.309  12.344 -0.5408  0.1902  0.4711
  539MPD2     H 8002   0.570   4.351  11.964  0.3260 -1.8359  0.0807
  539MPD2    H1 8003   0.627   4.514  12.354  0.8201 -2.1701  1.0160
  539MPD2    H2 8004   0.542   4.103  12.316  0.0921  0.5631  0.7443
  539MPD2    H3 8005   0.558   4.311  12.452 -0.3815 -2.5073  0.5488
  539MPD2     N 8006   0.628   4.578  12.101  0.3302  0.5785  0.0888
  539MPD2    H5 8007   0.667   4.648  12.162  1.1036  1.4503 -1.4186
  539MPD2    N1 8008   0.565   4.093  12.039 -0.6298 -0.5421 -0.3191
  539MPD2    H7 8009   0.577   4.107  11.939  0.9020  2.1718  0.2426
  540TMC3    C1 8010   0.617   0.037  11.954 -0.1973 -0.4233  0.3465
  540TMC3    C2 8011   0.616   0.074  11.821  0.0382 -0.0135 -0.5246
  540TMC3    C3 8012   0.629   0.204  11.802 -0.7221 -0.4262  0.0975
  540TMC3    C4 8013   0.635   0.125  12.064  0.2716 -0.4848  0.1277
  540TMC3    C5 8014   0.650   0.256  12.027  0.0279  0.0190  0.0945
  540TMC3    C6 8015   0.655   0.304  11.902 -0.5967  0.4708  0.4829
  540TMC3     C 8016   0.611   4.616  11.973  0.1937  0.0781  1.7172
  540TMC3     O 8017   0.570   4.552  11.879  0.0127  0.3906  0.3046
  540TMC3     H 8018   0.631   0.000  11.744  1.0671  0.7318 -1.0384
  540TMC3    H1 8019   0.625   0.096  12.168 -0.8968  1.8291  0.6407
  540TMC3    H2 8020   0.664   0.411  11.887 -1.5696  0.3121 -1.2054
  540TMC3    C7 8021   0.651   0.358  12.133  0.6891 -0.2597 -0.1597
  540TMC3    C8 8022   0.668   0.251  11.669  0.3582  0.0651  0.2259
  540TMC3    O1 8023   0.572   0.455  12.118  0.3843  0.2853 -0.5371
  540TMC3    O2 8024   0.731   0.354  11.657  0.4238  0.1175  0.0547
  541MPD2     C 8025   3.186   1.644  13.459 -0.0643 -0.3210  0.0304
  541MPD2    C1 8026   3.207   1.548  13.366 -0.2021 -0.0347  0.0861
  541MPD2    C2 8027   3.210   1.592  13.229 -0.2190  0.3274 -0.0829
  541MPD2    C3 8028   3.200   1.726  13.200 -0.9981  0.6767 -0.4751
  541MPD2    C4 8029   3.179   1.821  13.295 -0.0542  0.6881  0.3445
  541MPD2    C5 8030   3.167   1.777  13.425  0.2054  0.1365  0.4307
  541MPD2     H 8031   3.224   1.525  13.145 -0.6124 -0.6244  0.6182
  541MPD2    H1 8032   3.187   1.927  13.275  0.5922  0.4686 -0.5370
  541MPD2    H2 8033   3.164   1.620  13.563  0.0348  1.7737  0.5371
  541MPD2    H3 8034   3.132   1.851  13.495 -2.3818 -0.4091 -0.2791
  541MPD2     N 8035   3.237   1.780  13.074 -0.3711  0.7172 -0.5018
  541MPD2    H5 8036   3.236   1.881  13.066 -0.5905  0.8028  0.5842
  541MPD2    N1 8037   3.216   1.408  13.405 -0.1294  0.0204 -0.3331
  541MPD2    H7 8038   3.211   1.399  13.506  0.5887 -4.7577 -0.7281
  542TMC3    C1 8039   3.307   1.801  12.856  0.0713 -0.6354  0.1834
  542TMC3    C2 8040   3.312   1.750  12.728  0.2619 -0.6071  0.0351
  542TMC3    C3 8041   3.375   1.819  12.631  0.4288 -0.2130 -0.8861
  542TMC3    C4 8042   3.353   1.926  12.893 -0.8591 -0.2342 -0.4328
  542TMC3    C5 8043   3.406   1.995  12.784  0.8731 -0.7498  0.3531
  542TMC3    C6 8044   3.416   1.949  12.652  0.0983 -0.7340 -0.2667
  542TMC3     C 8045   3.272   1.708  12.958 -0.5642  0.1078 -0.0910
  542TMC3     O 8046   3.225   1.603  12.925  0.3601  0.1177  0.5135
  542TMC3     H 8047   3.317   1.643  12.713  0.1190 -0.8505  1.8111
  542TMC3    H1 8048   3.346   1.980  12.987  1.4569 -0.6159 -0.0568
  542TMC3    H2 8049   3.463   2.004  12.571 -1.5109  0.4048 -0.4324
  542TMC3    C7 8050   3.453   2.125  12.811  0.1778  0.3967  0.4439
  542TMC3    C8 8051   3.383   1.754  12.498  0.3360 -0.0783 -0.4143
  542TMC3    O1 8052   3.531   2.136  12.902 -0.3031 -0.3118 -0.0642
  542TMC3    O2 8053   3.481   1.801  12.439 -0.2920  0.3538 -0.1050
  543TMC3    C1 8054   2.919   2.479  17.402  0.5096  1.0872  0.3331
  543TMC3    C2 8055   2.787   2.443  17.415  0.5129 -0.8136 -0.1152
  543TMC3    C3 8056   2.733   2.390  17.532 -0.0400 -0.4529 -0.3877
  543TMC3    C4 8057   3.010   2.439  17.498 -0.2819 -0.5642  0.8758
  543TMC3    C5 8058   2.954   2.387  17.615 -0.1565  0.2077 -0.4580
  543TMC3    C6 8059   2.822   2.380  17.640  0.0554  0.3365  0.2066
  543TMC3     C 8060   2.965   2.469  17.266  0.4727 -0.2524 -0.1688
  543TMC3     O 8061   3.080   2.440  17.248 -0.3160 -0.2633 -0.6194
  543TMC3     H 8062   2.712   2.442  17.338 -2.2826  0.0054  2.5916
  543TMC3    H1 8063   3.118   2.441  17.489 -0.4961  0.8722 -1.4681
  543TMC3    H2 8064   2.784   2.338   0.033 -1.6183  0.5929 -0.3550
  543TMC3    C7 8065   3.054   2.361   0.019  0.3260  0.4600 -0.9648
  543TMC3    C8 8066   2.630   2.294  17.506 -0.1503 -0.2891 -0.5681
  543TMC3    O1 8067   3.144   2.444   0.026  0.5425  0.0443 -0.4020
  543TMC3    O2 8068   2.636   2.244  17.395 -0.5026  0.6219  0.5221
  544MPD2     C 8069   2.396   1.895   0.022  0.2052  0.2665  0.0764
  544MPD2    C1 8070   2.477   1.903  17.608 -0.0255  0.0029 -0.2363
  544MPD2    C2 8071   2.527   2.028  17.574 -0.2681  0.0352 -0.6625
  544MPD2    C3 8072   2.495   2.141  17.648 -0.5675  0.4017 -0.5878
  544MPD2    C4 8073   2.411   2.128   0.053  0.3152  0.5358 -0.3463
  544MPD2    C5 8074   2.359   2.007   0.087  0.8395 -0.4016  0.4782
  544MPD2     H 8075   2.598   2.044  17.493  0.0558  0.3825 -0.3028
  544MPD2    H1 8076   2.368   2.219   0.093  0.8557  0.7574 -0.2691
  544MPD2    H2 8077   2.366   1.798   0.060 -2.1809  1.4419  1.2176
  544MPD2    H3 8078   2.283   2.010   0.165  1.2460  2.0480  0.7772
  544MPD2     N 8079   2.555   2.267  17.616 -0.4262  0.1204 -0.6250
  544MPD2    H5 8080   2.552   2.344  17.682  1.0126  0.2665 -0.7238
  544MPD2    N1 8081   2.513   1.780  17.536  0.1709  0.1888 -0.1479
  544MPD2    H7 8082   2.497   1.692  17.584  0.7750 -0.5913 -1.4020
  545TMC3    C1 8083   2.639   1.655  17.389  0.4387  0.6490 -1.0073
  545TMC3    C2 8084   2.741   1.668  17.297 -0.0168 -0.8427  0.0019
  545TMC3    C3 8085   2.832   1.567  17.298 -0.4860 -0.1301 -1.0705
  545TMC3    C4 8086   2.629   1.546  17.476 -0.3425 -1.0337  0.0910
  545TMC3    C5 8087   2.720   1.446  17.463 -0.2157  0.0468  0.5075
  545TMC3    C6 8088   2.828   1.458  17.375  0.5622 -0.3843  0.1493
  545TMC3     C 8089   2.571   1.778  17.413 -0.1196 -0.3265 -0.5264
  545TMC3     O 8090   2.586   1.869  17.330  0.7133 -0.3648 -0.6944
  545TMC3     H 8091   2.737   1.741  17.217 -1.0280  0.3018  1.0965
  545TMC3    H1 8092   2.531   1.532  17.522 -0.1798  2.7827  1.6857
  545TMC3    H2 8093   2.901   1.380  17.356  2.3405  1.0999  0.8972
  545TMC3    C7 8094   2.709   1.337  17.553  0.1401 -0.8659 -0.1704
  545TMC3    C8 8095   2.960   1.608  17.246 -0.1973  0.3154 -0.8565
  545TMC3    O1 8096   2.597   1.322  17.591  0.5294 -0.3851  0.3666
  545TMC3    O2 8097   3.044   1.518  17.231 -0.8780  0.1389 -0.5674
  546MPD2     C 8098   4.023   2.391   0.103 -0.5609  0.5901 -0.0422
  546MPD2    C1 8099   4.081   2.389  17.678  0.0422  0.4484 -0.7999
  546MPD2    C2 8100   4.163   2.502  17.637 -0.0300 -0.1090  0.6916
  546MPD2    C3 8101   4.172   2.616   0.023 -0.3203 -0.0964  1.2057
  546MPD2    C4 8102   4.112   2.606   0.148  0.7845  1.1002  0.3748
  546MPD2    C5 8103   4.040   2.499   0.185  1.0473  0.6023 -0.5278
  546MPD2     H 8104   4.224   2.498  17.548 -1.0902  1.2302 -0.0796
  546MPD2    H1 8105   4.118   2.690   0.218  2.9107  2.4093 -1.3758
  546MPD2    H2 8106   3.953   2.318   0.141  0.4783  0.2635  1.2285
  546MPD2    H3 8107   3.992   2.493   0.283  3.1297  0.4081  0.4708
  546MPD2     N 8108   4.253   2.734  17.695 -0.2797  0.2455  0.7249
  546MPD2    H5 8109   4.252   2.796   0.077  1.0836  0.7521  0.3541
  546MPD2    N1 8110   4.058   2.275  17.593 -0.0911  0.3638 -0.4641
  546MPD2    H7 8111   4.005   2.196  17.628  2.9882 -1.0587  1.0280
  547TMC3    C1 8112   4.034   2.150  17.408  0.5886 -1.3553  0.9304
  547TMC3    C2 8113   3.984   2.145  17.280 -0.1245 -0.4864  0.4215
  547TMC3    C3 8114   3.944   2.020  17.230 -0.0188 -0.4517  0.3858
  547TMC3    C4 8115   4.054   2.031  17.480  0.4556 -1.0644 -0.0520
  547TMC3    C5 8116   4.015   1.906  17.430 -0.5206 -0.5515  1.6025
  547TMC3    C6 8117   3.963   1.904  17.301  0.1954  0.2852  0.2695
  547TMC3     C 8118   4.080   2.274  17.456  0.2810  0.6915 -0.4294
  547TMC3     O 8119   4.118   2.368  17.384  0.0520 -0.2459  0.1502
  547TMC3     H 8120   3.981   2.233  17.216  0.0217  0.4959  1.7789
  547TMC3    H1 8121   4.095   2.027  17.580 -2.4627  2.5376  1.2885
  547TMC3    H2 8122   3.912   1.813  17.272 -0.8383  0.4347  1.6488
  547TMC3    C7 8123   4.001   1.789  17.522  0.9212 -0.0569  0.1903
  547TMC3    C8 8124   3.877   2.015  17.101 -0.7177  0.2092 -0.5301
  547TMC3    O1 8125   4.033   1.804  17.638 -0.0942 -0.1771  0.2005
  547TMC3    O2 8126   3.836   2.118  17.061  0.7110 -0.1811  0.3496
  548MPD2     C 8127   4.404   3.343  12.553 -0.2668  0.5103 -0.2496
  548MPD2    C1 8128   4.358   3.220  12.597  0.2516 -0.2991  0.0813
  548MPD2    C2 8129   4.439   3.111  12.584 -0.3938 -0.4669 -0.0423
  548MPD2    C3 8130   4.558   3.115  12.521  0.3484  0.5778 -0.2649
  548MPD2    C4 8131   4.617   3.242  12.484  0.2140 -0.5277  0.1348
  548MPD2    C5 8132   4.532   3.349  12.494  0.7043 -0.6124 -0.1570
  548MPD2     H 8133   4.402   3.011  12.605 -1.0129 -0.0459  0.8915
  548MPD2    H1 8134   4.712   3.249  12.433  0.5349  1.5861  1.0075
  548MPD2    H2 8135   4.336   3.427  12.554 -1.3417 -0.3543 -0.5406
  548MPD2    H3 8136   4.572   3.447  12.468  0.1641 -0.1265  0.8461
  548MPD2     N 8137   4.630   2.988  12.497 -0.3055 -0.1430  0.2439
  548MPD2    H5 8138   4.589   2.900  12.528 -0.2402 -0.3047 -0.1319
  548MPD2    N1 8139   4.230   3.215  12.659 -0.4457  0.0619 -0.6718
  548MPD2    H7 8140   4.180   3.303  12.669  1.2876  0.6229  2.9271
  549TMC3    C1 8141   4.026   3.132  12.745 -0.9643  0.0943 -0.2467
  549TMC3    C2 8142   3.954   3.247  12.718 -0.5420 -0.6726 -0.7211
  549TMC3    C3 8143   3.827   3.258  12.765  0.1391 -0.5373 -0.4573
  549TMC3    C4 8144   3.969   3.032  12.824  0.2394 -0.1209 -0.6322
  549TMC3    C5 8145   3.842   3.051  12.876 -0.3404 -0.4484 -0.4213
  549TMC3    C6 8146   3.769   3.160  12.846  0.4130 -0.5325  0.0326
  549TMC3     C 8147   4.162   3.107  12.708 -0.8005  0.5263  0.4115
  549TMC3     O 8148   4.206   2.992  12.722 -0.4063  0.1262 -0.2154
  549TMC3     H 8149   3.997   3.321  12.652 -0.6683 -0.1596 -0.2248
  549TMC3    H1 8150   4.030   2.954  12.868 -1.6692 -0.7490  0.9081
  549TMC3    H2 8151   3.667   3.167  12.881  0.6320  0.1267  0.5535
  549TMC3    C7 8152   3.793   2.962  12.976 -0.1504  0.9122 -0.2822
  549TMC3    C8 8153   3.742   3.377  12.734  0.4236 -0.6644  0.4907
  549TMC3    O1 8154   3.721   3.008  13.061 -0.0505  0.2899  0.1678
  549TMC3    O2 8155   3.622   3.359  12.716  0.1866 -0.0517  0.4135
  550TMC3    C1 8156   2.917   1.029  12.573 -0.2705 -0.3662  0.1166
  550TMC3    C2 8157   2.923   1.116  12.685  0.4247  0.1796  0.1235
  550TMC3    C3 8158   2.879   1.249  12.668 -0.0387 -0.3101  0.4458
  550TMC3    C4 8159   2.896   1.080  12.447 -0.7183 -0.6009 -0.1727
  550TMC3    C5 8160   2.852   1.212  12.435  0.0200  0.4271  0.3145
  550TMC3    C6 8161   2.845   1.296  12.542  0.7742 -0.4097 -0.6515
  550TMC3     C 8162   3.000   0.906  12.573  0.0954  0.0379  0.5348
  550TMC3     O 8163   3.020   0.858  12.682  0.4196 -0.0552  0.0643
  550TMC3     H 8164   2.965   1.077  12.777 -0.6805  1.2504  1.0769
  550TMC3    H1 8165   2.872   1.017  12.363  0.8126 -3.3273  1.4671
  550TMC3    H2 8166   2.792   1.390  12.529  1.8209  0.2864  0.1835
  550TMC3    C7 8167   2.770   1.233  12.315  0.6123 -0.4833  0.5072
  550TMC3    C8 8168   2.818   1.324  12.779  0.0590  0.1202  0.0637
  550TMC3    O1 8169   2.802   1.168  12.218  0.4633 -0.3334  0.0125
  550TMC3    O2 8170   2.738   1.410  12.746  0.3283 -0.1703 -0.6630
  551TMC3    C1 8171   0.201   3.679  13.613  0.7379 -0.1597  0.7381
  551TMC3    C2 8172   0.256   3.792  13.548 -0.1360 -0.1852 -0.0739
  551TMC3    C3 8173   0.313   3.885  13.630 -0.4315 -0.0733 -0.5762
  551TMC3    C4 8174   0.201   3.665  13.753 -0.1301 -0.4946  0.1574
  551TMC3    C5 8175   0.251   3.764  13.828  0.8908 -0.5790  0.4582
  551TMC3    C6 8176   0.313   3.871  13.762 -0.2631  0.6338  0.1439
  551TMC3     C 8177   0.121   3.590  13.521  0.4223  1.3323  0.8468
  551TMC3     O 8178   0.138   3.603  13.397 -0.5900 -0.8210 -0.7297
  551TMC3     H 8179   0.247   3.801  13.440  0.5042 -2.2318 -0.2906
  551TMC3    H1 8180   0.186   3.569  13.801  2.5421 -0.7400  0.4951
  551TMC3    H2 8181   0.345   3.953  13.824 -1.4302  0.6215  0.7690
  551TMC3    C7 8182   0.277   3.751  13.964 -0.1489 -0.6570  0.2601
  551TMC3    C8 8183   0.296   4.023  13.591 -0.9685 -0.3288 -0.0113
  551TMC3    O1 8184   0.381   3.788  14.009 -0.5251 -0.5730 -0.6911
  551TMC3    O2 8185   0.261   4.099  13.679 -0.2314 -0.0625 -0.5516
  552MPD2     C 8186   1.700   0.979  14.122  0.7389  1.1872  0.9994
  552MPD2    C1 8187   1.785   0.872  14.097  1.1437 -0.2214 -0.5679
  552MPD2    C2 8188   1.861   0.835  14.204  0.2508 -0.6885  0.1127
  552MPD2    C3 8189   1.881   0.904  14.324 -0.8140  0.3679  0.0753
  552MPD2    C4 8190   1.804   1.022  14.335  0.2850 -0.1284 -0.0056
  552MPD2    C5 8191   1.710   1.045  14.237  0.3998 -0.4417  0.1133
  552MPD2     H 8192   1.929   0.751  14.201  3.4559  1.8695  1.3798
  552MPD2    H1 8193   1.795   1.083  14.424 -3.1037  0.3234 -0.6352
  552MPD2    H2 8194   1.619   1.013  14.059  0.0109 -0.2109  1.1648
  552MPD2    H3 8195   1.650   1.134  14.243 -1.3395 -1.5973 -0.2673
  552MPD2     N 8196   1.981   0.875  14.422  0.4742 -0.0771  0.2244
  552MPD2    H5 8197   1.995   0.957  14.481  0.6047 -0.2454  0.4250
  552MPD2    N1 8198   1.778   0.785  13.985  0.5466 -0.2138  0.4808
  552MPD2    H7 8199   1.832   0.699  13.980 -1.4653 -1.5138  1.3170
  553TMC3    C1 8200   1.722   0.730  13.762  0.6941  0.1401 -0.0855
  553TMC3    C2 8201   1.772   0.778  13.642  0.1919  0.3283  0.1933
  553TMC3    C3 8202   1.842   0.689  13.562 -0.5789  0.4496 -0.0852
  553TMC3    C4 8203   1.740   0.596  13.799  0.3671 -0.1368 -0.5150
  553TMC3    C5 8204   1.814   0.516  13.715 -0.2757 -0.2601  0.2051
  553TMC3    C6 8205   1.859   0.563  13.596 -0.2813 -0.3741  0.4241
  553TMC3     C 8206   1.707   0.824  13.871 -0.0336 -0.2288 -0.3735
  553TMC3     O 8207   1.646   0.925  13.846 -0.0154 -0.0626 -0.7447
  553TMC3     H 8208   1.761   0.879  13.605 -0.3767 -0.8295 -2.8302
  553TMC3    H1 8209   1.694   0.565  13.892 -1.0194  2.6821 -0.2701
  553TMC3    H2 8210   1.910   0.497  13.527  0.6459  0.5188  0.2558
  553TMC3    C7 8211   1.924   0.462  13.799  0.3051  0.1374  0.0874
  553TMC3    C8 8212   1.966   0.737  13.509 -0.0494 -0.3606  0.4406
  553TMC3    O1 8213   1.931   0.516  13.908  0.1868 -0.3545 -0.1826
  553TMC3    O2 8214   2.032   0.815  13.578 -0.0267  0.1334 -0.2378
  554TMC3    C1 8215   4.304   4.598  11.847  0.0596  0.0635  0.3912
  554TMC3    C2 8216   4.272   4.554  11.719 -0.3294 -0.1086 -0.1709
  554TMC3    C3 8217   4.363   4.568  11.626 -0.9804  0.6630 -0.5740
  554TMC3    C4 8218   4.420   4.668  11.872  0.2304 -0.1231  0.7674
  554TMC3    C5 8219   4.505   4.685  11.770 -0.0376 -0.1215 -0.5829
  554TMC3    C6 8220   4.472   4.640  11.647 -0.0407 -0.9420  0.2923
  554TMC3     C 8221   4.229   4.541  11.955  0.4571 -0.2171 -0.6374
  554TMC3     O 8222   4.109   4.516  11.948  0.4539  0.0206 -0.2714
  554TMC3     H 8223   4.186   4.489  11.707 -1.4513  1.1923  0.7505
  554TMC3    H1 8224   4.431   4.722  11.965 -2.7013 -0.8481  1.5153
  554TMC3    H2 8225   4.542   4.665  11.567  0.4800 -2.2150  0.3472
  554TMC3    C7 8226   4.605   0.068  11.770 -0.1298  0.4027 -0.1500
  554TMC3    C8 8227   4.326   4.571  11.489 -0.1411  0.2169 -0.0023
  554TMC3    O1 8228   4.618   0.136  11.672 -0.0166 -0.1799 -0.2777
  554TMC3    O2 8229   4.391   4.639  11.410 -0.0014 -0.1982  0.1853
  555TMC3    C1 8230   3.284   3.714  15.301 -0.3762 -1.0337 -0.0464
  555TMC3    C2 8231   3.291   3.831  15.370 -0.0429  0.1153 -0.6330
  555TMC3    C3 8232   3.288   3.817  15.509 -0.4038 -0.0344  0.2697
  555TMC3    C4 8233   3.266   3.591  15.361  0.2856 -0.2558 -0.5291
  555TMC3    C5 8234   3.259   3.586  15.500  0.2337  0.2866  0.2267
  555TMC3    C6 8235   3.279   3.697  15.578  0.2435 -0.7103 -0.0056
  555TMC3     C 8236   3.295   3.706  15.155 -0.4747 -0.3470 -0.1509
  555TMC3     O 8237   3.288   3.592  15.106  0.7655 -0.1457  0.5344
  555TMC3     H 8238   3.317   3.919  15.312 -0.1146 -0.0144 -0.8632
  555TMC3    H1 8239   3.231   3.507  15.302  0.1106  0.3425 -1.2732
  555TMC3    H2 8240   3.280   3.692  15.686 -1.3237 -0.9319 -0.0001
  555TMC3    C7 8241   3.238   3.458  15.561 -0.8110 -0.1136 -0.1365
  555TMC3    C8 8242   3.318   3.940  15.576  0.3507  0.0534 -0.5315
  555TMC3    O1 8243   3.214   3.467  15.679  0.4419  0.1062  0.4776
  555TMC3    O2 8244   3.306   4.038  15.510 -0.6502 -0.1056 -0.1612
  556MPD2     C 8245   1.349   1.438  10.840 -0.6449 -0.1398 -0.3367
  556MPD2    C1 8246   1.376   1.310  10.890  0.4002 -0.1723 -0.2737
  556MPD2    C2 8247   1.353   1.201  10.808  0.0568  0.3116 -0.1875
  556MPD2    C3 8248   1.326   1.212  10.671 -0.4643 -0.5623 -0.2188
  556MPD2    C4 8249   1.313   1.342  10.625 -0.7521  0.1669  1.3202
  556MPD2    C5 8250   1.331   1.453  10.704  0.1185 -0.0806  0.0748
  556MPD2     H 8251   1.366   1.102  10.851 -0.2347  0.5878  0.5534
  556MPD2    H1 8252   1.279   1.358  10.523 -0.5532 -1.5732  0.9871
  556MPD2    H2 8253   1.361   1.529  10.896 -2.9761  0.1928 -0.3716
  556MPD2    H3 8254   1.327   1.550  10.657 -0.3641 -0.0283  0.2281
  556MPD2     N 8255   1.325   1.091  10.594  0.1535 -0.4006 -0.2484
  556MPD2    H5 8256   1.343   1.006  10.647 -1.0098  0.1149  0.9762
  556MPD2    N1 8257   1.404   1.284  11.026  0.3452  0.4638 -0.7285
  556MPD2    H7 8258   1.406   1.188  11.059  2.3226  1.1870  1.1909
  557TMC3    C1 8259   1.354   0.955  10.401  0.0583  0.5804  0.5820
  557TMC3    C2 8260   1.433   0.955  10.288 -0.0420 -0.1490 -0.4967
  557TMC3    C3 8261   1.491   0.836  10.249  0.6506 -0.1013  0.3489
  557TMC3    C4 8262   1.349   0.848  10.492  0.1074  0.4086  0.3497
  557TMC3    C5 8263   1.427   0.743  10.456 -0.6891  0.0717 -0.4513
  557TMC3    C6 8264   1.504   0.734  10.339 -0.5815 -0.4537 -0.0794
  557TMC3     C 8265   1.339   1.085  10.456 -0.4535  0.2398  0.0753
  557TMC3     O 8266   1.361   1.183  10.386 -0.6434 -0.2901  0.1955
  557TMC3     H 8267   1.435   1.039  10.220  0.1020 -1.2643 -1.8584
  557TMC3    H1 8268   1.295   0.851  10.586  1.3965  1.4775  1.0476
  557TMC3    H2 8269   1.576   0.653  10.332  0.7680  0.5822  1.9283
  557TMC3    C7 8270   1.421   0.635  10.555  0.0241  1.0288 -0.4792
  557TMC3    C8 8271   1.557   0.832  10.122  0.3154 -0.0620 -0.0915
  557TMC3    O1 8272   1.341   0.648  10.646  0.4700 -0.8562 -0.1534
  557TMC3    O2 8273   1.581   0.943  10.071  0.0809 -0.1131  0.1198
  558TMC3    C1 8274   4.400   3.699  10.535  0.6853  0.9881  0.6452
  558TMC3    C2 8275   4.266   3.670  10.555 -0.2213  0.3191  0.0707
  558TMC3    C3 8276   4.187   3.652  10.439 -0.4831  0.5476  0.3871
  558TMC3    C4 8277   4.452   3.716  10.407 -0.4815 -0.2577 -0.3295
  558TMC3    C5 8278   4.360   3.715  10.301  0.1178  0.2301  0.1502
  558TMC3    C6 8279   4.233   3.686  10.315  0.4315  0.2588  0.4611
  558TMC3     C 8280   4.512   3.671  10.635 -0.2249 -0.4569 -0.3613
  558TMC3     O 8281   4.623   3.722  10.609 -0.0459  0.0660  0.0711
  558TMC3     H 8282   4.228   3.646  10.653 -1.1716 -0.2646 -0.4407
  558TMC3    H1 8283   4.558   3.730  10.385 -0.2668  0.5688  1.2860
  558TMC3    H2 8284   4.170   3.682  10.227  1.5058  0.6750 -0.3192
  558TMC3    C7 8285   4.432   3.697  10.178  0.1299  0.2455  0.0447
  558TMC3    C8 8286   4.051   3.605  10.465  0.7475  0.3953  0.2637
  558TMC3    O1 8287   4.536   3.754  10.164 -0.0127 -0.4389  0.1364
  558TMC3    O2 8288   3.964   3.639  10.387 -0.4314  0.1490 -0.6126
  559MPD2     C 8289   4.307   4.113  10.692 -0.2305  0.3207  0.2211
  559MPD2    C1 8290   4.240   4.005  10.745  0.3309 -0.0332 -0.2551
  559MPD2    C2 8291   4.299   3.931  10.850  0.7165  0.0991  0.3601
  559MPD2    C3 8292   4.419   3.971  10.909 -0.5390  0.6313  0.6338
  559MPD2    C4 8293   4.479   4.086  10.855 -0.0500  0.3414  0.3883
  559MPD2    C5 8294   4.426   4.153  10.745  0.0244 -0.1044 -0.2178
  559MPD2     H 8295   4.240   3.858  10.905  0.7295 -1.0103 -1.0990
  559MPD2    H1 8296   4.568   4.131  10.897  2.2000 -2.3225 -1.5693
  559MPD2    H2 8297   4.262   4.171  10.612  0.7972 -2.2424 -2.2186
  559MPD2    H3 8298   4.481   4.226  10.687  2.4804 -1.1626  0.7855
  559MPD2     N 8299   4.453   3.903  11.027 -0.0550 -0.7647  0.9437
  559MPD2    H5 8300   4.387   3.834  11.062 -0.2112 -2.1510 -2.0702
  559MPD2    N1 8301   4.108   3.980  10.695  0.4643 -0.0917  0.0847
  559MPD2    H7 8302   4.077   4.050  10.627 -1.3460 -0.7838  0.2078
  560TMC3    C1 8303   4.572   3.856  11.228  0.6856 -0.3451  0.0782
  560TMC3    C2 8304   4.493   3.746  11.238 -0.8477  0.7620  0.3125
  560TMC3    C3 8305   4.490   3.691  11.365  0.2956 -0.8577  0.2032
  560TMC3    C4 8306   4.653   3.911  11.327 -0.7009 -0.5172  0.1976
  560TMC3    C5 8307   4.643   3.842  11.446 -0.1445  0.0459  0.2607
  560TMC3    C6 8308   4.564   3.733  11.467  0.0490 -0.6345  0.5357
  560TMC3     C 8309   4.562   3.929  11.102 -0.5502 -0.2652 -0.5619
  560TMC3     O 8310   4.635   4.027  11.089 -0.4220 -0.2868 -0.0700
  560TMC3     H 8311   4.437   3.701  11.156 -1.3392 -0.7138  1.4605
  560TMC3    H1 8312   4.719   3.997  11.315  0.1857 -1.2278  0.0130
  560TMC3    H2 8313   4.547   3.697  11.567 -1.0744 -1.9787 -0.1378
  560TMC3    C7 8314   4.711   3.880  11.568 -0.2321 -0.5020  0.1711
  560TMC3    C8 8315   4.426   3.558  11.368  0.2158  0.1972 -0.6348
  560TMC3    O1 8316   4.693   3.810  11.667  0.1553  0.2157  0.2492
  560TMC3    O2 8317   4.328   3.537  11.298  0.0179  0.5503  0.4429
  561TMC3    C1 8318   1.956   3.055  11.270 -0.0657  0.5514  0.2091
  561TMC3    C2 8319   1.914   2.970  11.376 -0.2286  0.3052  0.3056
  561TMC3    C3 8320   1.956   3.019  11.500  0.1194  0.1354 -0.1353
  561TMC3    C4 8321   2.044   3.165  11.287  0.8416 -0.5519 -0.0739
  561TMC3    C5 8322   2.079   3.193  11.413 -0.4222 -0.3509 -0.1604
  561TMC3    C6 8323   2.040   3.120  11.528 -0.2055  0.5828  0.4285
  561TMC3     C 8324   1.900   3.023  11.137 -0.0193  0.1267  0.1646
  561TMC3     O 8325   1.793   2.965  11.143 -0.4013  0.7860  0.1219
  561TMC3     H 8326   1.858   2.877  11.371  0.3722 -0.1229  1.6967
  561TMC3    H1 8327   2.057   3.242  11.212 -1.2585 -0.2589 -0.1231
  561TMC3    H2 8328   2.067   3.147  11.629 -0.8189  1.9830  0.2159
  561TMC3    C7 8329   2.142   3.323  11.441  0.1843  0.7579 -0.1529
  561TMC3    C8 8330   1.906   2.942  11.616 -0.4462  0.0428  0.0599
  561TMC3    O1 8331   2.155   3.351  11.562  0.6961 -0.0054  0.3146
  561TMC3    O2 8332   1.860   2.829  11.593 -0.0136  0.0218  0.3413
  562TMC3    C1 8333   3.111   4.483  16.197  0.4515  0.3698 -0.1384
  562TMC3    C2 8334   3.023   4.578  16.191 -0.1184  0.1749 -0.2178
  562TMC3    C3 8335   2.914   4.560  16.105 -0.2965  0.6127 -0.2524
  562TMC3    C4 8336   3.097   4.371  16.116 -0.0623 -0.1206  0.0794
  562TMC3    C5 8337   2.990   4.348  16.038  0.4101 -0.4544 -1.1361
  562TMC3    C6 8338   2.892   4.445  16.029 -0.1636  0.3308 -0.6529
  562TMC3     C 8339   3.197   4.465  16.313  0.1341 -0.2037 -0.4607
  562TMC3     O 8340   3.267   4.367  16.308 -0.3318  0.3672 -0.1980
  562TMC3     H 8341   3.021   4.667  16.254 -0.6992  0.1997 -0.2737
  562TMC3    H1 8342   3.177   4.298  16.112 -0.9741 -1.0580 -1.0206
  562TMC3    H2 8343   2.798   4.419  15.982 -1.1694  0.0496  1.5221
  562TMC3    C7 8344   2.972   4.213  15.981 -0.4414 -0.0781  0.2962
  562TMC3    C8 8345   2.795   4.651  16.120 -0.1227 -0.0212 -0.8947
  562TMC3    O1 8346   2.888   4.194  15.891 -0.2475 -0.0679  1.1101
  562TMC3    O2 8347   2.793   0.010  16.212 -0.3385 -0.6380 -0.5820
  563MPD2     C 8348   0.546   1.012  15.842  0.5433  0.1112  0.0158
  563MPD2    C1 8349   0.547   1.042  15.976  0.1044  0.1470  0.3149
  563MPD2    C2 8350   0.664   1.028  16.046 -0.0070  0.3336 -0.4611
  563MPD2    C3 8351   0.769   0.961  15.988  0.1237  0.2787  0.5842
  563MPD2    C4 8352   0.768   0.927  15.856 -0.3622  0.0201 -0.1958
  563MPD2    C5 8353   0.657   0.949  15.790  1.1801  0.1769 -0.0936
  563MPD2     H 8354   0.678   1.059  16.149 -1.8335  0.8073 -0.3583
  563MPD2    H1 8355   0.843   0.863  15.810  0.4229 -0.0408  1.1816
  563MPD2    H2 8356   0.460   1.041  15.782 -0.1207  1.2760  1.5213
  563MPD2    H3 8357   0.663   0.921  15.685  0.8852 -1.3111  0.2883
  563MPD2     N 8358   0.876   0.939  16.081 -0.2324  0.3195  0.3722
  563MPD2    H5 8359   0.869   0.966  16.178  0.3612  0.6104  0.3288
  563MPD2    N1 8360   0.427   1.092  16.040  0.3288 -0.4389 -0.5962
  563MPD2    H7 8361   0.342   1.066  15.990 -0.3538  0.1698  0.2482
  564TMC3    C1 8362   0.342   1.063  16.256 -0.5282  0.9304 -0.1952
  564TMC3    C2 8363   0.221   1.021  16.214  0.3076  0.6963  0.2240
  564TMC3    C3 8364   0.175   0.898  16.264  0.1415 -0.1355  0.5602
  564TMC3    C4 8365   0.420   0.990  16.338  0.0955 -0.4276 -1.1729
  564TMC3    C5 8366   0.376   0.871  16.388 -0.7465 -0.2640 -0.6023
  564TMC3    C6 8367   0.254   0.820  16.354 -0.0541  0.2423  0.7353
  564TMC3     C 8368   0.426   1.143  16.170 -0.4674  0.6614  0.1869
  564TMC3     O 8369   0.516   1.210  16.218  0.5546 -0.0991 -0.5741
  564TMC3     H 8370   0.161   1.080  16.145  2.3574  1.5211 -0.8347
  564TMC3    H1 8371   0.525   1.016  16.352  0.0047 -0.7803  0.1530
  564TMC3    H2 8372   0.228   0.718  16.381 -2.3592  0.5065 -0.5112
  564TMC3    C7 8373   0.483   0.774  16.395 -0.2788  0.0793 -0.5176
  564TMC3    C8 8374   0.104   0.829  16.165 -0.0459 -0.4941 -0.8045
  564TMC3    O1 8375   0.512   0.723  16.502  0.2408 -0.3061  0.3231
  564TMC3    O2 8376   0.056   0.726  16.216  0.2522 -0.1844 -0.2474
  565TMC3    C1 8377   1.268   1.819  10.036  0.0517  0.0958  1.0063
  565TMC3    C2 8378   1.349   1.827  10.146  0.1030  0.0800 -1.1244
  565TMC3    C3 8379   1.444   1.731  10.156 -0.3120 -0.3426  0.4537
  565TMC3    C4 8380   1.285   1.720   9.941  0.2889  0.5795  0.2538
  565TMC3    C5 8381   1.379   1.619   9.958  0.9368  0.8659  0.1689
  565TMC3    C6 8382   1.462   1.633  10.061 -0.0136 -0.1697 -0.0614
  565TMC3     C 8383   1.156   1.909  10.013 -0.0275 -0.0604  0.4081
  565TMC3     O 8384   1.079   1.860   9.931 -0.7598  0.1368  0.2755
  565TMC3     H 8385   1.335   1.903  10.222 -0.3208 -2.3174  1.1976
  565TMC3    H1 8386   1.233   1.723   9.846 -0.4952 -3.2056  0.5677
  565TMC3    H2 8387   1.523   1.549  10.092 -0.6957 -0.3970  0.6729
  565TMC3    C7 8388   1.420   1.534   9.848 -0.0267 -0.1951  0.7158
  565TMC3    C8 8389   1.560   1.753  10.244 -0.3021  0.0416 -1.0420
  565TMC3    O1 8390   1.336   1.529   9.758 -0.1489 -0.3267  0.2559
  565TMC3    O2 8391   1.660   1.690  10.213  0.3928  0.0507  0.1358
  566MPD2     C 8392   2.301   3.870  14.814 -0.5274 -0.1496  0.4628
  566MPD2    C1 8393   2.399   3.842  14.718 -0.3841 -0.8008 -0.0936
  566MPD2    C2 8394   2.360   3.838  14.590 -0.6337  0.6243 -0.6228
  566MPD2    C3 8395   2.236   3.885  14.541 -0.1234 -0.0907  0.5465
  566MPD2    C4 8396   2.151   3.926  14.641 -0.4485  0.4554  0.2141
  566MPD2    C5 8397   2.173   3.903  14.774 -0.0296 -0.1737  0.3374
  566MPD2     H 8398   2.438   3.811  14.520  0.9455  0.9621  1.0126
  566MPD2    H1 8399   2.056   3.973  14.615  0.3269  1.6348 -0.4969
  566MPD2    H2 8400   2.318   3.847  14.918 -0.7827  0.6199  0.6704
  566MPD2    H3 8401   2.100   3.919  14.853  1.5913  0.8355  1.6353
  566MPD2     N 8402   2.189   3.879  14.409 -0.2566 -0.5515  0.3675
  566MPD2    H5 8403   2.102   3.923  14.383  1.0238  0.8491 -1.5208
  566MPD2    N1 8404   2.535   3.824  14.739 -0.1242 -0.1050  0.0049
  566MPD2    H7 8405   2.581   3.801  14.651 -0.0527  0.2174 -0.0398
  567TMC3    C1 8406   2.740   3.813  14.850  0.1834  0.1205  0.1248
  567TMC3    C2 8407   2.804   3.878  14.742 -0.0844 -0.2453 -0.0066
  567TMC3    C3 8408   2.927   3.838  14.712 -0.0539 -0.1970 -0.2485
  567TMC3    C4 8409   2.805   3.719  14.925  0.6913  0.1801  0.1779
  567TMC3    C5 8410   2.941   3.704  14.909  0.1772 -0.1374 -0.4125
  567TMC3    C6 8411   2.999   3.758  14.798  0.3905 -0.0491  0.3004
  567TMC3     C 8412   2.594   3.819  14.864 -0.4509 -0.0499 -0.0256
  567TMC3     O 8413   2.548   3.833  14.979  0.5969  0.4857 -0.2910
  567TMC3     H 8414   2.751   3.950  14.681 -0.2280 -0.0702  0.3230
  567TMC3    H1 8415   2.752   3.670  15.007 -1.0063 -2.7504 -2.6605
  567TMC3    H2 8416   3.105   3.742  14.779  0.1590 -0.3133 -0.7461
  567TMC3    C7 8417   3.002   3.583  14.966  0.2579 -0.6027 -0.3479
  567TMC3    C8 8418   2.986   3.906  14.599  0.1675  0.3381  0.1490
  567TMC3    O1 8419   3.066   3.501  14.900  0.2199 -0.5032 -0.1994
  567TMC3    O2 8420   2.944   4.022  14.587  0.8812  0.1266  0.3129
  568MPD2     C 8421   0.912   4.649  16.855 -0.4544  0.1495  0.2495
  568MPD2    C1 8422   0.782   4.620  16.846  0.3035 -0.7143  0.0506
  568MPD2    C2 8423   0.702   4.660  16.744  0.5132 -0.3933 -0.1071
  568MPD2    C3 8424   0.758   4.722  16.634 -0.0243 -0.3299 -0.1249
  568MPD2    C4 8425   0.894   0.018  16.628 -0.6572  0.4040 -0.2859
  568MPD2    C5 8426   0.963   4.717  16.745 -0.5994 -0.5528 -0.3210
  568MPD2     H 8427   0.599   4.627  16.740 -0.3532  2.3180 -0.1422
  568MPD2    H1 8428   0.956   0.054  16.547 -1.2581 -1.1988 -1.4369
  568MPD2    H2 8429   0.973   4.615  16.938 -2.0421  0.0866  1.3769
  568MPD2    H3 8430   1.071   0.005  16.736 -0.3233 -1.8670  1.3122
  568MPD2     N 8431   0.669   0.043  16.535  0.0043 -0.2312 -0.0045
  568MPD2    H5 8432   0.569   0.035  16.553  0.0577 -2.5778 -0.8180
  568MPD2    N1 8433   0.733   4.550  16.956  0.7551 -0.0736  0.3072
  568MPD2    H7 8434   0.797   4.523  17.030  2.5118  1.4775 -0.6642
  569TMC3    C1 8435   0.612   0.196  16.372  0.7652  0.1140 -0.0058
  569TMC3    C2 8436   0.502   0.232  16.453 -0.5006 -0.2357  0.2229
  569TMC3    C3 8437   0.389   0.274  16.397  0.1819 -0.4516 -0.2042
  569TMC3    C4 8438   0.603   0.213  16.237  0.5347 -0.4129 -1.3229
  569TMC3    C5 8439   0.485   0.239  16.179  0.2253 -0.0205 -0.2098
  569TMC3    C6 8440   0.373   0.267  16.259 -0.5700  0.3104  0.3767
  569TMC3     C 8441   0.712   0.111  16.426 -0.1398  0.9384 -0.0035
  569TMC3     O 8442   0.819   0.092  16.366  0.5677  0.9858 -0.3109
  569TMC3     H 8443   0.522   0.220  16.558  1.2198 -0.0382 -0.0872
  569TMC3    H1 8444   0.691   0.188  16.178 -0.3940 -2.6128 -1.7692
  569TMC3    H2 8445   0.278   0.277  16.209  0.3427 -2.0064 -1.8170
  569TMC3    C7 8446   0.491   0.330  16.072 -0.0560  0.0891 -0.9767
  569TMC3    C8 8447   0.338   0.395  16.456  0.5014  0.0466 -0.4856
  569TMC3    O1 8448   0.556   0.295  15.973 -0.3164 -0.5301 -0.1998
  569TMC3    O2 8449   0.290   0.476  16.382 -0.3554  0.0198  0.5822
  570TMC3    C1 8450   4.338   3.118  16.552  0.3993 -0.7942  0.3029
  570TMC3    C2 8451   4.440   3.144  16.459  0.1223  0.2523  0.1002
  570TMC3    C3 8452   4.499   3.268  16.459  0.8522  0.0539  0.3401
  570TMC3    C4 8453   4.308   3.211  16.645  0.1486 -0.0676 -0.2011
  570TMC3    C5 8454   4.357   3.343  16.630 -1.2572  0.4124  0.4965
  570TMC3    C6 8455   4.458   3.367  16.542 -0.2368  0.6458  0.0394
  570TMC3     C 8456   4.289   2.977  16.546 -0.0084 -0.0020 -0.0045
  570TMC3     O 8457   4.317   2.920  16.440 -0.2265 -0.1613 -0.0705
  570TMC3     H 8458   4.468   3.071  16.384  0.6526 -1.3227  1.8118
  570TMC3    H1 8459   4.221   3.192  16.706 -0.2854 -0.8046 -1.0616
  570TMC3    H2 8460   4.497   3.467  16.530 -0.6099  0.9332  1.2266
  570TMC3    C7 8461   4.296   3.470  16.676  0.3521  0.1544 -0.4650
  570TMC3    C8 8462   4.602   3.301  16.357  0.1437 -0.6343 -0.2760
  570TMC3    O1 8463   4.328   3.570  16.605  0.1998  0.1540  0.4493
  570TMC3    O2 8464   4.674   3.400  16.377 -0.2907  0.0978 -0.2884
  571MPD2     C 8465   2.159   4.639  17.435  0.4046  0.3541 -0.5990
  571MPD2    C1 8466   2.153   4.573  17.556 -0.1957 -0.3798  0.0789
  571MPD2    C2 8467   2.151   4.644  17.670  0.0158  0.2277  0.6811
  571MPD2    C3 8468   2.166   0.057  17.658 -0.5561 -0.1281  0.8361
  571MPD2    C4 8469   2.167   0.121  17.536 -0.4467 -0.1191 -0.4365
  571MPD2    C5 8470   2.157   0.050  17.427  0.2419 -0.0980 -0.1730
  571MPD2     H 8471   2.130   4.594   0.065  0.8201  2.0900  1.8368
  571MPD2    H1 8472   2.194   0.226  17.529 -0.4642  0.0563  2.2222
  571MPD2    H2 8473   2.149   4.582  17.343  0.5439  0.0012 -0.3929
  571MPD2    H3 8474   2.154   0.104  17.333  2.3278  1.6295  0.7351
  571MPD2     N 8475   2.191   0.139   0.070 -0.0021 -0.3850  0.4714
  571MPD2    H5 8476   2.207   0.237   0.051  1.7340 -0.1982  2.9801
  571MPD2    N1 8477   2.152   4.430  17.549 -0.2520 -0.0132  0.3789
  571MPD2    H7 8478   2.173   4.388  17.459 -1.7642 -0.3125  0.1737
  572TMC3    C1 8479   2.254   0.215   0.287  0.1581  0.3491  0.0600
  572TMC3    C2 8480   2.305   0.171   0.409 -0.5075 -0.0907  0.7018
  572TMC3    C3 8481   2.373   0.258   0.491 -0.0992  0.5775  0.4791
  572TMC3    C4 8482   2.273   0.342   0.241 -0.0151 -0.6756 -0.4556
  572TMC3    C5 8483   2.350   0.419   0.323  0.2117 -0.2736 -0.3691
  572TMC3    C6 8484   2.405   0.379   0.440 -0.4155  0.5223  0.2183
  572TMC3     C 8485   2.197   0.108   0.205 -0.0631 -0.1507 -0.2108
  572TMC3     O 8486   2.181   0.001   0.255  0.2574  0.4185 -0.2115
  572TMC3     H 8487   2.331   0.067   0.422  2.7968  0.6251 -0.3566
  572TMC3    H1 8488   2.232   0.393   0.154  0.0907  1.1997  0.5969
  572TMC3    H2 8489   2.425   0.463   0.506  0.0323 -1.6176  2.7987
  572TMC3    C7 8490   2.371   0.563   0.282 -0.8242 -0.2984  0.2432
  572TMC3    C8 8491   2.461   0.214   0.597  0.5524 -0.0785  0.7278
  572TMC3    O1 8492   2.278   0.619   0.225  0.1418 -0.1076 -0.2731
  572TMC3    O2 8493   2.560   0.285   0.601 -0.4121 -0.2594 -0.0474
  573MPD2     C 8494   3.324   4.724   0.194 -0.5864 -0.3544  0.5791
  573MPD2    C1 8495   3.325   0.134   0.247  0.0433  0.4511 -0.1821
  573MPD2    C2 8496   3.358   0.234   0.151  0.2967 -0.3516  0.0643
  573MPD2    C3 8497   3.384   0.209   0.018  0.4462  0.7678  0.0022
  573MPD2    C4 8498   3.384   0.082  17.668  0.7799 -0.5778  0.3318
  573MPD2    C5 8499   3.352   4.705   0.060 -0.3286 -0.0788 -0.0213
  573MPD2     H 8500   3.380   0.335   0.184  2.3490  0.0140 -2.4150
  573MPD2    H1 8501   3.383   0.065  17.561 -0.5541  0.0618  0.2431
  573MPD2    H2 8502   3.284   4.647   0.259  1.1384 -2.5344 -0.9538
  573MPD2    H3 8503   3.363   4.605   0.019 -0.4825  0.0631 -0.4067
  573MPD2     N 8504   3.396   0.323  17.642 -0.6962  0.0375 -0.8873
  573MPD2    H5 8505   3.415   0.408  17.694  0.0151  0.8570 -2.5017
  573MPD2    N1 8506   3.298   0.145   0.381  0.0031 -0.2044 -0.1896
  573MPD2    H7 8507   3.277   0.063   0.437 -1.4481  0.3348  0.0572
  574TMC3    C1 8508   3.334   0.481  17.484 -0.3253  0.1326 -0.0654
  574TMC3    C2 8509   3.206   0.534  17.507  0.1128 -0.2920 -0.1515
  574TMC3    C3 8510   3.193   0.669  17.534  0.0309 -0.2144  0.2648
  574TMC3    C4 8511   3.450   0.558  17.502  0.0918 -0.0571  0.5520
  574TMC3    C5 8512   3.429   0.694  17.528  0.0677  0.2163  0.3139
  574TMC3    C6 8513   3.306   0.752  17.540 -0.5279  0.0273 -1.4562
  574TMC3     C 8514   3.361   0.337  17.510 -0.5426 -0.2368 -0.0538
  574TMC3     O 8515   3.291   0.254  17.452  0.0521  0.2024 -0.3117
  574TMC3     H 8516   3.120   0.468  17.513  0.8309 -1.3519 -1.7854
  574TMC3    H1 8517   3.548   0.513  17.496  1.0382  2.4075 -2.3713
  574TMC3    H2 8518   3.302   0.860  17.548  1.0517  0.0112 -0.5544
  574TMC3    C7 8519   3.548   0.769  17.547  0.4184  0.4856 -0.5432
  574TMC3    C8 8520   3.075   0.703  17.604  0.2739 -0.4381 -0.7821
  574TMC3    O1 8521   3.539   0.887  17.524  0.2382  0.5341  0.0311
  574TMC3    O2 8522   3.005   0.610  17.642 -0.3395  0.3385 -0.7597
  575TMC3    C1 8523   2.413   1.694  10.331  0.1981 -0.2498 -0.0287
  575TMC3    C2 8524   2.476   1.767  10.427 -0.4892  0.4947 -0.7904
  575TMC3    C3 8525   2.404   1.851  10.504 -0.2242 -0.7903 -0.2152
  575TMC3    C4 8526   2.276   1.695  10.331  0.1398  0.1041  0.0078
  575TMC3    C5 8527   2.201   1.767  10.431  0.1177  0.4421 -0.2659
  575TMC3    C6 8528   2.270   1.848  10.524 -0.3914  0.2133 -0.1689
  575TMC3     C 8529   2.492   1.619  10.237  0.5628  0.2127 -0.2070
  575TMC3     O 8530   2.607   1.651  10.223  0.3384 -0.3678  0.1327
  575TMC3     H 8531   2.584   1.771  10.424 -0.3326 -0.4685  2.8096
  575TMC3    H1 8532   2.218   1.633  10.265 -1.4548  0.5223  1.0200
  575TMC3    H2 8533   2.221   1.925  10.582 -0.7726 -1.3119  1.5197
  575TMC3    C7 8534   2.059   1.776  10.423  0.4654 -0.2741 -0.5670
  575TMC3    C8 8535   2.480   1.926  10.604  0.2899  0.1619 -0.3963
  575TMC3    O1 8536   2.011   1.721  10.324  0.6414  0.5648  0.5394
  575TMC3    O2 8537   2.581   1.975  10.568  0.3509  0.2629 -0.5282
  576MPD2     C 8538   1.132   3.279  12.774 -0.6685 -0.2061  0.1644
  576MPD2    C1 8539   1.177   3.393  12.710 -0.3505 -0.7157  0.5602
  576MPD2    C2 8540   1.123   3.513  12.751 -0.4493 -0.2229  0.6302
  576MPD2    C3 8541   1.019   3.513  12.847  0.0456  0.6637  0.2999
  576MPD2    C4 8542   0.978   3.399  12.903 -0.3297  0.4841  0.1200
  576MPD2    C5 8543   1.036   3.285  12.872 -0.0308 -0.1474 -0.4692
  576MPD2     H 8544   1.167   3.608  12.724 -1.6225 -0.1203 -0.9485
  576MPD2    H1 8545   0.894   3.397  12.972  1.1294 -2.0118  1.8000
  576MPD2    H2 8546   1.173   3.182  12.748 -1.4243 -0.4637 -0.0792
  576MPD2    H3 8547   1.008   3.193  12.921 -1.0630 -0.0780 -0.9262
  576MPD2     N 8548   0.962   3.634  12.892 -0.3100 -0.0239 -0.1577
  576MPD2    H5 8549   0.976   3.713  12.828 -0.2309  1.6784  1.9758
  576MPD2    N1 8550   1.280   3.395  12.613 -0.3763 -0.3815 -0.3869
  576MPD2    H7 8551   1.284   3.484  12.565  0.3546 -0.4761 -0.5111
  577TMC3    C1 8552   1.463   3.315  12.479 -0.2813  0.1975  0.4380
  577TMC3    C2 8553   1.557   3.220  12.448  0.3780 -0.2518  0.0363
  577TMC3    C3 8554   1.636   3.231  12.342  0.5077  0.4770  0.2948
  577TMC3    C4 8555   1.443   3.421  12.393  0.4337 -0.1240  0.2220
  577TMC3    C5 8556   1.526   3.421  12.278 -0.6313 -0.2771 -0.0406
  577TMC3    C6 8557   1.632   3.340  12.260 -0.0442  0.5989  0.1581
  577TMC3     C 8558   1.353   3.280  12.574 -0.2741 -0.5775 -0.7773
  577TMC3     O 8559   1.343   3.164  12.615 -0.2630  0.1170  0.0786
  577TMC3     H 8560   1.562   3.127  12.503 -0.9189 -1.2524 -1.5289
  577TMC3    H1 8561   1.378   3.507  12.404  0.4563 -0.1366  0.4619
  577TMC3    H2 8562   1.698   3.359  12.177 -0.4507  0.2424 -0.2446
  577TMC3    C7 8563   1.500   3.514  12.167 -0.2560  0.0754 -0.0568
  577TMC3    C8 8564   1.681   3.111  12.286  0.0509  0.0178  0.0077
  577TMC3    O1 8565   1.603   3.555  12.114 -0.2766  0.5633 -0.4478
  577TMC3    O2 8566   1.682   3.011  12.362 -0.4091 -0.3722 -0.5602
  578MPD2     C 8567   3.397   3.248   1.427 -0.0362 -0.4308 -0.4824
  578MPD2    C1 8568   3.491   3.207   1.337  0.7888 -0.5212  0.4021
  578MPD2    C2 8569   3.599   3.132   1.385  0.4395 -0.3564 -0.0420
  578MPD2    C3 8570   3.607   3.103   1.523  0.0380 -0.2177  0.3521
  578MPD2    C4 8571   3.508   3.146   1.606  0.4674 -0.3988 -0.2122
  578MPD2    C5 8572   3.399   3.216   1.558  0.2788  0.0929 -0.5216
  578MPD2     H 8573   3.674   3.100   1.313  0.4791  0.0802 -0.1973
  578MPD2    H1 8574   3.496   3.116   1.710  0.8998  0.8811  0.2086
  578MPD2    H2 8575   3.315   3.302   1.380  0.9192  0.3331 -1.2548
  578MPD2    H3 8576   3.310   3.243   1.613  0.6267  1.2936 -0.5568
  578MPD2     N 8577   3.719   3.031   1.567 -0.2630 -0.2448 -0.9184
  578MPD2    H5 8578   3.776   2.992   1.493 -0.3877  0.5403 -1.4398
  578MPD2    N1 8579   3.471   3.238   1.205 -0.7158 -0.3785  0.2445
  578MPD2    H7 8580   3.391   3.296   1.182 -0.8603 -0.0044  1.6914
  579TMC3    C1 8581   3.873   2.925   1.713 -0.5430  0.1502 -0.1462
  579TMC3    C2 8582   3.968   2.965   1.814  0.1589  0.2246 -0.0406
  579TMC3    C3 8583   4.092   2.905   1.804  0.2898 -0.2587  0.1517
  579TMC3    C4 8584   3.912   2.840   1.607 -0.1479  0.3110  0.5032
  579TMC3    C5 8585   4.036   2.788   1.609  0.2421 -0.5547 -0.3384
  579TMC3    C6 8586   4.129   2.812   1.709 -0.0110 -0.8234 -0.3046
  579TMC3     C 8587   3.758   3.010   1.698 -0.1134  0.5550 -0.1143
  579TMC3     O 8588   3.724   3.069   1.799  0.0926  0.2908  0.1399
  579TMC3     H 8589   3.943   3.035   1.893  1.0105  1.5823 -0.9765
  579TMC3    H1 8590   3.836   2.806   1.537 -1.4844  0.0477  2.0809
  579TMC3    H2 8591   4.210   2.743   1.733  0.4232  0.0964  0.8698
  579TMC3    C7 8592   4.080   2.696   1.507 -0.2432  0.5935 -0.2230
  579TMC3    C8 8593   4.191   2.959   1.892  0.7213 -0.4843  1.0207
  579TMC3    O1 8594   4.174   2.625   1.532  0.5395  0.4437 -0.3624
  579TMC3    O2 8595   4.155   3.025   1.990 -0.1643 -0.1308  0.2891
  580TMC3    C1 8596   3.462   3.009  12.182  0.1260 -0.2227  1.1891
  580TMC3    C2 8597   3.524   3.057  12.292  0.5838 -0.6419 -0.1460
  580TMC3    C3 8598   3.607   2.973  12.357 -0.9494  1.3198 -0.3086
  580TMC3    C4 8599   3.482   2.881  12.139 -0.3188  0.6544  0.7459
  580TMC3    C5 8600   3.556   2.794  12.221 -0.2746  0.1049 -0.2678
  580TMC3    C6 8601   3.626   2.838  12.328  0.0215  1.1327 -0.4392
  580TMC3     C 8602   3.474   3.106  12.074 -0.4746 -0.4619  0.1667
  580TMC3     O 8603   3.503   3.064  11.962 -0.0697  0.0976 -0.0823
  580TMC3     H 8604   3.521   3.162  12.320  0.1182 -0.3522 -1.2618
  580TMC3    H1 8605   3.443   2.837  12.048 -2.4780  0.8461  1.5832
  580TMC3    H2 8606   3.684   2.777  12.396  0.2837  0.8295 -0.9328
  580TMC3    C7 8607   3.572   2.656  12.180 -0.0144 -0.0488  0.0008
  580TMC3    C8 8608   3.721   3.048  12.403 -0.0985  0.0842 -0.2095
  580TMC3    O1 8609   3.541   2.625  12.064  0.5908 -0.7086 -0.2101
  580TMC3    O2 8610   3.713   3.154  12.469 -0.4284  0.1210  0.4325
  581MPD2     C 8611   1.576   1.727  15.309  0.3935 -0.6955 -0.1319
  581MPD2    C1 8612   1.443   1.747  15.334  0.0207 -0.0050  0.9184
  581MPD2    C2 8613   1.378   1.830  15.251  0.1047  0.5212  0.4996
  581MPD2    C3 8614   1.439   1.901  15.150  0.2465  0.1277 -0.0654
  581MPD2    C4 8615   1.578   1.894  15.137 -0.1478  0.1018 -0.4827
  581MPD2    C5 8616   1.643   1.795  15.216 -0.0849  0.7006 -0.5645
  581MPD2     H 8617   1.271   1.840  15.265 -0.1826  1.5028 -2.4068
  581MPD2    H1 8618   1.634   1.947  15.061 -0.7836  1.6748  0.1354
  581MPD2    H2 8619   1.637   1.653  15.360  1.6963 -0.3984 -1.2677
  581MPD2    H3 8620   1.749   1.775  15.206 -0.0883  0.6660 -0.5304
  581MPD2     N 8621   1.367   1.995  15.069  0.5009 -0.1244  0.2703
  581MPD2    H5 8622   1.268   2.002  15.091  0.2533 -0.7008 -0.6657
  581MPD2    N1 8623   1.386   1.674  15.446  0.2132  0.0452 -1.1986
  581MPD2    H7 8624   1.459   1.620  15.491  0.3624  1.5507  0.3818
  582TMC3    C1 8625   1.231   1.632  15.617  0.1982  0.5384 -0.8045
  582TMC3    C2 8626   1.327   1.658  15.713  0.2178 -0.1142  0.0967
  582TMC3    C3 8627   1.292   1.644  15.844 -0.3459  0.0660  0.2802
  582TMC3    C4 8628   1.102   1.610  15.653 -0.7411 -0.2486  0.5678
  582TMC3    C5 8629   1.073   1.592  15.783  0.3808  0.4443 -0.0817
  582TMC3    C6 8630   1.166   1.605  15.883 -0.1770 -0.1188 -0.3045
  582TMC3     C 8631   1.255   1.673  15.482  0.0118 -0.1396 -0.2148
  582TMC3     O 8632   1.156   1.710  15.418 -0.1269 -0.2091 -0.0805
  582TMC3     H 8633   1.426   1.693  15.683  0.2508 -1.8439 -1.8177
  582TMC3    H1 8634   1.021   1.588  15.584 -0.7107 -0.2897  0.5452
  582TMC3    H2 8635   1.146   1.591  15.988  2.5889  0.4453  0.3057
  582TMC3    C7 8636   0.943   1.627  15.826 -0.1617  0.2487  0.3604
  582TMC3    C8 8637   1.369   1.704  15.952 -0.8623 -0.1723 -0.8262
  582TMC3    O1 8638   0.909   1.584  15.933  0.2468 -0.0061 -0.1480
  582TMC3    O2 8639   1.326   1.687  16.065  0.4794  0.2272  0.4713
  583MPD2     C 8640   0.939   4.221  16.649 -0.8554  0.1548  0.4415
  583MPD2    C1 8641   1.050   4.306  16.617 -0.7041  0.3031  0.5260
  583MPD2    C2 8642   1.113   4.378  16.711  0.1063 -0.5849 -1.0227
  583MPD2    C3 8643   1.092   4.354  16.843 -0.2247  0.0142 -0.1646
  583MPD2    C4 8644   0.987   4.273  16.879 -0.4321  0.3293  0.3396
  583MPD2    C5 8645   0.916   4.200  16.783  0.1776  0.6831  0.2470
  583MPD2     H 8646   1.182   4.453  16.675 -0.5496  1.1376  1.2825
  583MPD2    H1 8647   0.959   4.254  16.982 -0.2475  0.3812  0.3993
  583MPD2    H2 8648   0.877   4.166  16.580  0.4154 -0.3465 -0.2794
  583MPD2    H3 8649   0.832   4.141  16.817  0.7411 -0.1177  0.2769
  583MPD2     N 8650   1.183   4.411  16.934 -0.0428 -0.6224  0.2064
  583MPD2    H5 8651   1.250   4.476  16.895 -2.9309  1.3734 -1.3696
  583MPD2    N1 8652   1.090   4.322  16.486 -0.6556  0.5817 -0.2997
  583MPD2    H7 8653   1.180   4.369  16.479  0.0591 -0.9288 -1.3020
  584TMC3    C1 8654   1.256   4.476  17.143  0.0669  1.2551  0.1571
  584TMC3    C2 8655   1.301   4.594  17.101 -0.1274 -0.6651  0.0390
  584TMC3    C3 8656   1.363   4.689  17.182 -0.1046 -0.4175 -0.8092
  584TMC3    C4 8657   1.287   4.440  17.269 -1.2579 -0.5278 -0.3525
  584TMC3    C5 8658   1.358   4.527  17.355 -0.3816  0.2783  0.8410
  584TMC3    C6 8659   1.402   4.648  17.308 -0.0144  0.2597 -0.6732
  584TMC3     C 8660   1.186   4.376  17.061 -0.0518  0.1992 -0.3301
  584TMC3     O 8661   1.137   4.282  17.122 -0.6815 -0.3842 -0.2064
  584TMC3     H 8662   1.280   4.629  17.000  0.0294 -3.5883 -0.9987
  584TMC3    H1 8663   1.258   4.344  17.311 -2.7283  0.1610  0.1870
  584TMC3    H2 8664   1.467   4.692  17.383  0.8012  0.6763 -1.6288
  584TMC3    C7 8665   1.397   4.480  17.487  0.2806 -0.0635 -0.0657
  584TMC3    C8 8666   1.400   0.094  17.133  0.3526 -0.2624  0.0066
  584TMC3    O1 8667   1.396   4.357  17.493 -0.4548  0.0765 -0.6389
  584TMC3    O2 8668   1.362   0.122  17.021  0.1119 -0.1571  0.3588
  585MPD2     C 8669   0.615   3.688   0.171 -0.3561  0.2648  0.5035
  585MPD2    C1 8670   0.666   3.565   0.217 -0.6470  0.3511 -0.7694
  585MPD2    C2 8671   0.657   3.455   0.129 -0.1256 -0.3669  0.1728
  585MPD2    C3 8672   0.592   3.460   0.007 -0.4671 -0.4684 -0.2528
  585MPD2    C4 8673   0.532   3.577  17.670  0.3303  0.5586 -0.3785
  585MPD2    C5 8674   0.550   3.690   0.049 -0.3696 -0.8270  0.0888
  585MPD2     H 8675   0.687   3.357   0.163 -2.5471 -1.0406  0.3651
  585MPD2    H1 8676   0.472   3.583  17.579 -1.9062 -0.1544  1.0432
  585MPD2    H2 8677   0.619   3.777   0.232  1.1033  1.0633 -0.7489
  585MPD2    H3 8678   0.507   3.786   0.023  1.7507  0.8929  3.0432
  585MPD2     N 8679   0.578   3.352  17.614  0.1784 -0.5077 -0.7764
  585MPD2    H5 8680   0.524   3.376  17.532  0.4685  1.3640 -0.4171
  585MPD2    N1 8681   0.713   3.558   0.348 -0.4305 -0.3420  0.5722
  585MPD2    H7 8682   0.697   3.641   0.404  0.0072  0.9021 -1.1588
  586TMC3    C1 8683   0.543   3.121  17.554  0.6383  0.2569  0.4906
  586TMC3    C2 8684   0.621   3.059  17.465 -0.0372  0.1652 -0.7431
  586TMC3    C3 8685   0.581   2.947  17.395 -0.2117 -0.3440 -0.2448
  586TMC3    C4 8686   0.414   3.075  17.575 -0.0846  0.2220 -0.0829
  586TMC3    C5 8687   0.367   2.976  17.490  0.3485 -0.0390 -0.0836
  586TMC3    C6 8688   0.450   2.903  17.410  0.3725 -0.9021  0.2107
  586TMC3     C 8689   0.606   3.222  17.642  0.0732 -0.0756 -0.4156
  586TMC3     O 8690   0.697   3.180   0.011 -0.2827 -0.5872  0.6548
  586TMC3     H 8691   0.723   3.096  17.456  0.1483  0.4550  2.5559
  586TMC3    H1 8692   0.350   3.131  17.642 -0.8244 -0.1745 -0.4635
  586TMC3    H2 8693   0.413   2.823  17.348  0.8521 -1.0659  0.1307
  586TMC3    C7 8694   0.248   2.910  17.526 -0.2744 -0.1947 -0.4568
  586TMC3    C8 8695   0.680   2.838  17.407  0.3294 -0.2566 -0.2006
  586TMC3    O1 8696   0.242   2.797  17.500 -0.4181 -0.4759 -0.4907
  586TMC3    O2 8697   0.642   2.741  17.469  0.2101  0.1151  0.2275
  587TMC3    C1 8698   2.996   1.475  16.708 -0.1053  0.3203 -0.2385
  587TMC3    C2 8699   2.971   1.594  16.641 -0.1118 -0.2173 -0.4929
  587TMC3    C3 8700   3.080   1.666  16.607 -0.3924 -0.0670 -0.0901
  587TMC3    C4 8701   3.123   1.442  16.746  0.2663 -0.4276  0.5331
  587TMC3    C5 8702   3.223   1.527  16.719 -0.9936  0.4188 -0.0780
  587TMC3    C6 8703   3.205   1.640  16.645  0.4061 -0.3959 -0.7638
  587TMC3     C 8704   2.893   1.367  16.718  0.1571 -0.4042 -0.1703
  587TMC3     O 8705   2.933   1.256  16.749  0.6467 -0.2260  0.0615
  587TMC3     H 8706   2.872   1.620  16.605  0.6043  0.6686 -1.8086
  587TMC3    H1 8707   3.133   1.350  16.802  1.2735  1.1439  2.9486
  587TMC3    H2 8708   3.281   1.709  16.611  0.9832  0.0864  1.4837
  587TMC3    C7 8709   3.332   1.527  16.815  0.2154  0.0594  0.0386
  587TMC3    C8 8710   3.058   1.796  16.547  0.3055  0.4736 -0.9862
  587TMC3    O1 8711   3.425   1.600  16.784 -0.5676 -0.5671 -0.1925
  587TMC3    O2 8712   3.146   1.834  16.472  0.8580 -0.0368 -0.0320
  588TMC3    C1 8713   1.323   4.372  10.052 -0.1812  0.3336  0.3390
  588TMC3    C2 8714   1.295   4.246  10.067 -0.5031  0.1677  0.1255
  588TMC3    C3 8715   1.221   4.190   9.970  0.1745 -0.7414  0.1897
  588TMC3    C4 8716   1.302   4.431   9.931 -0.2793  0.1627  0.0364
  588TMC3    C5 8717   1.228   4.371   9.835 -0.2131  0.0418 -1.6453
  588TMC3    C6 8718   1.189   4.240   9.844 -0.2921  0.9947  0.8706
  588TMC3     C 8719   1.374   4.463  10.154 -0.1158  0.4691  0.1067
  588TMC3     O 8720   1.451   4.400  10.231  0.6862  0.5428 -0.0532
  588TMC3     H 8721   1.273   4.215  10.169  1.1479 -1.4196  0.0050
  588TMC3    H1 8722   1.352   4.527   9.922 -0.7108  0.3084 -0.7439
  588TMC3    H2 8723   1.135   4.191   9.764  1.5994  0.7352 -0.2548
  588TMC3    C7 8724   1.199   4.439   9.708  0.5019 -0.7555  0.5902
  588TMC3    C8 8725   1.163   4.057   9.993 -0.3051  0.1142 -0.4127
  588TMC3    O1 8726   1.169   4.375   9.607  0.5144  0.4996  0.0850
  588TMC3    O2 8727   1.080   4.028   9.908  0.1045  0.1618  0.5169
  589TMC3    C1 8728   3.931   1.195   1.135  0.6349 -0.0945 -0.4726
  589TMC3    C2 8729   4.025   1.194   1.237 -0.3063  0.4065 -0.0254
  589TMC3    C3 8730   4.136   1.124   1.205 -1.0426 -0.6124  0.1513
  589TMC3    C4 8731   3.944   1.126   1.016  0.5670  0.1776  0.3860
  589TMC3    C5 8732   4.053   1.044   1.003 -0.3261 -0.2143 -0.0503
  589TMC3    C6 8733   4.152   1.045   1.096 -0.2123 -1.0502  0.0784
  589TMC3     C 8734   3.853   1.316   1.120 -0.1444 -0.1377  0.7325
  589TMC3     O 8735   3.798   1.339   1.012 -0.5869 -0.1277 -0.5375
  589TMC3     H 8736   4.013   1.241   1.334 -1.1621 -1.4624  0.7560
  589TMC3    H1 8737   3.865   1.125   0.943  1.6429  0.1325 -0.7747
  589TMC3    H2 8738   4.240   0.987   1.071 -0.0234 -1.1321  0.9401
  589TMC3    C7 8739   4.039   0.937   0.905  0.7856 -0.3815 -0.0950
  589TMC3    C8 8740   4.221   1.087   1.317 -0.0260 -0.1041 -0.4180
  589TMC3    O1 8741   4.106   0.842   0.939 -0.4526 -0.4928 -0.1153
  589TMC3    O2 8742   4.159   1.070   1.423  0.1690  0.2787 -0.0878
  590MPD2     C 8743   4.203   4.656  16.885 -0.5438 -0.1242  0.3835
  590MPD2    C1 8744   4.143   0.025  16.802 -0.7247  0.0998 -0.2862
  590MPD2    C2 8745   4.225   0.117  16.738  0.0869  0.7225 -0.2083
  590MPD2    C3 8746   4.361   0.109  16.739  0.1213 -0.1336 -0.0116
  590MPD2    C4 8747   4.419   0.003  16.803 -0.3116 -0.2599 -0.3845
  590MPD2    C5 8748   4.340   4.645  16.885 -0.3524 -0.0793 -0.4411
  590MPD2     H 8749   4.173   0.198  16.687 -0.2301 -1.0118 -2.6335
  590MPD2    H1 8750   4.527   4.718  16.817  0.0360  2.3232 -1.4299
  590MPD2    H2 8751   4.139   4.587  16.940 -1.0471  1.0119  1.2246
  590MPD2    H3 8752   4.395   4.576  16.948 -0.9171  0.8133  1.0466
  590MPD2     N 8753   4.437   0.218  16.681  0.0952  0.2196  0.2829
  590MPD2    H5 8754   4.385   0.300  16.654 -1.7108 -1.0346 -0.0795
  590MPD2    N1 8755   4.003   0.040  16.796 -0.2729 -0.1669  0.2496
  590MPD2    H7 8756   3.942   4.722  16.865 -2.7342 -0.8163 -2.3451
  591TMC3    C1 8757   4.633   0.313  16.571  0.2157 -0.1306  0.3578
  591TMC3    C2 8758   4.700   0.282  16.462  0.0355 -0.6205  0.1570
  591TMC3    C3 8759   4.706   0.363  16.355  0.4740 -0.1290  0.2758
  591TMC3    C4 8760   4.561   0.439  16.576  0.0291 -0.4917  0.3500
  591TMC3    C5 8761   4.583   0.524  16.469 -0.1032  0.0070  0.2008
  591TMC3    C6 8762   4.643   0.482  16.352  0.1193  0.1825  0.1661
  591TMC3     C 8763   4.570   0.196  16.634 -0.3998 -0.2390  1.2604
  591TMC3     O 8764   4.630   0.096  16.627 -0.2122  0.5614  0.5226
  591TMC3     H 8765   0.042   0.198  16.480  0.2513 -0.6417 -0.7734
  591TMC3    H1 8766   4.499   0.466  16.660  1.6382  1.8657  0.7669
  591TMC3    H2 8767   4.630   0.538  16.261 -0.0057 -1.8112 -1.0451
  591TMC3    C7 8768   4.482   0.635  16.448  0.5557 -0.1209  0.4429
  591TMC3    C8 8769   0.021   0.307  16.227  0.5060 -0.6660 -0.8095
  591TMC3    O1 8770   4.394   0.651  16.533 -0.7611 -0.4278  0.2859
  591TMC3    O2 8771   0.037   0.186  16.225 -0.0294  0.1543 -0.0352
  592MPD2     C 8772   4.722   2.424  11.511  0.6418 -0.3439 -0.5566
  592MPD2    C1 8773   0.004   2.433  11.650  0.4183 -0.2881  0.0747
  592MPD2    C2 8774   4.656   2.355  11.733  0.2404 -0.5460 -0.2731
  592MPD2    C3 8775   4.564   2.267  11.675 -0.6727 -0.1673 -1.0388
  592MPD2    C4 8776   4.548   2.262  11.537  0.6939 -0.4915 -0.2670
  592MPD2    C5 8777   4.632   2.338  11.454  0.1198 -0.4242 -0.5708
  592MPD2     H 8778   4.667   2.348  11.841  0.8533  3.0738 -0.1219
  592MPD2    H1 8779   4.460   2.209  11.502 -0.3116  0.2416  1.1393
  592MPD2    H2 8780   0.067   2.478  11.447 -0.0663  1.4069  0.1541
  592MPD2    H3 8781   4.614   2.330  11.347 -0.7096 -0.0347 -0.4561
  592MPD2     N 8782   4.479   2.204  11.774 -0.4404  0.1200  0.3563
  592MPD2    H5 8783   4.511   2.210  11.871 -0.7120 -0.5698  0.4919
  592MPD2    N1 8784   0.100   2.511  11.713 -0.1602 -0.3867 -0.4589
  592MPD2    H7 8785   0.158   2.573  11.658  0.5109 -0.7987 -0.2108
  593TMC3    C1 8786   0.253   2.606  11.876  0.7001 -0.4330 -0.5874
  593TMC3    C2 8787   0.262   2.672  11.999  0.0365 -0.9084 -0.0673
  593TMC3    C3 8788   0.370   2.754  12.024 -0.0460 -0.2794  0.7322
  593TMC3    C4 8789   0.350   2.625  11.783  0.8936  0.1932 -0.2687
  593TMC3    C5 8790   0.440   2.719  11.804  0.7122 -0.8721  0.0658
  593TMC3    C6 8791   0.463   2.778  11.924 -1.2413 -0.1693  0.4755
  593TMC3     C 8792   0.135   2.517  11.847 -0.1513  0.6687 -0.2561
  593TMC3     O 8793   0.088   2.471  11.948  0.6097  0.1328  0.1160
  593TMC3     H 8794   0.198   2.651  12.084 -0.4849  2.6053  0.4363
  593TMC3    H1 8795   0.348   2.571  11.689 -0.8298  1.7759 -1.1489
  593TMC3    H2 8796   0.542   2.850  11.941 -2.0598  0.4129  1.8078
  593TMC3    C7 8797   0.531   2.757  11.699 -0.2753 -0.0582  0.4230
  593TMC3    C8 8798   0.365   2.836  12.150  0.2505 -0.7266  0.3270
  593TMC3    O1 8799   0.600   2.854  11.714 -1.0059 -0.0342  0.2975
  593TMC3    O2 8800   0.253   2.843  12.197  0.0127  0.7639  0.2734
  594MPD2     C 8801   2.510   1.027  14.173  0.7983  0.4730  0.0725
  594MPD2    C1 8802   2.560   1.012  14.298  0.0613  0.7160  0.7293
  594MPD2    C2 8803   2.677   1.075  14.337 -0.1840 -0.4943  0.3107
  594MPD2    C3 8804   2.753   1.127  14.234 -0.2978  0.0596  0.1954
  594MPD2    C4 8805   2.707   1.137  14.100  0.9253  0.2832 -0.1000
  594MPD2    C5 8806   2.586   1.080  14.067  0.4574  0.1611 -0.7097
  594MPD2     H 8807   2.718   1.068  14.437  0.2519 -1.9713  0.0187
  594MPD2    H1 8808   2.769   1.164  14.014  0.9148 -3.1408 -1.1948
  594MPD2    H2 8809   2.424   0.964  14.157  0.7842  0.5740 -0.2558
  594MPD2    H3 8810   2.546   1.079  13.966  4.2355 -3.0851 -2.1819
  594MPD2     N 8811   2.879   1.181  14.277 -0.0786 -0.5034  0.1840
  594MPD2    H5 8812   2.910   1.169  14.373 -0.8977 -0.7380  0.4167
  594MPD2    N1 8813   2.463   0.959  14.396 -0.4296 -0.0160  0.9446
  594MPD2    H7 8814   2.370   0.950  14.358  0.0364 -1.7694  0.2007
  595TMC3    C1 8815   3.330   1.298  14.241  0.2561 -0.1078  0.4028
  595TMC3    C2 8816   3.207   1.267  14.180 -0.1347 -0.2224  0.2913
  595TMC3    C3 8817   3.097   1.250  14.257  0.6345  0.2328 -0.3253
  595TMC3    C4 8818   3.340   1.346  14.367  0.2721 -0.9586 -0.7366
  595TMC3    C5 8819   3.218   1.356  14.433 -0.1718  0.0626  0.2252
  595TMC3    C6 8820   3.097   1.305  14.385  0.2992 -0.0994 -0.0289
  595TMC3     C 8821   3.455   1.262  14.169  0.5690  0.0005  0.6806
  595TMC3     O 8822   3.468   1.262  14.047  0.6623  0.2635 -0.0222
  595TMC3     H 8823   3.196   1.241  14.075  0.9126 -0.2999  0.1994
  595TMC3    H1 8824   3.435   1.389  14.397  0.2188 -0.4557 -1.3038
  595TMC3    H2 8825   3.012   1.315  14.451  0.1350  2.3403 -0.6005
  595TMC3    C7 8826   3.212   1.410  14.568 -0.7006  0.8652  0.4231
  595TMC3    C8 8827   2.976   1.225  14.191 -0.2744  0.2464  0.4729
  595TMC3    O1 8828   3.099   1.442  14.606 -0.2059 -0.3416 -0.0765
  595TMC3    O2 8829   2.980   1.216  14.069 -0.0901  0.3363  0.4289
  596MPD2     C 8830   2.300   3.871  16.674 -0.3729  0.7044 -0.1112
  596MPD2    C1 8831   2.280   3.989  16.612 -0.2662  0.1576 -0.2744
  596MPD2    C2 8832   2.272   3.987  16.477  0.8508  0.2805  0.9592
  596MPD2    C3 8833   2.271   3.875  16.400 -0.1202  0.4892 -0.6497
  596MPD2    C4 8834   2.278   3.751  16.464 -0.5680  0.3638  0.1347
  596MPD2    C5 8835   2.292   3.754  16.601 -0.2921  0.1978  0.8244
  596MPD2     H 8836   2.261   4.080  16.422  0.9322 -0.9799 -1.1492
  596MPD2    H1 8837   2.277   3.658  16.409  0.8995 -0.2374  1.1311
  596MPD2    H2 8838   2.312   3.865  16.781 -0.0084  3.2942 -0.0106
  596MPD2    H3 8839   2.290   3.658  16.653  0.6698  1.2727  2.8542
  596MPD2     N 8840   2.246   3.878  16.261 -0.3598  0.2832 -0.2550
  596MPD2    H5 8841   2.234   3.786  16.220 -2.5889  2.0546 -3.5721
  596MPD2    N1 8842   2.250   4.109  16.677 -0.3860 -0.7938 -0.6146
  596MPD2    H7 8843   2.207   4.180  16.618  1.5139 -0.2374 -1.3299
  597TMC3    C1 8844   2.203   4.268  16.846  0.0340  0.5366 -0.0601
  597TMC3    C2 8845   2.242   4.373  16.775 -1.4001 -0.7494 -0.1381
  597TMC3    C3 8846   2.176   4.493  16.790 -0.1836  0.0477 -0.1035
  597TMC3    C4 8847   2.106   4.267  16.940  0.3257 -0.0027  0.4108
  597TMC3    C5 8848   2.039   4.388  16.956 -0.3798  0.1208 -0.2879
  597TMC3    C6 8849   2.077   4.499  16.883  0.4791 -0.2325  0.7136
  597TMC3     C 8850   2.251   4.136  16.812 -0.1841 -0.0461 -0.1126
  597TMC3     O 8851   2.252   4.050  16.901 -0.6012  0.1393 -0.6373
  597TMC3     H 8852   2.318   4.375  16.698 -2.5386 -0.4924 -1.2558
  597TMC3    H1 8853   2.087   4.178  16.999  2.0404 -1.3829 -1.1366
  597TMC3    H2 8854   2.043   4.597  16.914 -0.3376 -0.8968  1.9895
  597TMC3    C7 8855   1.967   4.408  17.084  0.4376 -0.1009  0.4721
  597TMC3    C8 8856   2.195   4.607  16.712  0.1957 -0.0871 -0.8484
  597TMC3    O1 8857   1.992   4.332  17.172  0.1308  0.2675 -0.1146
  597TMC3    O2 8858   2.097   4.681  16.694 -0.7082 -0.8848  0.0240
  598TMC3    C1 8859   0.574   0.677  15.380  0.1407 -0.4793 -0.1198
  598TMC3    C2 8860   0.460   0.618  15.408 -0.0584  0.3133  0.4673
  598TMC3    C3 8861   0.343   0.627  15.329  1.0158 -0.2778 -0.3111
  598TMC3    C4 8862   0.575   0.769  15.271  0.6150 -0.3994  0.0067
  598TMC3    C5 8863   0.454   0.788  15.196  0.0005  0.2569 -0.2552
  598TMC3    C6 8864   0.339   0.717  15.226 -0.5778 -0.3770 -0.4442
  598TMC3     C 8865   0.698   0.659  15.448 -0.4658 -0.5583  0.1110
  598TMC3     O 8866   0.777   0.752  15.449  0.0363  0.7135  0.1237
  598TMC3     H 8867   0.448   0.563  15.500  1.2484  0.0557  0.4811
  598TMC3    H1 8868   0.663   0.832  15.260 -0.7258  1.2765 -1.2401
  598TMC3    H2 8869   0.256   0.720  15.157 -2.2483 -2.2776  1.4883
  598TMC3    C7 8870   0.455   0.860  15.074 -0.4193 -0.0624  0.5305
  598TMC3    C8 8871   0.224   0.547  15.364  0.4168  0.4207 -0.4306
  598TMC3    O1 8872   0.384   0.835  14.980  0.7597 -0.3175 -0.8703
  598TMC3    O2 8873   0.225   0.518  15.481 -0.5163  0.2744 -0.2680
  599MPD2     C 8874   0.555   2.941  16.244 -0.4203  0.4966  0.3477
  599MPD2    C1 8875   0.470   2.831  16.229 -0.2610 -0.1868 -0.3422
  599MPD2    C2 8876   0.337   2.839  16.277  0.2755 -0.3180  0.2712
  599MPD2    C3 8877   0.300   2.945  16.361  0.3614 -0.2688 -0.3925
  599MPD2    C4 8878   0.390   3.052  16.378  0.3652 -0.0785 -0.0831
  599MPD2    C5 8879   0.511   3.040  16.321 -0.4154 -0.5942  0.6422
  599MPD2     H 8880   0.270   2.755  16.263 -0.0354 -0.0622  0.2385
  599MPD2    H1 8881   0.369   3.129  16.451 -0.6490 -0.7623  0.3322
  599MPD2    H2 8882   0.654   2.939  16.200 -0.6105  1.8987 -0.1587
  599MPD2    H3 8883   0.580   3.117  16.355 -0.3314 -1.6903  3.0198
  599MPD2     N 8884   0.175   2.947  16.428  0.0487 -0.2736 -0.0190
  599MPD2    H5 8885   0.164   3.013  16.504  0.1902  2.0341 -1.9987
  599MPD2    N1 8886   0.531   2.719  16.164 -0.0416  0.4629 -0.1216
  599MPD2    H7 8887   0.630   2.732  16.144  0.3033 -1.5196  0.2894
  600TMC3    C1 8888   4.677   2.871  16.489  0.8709  1.0076 -0.1995
  600TMC3    C2 8889   4.613   2.745  16.499  0.8953 -0.3020 -0.2089
  600TMC3    C3 8890   4.548   2.732  16.618  0.6503  0.1648 -0.2694
  600TMC3    C4 8891   4.680   2.974  16.584 -0.6296  0.1040  0.8815
  600TMC3    C5 8892   4.613   2.948  16.706 -0.0501 -0.0398  0.3136
  600TMC3    C6 8893   4.545   2.828  16.715  0.0321  0.0411  0.1482
  600TMC3     C 8894   0.064   2.868  16.394 -0.0094  0.3769 -0.5362
  600TMC3     O 8895   0.039   2.813  16.287  0.3789 -0.5222 -0.7465
  600TMC3     H 8896   4.632   2.664  16.428  1.2212 -0.8203  0.4650
  600TMC3    H1 8897   0.009   3.067  16.570 -0.4525 -0.3004 -1.2151
  600TMC3    H2 8898   4.483   2.814  16.802 -1.5645 -2.1920 -1.3554
  600TMC3    C7 8899   4.578   3.048  16.801  0.1917 -0.7417  0.1976
  600TMC3    C8 8900   4.497   2.608  16.649  0.6176 -0.1430  0.2401
  600TMC3    O1 8901   4.492   3.020  16.880  0.2728 -0.2526 -0.5028
  600TMC3    O2 8902   4.463   2.588  16.765 -0.4260 -0.1356 -0.0319
  601MPD2     C 8903   2.617   1.001   0.375  0.0825 -0.2556  0.1755
  601MPD2    C1 8904   2.492   0.976   0.317 -0.3903  0.3613  0.5870
  601MPD2    C2 8905   2.457   0.846   0.285  0.9314 -0.2131  0.3032
  601MPD2    C3 8906   2.545   0.738   0.310 -0.2058 -0.4380  0.7799
  601MPD2    C4 8907   2.677   0.770   0.354  0.2010  0.1068 -0.1521
  601MPD2    C5 8908   2.706   0.894   0.389  1.4008 -0.3485 -0.4848
  601MPD2     H 8909   2.359   0.823   0.247  1.4659 -0.4955 -0.8905
  601MPD2    H1 8910   2.758   0.700   0.370 -0.5420 -0.5589  0.6545
  601MPD2    H2 8911   2.639   1.104   0.400  1.3356 -0.6114  0.5367
  601MPD2    H3 8912   2.799   0.925   0.435  1.3974 -2.0924  0.6825
  601MPD2     N 8913   2.500   0.603   0.308  0.0873 -0.0004  1.0861
  601MPD2    H5 8914   2.572   0.536   0.329 -0.1831 -0.1896  1.3968
  601MPD2    N1 8915   2.395   1.074   0.302 -0.3140 -0.6964 -0.1214
  601MPD2    H7 8916   2.309   1.047   0.255 -1.2603 -1.2204  1.8962
  602TMC3    C1 8917   2.288   1.282   0.290 -0.3512  0.2848  0.3315
  602TMC3    C2 8918   2.295   1.415   0.267  0.1189  0.0656  0.1963
  602TMC3    C3 8919   2.179   1.486   0.226 -0.3295 -0.6595 -0.4788
  602TMC3    C4 8920   2.173   1.206   0.280 -0.4509 -0.4403  0.1378
  602TMC3    C5 8921   2.067   1.278   0.233 -0.4675 -0.0300  0.1460
  602TMC3    C6 8922   2.065   1.414   0.205  0.0744  0.5225  0.4768
  602TMC3     C 8923   2.410   1.209   0.321  1.1632 -1.3641  0.4201
  602TMC3     O 8924   2.518   1.272   0.331 -0.2502  0.4905  0.1261
  602TMC3     H 8925   2.392   1.463   0.265  0.3605 -0.4145  0.3367
  602TMC3    H1 8926   2.158   1.100   0.299  1.3582 -0.4778  1.4407
  602TMC3    H2 8927   1.979   1.453   0.153  0.8201  2.0201  0.3558
  602TMC3    C7 8928   1.997   1.202   0.134 -0.0567  0.2701 -0.6195
  602TMC3    C8 8929   2.201   1.565   0.106 -0.4822 -0.3821  0.6090
  602TMC3    O1 8930   1.956   1.096   0.178 -0.0383  0.6695 -0.6548
  602TMC3    O2 8931   2.308   1.549   0.047  0.2356  0.1071  0.1861
  603TMC3    C1 8932   1.580   1.830  11.247  0.3867  0.3457  0.4703
  603TMC3    C2 8933   1.509   1.763  11.347 -0.0255  0.0151  0.2227
  603TMC3    C3 8934   1.373   1.774  11.336 -0.2190 -0.3044  0.1875
  603TMC3    C4 8935   1.518   1.902  11.148  0.2852  0.0540  0.4439
  603TMC3    C5 8936   1.384   1.903  11.139 -0.5248 -0.1303 -0.4403
  603TMC3    C6 8937   1.307   1.846  11.241  0.3436 -0.0042  0.2029
  603TMC3     C 8938   1.723   1.840  11.257 -0.4513  0.1795 -0.2243
  603TMC3     O 8939   1.791   1.874  11.159  1.0276 -0.2736 -0.3950
  603TMC3     H 8940   1.547   1.694  11.421  0.2105  1.9581  1.9033
  603TMC3    H1 8941   1.578   1.934  11.064  1.2695  0.4423  1.2983
  603TMC3    H2 8942   1.199   1.847  11.229  0.3426  0.7782  0.2765
  603TMC3    C7 8943   1.312   1.956  11.026 -0.4530  0.5441 -0.3409
  603TMC3    C8 8944   1.296   1.751  11.458 -0.1909 -0.7642 -0.1111
  603TMC3    O1 8945   1.195   1.935  11.005  0.1432 -0.4441  0.0748
  603TMC3    O2 8946   1.345   1.672  11.544  1.0750  0.2597  0.6195
  604MPD2     C 8947   1.599   0.336  16.160 -0.4889  0.3390 -0.6346
  604MPD2    C1 8948   1.500   0.239  16.169  0.2221  0.1762 -0.1323
  604MPD2    C2 8949   1.481   0.151  16.064  0.6195  0.0337  0.4683
  604MPD2    C3 8950   1.568   0.156  15.950  0.9597 -0.2768 -0.8122
  604MPD2    C4 8951   1.678   0.239  15.958  0.7350 -0.2193 -0.3890
  604MPD2    C5 8952   1.694   0.323  16.061 -0.4541  0.0453 -0.1137
  604MPD2     H 8953   1.393   0.088  16.068 -0.3127  1.1141 -3.7340
  604MPD2    H1 8954   1.760   0.233  15.887 -0.5387 -0.4397 -1.8324
  604MPD2    H2 8955   1.614   0.410  16.238 -0.5168  0.3330 -0.6234
  604MPD2    H3 8956   1.779   0.390  16.054  0.0513 -0.7567 -1.6246
  604MPD2     N 8957   1.547   0.089  15.823 -0.5615  0.0067 -0.3491
  604MPD2    H5 8958   1.627   0.097  15.760 -1.1994 -0.0977 -1.1655
  604MPD2    N1 8959   1.410   0.255  16.276 -0.7494  0.4439 -0.6879
  604MPD2    H7 8960   1.422   0.332  16.341 -0.9210 -0.4796  0.4451
  605TMC3    C1 8961   1.222   0.230  16.417 -0.1488  0.8473 -0.6195
  605TMC3    C2 8962   1.301   0.282  16.513  0.0489  0.0862 -0.3800
  605TMC3    C3 8963   1.234   0.359  16.612 -0.3153 -0.5535  0.5418
  605TMC3    C4 8964   1.089   0.260  16.401  0.2242  0.7590 -0.0943
  605TMC3    C5 8965   1.031   0.333  16.497 -0.3084  0.1813 -0.1508
  605TMC3    C6 8966   1.097   0.386  16.603 -0.0983  0.4900 -0.3709
  605TMC3     C 8967   1.295   0.180  16.300  0.3387  0.6629  0.2008
  605TMC3     O 8968   1.240   0.086  16.240  0.5129  0.2658  0.0684
  605TMC3     H 8969   1.403   0.250  16.530 -0.5915 -1.6778  0.0803
  605TMC3    H1 8970   1.037   0.224  16.312  0.4476  0.7870 -0.2345
  605TMC3    H2 8971   1.040   0.445  16.674 -0.0941 -0.4083  0.3840
  605TMC3    C7 8972   0.910   0.399  16.451  0.1723 -0.7316  0.0248
  605TMC3    C8 8973   1.329   0.449  16.674  0.2554 -0.5533  0.3679
  605TMC3    O1 8974   0.829   0.420  16.539 -0.5147 -0.6961  0.4086
  605TMC3    O2 8975   1.436   0.392  16.681  0.1463  0.0327  0.0136
  606TMC3    C1 8976   2.873   3.578  17.065 -0.4218 -0.2987 -1.2695
  606TMC3    C2 8977   2.912   3.473  17.142  0.5194  0.6960  0.0185
  606TMC3    C3 8978   2.916   3.350  17.081 -0.9098 -0.0187  0.0341
  606TMC3    C4 8979   2.828   3.571  16.937 -0.7282  0.1504  0.1341
  606TMC3    C5 8980   2.810   3.447  16.891 -0.5448  0.0019 -0.3800
  606TMC3    C6 8981   2.864   3.337  16.952 -0.1165 -0.3731  1.2543
  606TMC3     C 8982   2.885   3.711  17.122  0.4285  0.5111  0.4797
  606TMC3     O 8983   2.963   3.718  17.214  0.1709 -0.4409  1.0009
  606TMC3     H 8984   2.942   3.489  17.245 -0.3011  0.5769  0.2755
  606TMC3    H1 8985   2.790   3.651  16.876  0.3358  2.4600  2.5161
  606TMC3    H2 8986   2.858   3.238  16.908 -0.6693  0.4032 -0.4075
  606TMC3    C7 8987   2.695   3.429  16.808 -0.3535 -0.4011  0.0329
  606TMC3    C8 8988   3.006   3.260  17.145 -0.3483 -0.2445  0.3538
  606TMC3    O1 8989   2.707   3.453  16.689  0.2926 -0.1210  0.1700
  606TMC3    O2 8990   3.069   3.314  17.236  0.2922  0.5295 -0.4880
  607MPD2     C 8991   0.252   2.147  11.772 -0.5481 -0.1662 -0.2541
  607MPD2    C1 8992   0.337   2.175  11.883  0.6533 -0.0321 -1.0641
  607MPD2    C2 8993   0.301   2.127  12.011 -0.5123 -0.2684 -0.5307
  607MPD2    C3 8994   0.183   2.068  12.033  0.2020 -0.5766 -0.2710
  607MPD2    C4 8995   0.096   2.039  11.930  0.0866 -0.2267  0.2817
  607MPD2    C5 8996   0.137   2.074  11.801  0.0412  0.0641 -0.0200
  607MPD2     H 8997   0.375   2.131  12.090  0.1873  1.0046 -1.2532
  607MPD2    H1 8998   4.724   1.990  11.930  0.1951 -0.4543 -2.4581
  607MPD2    H2 8999   0.261   2.189  11.673  0.3687 -0.4302 -0.2806
  607MPD2    H3 9000   0.072   2.063  11.715  2.2924 -0.1781 -1.6897
  607MPD2     N 9001   0.151   2.053  12.170 -0.8414 -0.1159 -0.1547
  607MPD2    H5 9002   0.208   2.098  12.241 -0.1401  0.0426 -0.8183
  607MPD2    N1 9003   0.468   2.222  11.863 -0.7605  0.1846 -0.1698
  607MPD2    H7 9004   0.517   2.237  11.950  1.0496  0.1013 -1.1658
  608TMC3    C1 9005   0.609   2.390  11.821  0.3526  0.1206 -0.0798
  608TMC3    C2 9006   0.590   2.435  11.946 -0.0062  0.0114 -0.2414
  608TMC3    C3 9007   0.687   2.517  11.999 -0.2489 -0.2102 -0.1287
  608TMC3    C4 9008   0.716   2.425  11.741  0.3891 -0.4413  0.0550
  608TMC3    C5 9009   0.811   2.508  11.794 -0.1989  0.2368  0.2332
  608TMC3    C6 9010   0.792   2.560  11.923  0.6574  0.4201  0.1418
  608TMC3     C 9011   0.511   2.298  11.760 -0.2272 -0.1395  0.2931
  608TMC3     O 9012   0.457   2.329  11.654  0.1052 -0.3452  0.3007
  608TMC3     H 9013   0.493   2.430  11.994 -0.3003  0.6243 -0.7679
  608TMC3    H1 9014   0.717   2.391  11.638 -0.2647 -1.4972  0.3885
  608TMC3    H2 9015   0.864   2.625  11.971  0.3925 -0.3028  1.5219
  608TMC3    C7 9016   0.924   2.533  11.700 -0.2438 -0.0577  0.6966
  608TMC3    C8 9017   0.682   2.549  12.141  0.1350  0.1375  0.3040
  608TMC3    O1 9018   0.940   2.441  11.621 -0.0884  0.0034 -0.8873
  608TMC3    O2 9019   0.728   2.656  12.174  0.3213  0.0339  0.8309
  609TMC3    C1 9020   0.043   0.921  10.080 -0.7650  0.1846 -0.4545
  609TMC3    C2 9021   0.164   0.915  10.144  0.1909  0.9037 -0.1370
  609TMC3    C3 9022   0.175   0.967  10.269  1.2893  0.0916 -0.6342
  609TMC3    C4 9023   4.663   0.986  10.134  0.3130  0.1399  0.3076
  609TMC3    C5 9024   4.679   1.048  10.254 -0.1233 -0.4959  0.0626
  609TMC3    C6 9025   0.069   1.036  10.325 -0.6854 -0.2996 -0.5410
  609TMC3     C 9026   0.019   0.868   9.947  0.8426  0.3508  0.5086
  609TMC3     O 9027   4.628   0.871   9.909 -0.3983 -0.3415 -0.3192
  609TMC3     H 9028   0.254   0.872  10.100 -0.1898 -0.2187  0.1871
  609TMC3    H1 9029   4.570   0.988  10.080  0.6144  1.4312 -0.1538
  609TMC3    H2 9030   0.089   1.084  10.420  0.6820 -2.6017  0.3336
  609TMC3    C7 9031   4.555   1.095  10.309 -0.4598  0.1219  0.4607
  609TMC3    C8 9032   0.299   0.957  10.344  0.9147 -0.4847  0.5788
  609TMC3    O1 9033   4.458   1.108  10.234  0.0789 -0.5312  0.6371
  609TMC3    O2 9034   0.336   1.054  10.409  0.2862  0.0734 -0.1653
  610TMC3    C1 9035   0.403   1.553  12.825  0.0972  0.3107 -0.3346
  610TMC3    C2 9036   0.507   1.633  12.792  0.0964  0.0700 -0.1414
  610TMC3    C3 9037   0.612   1.585  12.721 -0.0800 -0.3907  0.8094
  610TMC3    C4 9038   0.403   1.419  12.792 -0.2416  0.3866  0.5499
  610TMC3    C5 9039   0.507   1.375  12.719  0.7329  0.0349  0.2673
  610TMC3    C6 9040   0.616   1.454  12.688  0.2206 -0.6872 -0.6381
  610TMC3     C 9041   0.281   1.630  12.864  0.4837 -0.0146 -0.0945
  610TMC3     O 9042   0.300   1.740  12.911 -0.0454  0.3882 -0.3324
  610TMC3     H 9043   0.497   1.739  12.810  0.4039 -0.2374  1.8908
  610TMC3    H1 9044   0.335   1.354  12.844  1.9079 -0.1688  2.6470
  610TMC3    H2 9045   0.680   1.415  12.609  0.5808  1.4288 -1.4214
  610TMC3    C7 9046   0.528   1.237  12.727 -0.6320 -0.6205 -0.1543
  610TMC3    C8 9047   0.704   1.671  12.655 -0.0701  0.2378  0.3819
  610TMC3    O1 9048   0.641   1.205  12.759 -0.6912  0.0906  0.1559
  610TMC3    O2 9049   0.806   1.629  12.598  0.2305 -0.3845  0.7305
  611MPD2     C 9050   0.441   1.740  11.036 -0.0145 -0.0492 -0.0383
  611MPD2    C1 9051   0.371   1.774  10.920 -0.4101  0.2657  1.3657
  611MPD2    C2 9052   0.437   1.836  10.819 -0.2230 -0.4165 -0.3773
  611MPD2    C3 9053   0.573   1.868  10.829 -0.2224 -0.3540 -0.3865
  611MPD2    C4 9054   0.633   1.850  10.950 -0.2515  0.3564  0.1639
  611MPD2    C5 9055   0.574   1.780  11.051  0.3773 -0.2585  1.0571
  611MPD2     H 9056   0.384   1.841  10.724 -0.7327  0.6406 -0.0379
  611MPD2    H1 9057   0.733   1.883  10.973 -1.2061  4.2152 -1.2222
  611MPD2    H2 9058   0.394   1.704  11.126  2.1251  2.5455  2.0984
  611MPD2    H3 9059   0.627   1.774  11.145  1.8784  0.9478  0.2815
  611MPD2     N 9060   0.646   1.933  10.729 -0.4366  0.2909  0.2329
  611MPD2    H5 9061   0.747   1.933  10.736 -0.4045 -0.1548 -0.1639
  611MPD2    N1 9062   0.232   1.748  10.915 -0.3482  0.2358  0.0765
  611MPD2    H7 9063   0.186   1.704  10.994  2.0029 -1.2577  0.6363
  612TMC3    C1 9064   0.675   2.071  10.532  0.2249 -0.7846  0.3259
  612TMC3    C2 9065   0.806   2.104  10.563 -0.3882  0.2989  0.3761
  612TMC3    C3 9066   0.882   2.165  10.465  0.2815  0.4442 -0.0468
  612TMC3    C4 9067   0.622   2.099  10.406 -0.8049 -0.3380  1.1418
  612TMC3    C5 9068   0.705   2.164  10.320 -0.0475  0.7774 -0.1622
  612TMC3    C6 9069   0.829   2.201  10.346  0.3475  0.1558  0.9627
  612TMC3     C 9070   0.587   1.998  10.625 -0.0967 -0.3393 -0.0518
  612TMC3     O 9071   0.472   2.030  10.621 -0.0918 -0.0785  0.0676
  612TMC3     H 9072   0.843   2.086  10.664 -1.4098 -1.1215  0.4994
  612TMC3    H1 9073   0.523   2.068  10.377 -0.3721  0.4430 -1.1594
  612TMC3    H2 9074   0.889   2.235  10.263 -1.6093  2.1023  0.3251
  612TMC3    C7 9075   0.633   2.217  10.202  0.2674 -0.3237  0.5600
  612TMC3    C8 9076   1.018   2.204  10.495 -0.2238  0.0420  0.0315
  612TMC3    O1 9077   0.536   2.155  10.166 -0.0655 -0.0632 -0.0828
  612TMC3    O2 9078   1.063   2.278  10.414  0.6621  0.4127  0.3662
  613MPD2     C 9079   3.636   3.817  16.964  0.4414 -0.0770  0.9068
  613MPD2    C1 9080   3.587   3.864  16.837  0.3889  0.4414  0.3606
  613MPD2    C2 9081   3.512   3.776  16.751 -0.5433  0.2608 -0.1798
  613MPD2    C3 9082   3.500   3.640  16.785  0.1495  0.1989  0.6089
  613MPD2    C4 9083   3.554   3.601  16.913  0.3466 -0.2825  0.3654
  613MPD2    C5 9084   3.623   3.680  16.992  0.2747  0.6562  0.6003
  613MPD2     H 9085   3.490   3.808  16.650 -0.0024 -0.5801 -0.5564
  613MPD2    H1 9086   3.545   3.499  16.946 -0.9108 -0.1630  0.3983
  613MPD2    H2 9087   3.691   3.885  17.028  0.7916  2.2861 -1.8996
  613MPD2    H3 9088   3.660   3.643  17.087 -0.6466  0.0333  0.7121
  613MPD2     N 9089   3.453   3.545  16.689 -0.0540 -0.5017  0.1409
  613MPD2    H5 9090   3.460   3.446  16.708  0.1202 -0.2822  1.2043
  613MPD2    N1 9091   3.627   3.992  16.799 -0.4156 -0.1324 -0.2854
  613MPD2    H7 9092   3.708   4.032  16.844  0.4337 -1.2803 -0.8022
  614TMC3    C1 9093   3.662   4.083  16.580 -0.9222  0.2653  1.2708
  614TMC3    C2 9094   3.750   3.981  16.559 -0.3561 -0.0727 -0.5240
  614TMC3    C3 9095   3.779   3.949  16.433 -0.4539 -0.3805  0.6568
  614TMC3    C4 9096   3.608   4.159  16.478  0.1000  0.2568 -0.5203
  614TMC3    C5 9097   3.635   4.109  16.345  0.1788 -0.4400  0.1917
  614TMC3    C6 9098   3.718   4.006  16.320 -0.1707 -0.3204 -0.0517
  614TMC3     C 9099   3.569   4.062  16.694 -0.3600 -0.0921  0.4400
  614TMC3     O 9100   3.451   4.064  16.668  0.4328  0.1758  0.3458
  614TMC3     H 9101   3.783   3.914  16.638  0.5464 -0.6619 -1.4014
  614TMC3    H1 9102   3.545   4.245  16.498  1.9840  1.3865  0.5312
  614TMC3    H2 9103   3.748   3.970  16.222  2.5622  0.3879  0.5317
  614TMC3    C7 9104   3.574   4.178  16.229 -0.8513 -0.7929 -0.0497
  614TMC3    C8 9105   3.795   3.799  16.423  0.1057 -0.5155  0.8751
  614TMC3    O1 9106   3.552   4.298  16.235  0.0206 -0.2214 -0.2044
  614TMC3    O2 9107   3.775   3.722  16.520 -0.5251  0.1035 -0.2218
  615MPD2     C 9108   3.068   0.434  16.461 -0.0688 -0.3025  1.1185
  615MPD2    C1 9109   2.984   0.526  16.398 -0.1248 -0.3623 -0.7622
  615MPD2    C2 9110   2.876   0.485  16.317  0.4185 -0.6785 -0.0278
  615MPD2    C3 9111   2.865   0.354  16.279 -0.0551 -0.2982  0.4204
  615MPD2    C4 9112   2.950   0.265  16.341  0.1706  0.0331 -0.2015
  615MPD2    C5 9113   3.047   0.300  16.423 -0.0148 -0.1733  0.0616
  615MPD2     H 9114   2.819   0.566  16.273  2.9333  0.9273 -0.3571
  615MPD2    H1 9115   2.949   0.160  16.314 -3.4071 -0.1208  0.4917
  615MPD2    H2 9116   3.139   0.461  16.539  1.3293  1.9142 -0.8872
  615MPD2    H3 9117   3.109   0.218  16.456  1.6104  1.0589  0.0554
  615MPD2     N 9118   2.769   0.306  16.186 -0.1333  0.8951  0.1416
  615MPD2    H5 9119   2.789   0.214  16.150 -2.7918  0.3845 -0.0011
  615MPD2    N1 9120   2.994   0.663  16.425 -0.9753 -0.1178 -0.7544
  615MPD2    H7 9121   2.925   0.725  16.384 -1.3534  0.5942  0.9343
  616TMC3    C1 9122   3.043   0.858  16.530  0.3499  1.1951 -0.1248
  616TMC3    C2 9123   3.143   0.948  16.532  0.5018 -0.3235  0.8210
  616TMC3    C3 9124   3.116   1.075  16.503 -0.2279  0.7643 -0.4448
  616TMC3    C4 9125   2.915   0.893  16.508  0.1230 -0.1878 -0.3621
  616TMC3    C5 9126   2.888   1.025  16.484 -0.6766  0.3254  0.2137
  616TMC3    C6 9127   2.988   1.112  16.483  0.1437  0.4586  0.3924
  616TMC3     C 9128   3.086   0.720  16.507 -0.4730  0.4138 -0.2283
  616TMC3     O 9129   3.181   0.672  16.569 -0.4022 -0.1277 -0.4068
  616TMC3     H 9130   3.242   0.906  16.548  0.0270 -1.3648  1.0378
  616TMC3    H1 9131   2.836   0.819  16.521 -2.8188  2.9523 -0.4233
  616TMC3    H2 9132   2.951   1.214  16.470 -1.4033 -0.2907 -1.0868
  616TMC3    C7 9133   2.769   1.067  16.407  0.0277 -0.6491 -0.3497
  616TMC3    C8 9134   3.218   1.183  16.499  0.0915  0.2360 -0.5323
  616TMC3    O1 9135   2.787   1.157  16.325  0.1600  0.3343 -0.3953
  616TMC3    O2 9136   3.163   1.289  16.482  0.1297  0.2534  0.2505
  617MPD2     C 9137   0.705   3.575  14.399 -0.1730  0.0131 -0.0571
  617MPD2    C1 9138   0.774   3.486  14.480  0.2503 -0.8266  0.6356
  617MPD2    C2 9139   0.701   3.380  14.529 -0.1149  0.6121  0.9366
  617MPD2    C3 9140   0.562   3.371  14.501  0.6321 -0.0114  0.3678
  617MPD2    C4 9141   0.506   3.463  14.410  0.3693 -0.0161 -0.3409
  617MPD2    C5 9142   0.576   3.567  14.357 -0.2639  1.0284  0.6963
  617MPD2     H 9143   0.747   3.314  14.601  1.0915  2.1841  1.5937
  617MPD2    H1 9144   0.398   3.464  14.403  0.3166 -0.9108  0.3690
  617MPD2    H2 9145   0.760   3.662  14.364  2.2624 -1.2951  0.5150
  617MPD2    H3 9146   0.529   3.650  14.305  0.0323 -0.1020 -1.3850
  617MPD2     N 9147   0.481   3.259  14.541 -0.4416  0.5743 -0.5111
  617MPD2    H5 9148   0.386   3.252  14.506 -0.5428 -2.0525  0.2287
  617MPD2    N1 9149   0.909   3.519  14.502  0.3524  0.3588 -0.4676
  617MPD2    H7 9150   0.948   3.596  14.448 -0.6638  0.6424 -0.7898
  618TMC3    C1 9151   1.134   3.484  14.566  0.4113  0.0349  0.1110
  618TMC3    C2 9152   1.231   3.384  14.563 -0.1987  0.2843  0.6070
  618TMC3    C3 9153   1.355   3.411  14.509  0.6301  0.6187  0.0274
  618TMC3    C4 9154   1.160   3.610  14.523  0.4564 -0.3261  0.3033
  618TMC3    C5 9155   1.280   3.630  14.455 -0.5948 -0.7527  0.4021
  618TMC3    C6 9156   1.372   3.530  14.445 -0.2566 -0.1567 -0.1003
  618TMC3     C 9157   0.993   3.445  14.584  0.4346  0.0409  0.1111
  618TMC3     O 9158   0.965   3.345  14.650  0.1947  0.3179  0.1918
  618TMC3     H 9159   1.202   3.288  14.602  1.8001 -0.9097 -0.8588
  618TMC3    H1 9160   1.088   3.690  14.528  1.8932  0.9419  0.8278
  618TMC3    H2 9161   1.473   3.554  14.413 -0.0251 -0.3085  0.5156
  618TMC3    C7 9162   1.268   3.739  14.355  0.4115  0.5567 -0.3999
  618TMC3    C8 9163   1.422   3.302  14.441  0.6290  0.4962  0.3528
  618TMC3    O1 9164   1.183   3.824  14.376 -0.2506 -0.5544  0.2174
  618TMC3    O2 9165   1.441   3.328  14.323  0.1834 -0.1889 -0.4545
  619MPD2     C 9166   2.797   0.445  13.995 -0.8641 -0.3679  1.1113
  619MPD2    C1 9167   2.750   0.447  13.864 -0.1589 -0.4194 -0.1029
  619MPD2    C2 9168   2.665   0.343  13.825 -0.0209  0.8790  0.0930
  619MPD2    C3 9169   2.632   0.239  13.903  0.4357 -0.5953  0.2966
  619MPD2    C4 9170   2.665   0.249  14.040 -0.4358  0.6863  0.1092
  619MPD2    C5 9171   2.749   0.349  14.078  0.3636 -0.2889  0.3489
  619MPD2     H 9172   2.616   0.358  13.729 -1.0384 -1.8153  0.1867
  619MPD2    H1 9173   2.622   0.169  14.099  0.5764  0.0126 -0.0645
  619MPD2    H2 9174   2.867   0.513  14.042 -1.4483 -0.2490  1.8017
  619MPD2    H3 9175   2.785   0.350  14.181  2.3070 -0.8958 -0.3335
  619MPD2     N 9176   2.531   0.149  13.860  0.3452 -0.5172 -0.1533
  619MPD2    H5 9177   2.485   0.089  13.927 -0.4991 -3.4244 -3.3225
  619MPD2    N1 9178   2.766   0.551  13.768  0.4286  0.2780 -0.2680
  619MPD2    H7 9179   2.738   0.517  13.677 -0.1291  1.0379 -0.3795
  620TMC3    C1 9180   2.810   0.748  13.654  0.6357 -0.2936  0.5603
  620TMC3    C2 9181   2.705   0.724  13.571  0.1851 -1.1229 -0.1142
  620TMC3    C3 9182   2.719   0.749  13.437  0.3717  0.4877 -0.3383
  620TMC3    C4 9183   2.916   0.828  13.610  0.2305 -0.1719  0.1316
  620TMC3    C5 9184   2.927   0.869  13.478  0.2773 -0.8464 -0.3654
  620TMC3    C6 9185   2.837   0.810  13.394  0.2517 -0.7401 -0.1267
  620TMC3     C 9186   2.816   0.673  13.780 -0.4829 -0.3504 -0.2895
  620TMC3     O 9187   2.889   0.718  13.869 -0.1617 -0.4685  0.2498
  620TMC3     H 9188   2.616   0.671  13.604  0.1657 -1.5223 -0.7871
  620TMC3    H1 9189   2.993   0.855  13.681  1.3177 -3.3033  0.0895
  620TMC3    H2 9190   2.845   0.833  13.288  2.2032  1.3930  0.4912
  620TMC3    C7 9191   2.943   1.012  13.456 -0.1689 -0.1313 -0.1735
  620TMC3    C8 9192   2.611   0.752  13.339 -0.6354 -0.0644 -0.9023
  620TMC3    O1 9193   2.935   1.059  13.344 -0.3424 -0.3144 -0.9696
  620TMC3    O2 9194   2.646   0.747  13.224  0.6048 -0.1847 -0.0838
  621MPD2     C 9195   4.648   0.384   9.783  0.2114  0.0182  0.2334
  621MPD2    C1 9196   4.520   0.359   9.831  0.6970  0.6013  0.9890
  621MPD2    C2 9197   4.482   0.428   9.944  0.3574  0.2771 -0.3815
  621MPD2    C3 9198   4.566   0.506  10.022  0.9585 -0.4044  0.1062
  621MPD2    C4 9199   4.686   0.534   9.969  0.6554  0.0374 -0.9416
  621MPD2    C5 9200   0.006   0.467   9.857  0.1055  0.5768 -0.1648
  621MPD2     H 9201   4.375   0.422   9.962  0.9548 -1.3874  2.6809
  621MPD2    H1 9202   0.036   0.599  10.011 -0.9394  2.6247 -2.1316
  621MPD2    H2 9203   4.694   0.348   9.692  0.2390  0.1402  0.1995
  621MPD2    H3 9204   0.101   0.489   9.810  0.4534 -0.4746  0.0469
  621MPD2     N 9205   4.507   0.577  10.122  0.4651  0.0165 -0.2129
  621MPD2    H5 9206   4.406   0.579  10.129  0.4941  0.5402  0.0530
  621MPD2    N1 9207   4.432   0.268   9.772 -0.1982  0.0139 -0.4008
  621MPD2    H7 9208   4.342   0.256   9.818 -1.0670 -1.3906 -2.4785
  622TMC3    C1 9209   4.337   0.102   9.653  0.3803 -0.7250  1.2191
  622TMC3    C2 9210   4.252   0.079   9.763  0.0796  0.0829 -0.1394
  622TMC3    C3 9211   4.181   4.690   9.764 -0.4991  0.0545  0.6703
  622TMC3    C4 9212   4.335   0.023   9.538  0.1453 -0.0616 -0.1848
  622TMC3    C5 9213   4.249   4.638   9.537 -0.4932  0.1282  0.5979
  622TMC3    C6 9214   4.170   4.612   9.646 -0.9612 -0.3045 -0.2340
  622TMC3     C 9215   4.453   0.181   9.675  0.3339  0.1531  0.1518
  622TMC3     O 9216   4.552   0.173   9.602 -0.4095 -0.2898 -0.7203
  622TMC3     H 9217   4.261   0.127   9.860 -0.7334  1.8666 -0.9596
  622TMC3    H1 9218   4.398   0.045   9.452 -2.0703  0.0892 -1.8085
  622TMC3    H2 9219   4.113   4.520   9.649  1.4541 -1.8050  0.0497
  622TMC3    C7 9220   4.258   4.535   9.431 -0.0500  0.5765  0.4797
  622TMC3    C8 9221   4.077   4.678   9.868 -1.4039  0.0158  0.6967
  622TMC3    O1 9222   4.351   4.536   9.349 -0.2238 -0.1683  0.1606
  622TMC3    O2 9223   4.047   4.561   9.903  0.3892  0.5452  0.0815
  623MPD2     C 9224   1.623   1.109  16.176  0.1450  0.0788 -0.4592
  623MPD2    C1 9225   1.574   1.023  16.273  0.1522 -0.5618 -0.1195
  623MPD2    C2 9226   1.653   1.005  16.391  0.2371 -0.7622 -0.1010
  623MPD2    C3 9227   1.774   1.054  16.401 -0.7626  0.1710 -0.1668
  623MPD2    C4 9228   1.827   1.137  16.302  0.0520  0.0456 -0.5207
  623MPD2    C5 9229   1.744   1.171  16.197 -0.0002  0.3405  0.2910
  623MPD2     H 9230   1.623   0.940  16.473 -3.3636  0.2385 -0.6183
  623MPD2    H1 9231   1.918   1.194  16.313 -0.4842  0.7439  0.3009
  623MPD2    H2 9232   1.570   1.130  16.083 -1.0271 -4.0516 -0.7159
  623MPD2    H3 9233   1.784   1.249  16.133  1.2106  1.9955  3.0660
  623MPD2     N 9234   1.851   1.015  16.509  0.7401 -0.4777  0.2873
  623MPD2    H5 9235   1.800   0.965  16.582  1.1817  0.9881  1.6058
  623MPD2    N1 9236   1.445   0.958  16.258 -0.7585  0.6588  0.2290
  623MPD2    H7 9237   1.391   0.992  16.179 -1.6718  0.2927  0.6997
  624TMC3    C1 9238   2.139   0.747  16.675 -0.2880 -0.1374 -0.2373
  624TMC3    C2 9239   2.038   0.698  16.761  0.3733 -0.3849  0.7456
  624TMC3    C3 9240   1.931   0.787  16.784 -0.0926 -0.5852  0.2349
  624TMC3    C4 9241   2.136   0.877  16.619  0.3142 -0.2499  0.5394
  624TMC3    C5 9242   2.023   0.948  16.644 -0.0773  0.4484 -0.1594
  624TMC3    C6 9243   1.919   0.909  16.722 -0.2881 -0.3339 -0.2550
  624TMC3     C 9244   2.269   0.690  16.703  0.4694 -0.2324 -0.4132
  624TMC3     O 9245   2.367   0.761  16.696 -0.0989 -0.0904  0.1111
  624TMC3     H 9246   2.028   0.600  16.807  1.0880 -1.5492 -1.5861
  624TMC3    H1 9247   2.213   0.915  16.553 -0.9527  1.6816  0.1544
  624TMC3    H2 9248   1.851   0.988  16.752  0.5981  0.5253 -0.5166
  624TMC3    C7 9249   1.988   1.016  16.526  0.3417 -0.1334 -0.0177
  624TMC3    C8 9250   1.803   0.726  16.809  0.3638  0.1917  0.3162
  624TMC3    O1 9251   2.071   1.066  16.453  0.2614 -0.2752  0.1106
  624TMC3    O2 9252   1.801   0.601  16.807  0.4255 -0.6895  0.7790
  625MPD2     C 9253   1.754   1.321   0.879  0.2768  0.3431 -0.3670
  625MPD2    C1 9254   1.807   1.439   0.926 -0.3737  0.0335 -0.0581
  625MPD2    C2 9255   1.936   1.440   0.989 -0.5967 -0.0718  0.2013
  625MPD2    C3 9256   1.993   1.324   1.030  0.1746  0.6639  0.2938
  625MPD2    C4 9257   1.935   1.206   0.987  0.7634  0.5289 -0.8337
  625MPD2    C5 9258   1.832   1.206   0.900  0.3985  0.0455  0.5977
  625MPD2     H 9259   1.973   1.537   1.020  1.0446  0.2475 -2.7699
  625MPD2    H1 9260   1.977   1.107   1.000 -1.5320 -0.4769 -0.9688
  625MPD2    H2 9261   1.662   1.312   0.823  0.0529  1.2779 -0.1484
  625MPD2    H3 9262   1.781   1.115   0.870  3.6324 -2.0878  1.5671
  625MPD2     N 9263   2.115   1.334   1.100 -0.1314  0.5400 -1.2409
  625MPD2    H5 9264   2.152   1.428   1.100 -0.4503  0.6679 -0.5278
  625MPD2    N1 9265   1.740   1.562   0.906  0.8338 -0.0460  0.1633
  625MPD2    H7 9266   1.770   1.645   0.956 -0.2463  1.0252 -0.9418
  626TMC3    C1 9267   1.597   1.716   0.800  0.4366  0.3702 -0.3861
  626TMC3    C2 9268   1.586   1.756   0.671 -0.6091  0.1601  0.4581
  626TMC3    C3 9269   1.576   1.889   0.636 -0.1741 -0.7217  0.0761
  626TMC3    C4 9270   1.619   1.804   0.905  0.2400  0.5930 -0.4061
  626TMC3    C5 9271   1.618   1.940   0.867 -0.0899  0.2839  0.3497
  626TMC3    C6 9272   1.605   1.982   0.736  0.1471  0.6026 -0.6546
  626TMC3     C 9273   1.638   1.584   0.815  0.0555 -0.1691  0.0871
  626TMC3     O 9274   1.590   1.506   0.732  0.2452  0.3023 -0.1751
  626TMC3     H 9275   1.582   1.684   0.590  0.2812 -0.1226  0.6768
  626TMC3    H1 9276   1.639   1.776   1.008 -4.3404 -1.1277  0.0291
  626TMC3    H2 9277   1.597   2.089   0.721 -0.8693  0.5544 -0.4971
  626TMC3    C7 9278   1.531   2.014   0.956 -0.7641 -0.2161 -0.4755
  626TMC3    C8 9279   1.570   1.945   0.501  0.0419 -0.1603 -0.4010
  626TMC3    O1 9280   1.572   2.004   1.071  0.7908  0.1565 -0.4161
  626TMC3    O2 9281   1.604   2.060   0.481 -0.3934 -0.1262 -0.0401
  627MPD2     C 9282   0.990   2.001  14.354 -0.3650 -0.6317  0.0097
  627MPD2    C1 9283   0.932   2.030  14.478 -0.2594  0.3170  0.1212
  627MPD2    C2 9284   0.802   1.980  14.506 -0.5417  0.5034 -0.3200
  627MPD2    C3 9285   0.736   1.913  14.410  0.4482  1.0110  0.2067
  627MPD2    C4 9286   0.803   1.884  14.296  0.0607  0.3905  0.0830
  627MPD2    C5 9287   0.925   1.927  14.257 -0.1674  0.0585 -0.0710
  627MPD2     H 9288   0.763   1.998  14.606  0.7963 -0.5310  0.3950
  627MPD2    H1 9289   0.753   1.828  14.218 -0.8301  0.7942  0.3599
  627MPD2    H2 9290   1.092   2.020  14.324  0.3051 -1.6048  1.6128
  627MPD2    H3 9291   0.974   1.882  14.171  1.8125 -0.8088  1.5250
  627MPD2     N 9292   0.609   1.859  14.443 -0.4073 -0.3848 -0.2831
  627MPD2    H5 9293   0.568   1.883  14.533  0.1282 -1.8665  0.3597
  627MPD2    N1 9294   1.002   2.103  14.579  0.4245  0.0109  0.2405
  627MPD2    H7 9295   0.958   2.121  14.669  0.5811  0.6087  0.1980
  628TMC3    C1 9296   1.185   2.176  14.705  0.2769 -0.1429 -0.0625
  628TMC3    C2 9297   1.299   2.133  14.760 -0.3719 -0.2039  0.1405
  628TMC3    C3 9298   1.310   2.133  14.894 -0.2939  0.1926 -0.2908
  628TMC3    C4 9299   1.089   2.238  14.777 -0.8631 -0.5806  0.2650
  628TMC3    C5 9300   1.111   2.238  14.912  0.6174  0.3008  0.6061
  628TMC3    C6 9301   1.211   2.165  14.978  0.6370 -0.4745  0.0103
  628TMC3     C 9302   1.143   2.122  14.579  0.1110 -0.1643  0.6020
  628TMC3     O 9303   1.222   2.072  14.500 -0.1357 -0.4781 -0.2187
  628TMC3     H 9304   1.368   2.075  14.700  0.3768 -0.5457  1.3339
  628TMC3    H1 9305   1.010   2.293  14.728  0.3593  0.4507 -0.5402
  628TMC3    H2 9306   1.225   2.206  15.078  1.7938 -1.3574  0.2145
  628TMC3    C7 9307   1.068   2.364  14.971 -0.4123 -0.0103 -0.6662
  628TMC3    C8 9308   1.404   2.040  14.946  0.0434 -0.9726 -0.4401
  628TMC3    O1 9309   1.131   2.412  15.069  0.2383 -0.3695  0.3266
  628TMC3    O2 9310   1.504   2.017  14.878 -0.2902 -0.1390  0.4548
  629MPD2     C 9311   3.687   1.379  16.566 -0.6500 -0.2277  0.5964
  629MPD2    C1 9312   3.694   1.244  16.578 -0.1746  0.2808  0.4448
  629MPD2    C2 9313   3.579   1.168  16.582 -0.0448  0.8234  0.0904
  629MPD2    C3 9314   3.458   1.224  16.545 -0.7029  0.1397  0.6010
  629MPD2    C4 9315   3.447   1.366  16.530 -0.0992 -0.7399 -0.4796
  629MPD2    C5 9316   3.565   1.441  16.532 -0.3225  0.0414 -0.4115
  629MPD2     H 9317   3.576   1.060  16.588 -2.5320  0.9200  0.6253
  629MPD2    H1 9318   3.351   1.406  16.502 -0.6124 -1.2168  0.6136
  629MPD2    H2 9319   3.781   1.432  16.572 -0.1646 -1.1305  1.1188
  629MPD2    H3 9320   3.554   1.547  16.510 -1.5475 -0.3601 -1.7137
  629MPD2     N 9321   3.344   1.143  16.534 -0.1067 -0.3905  0.2132
  629MPD2    H5 9322   3.348   1.044  16.557 -1.0563  0.0249  2.1079
  629MPD2    N1 9323   3.823   1.188  16.589 -0.1417  0.6237  0.2586
  629MPD2    H7 9324   3.904   1.244  16.564  0.1369  0.9156  1.8021
  630TMC3    C1 9325   3.991   1.045  16.648 -0.4345  0.0039  0.7942
  630TMC3    C2 9326   4.074   1.111  16.560 -0.5940  0.0308 -0.4844
  630TMC3    C3 9327   4.203   1.111  16.588 -0.3273 -0.2501  0.1521
  630TMC3    C4 9328   4.038   1.000  16.770  0.3269 -0.8083  0.1284
  630TMC3    C5 9329   4.169   1.025  16.797  0.3835  0.3569 -0.0064
  630TMC3    C6 9330   4.259   1.074  16.704  0.2822  0.0300 -0.3268
  630TMC3     C 9331   3.852   1.063  16.638  0.5969 -0.3905 -1.3260
  630TMC3     O 9332   3.783   0.973  16.683  0.0796 -0.1448 -0.6300
  630TMC3     H 9333   4.034   1.152  16.468  0.9196  0.6538 -0.8696
  630TMC3    H1 9334   3.969   0.982  16.852 -1.0074 -1.7219 -1.2206
  630TMC3    H2 9335   4.364   1.073  16.732  0.0107 -2.0577  0.6339
  630TMC3    C7 9336   4.214   1.001  16.936 -0.2629 -0.4643  0.2812
  630TMC3    C8 9337   4.290   1.200  16.510 -0.1020  0.5829  0.1994
  630TMC3    O1 9338   4.144   0.927  16.999 -0.3991 -0.3413 -0.1908
  630TMC3    O2 9339   4.375   1.261  16.572 -0.3988  0.2692 -0.2217
  631MPD2     C 9340   1.871   0.562  15.658  0.3977 -0.1664 -0.1687
  631MPD2    C1 9341   1.975   0.599  15.582  0.2823  0.0463  0.9725
  631MPD2    C2 9342   2.095   0.536  15.609  0.2150  0.1517 -1.0011
  631MPD2    C3 9343   2.113   0.450  15.715  0.2003 -1.1140  0.1075
  631MPD2    C4 9344   2.001   0.411  15.783 -0.2604  0.0112  0.5064
  631MPD2    C5 9345   1.882   0.467  15.750  0.0039  0.2462 -0.5088
  631MPD2     H 9346   2.185   0.563  15.556  1.0947 -0.7173  0.0408
  631MPD2    H1 9347   2.001   0.329  15.854  1.2791 -0.4728 -0.0593
  631MPD2    H2 9348   1.775   0.613  15.656  0.8810  0.8361  2.2890
  631MPD2    H3 9349   1.790   0.446  15.804  0.4773  0.9669  0.5600
  631MPD2     N 9350   2.244   0.422  15.768  0.6673 -0.1950  0.0416
  631MPD2    H5 9351   2.319   0.461  15.711  0.2252  2.4782  1.3044
  631MPD2    N1 9352   1.956   0.705  15.498 -0.1054 -0.7853  0.6205
  631MPD2    H7 9353   1.859   0.731  15.486  0.4645  1.1084  0.2195
  632TMC3    C1 9354   2.000   0.912  15.402 -0.0898  0.2878  0.3185
  632TMC3    C2 9355   1.876   0.944  15.450 -0.1881  0.0136  0.2484
  632TMC3    C3 9356   1.806   1.031  15.373 -0.2760  0.8946  0.1617
  632TMC3    C4 9357   2.067   0.990  15.309  0.1131  0.6021 -0.3025
  632TMC3    C5 9358   1.983   1.079  15.242  0.0055 -0.0656 -0.2149
  632TMC3    C6 9359   1.851   1.099  15.265  0.2825  0.2238  0.0999
  632TMC3     C 9360   2.051   0.783  15.442 -0.8083  0.1179  0.4751
  632TMC3     O 9361   2.170   0.775  15.439 -0.4631 -0.3434 -0.1851
  632TMC3     H 9362   1.827   0.891  15.531 -0.2721  0.3457  0.4126
  632TMC3    H1 9363   2.163   0.961  15.266 -0.1256 -1.9180  0.8629
  632TMC3    H2 9364   1.792   1.158  15.195 -0.2957  1.1199  1.3564
  632TMC3    C7 9365   2.040   1.145  15.123  0.3553 -0.5474 -0.9819
  632TMC3    C8 9366   1.682   1.071  15.431 -1.2296  0.3774  0.6260
  632TMC3    O1 9367   1.956   1.182  15.040  0.3504  0.0663  0.1767
  632TMC3    O2 9368   1.677   1.091  15.554 -0.0777  0.1250  0.1851
  633MPD2     C 9369   1.562   3.800  17.168 -0.3099  0.6034  0.1816
  633MPD2    C1 9370   1.506   3.707  17.088  0.0044 -0.6181  0.2413
  633MPD2    C2 9371   1.556   3.578  17.090  0.0701 -0.0901  0.2184
  633MPD2    C3 9372   1.662   3.551  17.166  0.0275 -0.7571  0.4486
  633MPD2    C4 9373   1.697   3.643  17.261  0.4182  0.4049  0.0044
  633MPD2    C5 9374   1.653   3.770  17.268  0.5570  0.5263 -0.5393
  633MPD2     H 9375   1.523   3.497  17.026 -1.5770  0.3275  0.5420
  633MPD2    H1 9376   1.781   3.630  17.329  0.4854 -1.9525 -0.5337
  633MPD2    H2 9377   1.532   3.905  17.167 -0.2208  0.6168 -0.9603
  633MPD2    H3 9378   1.688   3.837  17.346  0.3847  0.5088 -0.4480
  633MPD2     N 9379   1.723   3.417  17.177  0.8037  0.1811  0.2201
  633MPD2    H5 9380   1.795   3.394  17.245 -1.9963  0.3748  3.2428
  633MPD2    N1 9381   1.401   3.738  16.988  0.1561 -0.1034  0.1285
  633MPD2    H7 9382   1.362   3.663  16.932 -0.0026 -0.8016  1.1671
  634TMC3    C1 9383   1.282   3.838  16.823  0.2091  0.4574  0.1575
  634TMC3    C2 9384   1.362   3.770  16.733 -0.4913  0.7089 -0.8399
  634TMC3    C3 9385   1.376   3.821  16.609 -0.1801  0.5242 -0.1598
  634TMC3    C4 9386   1.225   3.962  16.790  0.1387 -0.0106 -0.5987
  634TMC3    C5 9387   1.245   4.009  16.659 -0.3455  0.2325  0.3160
  634TMC3    C6 9388   1.302   3.926  16.569  0.3158  0.3376  0.5965
  634TMC3     C 9389   1.345   3.851  16.953 -1.0874 -0.4470 -0.2869
  634TMC3     O 9390   1.365   3.963  16.995 -0.1596  0.3969 -0.4360
  634TMC3     H 9391   1.413   3.677  16.755 -2.1071  0.2951  1.2064
  634TMC3    H1 9392   1.171   4.016  16.867 -2.2012 -0.7087 -1.7191
  634TMC3    H2 9393   1.323   3.960  16.468  0.2122 -0.0222  0.4536
  634TMC3    C7 9394   1.323   4.126  16.660 -0.4654  0.4181  0.0770
  634TMC3    C8 9395   1.486   3.773  16.530 -0.0528 -0.0155  0.0959
  634TMC3    O1 9396   1.351   4.165  16.552  0.4792  0.4971 -0.3056
  634TMC3    O2 9397   1.539   3.668  16.574  0.0310  0.6073  0.5629
  635TMC3    C1 9398   2.137   4.197  17.618 -0.4437 -0.4096 -0.9991
  635TMC3    C2 9399   2.090   4.157  17.495 -0.1511  0.0524 -0.0894
  635TMC3    C3 9400   2.052   4.030  17.471  0.4111 -0.1847 -0.1386
  635TMC3    C4 9401   2.181   4.106   0.011 -0.9606 -0.9227  0.0082
  635TMC3    C5 9402   2.156   3.972  17.678 -0.6830  0.0356 -1.2375
  635TMC3    C6 9403   2.089   3.932  17.561  0.0880  0.0571 -0.6063
  635TMC3     C 9404   2.136   4.342  17.659 -0.2826 -0.1937  0.6369
  635TMC3     O 9405   2.128   4.365   0.078  0.1029  0.2760 -0.0975
  635TMC3     H 9406   2.030   4.221  17.431 -0.1018  1.2923  1.1200
  635TMC3    H1 9407   2.229   4.136   0.103  0.9214 -2.5467 -0.4276
  635TMC3    H2 9408   2.061   3.828  17.543 -0.1997 -0.1170  0.8057
  635TMC3    C7 9409   2.174   3.868   0.070 -0.5296 -0.2851  0.6669
  635TMC3    C8 9410   2.032   3.978  17.335  0.3634 -0.2347 -0.3886
  635TMC3    O1 9411   2.168   3.756   0.019 -0.4008 -0.7798 -0.2629
  635TMC3    O2 9412   2.127   3.911  17.294 -0.2501  0.2973 -0.1445
  636MPD2     C 9413   3.031   3.941  15.888  0.9074 -0.1624  0.2225
  636MPD2    C1 9414   3.066   3.988  16.009 -0.3283 -0.5734  0.6215
  636MPD2    C2 9415   3.151   3.907  16.085  0.4574 -1.4985 -0.0077
  636MPD2    C3 9416   3.185   3.783  16.047 -0.5069 -0.4971 -0.1169
  636MPD2    C4 9417   3.152   3.743  15.922 -0.0193  0.2421  0.3233
  636MPD2    C5 9418   3.075   3.824  15.842  1.2308 -0.3298  0.1646
  636MPD2     H 9419   3.186   3.940  16.182  1.4979  2.0605 -1.6136
  636MPD2    H1 9420   3.179   3.643  15.888  2.3370  1.1697 -0.5241
  636MPD2    H2 9421   2.976   3.999  15.815  0.4754 -0.3405  0.4078
  636MPD2    H3 9422   3.042   3.797  15.742  0.6657 -0.0025  0.2635
  636MPD2     N 9423   3.258   3.697  16.137 -0.1923 -0.5373  0.1658
  636MPD2    H5 9424   3.284   3.733  16.228 -0.4256 -0.1968  0.0987
  636MPD2    N1 9425   3.035   4.122  16.053 -0.1727  0.1867  0.1517
  636MPD2    H7 9426   3.076   4.151  16.142 -0.2330 -2.0656  0.9194
  637TMC3    C1 9427   3.367   3.510  16.231 -0.4184  0.1019 -0.0417
  637TMC3    C2 9428   3.317   3.531  16.356 -0.3614 -0.4207 -0.1154
  637TMC3    C3 9429   3.377   3.479  16.467  0.9728 -0.7713 -0.6364
  637TMC3    C4 9430   3.461   3.415  16.218  0.4161  0.2976 -0.6536
  637TMC3    C5 9431   3.536   3.379  16.329  0.0979 -0.1119  0.0533
  637TMC3    C6 9432   3.488   3.394  16.459  0.2015 -0.1836 -0.2237
  637TMC3     C 9433   3.304   3.571  16.110 -0.1930  0.6117 -0.3808
  637TMC3     O 9434   3.338   3.523  16.003 -0.3427 -0.0119 -0.0021
  637TMC3     H 9435   3.235   3.600  16.375  1.1777  0.9039  1.8095
  637TMC3    H1 9436   3.493   3.385  16.120  1.5697 -0.2902 -0.0986
  637TMC3    H2 9437   3.545   3.360  16.544  0.3331  1.3161  0.2950
  637TMC3    C7 9438   3.645   3.285  16.321 -0.2022 -0.3606 -0.3372
  637TMC3    C8 9439   3.380   3.582  16.571 -0.3234  0.1937  0.5220
  637TMC3    O1 9440   3.628   3.179  16.382  0.8374  0.2202 -0.0449
  637TMC3    O2 9441   3.348   3.697  16.539 -0.2226 -0.1367 -0.0089
  638MPD2     C 9442   3.014   3.130  14.694 -0.2079  0.2591 -0.2844
  638MPD2    C1 9443   3.050   2.993  14.663  0.1395 -0.0005 -0.3456
  638MPD2    C2 9444   3.024   2.895  14.757 -0.1986 -0.1571 -0.1943
  638MPD2    C3 9445   2.969   2.920  14.879  0.4724  0.3031 -1.4175
  638MPD2    C4 9446   2.908   3.050  14.893  0.1727  0.0685  0.1182
  638MPD2    C5 9447   2.937   3.152  14.805  0.1942  0.1161  0.5473
  638MPD2     H 9448   3.052   2.795  14.728 -1.3594 -0.7330  0.6463
  638MPD2    H1 9449   2.846   3.072  14.979  2.6464  2.5313  1.2830
  638MPD2    H2 9450   3.036   3.217  14.634 -0.6264 -0.8436 -2.0571
  638MPD2    H3 9451   2.901   3.249  14.837  1.7016  1.4457 -1.7811
  638MPD2     N 9452   2.951   2.807  14.973 -0.2319  0.4804 -0.4270
  638MPD2    H5 9453   3.018   2.730  14.967  1.1170  1.4325  2.7386
  638MPD2    N1 9454   3.117   2.959  14.545  0.1652  0.9257 -0.0596
  638MPD2    H7 9455   3.153   3.039  14.494 -0.7639  0.2291 -1.8482
  639TMC3    C1 9456   2.873   2.704  15.160  0.5794  0.0786  0.4015
  639TMC3    C2 9457   2.745   2.668  15.206  0.6655  0.6021 -0.7969
  639TMC3    C3 9458   2.732   2.543  15.266 -0.4197 -0.0446  0.6200
  639TMC3    C4 9459   2.982   2.623  15.164 -0.3615  0.0202  0.6773
  639TMC3    C5 9460   2.962   2.497  15.218 -0.4282  0.0672  0.5349
  639TMC3    C6 9461   2.840   2.462  15.271  0.4634 -0.5679  0.3640
  639TMC3     C 9462   2.872   2.821  15.084  0.8152 -1.1579 -0.5770
  639TMC3     O 9463   2.769   2.893  15.088  0.0795 -0.1425  0.1362
  639TMC3     H 9464   2.665   2.737  15.183  0.8319  0.7175 -1.0295
  639TMC3    H1 9465   3.078   2.657  15.126  0.6295 -1.9210  1.4044
  639TMC3    H2 9466   2.831   2.365  15.320 -1.3066  0.3304  1.8011
  639TMC3    C7 9467   3.081   2.428  15.260  0.4078  0.0507  0.5101
  639TMC3    C8 9468   2.593   2.493  15.274  0.1783  0.7958 -0.2374
  639TMC3    O1 9469   3.072   2.383  15.375  1.1236  0.1739 -0.1559
  639TMC3    O2 9470   2.504   2.578  15.273 -0.1589  0.1814  0.2901
  640MPD2     C 9471   0.477   2.360  10.520  0.0889  0.3888 -0.6679
  640MPD2    C1 9472   0.371   2.328  10.442 -0.6743 -0.0708  0.1055
  640MPD2    C2 9473   0.342   2.420  10.343  0.2135 -0.3466  0.1156
  640MPD2    C3 9474   0.422   2.533  10.311  0.4092 -0.0751  0.3848
  640MPD2    C4 9475   0.533   2.552  10.389  1.5099 -0.0354  0.0209
  640MPD2    C5 9476   0.551   2.472  10.494  0.4528  0.6908  0.0569
  640MPD2     H 9477   0.251   2.411  10.285 -0.0104  0.5498  0.3253
  640MPD2    H1 9478   0.597   2.638  10.372 -1.1957  1.8309 -0.7170
  640MPD2    H2 9479   0.504   2.298  10.605 -0.0628  0.2605 -0.7125
  640MPD2    H3 9480   0.633   2.502  10.558  1.3439 -0.3910 -0.5758
  640MPD2     N 9481   0.373   2.635  10.219  0.4305 -0.1962 -0.2929
  640MPD2    H5 9482   0.415   2.727  10.220  1.2630 -0.5638 -1.6098
  640MPD2    N1 9483   0.302   2.207  10.472  0.2968 -0.2539 -0.1999
  640MPD2    H7 9484   0.341   2.144  10.541  2.5748  0.8419 -0.4913
  641TMC3    C1 9485   0.143   2.035  10.448 -0.2472 -0.1638 -0.2208
  641TMC3    C2 9486   0.007   2.017  10.430 -0.1354 -0.4000  0.4208
  641TMC3    C3 9487   4.686   1.892  10.392  0.3160  0.0169 -0.1743
  641TMC3    C4 9488   0.230   1.933  10.419  0.4345 -0.0865 -0.1418
  641TMC3    C5 9489   0.179   1.816  10.375  0.2183 -0.1440  0.1389
  641TMC3    C6 9490   0.049   1.789  10.359  0.0581 -0.0813  0.9833
  641TMC3     C 9491   0.179   2.173  10.422  1.1607  0.0871 -0.4854
  641TMC3     O 9492   0.109   2.222  10.335  0.5335 -0.0357 -0.0100
  641TMC3     H 9493   4.665   2.100  10.452 -0.1975  0.2751 -2.3759
  641TMC3    H1 9494   0.336   1.954  10.414  0.7293 -0.8680  2.6081
  641TMC3    H2 9495   0.011   1.687  10.353  0.0501 -0.0094 -0.2115
  641TMC3    C7 9496   0.265   1.713  10.349 -0.3734 -0.3610  0.2698
  641TMC3    C8 9497   4.539   1.868  10.378  0.1166  1.0003  0.2387
  641TMC3    O1 9498   0.357   1.696  10.429 -0.1128  0.1125 -0.1945
  641TMC3    O2 9499   4.509   1.764  10.323 -0.4259  0.0540  0.6085
  642TMC3    C1 9500   0.089   2.853  12.498  0.5230 -0.0355  0.2837
  642TMC3    C2 9501   0.170   2.849  12.611 -0.2458 -0.0442 -0.0629
  642TMC3    C3 9502   0.183   2.728  12.672 -0.0407  0.1671  0.5518
  642TMC3    C4 9503   0.012   2.753  12.468 -0.2353  0.0278 -0.6888
  642TMC3    C5 9504   0.026   2.633  12.533 -0.9970  0.1353  0.0803
  642TMC3    C6 9505   0.115   2.615  12.634  0.1040 -0.4027  0.0017
  642TMC3     C 9506   0.037   2.976  12.460  0.0848 -0.4882 -0.3637
  642TMC3     O 9507   0.117   3.056  12.412  0.0801 -0.0707  0.0663
  642TMC3     H 9508   0.227   2.939  12.633  0.0611  0.1607 -1.6942
  642TMC3    H1 9509   4.657   2.769  12.397 -0.8664  0.0210  0.0156
  642TMC3    H2 9510   0.125   2.518  12.682 -3.1428 -1.7684 -2.1170
  642TMC3    C7 9511   4.692   2.521  12.466  0.2396  0.4457 -0.0143
  642TMC3    C8 9512   0.249   2.719  12.800 -0.6469  1.0235  0.3655
  642TMC3    O1 9513   4.660   2.535  12.349 -0.5243  0.0331 -0.1360
  642TMC3    O2 9514   0.269   2.607  12.838  0.5559  0.4325 -0.0072
  643TMC3    C1 9515   3.513   1.543   0.391  0.4493 -0.3641  0.4946
  643TMC3    C2 9516   3.387   1.574   0.334 -0.0328  0.0403  0.6853
  643TMC3    C3 9517   3.341   1.502   0.225 -0.1515 -0.3544 -1.0071
  643TMC3    C4 9518   3.603   1.457   0.330 -0.1498  0.2987  0.6061
  643TMC3    C5 9519   3.547   1.382   0.225 -0.1348 -0.0258 -0.2028
  643TMC3    C6 9520   3.414   1.397   0.176 -0.1710  0.4161 -0.5171
  643TMC3     C 9521   3.557   1.634   0.500  0.2004  0.1502  0.0086
  643TMC3     O 9522   3.495   1.736   0.530  0.1508  0.0032  0.1296
  643TMC3     H 9523   3.323   1.655   0.369 -2.5109 -2.2298  1.4430
  643TMC3    H1 9524   3.703   1.443   0.368  0.0081  0.3980  0.2247
  643TMC3    H2 9525   3.392   1.338   0.088  1.0507 -0.5730 -0.1690
  643TMC3    C7 9526   3.636   1.333   0.122 -0.0389  0.4972  0.5808
  643TMC3    C8 9527   3.283   1.564   0.109  0.3145 -0.2827  0.9492
  643TMC3    O1 9528   3.590   1.242   0.051  0.2603 -0.1808 -0.2790
  643TMC3    O2 9529   3.229   1.492   0.028 -0.0443  0.7713  0.4211
  644MPD2     C 9530   4.632   1.436  10.323  0.1021  0.1476 -0.4481
  644MPD2    C1 9531   0.023   1.380  10.280  0.7972  0.4546  0.7122
  644MPD2    C2 9532   0.128   1.365  10.368 -0.6539 -0.4613  0.9895
  644MPD2    C3 9533   0.121   1.392  10.498 -0.6600 -0.8800 -0.2255
  644MPD2    C4 9534   0.001   1.433  10.547 -0.6028 -0.5128  0.0396
  644MPD2    C5 9535   4.614   1.458  10.458 -0.5831 -0.8135  0.3971
  644MPD2     H 9536   0.224   1.328  10.334  0.9562  2.8431  1.8693
  644MPD2    H1 9537   4.706   1.457  10.651  0.0284 -1.1170  0.2972
  644MPD2    H2 9538   4.556   1.466  10.251 -0.3563 -0.1157 -0.0705
  644MPD2    H3 9539   4.522   1.501  10.496 -1.2024 -1.2637 -0.5845
  644MPD2     N 9540   0.238   1.391  10.572 -0.2185  0.9549  0.6261
  644MPD2    H5 9541   0.320   1.362  10.520  0.2702  2.3703  0.5906
  644MPD2    N1 9542   0.040   1.351  10.137  0.1255 -0.1047 -0.2601
  644MPD2    H7 9543   4.693   1.378  10.070  1.6643 -0.6363 -2.1192
  645TMC3    C1 9544   0.373   1.457  10.753  0.3500 -0.3069  0.3676
  645TMC3    C2 9545   0.462   1.512  10.661 -0.3218 -0.0505 -0.7620
  645TMC3    C3 9546   0.579   1.561  10.708 -0.7826 -0.6714  1.3492
  645TMC3    C4 9547   0.409   1.423  10.875 -1.1615  0.0497 -0.7432
  645TMC3    C5 9548   0.541   1.449  10.914 -0.0046  0.7247  0.2375
  645TMC3    C6 9549   0.618   1.537  10.834 -0.0376 -0.0039 -0.2589
  645TMC3     C 9550   0.240   1.410  10.710 -0.1617  0.0051  0.2938
  645TMC3     O 9551   0.151   1.393  10.793 -0.1923 -0.8707  0.1658
  645TMC3     H 9552   0.437   1.534  10.558 -1.9690  0.9216 -0.1549
  645TMC3    H1 9553   0.349   1.359  10.939 -1.6804  0.0890 -1.1826
  645TMC3    H2 9554   0.701   1.594  10.873 -0.5161  0.7319 -0.3077
  645TMC3    C7 9555   0.596   1.431  11.048 -0.1655  0.4680  0.7834
  645TMC3    C8 9556   0.688   1.608  10.620 -0.3209 -0.6463  0.1279
  645TMC3    O1 9557   0.713   1.459  11.059 -0.5069 -0.8276  0.0551
  645TMC3    O2 9558   0.801   1.612  10.666 -0.0106 -0.2014 -0.1722
  646MPD2     C 9559   2.855   1.333  14.758  0.0378  0.5214  0.1499
  646MPD2    C1 9560   2.848   1.427  14.856  0.4846  0.0282 -0.2158
  646MPD2    C2 9561   2.765   1.538  14.849  0.6385  0.1004 -0.9074
  646MPD2    C3 9562   2.674   1.546  14.745 -0.1276  0.1647  0.5114
  646MPD2    C4 9563   2.665   1.441  14.654  0.1635 -0.1182 -0.2078
  646MPD2    C5 9564   2.755   1.343  14.657 -0.0000  0.1993  0.0017
  646MPD2     H 9565   2.758   1.608  14.931  0.0686 -0.0573 -0.8228
  646MPD2    H1 9566   2.602   1.437  14.566 -2.8424  0.9808  1.9183
  646MPD2    H2 9567   2.925   1.250  14.762 -0.3731  0.1277 -0.8276
  646MPD2    H3 9568   2.746   1.268  14.580 -1.2959 -0.2179  0.5464
  646MPD2     N 9569   2.595   1.660  14.732  0.5260  0.0148  0.0556
  646MPD2    H5 9570   2.617   1.738  14.793 -0.8009  1.1759 -0.9596
  646MPD2    N1 9571   2.938   1.412  14.954 -0.4190 -0.3148 -0.1749
  646MPD2    H7 9572   3.006   1.340  14.931  1.1627  0.5088  1.9336
  647TMC3    C1 9573   3.022   1.407  15.179  0.5688 -0.0777  0.2126
  647TMC3    C2 9574   2.970   1.401  15.309  0.4607  0.6472 -1.0116
  647TMC3    C3 9575   3.051   1.343  15.407 -0.2040 -0.1050 -0.3253
  647TMC3    C4 9576   3.138   1.351  15.140  0.4598  0.3868  0.3953
  647TMC3    C5 9577   3.224   1.313  15.238 -0.1185 -0.2112 -0.0050
  647TMC3    C6 9578   3.183   1.309  15.367  0.0377 -0.7794 -0.0474
  647TMC3     C 9579   2.936   1.466  15.078 -0.0926 -0.3852 -1.1919
  647TMC3     O 9580   2.837   1.514  15.132 -0.1318 -0.3062 -0.5155
  647TMC3     H 9581   2.874   1.445  15.335  0.3164 -0.1733 -0.1562
  647TMC3    H1 9582   3.173   1.360  15.038 -1.1637 -0.9178 -0.2753
  647TMC3    H2 9583   3.244   1.269  15.448  1.0071 -0.9163 -0.8519
  647TMC3    C7 9584   3.345   1.234  15.212 -0.1977  0.1445  0.0376
  647TMC3    C8 9585   2.996   1.260  15.512  0.4088 -0.1728  0.5407
  647TMC3    O1 9586   3.430   1.238  15.306  0.3308 -0.4740  0.1927
  647TMC3    O2 9587   3.056   1.252  15.619 -0.0586  0.0389  0.3326
  648TMC3    C1 9588   2.212   3.942  16.030  0.1336  0.0045  0.3455
  648TMC3    C2 9589   2.209   3.812  15.996 -0.0762 -0.3818  0.3808
  648TMC3    C3 9590   2.156   3.783  15.875  0.0222 -0.0832  0.1450
  648TMC3    C4 9591   2.144   4.036  15.959  0.2236  0.2833 -0.0967
  648TMC3    C5 9592   2.086   4.000  15.844  0.8466  0.0192  0.2533
  648TMC3    C6 9593   2.086   3.869  15.802 -0.4626  1.2232  0.0681
  648TMC3     C 9594   2.230   3.981  16.174 -0.4308 -0.3934 -0.0824
  648TMC3     O 9595   2.231   4.102  16.192  0.4681 -0.1543  0.2717
  648TMC3     H 9596   2.256   3.731  16.051  0.2273  0.3867  1.2513
  648TMC3    H1 9597   2.160   4.138  15.993  1.8164  0.4150 -1.2469
  648TMC3    H2 9598   2.047   3.845  15.704 -0.3655 -1.3186  0.6532
  648TMC3    C7 9599   1.962   4.065  15.800 -0.2439 -0.1245 -0.1434
  648TMC3    C8 9600   2.132   3.641  15.856 -0.2877  0.4088  0.1048
  648TMC3    O1 9601   1.916   4.035  15.690  0.0165  0.4486  0.0381
  648TMC3    O2 9602   2.032   3.612  15.792  0.7411  0.2291  0.0426
  649TMC3    C1 9603   2.122   0.123  12.597 -0.1617  0.0003 -0.1567
  649TMC3    C2 9604   2.240   0.198  12.605 -0.1116  0.2899 -0.3293
  649TMC3    C3 9605   2.294   0.220  12.727 -0.4386  0.2497  0.4308
  649TMC3    C4 9606   2.057   0.088  12.710  0.0302  0.3170  0.0079
  649TMC3    C5 9607   2.126   0.100  12.826  0.0973  0.5777 -0.1785
  649TMC3    C6 9608   2.248   0.171  12.842 -0.0578 -1.0004  0.2028
  649TMC3     C 9609   2.053   0.132  12.472  0.3880 -0.0494 -0.5837
  649TMC3     O 9610   1.931   0.149  12.480 -0.6028 -0.5601  0.0803
  649TMC3     H 9611   2.294   0.227  12.516  0.8458 -0.8133 -0.0967
  649TMC3    H1 9612   1.971   0.022  12.703  2.1157 -2.2084 -2.1001
  649TMC3    H2 9613   2.288   0.185  12.942  0.7403  0.3844 -0.3027
  649TMC3    C7 9614   2.082   0.016  12.938 -0.1549 -0.3928  0.0546
  649TMC3    C8 9615   2.405   0.313  12.746 -0.3334 -0.3970  0.3127
  649TMC3    O1 9616   1.968   4.692  12.946 -0.2232  0.3069  0.0485
  649TMC3    O2 9617   2.397   0.373  12.854 -0.0357  0.0408  0.6519
  650TMC3    C1 9618   3.775   1.968  12.919 -0.0956 -0.2404  0.0886
  650TMC3    C2 9619   3.837   2.080  12.964 -0.0692  0.2579  0.0991
  650TMC3    C3 9620   3.882   2.175  12.876 -0.0966  0.2959  0.0977
  650TMC3    C4 9621   3.749   1.944  12.782  0.9104 -0.7620  0.0241
  650TMC3    C5 9622   3.799   2.040  12.697  0.0671 -0.3138  0.5515
  650TMC3    C6 9623   3.864   2.154  12.742  0.1706 -0.3281 -0.0770
  650TMC3     C 9624   3.724   1.866  13.016  0.2584  0.4066  0.1657
  650TMC3     O 9625   3.704   1.898  13.132 -0.1118  0.1946  0.0098
  650TMC3     H 9626   3.854   2.086  13.071  1.1617  2.3533 -0.2282
  650TMC3    H1 9627   3.697   1.860  12.736  3.6199 -2.7960  0.7189
  650TMC3    H2 9628   3.915   2.224  12.677 -0.4757  0.9355  0.7618
  650TMC3    C7 9629   3.745   2.053  12.562  0.0259  0.7833  0.2202
  650TMC3    C8 9630   3.895   2.315  12.908  0.4240 -0.0414  0.4675
  650TMC3    O1 9631   3.729   1.953  12.494 -0.4353  0.2375 -0.0889
  650TMC3    O2 9632   3.914   2.391  12.816 -0.4468 -0.0395 -0.2102
  651MPD2     C 9633   3.134   3.541  10.615  0.1085  0.1127  1.1223
  651MPD2    C1 9634   3.139   3.661  10.676 -0.3193  0.0181  0.2274
  651MPD2    C2 9635   3.258   3.735  10.679  0.1512  0.0000 -0.4362
  651MPD2    C3 9636   3.368   3.685  10.617 -0.1511  0.3006 -0.2357
  651MPD2    C4 9637   3.362   3.564  10.549 -0.0273 -0.2925  0.4342
  651MPD2    C5 9638   3.245   3.488  10.560 -0.3229 -0.6741 -0.4662
  651MPD2     H 9639   3.265   3.832  10.728 -0.8132 -0.2877  0.2770
  651MPD2    H1 9640   3.448   3.530  10.492 -0.5685 -2.3187  0.8352
  651MPD2    H2 9641   3.045   3.479  10.612 -1.5795  2.5871 -0.2027
  651MPD2    H3 9642   3.248   3.387  10.521  0.9953 -0.2625 -1.4383
  651MPD2     N 9643   3.493   3.754  10.631 -0.6272 -0.1912 -0.3892
  651MPD2    H5 9644   3.491   3.845  10.677 -3.5459  0.5592 -2.0030
  651MPD2    N1 9645   3.036   3.718  10.756 -0.1192 -0.1715 -0.0872
  651MPD2    H7 9646   3.058   3.802  10.809 -0.4764  0.9409 -1.6860
  652TMC3    C1 9647   3.904   3.905  10.705 -0.6798 -0.2496 -0.2680
  652TMC3    C2 9648   3.830   3.798  10.652 -0.4497 -0.9241 -0.2470
  652TMC3    C3 9649   3.712   3.832  10.612  0.6306  0.4008 -0.0432
  652TMC3    C4 9650   3.858   4.034  10.709  0.1509  0.3644 -0.5980
  652TMC3    C5 9651   3.731   4.059  10.662 -0.5177  0.2382  0.0655
  652TMC3    C6 9652   3.658   3.953  10.618  0.8382 -0.4300  0.3428
  652TMC3     C 9653   4.033   3.877  10.735  0.2928  0.0102  0.0306
  652TMC3     O 9654   4.053   3.788  10.819  0.1992  0.0029 -0.5705
  652TMC3     H 9655   3.862   3.696  10.670 -0.3549 -0.6530  1.1748
  652TMC3    H1 9656   3.920   4.107  10.759 -0.4255  1.0576 -0.8987
  652TMC3    H2 9657   3.566   3.973  10.563  0.6231  1.8013  1.4918
  652TMC3    C7 9658   3.663   4.184  10.697 -0.2564 -0.4866  0.3664
  652TMC3    C8 9659   3.615   3.726  10.581 -0.1731 -0.0988 -0.0564
  652TMC3    O1 9660   3.542   4.167  10.696 -0.0238 -0.4794  0.4867
  652TMC3    O2 9661   3.653   3.638  10.505 -0.4685 -0.8276 -0.3010
  653MPD2     C 9662   1.848   3.803   0.073 -0.2868 -0.4950  0.6653
  653MPD2    C1 9663   1.746   3.888   0.037 -0.2410 -0.0795  0.4223
  653MPD2    C2 9664   1.643   3.836  17.654  0.4011 -0.8564 -0.2749
  653MPD2    C3 9665   1.639   3.698  17.622  0.4421  0.7223 -0.3539
  653MPD2    C4 9666   1.743   3.619  17.669 -0.6550  0.0609  0.5164
  653MPD2    C5 9667   1.847   3.675   0.034  0.1244 -0.5807  0.0534
  653MPD2     H 9668   1.561   3.896  17.614  1.5836 -0.2124 -1.7546
  653MPD2    H1 9669   1.750   3.512  17.652 -1.2018  0.2959 -1.1638
  653MPD2    H2 9670   1.923   3.847   0.138  0.6989 -1.6633  0.3234
  653MPD2    H3 9671   1.923   3.608   0.073 -0.6539 -1.3585  0.2421
  653MPD2     N 9672   1.527   3.652  17.550  0.8013 -0.2470 -0.3815
  653MPD2    H5 9673   1.459   3.725  17.532 -0.6488 -2.0986 -2.4181
  653MPD2    N1 9674   1.752   4.025   0.066  0.0551  0.5429  0.2505
  653MPD2    H7 9675   1.679   4.080   0.023 -0.5302 -1.4962 -1.3960
  654TMC3    C1 9676   1.395   3.494  17.418 -0.3997 -0.0254 -0.0148
  654TMC3    C2 9677   1.321   3.594  17.365  0.1615  0.1583  0.5403
  654TMC3    C3 9678   1.228   3.569  17.265 -0.2999 -0.5540 -0.3458
  654TMC3    C4 9679   1.391   3.362  17.370 -1.0630 -0.4727  0.7202
  654TMC3    C5 9680   1.297   3.342  17.281 -0.0213  0.2495 -0.4438
  654TMC3    C6 9681   1.211   3.437  17.230  0.2895 -0.7917 -0.3912
  654TMC3     C 9682   1.509   3.521  17.508  0.1715 -0.2730  0.2740
  654TMC3     O 9683   1.576   3.425  17.539 -0.2458  0.4579  0.1207
  654TMC3     H 9684   1.326   3.700  17.390 -3.4965  1.0992 -2.7355
  654TMC3    H1 9685   1.455   3.282  17.405 -0.4906  0.2709  1.3701
  654TMC3    H2 9686   1.128   3.407  17.167  0.4816 -1.2153 -0.4410
  654TMC3    C7 9687   1.308   3.225  17.196  0.3772  0.1031  0.5623
  654TMC3    C8 9688   1.132   3.670  17.227  0.3014 -0.2164 -0.6966
  654TMC3    O1 9689   1.275   3.237  17.080 -0.1073 -0.0902 -0.2171
  654TMC3    O2 9690   1.107   3.758  17.307 -0.0076 -0.4682 -0.3838
  655MPD2     C 9691   2.741   4.062  16.301  0.3793 -0.3251  0.4443
  655MPD2    C1 9692   2.659   4.104  16.196 -0.3149  0.0487  0.6049
  655MPD2    C2 9693   2.665   4.020  16.092 -0.1111 -0.3480 -0.3272
  655MPD2    C3 9694   2.736   3.896  16.093 -0.3384  0.6213  0.1808
  655MPD2    C4 9695   2.825   3.867  16.197  0.1580  0.7710 -0.2752
  655MPD2    C5 9696   2.824   3.958  16.300 -0.2726 -0.1259  0.3623
  655MPD2     H 9697   2.613   4.047  16.001  1.7565  0.7248 -1.0866
  655MPD2    H1 9698   2.888   3.779  16.201 -0.5121  0.3082  0.1239
  655MPD2    H2 9699   2.748   4.126  16.388 -1.8565  0.0448  0.3529
  655MPD2    H3 9700   2.879   3.930  16.389 -2.3755 -0.3279  1.5889
  655MPD2     N 9701   2.721   3.803  15.985 -0.4267  0.0255 -0.4781
  655MPD2    H5 9702   2.770   3.715  15.993 -1.7215 -0.6153  0.3789
  655MPD2    N1 9703   2.571   4.213  16.185 -0.0902 -0.2005 -0.6866
  655MPD2    H7 9704   2.505   4.216  16.107 -0.8587 -0.6507 -0.0561
  656TMC3    C1 9705   2.457   4.403  16.236 -0.1572  0.4435  0.0476
  656TMC3    C2 9706   2.358   4.427  16.331  0.6125  0.9375 -0.0298
  656TMC3    C3 9707   2.226   4.429  16.285 -0.2597  1.4113  0.4781
  656TMC3    C4 9708   2.426   4.378  16.100  0.8873 -0.1321  0.1965
  656TMC3    C5 9709   2.303   4.413  16.062 -0.0504  0.2740  0.1802
  656TMC3    C6 9710   2.198   4.435  16.152  0.2893  0.5862 -0.1313
  656TMC3     C 9711   2.545   4.298  16.287 -0.3683  0.1195 -0.5364
  656TMC3     O 9712   2.596   4.311  16.396  0.2389  0.4447 -0.0424
  656TMC3     H 9713   2.377   4.426  16.437  1.4522 -1.5104 -0.2294
  656TMC3    H1 9714   2.508   4.375  16.029  0.1816  2.3232 -0.7233
  656TMC3    H2 9715   2.096   4.451  16.118 -0.8303 -1.3553  2.3205
  656TMC3    C7 9716   2.271   4.374  15.919 -0.3091 -0.3091 -0.5199
  656TMC3    C8 9717   2.125   4.369  16.379 -0.5065 -0.2682 -0.3183
  656TMC3    O1 9718   2.346   4.289  15.877  0.3920  0.0064  0.5895
  656TMC3    O2 9719   2.163   4.321  16.486 -0.1510 -0.4858  0.5904
  657TMC3    C1 9720   1.764   3.397  15.213  0.4020  0.4924  0.9994
  657TMC3    C2 9721   1.699   3.367  15.328 -0.5622 -0.2493 -0.4231
  657TMC3    C3 9722   1.596   3.450  15.366  0.5359 -0.7174  0.3041
  657TMC3    C4 9723   1.735   3.509  15.139 -0.6944  0.6146 -0.0619
  657TMC3    C5 9724   1.639   3.590  15.193 -0.5207 -0.2668  0.0366
  657TMC3    C6 9725   1.560   3.559  15.300  0.0157 -0.2249 -0.5859
  657TMC3     C 9726   1.843   3.290  15.147  0.6795 -0.5556 -1.2449
  657TMC3     O 9727   1.912   3.333  15.055  0.2006 -0.0945  0.0261
  657TMC3     H 9728   1.725   3.281  15.389 -1.5620  0.7091  1.3626
  657TMC3    H1 9729   1.782   3.527  15.044  2.9448 -0.0726  1.6137
  657TMC3    H2 9730   1.497   3.635  15.344  3.3910  2.0531  0.3712
  657TMC3    C7 9731   1.611   3.716  15.128  0.0770 -0.3373  0.0766
  657TMC3    C8 9732   1.541   3.421  15.501 -0.0092 -0.1441  0.9114
  657TMC3    O1 9733   1.502   3.768  15.155  0.9376 -0.1369 -0.1453
  657TMC3    O2 9734   1.601   3.336  15.564 -0.1872  0.4428 -0.2485
  658MPD2     C 9735   2.976   3.264  15.364 -0.0837  0.8573 -0.7841
  658MPD2    C1 9736   2.941   3.389  15.405 -0.2431 -0.5683 -1.1601
  658MPD2    C2 9737   2.953   3.493  15.315 -0.4047 -0.0151 -0.9598
  658MPD2    C3 9738   2.989   3.467  15.188 -0.8477 -0.3288  0.6298
  658MPD2    C4 9739   3.029   3.345  15.145 -0.5594 -0.3648  0.3174
  658MPD2    C5 9740   3.023   3.241  15.231  0.2352 -0.3920  0.1044
  658MPD2     H 9741   2.919   3.593  15.340  2.3651  0.9941 -1.2364
  658MPD2    H1 9742   3.068   3.318  15.048 -1.3594  0.5756 -0.2763
  658MPD2    H2 9743   2.970   3.177  15.428  0.9337  0.6329 -0.9949
  658MPD2    H3 9744   3.052   3.140  15.204 -1.0021 -0.5558 -0.6131
  658MPD2     N 9745   2.982   3.580  15.106  0.1050 -0.2422  0.1324
  658MPD2    H5 9746   2.937   3.662  15.144  2.2389  1.5826 -1.1992
  658MPD2    N1 9747   2.888   3.405  15.531  0.1060  0.4218  0.1806
  658MPD2    H7 9748   2.873   3.323  15.589 -1.1838 -0.6371 -1.6712
  659TMC3    C1 9749   2.763   3.519  15.693  0.3654 -0.2587 -0.6735
  659TMC3    C2 9750   2.769   3.628  15.775  0.4247 -0.6322  0.1020
  659TMC3    C3 9751   2.657   3.704  15.783  0.2412  0.3356 -0.0717
  659TMC3    C4 9752   2.645   3.475  15.642  0.8109  0.2048  0.3904
  659TMC3    C5 9753   2.540   3.565  15.641  0.5790  0.4589  0.3942
  659TMC3    C6 9754   2.542   3.677  15.713 -0.7216 -0.2222 -0.2229
  659TMC3     C 9755   2.854   3.525  15.587  0.0931 -0.9910  0.4451
  659TMC3     O 9756   2.875   3.639  15.547 -0.3858  0.7442  0.4355
  659TMC3     H 9757   2.861   3.662  15.821  0.5106 -0.0073 -0.5354
  659TMC3    H1 9758   2.659   3.403  15.562 -1.6129  0.6279 -0.4078
  659TMC3    H2 9759   2.456   3.742  15.717 -1.2337 -0.9842  0.8750
  659TMC3    C7 9760   2.472   3.583  15.512  0.4284 -0.8226  0.0292
  659TMC3    C8 9761   2.651   3.820  15.862  0.2243 -0.1750 -0.1260
  659TMC3    O1 9762   2.361   3.634  15.525 -0.2902 -0.0727 -0.4746
  659TMC3    O2 9763   2.564   3.899  15.838  0.1143 -0.6751 -0.2769
  660MPD2     C 9764   1.304   2.430  12.879  0.5054  0.3022 -0.2021
  660MPD2    C1 9765   1.211   2.530  12.908 -0.2375  0.8274  0.6996
  660MPD2    C2 9766   1.131   2.498  13.017  0.4050  0.0552 -0.0937
  660MPD2    C3 9767   1.127   2.368  13.073 -0.5481 -0.1510  1.0349
  660MPD2    C4 9768   1.214   2.267  13.028  0.1680 -0.2973  0.2351
  660MPD2    C5 9769   1.313   2.312  12.943  0.1187 -1.1224  0.1001
  660MPD2     H 9770   1.056   2.566  13.055 -0.4596 -1.6888  1.3320
  660MPD2    H1 9771   1.212   2.163  13.059 -1.0250 -0.3880 -0.1675
  660MPD2    H2 9772   1.379   2.456  12.805  0.4697  2.1713  0.4138
  660MPD2    H3 9773   1.407   2.257  12.943  0.4339 -0.5850  0.4994
  660MPD2     N 9774   1.038   2.334  13.177  0.3296  0.0827 -1.1451
  660MPD2    H5 9775   1.040   2.236  13.204 -1.5087 -0.1319 -1.7495
  660MPD2    N1 9776   1.205   2.648  12.833  0.0632  1.0569 -0.1738
  660MPD2    H7 9777   1.276   2.660  12.762  0.6091  1.1993  0.3876
  661TMC3    C1 9778   1.123   2.861  12.744 -0.2007  0.9611 -0.1181
  661TMC3    C2 9779   1.200   2.839  12.633  0.1536  0.6068  0.2009
  661TMC3    C3 9780   1.179   2.919  12.520 -0.0122  0.2785  0.0873
  661TMC3    C4 9781   1.022   2.946  12.738 -0.1532  0.1086 -0.4911
  661TMC3    C5 9782   1.006   3.021  12.628 -0.3847 -0.2130  0.0911
  661TMC3    C6 9783   1.075   3.008  12.511 -0.3682 -0.6013 -0.1669
  661TMC3     C 9784   1.110   2.755  12.849  0.4070  0.7453  0.1712
  661TMC3     O 9785   1.036   2.785  12.941 -0.1558  0.2764  0.0326
  661TMC3     H 9786   1.290   2.778  12.634 -0.3418 -0.1418 -2.3967
  661TMC3    H1 9787   0.948   2.957  12.816  1.7254 -0.2610  1.3202
  661TMC3    H2 9788   1.046   3.065  12.424 -2.0047 -1.5430 -0.2230
  661TMC3    C7 9789   0.874   3.060  12.616 -0.3460  0.1258  0.5254
  661TMC3    C8 9790   1.238   2.863  12.396  0.1597  0.8762 -0.0618
  661TMC3    O1 9791   0.827   3.119  12.710 -0.7171 -0.0858  0.0912
  661TMC3    O2 9792   1.309   2.767  12.416 -0.2929  0.6339 -0.0265
  662MPD2     C 9793   1.114   2.588  17.292  0.5025  0.5561  0.2951
  662MPD2    C1 9794   1.005   2.547  17.359 -0.0962 -0.0685 -0.8213
  662MPD2    C2 9795   0.894   2.641  17.370 -0.0850 -0.2226 -0.4908
  662MPD2    C3 9796   0.904   2.766  17.315  0.0877  0.3883 -0.2216
  662MPD2    C4 9797   1.020   2.801  17.255 -1.0157 -0.1334  0.2259
  662MPD2    C5 9798   1.124   2.721  17.242  0.0564 -1.1187 -0.3672
  662MPD2     H 9799   0.803   2.612  17.422 -0.0918  1.7412  0.6009
  662MPD2    H1 9800   1.031   2.898  17.206  1.0675 -0.6209 -0.2599
  662MPD2    H2 9801   1.204   2.528  17.283 -1.0400 -1.3571 -2.4545
  662MPD2    H3 9802   1.212   2.763  17.196  0.7796  0.7894  2.7616
  662MPD2     N 9803   0.790   2.855  17.327  0.2473  0.0083  0.5187
  662MPD2    H5 9804   0.805   2.950  17.294  1.4824 -0.0156  1.0048
  662MPD2    N1 9805   0.994   2.418  17.420  0.0914 -0.0323  0.8068
  662MPD2    H7 9806   0.913   2.396  17.477  0.5534 -1.8418  0.7806
  663TMC3    C1 9807   1.039   2.204  17.490 -0.9433  0.4304  0.1152
  663TMC3    C2 9808   0.981   2.238  17.608  0.1038 -0.1329 -0.2259
  663TMC3    C3 9809   0.924   2.143  17.689  0.5175  0.3171  0.9909
  663TMC3    C4 9810   1.062   2.076  17.444 -0.3473 -0.0572  0.1623
  663TMC3    C5 9811   1.003   1.984  17.530 -0.1594  0.6588  0.2964
  663TMC3    C6 9812   0.925   2.010  17.647  0.4060  0.4150 -0.0834
  663TMC3     C 9813   1.080   2.318  17.405 -0.3764  0.4618 -0.0114
  663TMC3     O 9814   1.171   2.292  17.325 -0.2104  1.0670 -0.0719
  663TMC3     H 9815   0.988   2.339  17.647 -1.4545  0.0049 -0.2900
  663TMC3    H1 9816   1.117   2.048  17.355  1.8647  0.6180  1.3266
  663TMC3    H2 9817   0.897   1.944   0.029  2.8569  0.3406  0.6959
  663TMC3    C7 9818   1.068   1.853  17.507  0.4063 -0.4963  0.3524
  663TMC3    C8 9819   0.794   2.192   0.040 -0.0834 -0.2172  0.4038
  663TMC3    O1 9820   1.162   1.845  17.433 -0.1672  0.2396  0.2894
  663TMC3    O2 9821   0.771   2.311   0.009  0.7440 -0.1035 -0.6424
  664MPD2     C 9822   3.828   0.376  17.356 -0.0240  0.0438 -0.2122
  664MPD2    C1 9823   3.899   0.441  17.457 -0.4025 -0.6423  0.7740
  664MPD2    C2 9824   3.901   0.379  17.580  0.1173 -0.2261 -0.2699
  664MPD2    C3 9825   3.820   0.270  17.607  1.0952  0.0267  0.4506
  664MPD2    C4 9826   3.752   0.209  17.508 -0.4779  0.7283  0.4254
  664MPD2    C5 9827   3.762   0.257  17.378 -0.0074 -0.2816  0.2415
  664MPD2     H 9828   3.954   0.430  17.660 -1.4020  1.7826 -0.5607
  664MPD2    H1 9829   3.691   0.122  17.528 -0.3880  0.2323 -1.4398
  664MPD2    H2 9830   3.829   0.413  17.254  1.5568 -1.6583 -0.8116
  664MPD2    H3 9831   3.727   0.212  17.286  2.8942 -0.8047 -0.5981
  664MPD2     N 9832   3.819   0.217   0.039 -0.5000  0.7612  0.2054
  664MPD2    H5 9833   3.885   0.256   0.106 -0.8475 -0.4126  1.2253
  664MPD2    N1 9834   3.982   0.559  17.437  0.1662 -0.7775 -0.1879
  664MPD2    H7 9835   4.044   0.591  17.510  2.4886 -1.8930 -1.6828
  665TMC3    C1 9836   3.756   0.110   0.233  0.1530  0.5908 -0.3304
  665TMC3    C2 9837   3.702   4.723   0.300  0.0108 -0.9710  0.8310
  665TMC3    C3 9838   3.628   0.019   0.409  0.1937  0.3668 -0.3868
  665TMC3    C4 9839   3.730   0.234   0.279 -0.1559 -0.1748 -0.0340
  665TMC3    C5 9840   3.683   0.247   0.409  0.0023  0.5414  0.3722
  665TMC3    C6 9841   3.625   0.142   0.478  0.4146  0.5478  0.0153
  665TMC3     C 9842   3.752   0.107   0.091  0.0181 -0.6587 -0.7054
  665TMC3     O 9843   3.695   0.010   0.048  0.2216 -0.2127  0.0160
  665TMC3     H 9844   3.706   4.628   0.249  0.5878  0.2108 -1.3730
  665TMC3    H1 9845   3.779   0.320   0.234  0.2906 -0.1052  0.5884
  665TMC3    H2 9846   3.571   0.158   0.571  0.0319 -1.2420  0.1015
  665TMC3    C7 9847   3.618   0.374   0.429 -0.4769  0.6808 -0.3616
  665TMC3    C8 9848   3.545   4.640   0.465 -0.6624 -0.2325  0.4861
  665TMC3    O1 9849   3.615   0.456   0.335 -0.5959 -0.0335  0.7615
  665TMC3    O2 9850   3.489   4.675   0.567 -0.4476 -0.0538 -0.0018
  666TMC3    C1 9851   4.493   0.694  10.331 -0.4310  0.4486 -0.0031
  666TMC3    C2 9852   4.522   0.685  10.458 -0.4330  0.0876  0.5836
  666TMC3    C3 9853   4.412   0.698  10.542 -0.7058 -0.0447  0.1063
  666TMC3    C4 9854   4.376   0.754  10.280  0.0979 -0.4819  0.0738
  666TMC3    C5 9855   4.271   0.784  10.368  0.2429 -0.0045 -0.1540
  666TMC3    C6 9856   4.291   0.757  10.501  0.5372 -0.5688  0.1470
  666TMC3     C 9857   4.572   0.620  10.233 -0.3760  0.0149  0.5490
  666TMC3     O 9858   4.681   0.592  10.271 -0.8008  0.3906 -0.2983
  666TMC3     H 9859   4.616   0.636  10.483 -0.0777 -0.4189 -1.7984
  666TMC3    H1 9860   4.366   0.772  10.173 -0.0521  0.5267  0.2612
  666TMC3    H2 9861   4.222   0.760  10.585  1.6223 -2.1429  1.1070
  666TMC3    C7 9862   4.145   0.844  10.333 -0.0412  0.3413  0.0609
  666TMC3    C8 9863   4.409   0.601  10.655 -0.2596  0.6409  0.4256
  666TMC3    O1 9864   4.066   0.846  10.426  0.1168  0.4184 -0.1706
  666TMC3    O2 9865   4.301   0.554  10.690  0.1426 -0.3424 -0.2084
  667MPD2     C 9866   4.579   0.442  14.818  0.0151  0.3415  0.0271
  667MPD2    C1 9867   4.509   0.528  14.900  0.5012  0.2443  0.3840
  667MPD2    C2 9868   4.376   0.496  14.928 -0.6771 -0.8524  0.0380
  667MPD2    C3 9869   4.309   0.381  14.883  0.0773 -0.0400 -0.2281
  667MPD2    C4 9870   4.374   0.306  14.791  0.7013  0.1364 -0.3354
  667MPD2    C5 9871   4.507   0.336  14.759 -1.1540  0.0794 -0.3880
  667MPD2     H 9872   4.331   0.557  15.006 -1.2498 -0.5162 -0.5608
  667MPD2    H1 9873   4.323   0.218  14.754 -2.7061  0.9243  2.4469
  667MPD2    H2 9874   4.687   0.448  14.810 -0.1141 -0.1770 -1.9379
  667MPD2    H3 9875   4.565   0.268  14.696  0.0393 -0.6386  1.4817
  667MPD2     N 9876   4.181   0.351  14.924 -0.0558  0.1684 -0.1213
  667MPD2    H5 9877   4.143   0.261  14.896  0.3691 -0.3647  0.9880
  667MPD2    N1 9878   4.566   0.636  14.966 -0.0510  0.3758  0.0986
  667MPD2    H7 9879   4.511   0.687  15.034 -2.7414 -0.6729 -1.2740
  668TMC3    C1 9880   4.705   0.804  15.029  0.5054  0.2438  0.2299
  668TMC3    C2 9881   0.058   0.910  14.988  0.4334  0.1158 -0.0786
  668TMC3    C3 9882   0.100   0.990  15.091  0.5019  0.2825  0.0653
  668TMC3    C4 9883   4.665   0.781  15.164 -0.4719 -0.0996 -0.5372
  668TMC3    C5 9884   4.711   0.866  15.261  1.0926 -0.8035 -0.6154
  668TMC3    C6 9885   0.071   0.970  15.225 -0.0992 -0.4519  0.5440
  668TMC3     C 9886   4.681   0.700  14.937 -0.1114 -0.6174 -0.0611
  668TMC3     O 9887   0.035   0.681  14.845  0.4524  0.2963  0.2971
  668TMC3     H 9888   0.072   0.924  14.882 -0.0409  2.3235  0.1494
  668TMC3    H1 9889   4.593   0.705  15.193 -0.1632  0.0670  0.6732
  668TMC3    H2 9890   0.112   1.037  15.299  0.2238  0.5053 -0.5090
  668TMC3    C7 9891   4.710   0.832  15.405 -0.1955 -0.9051 -0.0606
  668TMC3    C8 9892   0.173   1.113  15.059  0.3723 -0.3041  0.0865
  668TMC3    O1 9893   0.070   0.900  15.467  0.3033 -0.1789  0.2790
  668TMC3    O2 9894   0.188   1.192  15.155 -0.1602  0.0869  0.3710
  669TMC3    C1 9895   2.309   0.646  14.683  0.0160 -0.2165  0.1678
  669TMC3    C2 9896   2.193   0.647  14.598 -0.0490  0.0792  0.8099
  669TMC3    C3 9897   2.151   0.763  14.533  0.6164  0.5925 -0.0909
  669TMC3    C4 9898   2.402   0.750  14.677 -0.2776  0.3205 -0.2135
  669TMC3    C5 9899   2.375   0.844  14.582 -0.1681 -0.1023 -0.4645
  669TMC3    C6 9900   2.255   0.858  14.517 -0.4430 -0.3079 -0.7205
  669TMC3     C 9901   2.308   0.546  14.785 -0.3038 -0.2159  0.5034
  669TMC3     O 9902   2.203   0.498  14.818 -0.1163 -0.1976  0.6352
  669TMC3     H 9903   2.132   0.559  14.581  1.8280 -1.3589  1.4165
  669TMC3    H1 9904   2.491   0.748  14.738 -1.1236 -0.3974  0.9847
  669TMC3    H2 9905   2.231   0.952  14.468  0.2971 -0.1408 -0.7530
  669TMC3    C7 9906   2.489   0.904  14.518  0.7587  0.1557 -0.0136
  669TMC3    C8 9907   2.050   0.755  14.435 -0.0344  0.9039 -0.3587
  669TMC3    O1 9908   2.594   0.886  14.577  0.3552 -0.3103  0.1120
  669TMC3    O2 9909   2.033   0.645  14.383  0.1383 -0.2397  0.3389
  670MPD2     C 9910   0.450   3.403  13.827  0.6899 -0.0744  0.2638
  670MPD2    C1 9911   0.560   3.448  13.890 -0.1181 -0.4341  0.0223
  670MPD2    C2 9912   0.633   3.370  13.978 -0.2187 -0.0755  0.1383
  670MPD2    C3 9913   0.578   3.249  14.014  1.2406  0.2819  0.1563
  670MPD2    C4 9914   0.459   3.199  13.953  0.4509  0.3791 -0.5033
  670MPD2    C5 9915   0.405   3.277  13.853  0.3591  0.5106 -0.2406
  670MPD2     H 9916   0.732   3.401  14.009  0.0431  1.4758 -2.2076
  670MPD2    H1 9917   0.404   3.106  13.966  0.4831  0.7396  2.3664
  670MPD2    H2 9918   0.394   3.461  13.755  0.3335 -0.2489  0.4027
  670MPD2    H3 9919   0.319   3.236  13.802  1.3541 -0.1103 -1.4293
  670MPD2     N 9920   0.642   3.184  14.118 -0.1767  0.4501  0.5529
  670MPD2    H5 9921   0.738   3.217  14.129  0.2293 -0.7115  0.4654
  670MPD2    N1 9922   0.613   3.578  13.857 -0.6606  0.1399  0.0525
  670MPD2    H7 9923   0.690   3.613  13.913  1.3730  1.4391 -3.5531
  671TMC3    C1 9924   0.684   3.022  14.285  0.7630 -0.1303 -0.1587
  671TMC3    C2 9925   0.771   3.107  14.353  0.0340  0.0942 -0.5877
  671TMC3    C3 9926   0.831   3.068  14.466  0.3841 -0.0696  0.1569
  671TMC3    C4 9927   0.646   2.906  14.338 -0.7981 -0.0881  0.1021
  671TMC3    C5 9928   0.700   2.866  14.460  0.4613  0.2808 -0.1518
  671TMC3    C6 9929   0.782   2.953  14.529 -0.6757  0.3178  0.2439
  671TMC3     C 9930   0.596   3.074  14.182 -0.1299 -0.6663 -0.3054
  671TMC3     O 9931   0.499   3.004  14.163 -0.1875 -0.2795  0.5071
  671TMC3     H 9932   0.811   3.192  14.299 -0.8707  1.7497  1.3580
  671TMC3    H1 9933   0.583   2.840  14.278 -0.1273  0.4140 -1.1416
  671TMC3    H2 9934   0.842   2.924  14.615  0.6214 -2.1921 -1.5088
  671TMC3    C7 9935   0.733   2.731  14.479 -0.3551 -0.3559 -0.2781
  671TMC3    C8 9936   0.972   3.070  14.443  0.2364  0.1439  0.4929
  671TMC3    O1 9937   0.838   2.702  14.536 -0.4425 -0.1458 -0.2639
  671TMC3    O2 9938   1.015   3.087  14.329  0.3590 -0.5785  0.6177
  672MPD2     C 9939   1.378   2.984   1.209  0.6883  0.0508  0.6753
  672MPD2    C1 9940   1.510   2.988   1.160  1.1378 -0.3831 -0.0090
  672MPD2    C2 9941   1.610   3.048   1.239 -0.1203  0.4877 -0.0081
  672MPD2    C3 9942   1.582   3.108   1.361  0.5920  0.1816 -0.2222
  672MPD2    C4 9943   1.440   3.100   1.406  0.7762  0.0775 -0.1764
  672MPD2    C5 9944   1.343   3.039   1.329 -0.2874  0.0479  0.4694
  672MPD2     H 9945   1.717   3.039   1.221 -0.3478 -0.3118 -0.9214
  672MPD2    H1 9946   1.404   3.149   1.495 -1.2041  1.6643 -1.8317
  672MPD2    H2 9947   1.294   2.938   1.159  0.5594  0.8443  0.1738
  672MPD2    H3 9948   1.244   3.037   1.372 -0.2508  1.7700  0.6586
  672MPD2     N 9949   1.691   3.169   1.429  0.4975  0.8535  0.1604
  672MPD2    H5 9950   1.783   3.164   1.386  0.6623  1.3854  0.4451
  672MPD2    N1 9951   1.546   2.930   1.037 -0.1616  0.3417  0.0847
  672MPD2    H7 9952   1.642   2.907   1.013  0.4317  0.8605  1.8877
  673TMC3    C1 9953   1.515   2.887   0.812 -0.2406  1.3565  0.7187
  673TMC3    C2 9954   1.613   2.788   0.824 -0.2516  0.7549 -0.5217
  673TMC3    C3 9955   1.683   2.757   0.711 -0.1588  0.1194  0.1459
  673TMC3    C4 9956   1.507   2.974   0.702  0.6552  0.9634 -0.0686
  673TMC3    C5 9957   1.600   2.951   0.606  1.0534  0.1332  0.1548
  673TMC3    C6 9958   1.681   2.843   0.601  0.1717 -0.2097 -0.1882
  673TMC3     C 9959   1.451   2.928   0.935  0.2405  0.2828 -0.8834
  673TMC3     O 9960   1.342   2.986   0.928  0.4772  0.5761  0.2877
  673TMC3     H 9961   1.614   2.714   0.903 -3.3402 -0.9224 -2.0859
  673TMC3    H1 9962   1.421   3.040   0.693 -0.1387 -0.0551  0.0238
  673TMC3    H2 9963   1.764   2.835   0.531 -0.2516 -1.2617 -0.5813
  673TMC3    C7 9964   1.603   3.024   0.480  0.1838  0.5955 -0.5016
  673TMC3    C8 9965   1.801   2.675   0.744 -0.0871  0.3615  0.0668
  673TMC3    O1 9966   1.628   2.971   0.375  0.4824  0.5394 -0.3580
  673TMC3    O2 9967   1.829   2.673   0.866 -0.4499 -0.1163 -0.2465
  674MPD2     C 9968   1.174   2.784   0.692  0.2134 -0.5852  0.4392
  674MPD2    C1 9969   1.198   2.873   0.593  0.2789  0.0122 -0.0236
  674MPD2    C2 9970   1.147   3.001   0.610  0.6912  0.0697  1.2392
  674MPD2    C3 9971   1.055   3.031   0.713  0.1148 -0.1561 -0.7969
  674MPD2    C4 9972   1.024   2.938   0.813 -0.5166  0.1609 -0.1233
  674MPD2    C5 9973   1.091   2.814   0.797  0.5724 -0.4113  0.1210
  674MPD2     H 9974   1.172   3.087   0.549 -1.7121 -0.9154 -1.1820
  674MPD2    H1 9975   0.953   2.955   0.893 -0.2232 -2.1082  0.6212
  674MPD2    H2 9976   1.210   2.682   0.682 -0.6519 -0.7049 -1.4338
  674MPD2    H3 9977   1.072   2.745   0.878 -2.7830  1.5902  1.0357
  674MPD2     N 9978   1.012   3.164   0.710 -0.7508 -0.3378 -0.4324
  674MPD2    H5 9979   1.037   3.213   0.624 -0.3424  2.3616  1.2077
  674MPD2    N1 9980   1.282   2.835   0.481  0.8029  0.2837 -0.2771
  674MPD2    H7 9981   1.332   2.747   0.491  0.2348  0.0728  0.6763
  675TMC3    C1 9982   1.328   2.810   0.263 -0.5528 -0.3327  0.1279
  675TMC3    C2 9983   1.272   2.682   0.249  0.2923 -0.0358  0.2159
  675TMC3    C3 9984   1.311   2.611   0.139 -0.0000  0.2517 -0.1524
  675TMC3    C4 9985   1.410   2.866   0.168 -0.1405  0.5864  0.0642
  675TMC3    C5 9986   1.444   2.789   0.058 -0.0965 -0.3605 -0.0243
  675TMC3    C6 9987   1.392   2.662   0.045 -0.8630 -0.2713  0.8642
  675TMC3     C 9988   1.281   2.897   0.366  0.3771  0.6372 -0.5298
  675TMC3     O 9989   1.282   3.018   0.343  0.3940  0.1453 -0.4167
  675TMC3     H 9990   1.223   2.631   0.332  0.9073 -1.2901 -0.1974
  675TMC3    H1 9991   1.449   2.966   0.179 -1.7094  1.1330  0.6717
  675TMC3    H2 9992   1.445   2.601  17.672  2.9662  0.6900  2.8613
  675TMC3    C7 9993   1.581   2.792   0.008  0.3950  0.4655  0.5819
  675TMC3    C8 9994   1.304   2.464   0.153 -0.6371 -0.9607 -0.4443
  675TMC3    O1 9995   1.595   2.765  17.589 -0.5344 -0.4803 -0.3568
  675TMC3    O2 9996   1.411   2.414   0.124 -0.3867  0.4780 -0.3957
  676MPD2     C 9997   4.096   1.776  11.232  0.0611  0.3922 -0.1007
  676MPD2    C1 9998   4.003   1.730  11.321  0.3728  0.4925 -0.0458
  676MPD2    C2 9999   3.990   1.596  11.332 -0.3288  0.3344  0.0102
  676MPD2    C310000   4.070   1.506  11.277 -0.0786 -0.4215  0.0934
  676MPD2    C410001   4.167   1.550  11.194 -1.2540 -0.4419 -1.1272
  676MPD2    C510002   4.182   1.684  11.185 -1.1878  0.7607  0.3098
  676MPD2     H10003   3.913   1.553  11.395  0.0341 -0.1372  0.1339
  676MPD2    H110004   4.240   1.482  11.150 -2.1030 -1.6860 -0.6331
  676MPD2    H210005   4.105   1.882  11.211  4.0889  0.1976  0.7338
  676MPD2    H310006   4.258   1.722  11.117  1.2020 -0.8842  2.0789
  676MPD2     N10007   4.065   1.364  11.310 -0.3741 -0.0868  0.2637
  676MPD2    H510008   4.136   1.301  11.275  0.3679  0.7347  0.2795
  676MPD2    N110009   3.908   1.811  11.387 -0.1116 -0.0700 -0.1412
  676MPD2    H710010   3.831   1.763  11.432 -0.5076 -0.8450 -1.6544
  677TMC3    C110011   3.822   2.001  11.501 -0.4987 -0.1679  0.0772
  677TMC3    C210012   3.691   1.953  11.492  0.1026 -0.7135  0.5636
  677TMC3    C310013   3.604   2.001  11.586 -0.7815  0.0461  0.7651
  677TMC3    C410014   3.846   2.102  11.592  0.0559 -0.1313  0.2645
  677TMC3    C510015   3.748   2.159  11.675 -0.3071 -0.4289 -0.0551
  677TMC3    C610016   3.621   2.104  11.673 -0.0242 -0.1878 -0.4816
  677TMC3     C10017   3.924   1.947  11.414  0.7300  0.0536 -0.1329
  677TMC3     O10018   3.995   2.031  11.358 -0.2086  0.2260 -0.3207
  677TMC3     H10019   3.659   1.881  11.418  1.0753  0.1535 -0.7027
  677TMC3    H110020   3.948   2.137  11.595  0.1701 -0.6030  1.9061
  677TMC3    H210021   3.541   2.145  11.733 -0.1788  0.4092 -1.0994
  677TMC3    C710022   3.791   2.234  11.792  0.6433 -0.6416 -0.1703
  677TMC3    C810023   3.488   1.911  11.610 -1.0073 -0.2168 -0.5700
  677TMC3    O110024   3.709   2.252  11.877  0.1999 -0.2946 -0.1627
  677TMC3    O210025   3.417   1.893  11.513 -0.5174  0.6383 -0.0659
  678MPD2     C10026   4.634   0.852   1.515 -0.6818 -0.4053 -0.7402
  678MPD2    C110027   4.656   0.895   1.380  0.0758 -0.0498 -0.1423
  678MPD2    C210028   4.564   0.961   1.310 -0.2372  1.1069 -0.0992
  678MPD2    C310029   4.439   0.980   1.361 -0.7392 -0.3395 -0.6328
  678MPD2    C410030   4.415   0.943   1.494  0.7456  1.4840 -0.3179
  678MPD2    C510031   4.511   0.874   1.570  0.7596  0.0728  0.4107
  678MPD2     H10032   4.582   0.998   1.210 -0.8060  2.2533  0.2282
  678MPD2    H110033   4.320   0.961   1.543  0.3049  1.7160 -1.2569
  678MPD2    H210034   4.707   0.795   1.570 -0.0242  1.1221 -0.0246
  678MPD2    H310035   4.494   0.842   1.672 -2.0042  1.1882  0.2855
  678MPD2     N10036   4.345   1.040   1.275  0.1027  0.2655  0.0980
  678MPD2    H510037   4.386   1.057   1.183  2.0436 -0.2024  0.8616
  678MPD2    N110038   0.061   0.872   1.317  0.1499 -0.0299  0.1307
  678MPD2    H710039   0.085   0.954   1.262  0.7081  2.1541  3.5909
  679TMC3    C110040   0.497   0.691   1.228  0.2874  0.2080 -0.1207
  679TMC3    C210041   0.381   0.686   1.304 -0.4992 -0.1446 -0.0734
  679TMC3    C310042   0.287   0.790   1.294 -0.9530 -0.5110  0.0495
  679TMC3    C410043   0.518   0.799   1.143 -0.2032 -0.1077  0.2263
  679TMC3    C510044   0.419   0.888   1.126 -0.6186 -0.0858  0.2091
  679TMC3    C610045   0.305   0.893   1.207  0.1033 -0.8752  0.4413
  679TMC3     C10046   0.588   0.579   1.222  0.1079  0.5441 -0.1228
  679TMC3     O10047   0.681   0.596   1.145 -0.3225  0.0207  0.4928
  679TMC3     H10048   0.355   0.598   1.361 -2.9677 -0.6864 -2.0152
  679TMC3    H110049   0.612   0.811   1.090  0.2770  1.1432  1.3568
  679TMC3    H210050   0.225   0.963   1.184 -0.5091 -0.7634  2.8574
  679TMC3    C710051   0.430   0.988   1.025 -0.3491 -0.0386  0.0855
  679TMC3    C810052   0.151   0.775   1.352 -0.2800  0.3105  0.1451
  679TMC3    O110053   0.378   1.096   1.046 -0.2916  0.1286  0.0971
  679TMC3    O210054   0.133   0.670   1.415  0.4539 -0.2415  0.0898
  680MPD2     C10055   1.580   0.453  13.432  0.1376 -0.1668  0.0827
  680MPD2    C110056   1.548   0.405  13.560  0.8330  0.2716  0.0025
  680MPD2    C210057   1.486   0.481  13.651 -0.6810  0.0822 -0.1740
  680MPD2    C310058   1.437   0.605  13.625  0.7193  0.1906 -0.4754
  680MPD2    C410059   1.462   0.656  13.501  0.4270  0.3023 -0.4392
  680MPD2    C510060   1.535   0.580  13.411 -0.7478 -0.1116  0.3836
  680MPD2     H10061   1.470   0.431  13.746  1.6612 -0.3073  0.0311
  680MPD2    H110062   1.428   0.755  13.472 -1.8946  0.1867  1.8963
  680MPD2    H210063   1.643   0.400  13.362 -0.7115 -1.4307  0.2637
  680MPD2    H310064   1.560   0.623  13.315  0.4337 -0.3152  0.5935
  680MPD2     N10065   1.353   0.680  13.717 -0.0918  0.5103 -0.2584
  680MPD2    H510066   1.314   0.766  13.681  0.1489 -0.5109 -2.9732
  680MPD2    N110067   1.576   0.269  13.585  1.0813  0.4873  0.3275
  680MPD2    H710068   1.572   0.233  13.680 -0.2766 -0.0812  0.0509
  681TMC3    C110069   1.639   0.047  13.558  0.3636  0.9059  0.2919
  681TMC3    C210070   1.592   0.016  13.683  0.1248 -0.2606 -0.4349
  681TMC3    C310071   1.634   4.622  13.739  0.4024  0.2835 -1.0238
  681TMC3    C410072   1.723   4.687  13.485  0.2526 -0.0525  0.5289
  681TMC3    C510073   1.758   4.563  13.545  0.9262  0.0380  0.4110
  681TMC3    C610074   1.709   4.529  13.670  0.2417  0.0004  0.0193
  681TMC3     C10075   1.609   0.175  13.488  0.4849  0.3917 -0.0101
  681TMC3     O10076   1.605   0.180  13.367 -0.1912  0.0398  0.0649
  681TMC3     H10077   1.506   0.072  13.718  0.0341 -0.6008 -0.1172
  681TMC3    H110078   1.755   4.706  13.383  0.0998 -1.6622  0.1714
  681TMC3    H210079   1.742   4.439  13.720  1.6160 -0.4575 -1.6892
  681TMC3    C710080   1.888   4.507  13.508 -0.5937  0.1974  0.3368
  681TMC3    C810081   1.583   4.576  13.872  0.9984 -0.0192  0.1835
  681TMC3    O110082   1.944   4.434  13.586 -0.1714  0.1095 -0.7289
  681TMC3    O210083   1.630   4.478  13.929  0.0370 -0.1213  0.2480
  682MPD2     C10084   3.167   1.596  10.580 -0.5579  0.1037  0.2217
  682MPD2    C110085   3.129   1.464  10.621 -1.2112 -0.4297 -0.4177
  682MPD2    C210086   3.054   1.449  10.731  0.3938 -0.2907 -0.0439
  682MPD2    C310087   3.009   1.556  10.803  0.1388  0.0625 -0.3645
  682MPD2    C410088   3.056   1.686  10.770  0.5344  0.3494 -0.1367
  682MPD2    C510089   3.137   1.705  10.660 -0.2511  0.1229 -0.3401
  682MPD2     H10090   3.025   1.347  10.756 -0.6834 -0.1855 -0.8371
  682MPD2    H110091   3.025   1.759  10.844  0.2065  1.1847 -1.1055
  682MPD2    H210092   3.238   1.613  10.501  0.0380  0.1915  0.7714
  682MPD2    H310093   3.166   1.806  10.634  2.3551 -0.2823  0.9532
  682MPD2     N10094   2.917   1.536  10.908 -0.2977  0.2560 -0.2390
  682MPD2    H510095   2.893   1.617  10.965  0.3509  0.2055  0.1031
  682MPD2    N110096   3.182   1.350  10.570  0.1923 -0.0001  0.2800
  682MPD2    H710097   3.163   1.267  10.625 -1.0382  0.4785  0.5752
  683TMC3    C110098   2.731   1.510  11.266 -0.1667 -0.1311  0.2396
  683TMC3    C210099   2.630   1.416  11.287 -0.1471 -0.1821 -0.3441
  683TMC3    C310100   2.603   1.325  11.186  0.6497 -0.1420  0.4302
  683TMC3    C410101   2.810   1.516  11.154 -0.3154 -0.1162  0.4823
  683TMC3    C510102   2.767   1.431  11.054  0.5064  0.0328 -0.2421
  683TMC3    C610103   2.665   1.348  11.064  0.4000 -0.0136 -0.6147
  683TMC3     C10104   2.773   1.594  11.382 -0.3959  0.1674 -0.1985
  683TMC3     O10105   2.744   1.550  11.493  0.5678 -0.0572 -0.3641
  683TMC3     H10106   2.581   1.408  11.384 -0.6673  0.5229 -0.5496
  683TMC3    H110107   2.898   1.579  11.149 -1.7120  1.8248  0.6303
  683TMC3    H210108   2.621   1.298  10.979 -0.8801  0.0646  0.0026
  683TMC3    C710109   2.852   1.417  10.938  0.2376  0.2966 -0.1700
  683TMC3    C810110   2.529   1.208  11.200  0.0823 -0.3547  0.0873
  683TMC3    O110111   2.839   1.310  10.878  0.0289 -0.3918 -0.1463
  683TMC3    O210112   2.460   1.168  11.105 -0.0033  0.0197 -0.0828
  684MPD2     C10113   0.943   0.865  16.766  0.6108  0.4171  0.3181
  684MPD2    C110114   0.954   0.937  16.649  0.3230  0.4394  0.0540
  684MPD2    C210115   0.960   1.071  16.647  0.4159 -0.5092  0.1751
  684MPD2    C310116   0.980   1.141  16.764 -0.1606  0.2530  0.2487
  684MPD2    C410117   0.985   1.067  16.877  0.8313 -0.2835  0.1641
  684MPD2    C510118   0.958   0.929  16.884  0.2921  0.2618 -0.2959
  684MPD2     H10119   0.962   1.127  16.555  1.5343  1.2960  1.3080
  684MPD2    H110120   0.988   1.125  16.968 -0.3208 -0.4658  0.3150
  684MPD2    H210121   0.921   0.760  16.754 -0.3336  0.4322  1.8329
  684MPD2    H310122   0.942   0.876  16.978 -0.4200 -1.0478 -1.1595
  684MPD2     N10123   1.004   1.281  16.781 -0.0186  0.4064 -0.4403
  684MPD2    H510124   1.038   1.301  16.874  0.3637 -1.4463 -0.1720
  684MPD2    N110125   0.958   0.868  16.523  0.1213  0.4583 -0.0691
  684MPD2    H710126   0.929   0.929  16.448 -0.3603  0.8786  0.4563
  685TMC3    C110127   1.063   0.731  16.369 -0.1811 -0.1447  0.5158
  685TMC3    C210128   0.995   0.795  16.272 -0.0343  0.4009  0.4012
  685TMC3    C310129   1.068   0.869  16.180 -0.0312 -1.3132 -0.0959
  685TMC3    C410130   1.193   0.752  16.379 -0.4408 -0.1247 -0.0065
  685TMC3    C510131   1.260   0.821  16.286  0.0475 -0.8063 -0.2188
  685TMC3    C610132   1.201   0.880  16.179  0.4771  0.1632  0.6072
  685TMC3     C10133   1.004   0.738  16.498 -1.0301  0.5703  0.4501
  685TMC3     O10134   1.043   0.658  16.580  0.3675  0.0369  0.0070
  685TMC3     H10135   0.887   0.783  16.267  0.1997 -0.6440 -2.7415
  685TMC3    H110136   1.243   0.717  16.469  0.2435  2.7302  0.7191
  685TMC3    H210137   1.254   0.920  16.094  1.0075  0.1061  0.9105
  685TMC3    C710138   1.396   0.853  16.329 -0.0599  0.8092  0.4953
  685TMC3    C810139   1.000   0.894  16.057  0.5030  0.5946 -0.3898
  685TMC3    O110140   1.447   0.787  16.414 -0.7469 -0.5937 -0.2857
  685TMC3    O210141   1.047   0.867  15.951 -0.0732 -0.0486  0.0172
  686MPD2     C10142   2.439   0.580  15.411  0.2329 -0.3271  0.2025
  686MPD2    C110143   2.458   0.594  15.547 -0.1280 -0.1128  0.6159
  686MPD2    C210144   2.545   0.498  15.599  0.5773 -0.3331 -0.2749
  686MPD2    C310145   2.598   0.399  15.526 -0.1098 -0.2238 -0.6064
  686MPD2    C410146   2.574   0.397  15.391  0.5510  0.2247  0.4886
  686MPD2    C510147   2.504   0.494  15.329  0.4319 -0.6581  0.6790
  686MPD2     H10148   2.570   0.509  15.705 -0.7992  2.3334 -0.2210
  686MPD2    H110149   2.626   0.326  15.327  0.8994  0.8799  0.0441
  686MPD2    H210150   2.367   0.642  15.360 -0.2783  0.1406  1.5058
  686MPD2    H310151   2.488   0.497  15.222 -0.7017  0.0693  0.8658
  686MPD2     N10152   2.674   0.285  15.576 -0.3161 -0.1520  0.6482
  686MPD2    H510153   2.719   0.223  15.509  0.4317  1.3522 -0.2220
  686MPD2    N110154   2.388   0.697  15.617  0.1673 -0.3968  0.0265
  686MPD2    H710155   2.321   0.747  15.559  0.1420  1.0721  1.3252
  687TMC3    C110156   2.622   0.297  15.807 -0.1704  0.1034 -0.2302
  687TMC3    C210157   2.488   0.303  15.792  0.2607 -0.7135 -0.1034
  687TMC3    C310158   2.417   0.349  15.897  0.5737  0.2239  0.0662
  687TMC3    C410159   2.679   0.304  15.929  0.1130  0.5290 -0.2843
  687TMC3    C510160   2.598   0.320  16.035  0.5164  0.3816 -0.5687
  687TMC3    C610161   2.466   0.357  16.023  0.0224  0.0764 -0.1894
  687TMC3     C10162   2.701   0.245  15.708 -0.3019  0.4707  1.6036
  687TMC3     O10163   2.768   0.150  15.739 -0.1777 -0.2415  0.4673
  687TMC3     H10164   2.447   0.287  15.693 -1.6914  1.3596  0.3512
  687TMC3    H110165   2.786   0.295  15.943  0.4142  1.3065 -2.0134
  687TMC3    H210166   2.392   0.367  16.102  0.4379  1.4727  0.0347
  687TMC3    C710167   2.659   0.374  16.149  0.1094 -0.1181 -0.2771
  687TMC3    C810168   2.272   0.361  15.888 -0.2009 -0.1849  0.3128
  687TMC3    O110169   2.601   0.466  16.206 -0.1838  0.4492  0.6694
  687TMC3    O210170   2.194   0.343  15.979 -0.4239  0.0036 -0.5240
  688MPD2     C10171   1.767   4.721  17.431  0.5187  0.9967  0.1159
  688MPD2    C110172   1.791   4.583  17.436  0.7638 -0.2759 -0.3613
  688MPD2    C210173   1.831   4.512  17.325 -0.2071 -0.1599 -0.2269
  688MPD2    C310174   1.842   4.577  17.204  0.3345 -0.5339  0.1802
  688MPD2    C410175   1.817   4.713  17.196 -0.2624 -0.4263 -0.4117
  688MPD2    C510176   1.777   0.057  17.312  0.1743  1.1749  0.7125
  688MPD2     H10177   1.844   4.405  17.333 -0.8737 -0.2923 -1.0295
  688MPD2    H110178   1.832   0.052  17.109 -0.6298  0.3557  0.1020
  688MPD2    H210179   1.754   0.052  17.524 -0.7908  1.5317 -0.3934
  688MPD2    H310180   1.776   0.165  17.302 -0.4482  1.1209  0.2111
  688MPD2     N10181   1.898   4.523  17.090 -0.3087 -0.4692  0.2504
  688MPD2    H510182   1.896   4.571  17.001 -0.1631  1.6277  1.3744
  688MPD2    N110183   1.778   4.503  17.560 -0.1041 -0.4436 -0.3882
  688MPD2    H710184   1.781   4.402  17.549 -0.6049 -0.4418 -0.5415
  689TMC3    C110185   1.733   4.432   0.093  0.6633 -0.5797  0.3762
  689TMC3    C210186   1.699   4.476   0.216  0.9737 -0.2393 -0.2436
  689TMC3    C310187   1.732   4.393   0.324  0.4609 -0.8782 -0.2588
  689TMC3    C410188   1.771   4.307   0.074  0.5836  0.2787  0.0356
  689TMC3    C510189   1.801   4.223   0.178  0.2355  0.2563 -0.6065
  689TMC3    C610190   1.780   4.263   0.308 -0.7662  0.2366 -0.1820
  689TMC3     C10191   1.754   4.544  17.690 -0.0232  0.1312  0.9504
  689TMC3     O10192   1.748   4.659   0.033  0.2602  0.1131  0.4092
  689TMC3     H10193   1.668   4.579   0.228 -2.8476 -1.4031 -0.0546
  689TMC3    H110194   1.781   4.268  17.673 -1.6006 -0.2592  0.0282
  689TMC3    H210195   1.816   4.210   0.395  0.8399  0.0464 -0.9553
  689TMC3    C710196   1.833   4.084   0.160 -0.3781 -0.3779 -0.1723
  689TMC3    C810197   1.671   4.418   0.446  0.3039 -0.1834  0.5670
  689TMC3    O110198   1.903   4.036   0.252 -0.1040 -0.3505 -0.2447
  689TMC3    O210199   1.663   4.318   0.515 -0.2187  0.1774 -0.0020
  690MPD2     C10200   3.215   2.004  15.679 -0.1337  0.4948 -0.2958
  690MPD2    C110201   3.280   1.904  15.747  1.3759 -0.5286 -0.0073
  690MPD2    C210202   3.401   1.860  15.692 -0.2565 -0.2322 -0.3473
  690MPD2    C310203   3.447   1.893  15.565 -0.1525  0.0291  0.2531
  690MPD2    C410204   3.380   1.997  15.497 -0.3528  0.0726 -0.6366
  690MPD2    C510205   3.270   2.052  15.557 -0.9944  0.5140 -0.1816
  690MPD2     H10206   3.458   1.790  15.752  0.7529  1.3291  0.5277
  690MPD2    H110207   3.412   2.029  15.399 -0.3667  0.4422 -0.5205
  690MPD2    H210208   3.119   2.048  15.707 -0.5883 -0.1561 -0.8287
  690MPD2    H310209   3.214   2.128  15.505 -0.9782 -0.5758 -1.7968
  690MPD2     N10210   3.554   1.823  15.509  0.4314  0.6118 -0.1895
  690MPD2    H510211   3.575   1.854  15.415  0.8355 -0.5729 -0.4834
  690MPD2    N110212   3.235   1.851  15.873  0.2131 -0.0558  0.4542
  690MPD2    H710213   3.291   1.775  15.912 -2.0570 -1.8733  0.1838
  691TMC3    C110214   3.101   1.796  16.050 -0.1437  0.5130 -0.0795
  691TMC3    C210215   2.980   1.783  16.102 -0.4101 -0.2809 -0.1366
  691TMC3    C310216   2.966   1.695  16.207 -0.0971  0.6496  0.3330
  691TMC3    C410217   3.206   1.725  16.101  0.4500  0.1613 -0.1043
  691TMC3    C510218   3.177   1.630  16.191  0.0788  0.2574 -0.4758
  691TMC3    C610219   3.057   1.603  16.245  0.3024 -0.3250  0.0050
  691TMC3     C10220   3.117   1.889  15.936  0.1376  0.1424 -0.4464
  691TMC3     O10221   3.031   1.975  15.914  0.0237  0.0183  0.1170
  691TMC3     H10222   2.915   1.867  16.079 -0.2481 -0.5616 -1.5905
  691TMC3    H110223   3.308   1.740  16.068  1.5289  0.6683  3.4185
  691TMC3    H210224   3.045   1.531  16.325  2.2530  0.3357  0.9081
  691TMC3    C710225   3.287   1.538  16.190  0.3287  0.6613 -0.0225
  691TMC3    C810226   2.836   1.680  16.266  0.4570 -0.2491 -0.0297
  691TMC3    O110227   3.404   1.579  16.191 -0.5035  0.1883  0.3905
  691TMC3    O210228   2.820   1.608  16.362  0.7435  0.1697  0.1943
  692TMC3    C110229   0.571   2.498  16.095 -0.0550 -0.5693  0.0469
  692TMC3    C210230   0.709   2.518  16.120  0.2560  0.0211  0.2683
  692TMC3    C310231   0.806   2.422  16.096  0.4479 -0.3254 -0.1832
  692TMC3    C410232   0.516   2.376  16.059  0.3855 -0.4263  0.0400
  692TMC3    C510233   0.612   2.276  16.048 -1.0443 -0.2166  0.3344
  692TMC3    C610234   0.751   2.301  16.049  0.3544 -0.1262  0.7717
  692TMC3     C10235   0.478   2.605  16.117  0.2740 -0.6310  0.2208
  692TMC3     O10236   0.358   2.575  16.102 -0.4350  0.0495  0.2754
  692TMC3     H10237   0.758   2.611  16.147  1.1198 -1.1281  2.6757
  692TMC3    H110238   0.410   2.353  16.055  0.6302 -1.6520  0.5142
  692TMC3    H210239   0.812   2.211  16.048 -1.0653 -1.1126  2.6465
  692TMC3    C710240   0.565   2.154  16.112 -0.8229 -0.7547  0.5426
  692TMC3    C810241   0.864   2.375  16.226  0.1210 -0.0257 -0.2517
  692TMC3    O110242   0.447   2.125  16.103 -0.4945 -0.3380 -0.0336
  692TMC3    O210243   0.884   2.254  16.241 -0.3757  0.1614 -0.3848
  693MPD2     C10244   0.756   0.744  11.043 -0.2403  0.0646 -0.2422
  693MPD2    C110245   0.755   0.702  11.174  0.9801 -0.3102  0.1944
  693MPD2    C210246   0.869   0.636  11.216  0.2403  0.1966 -0.5134
  693MPD2    C310247   0.977   0.618  11.136 -0.1183  0.7264 -0.0412
  693MPD2    C410248   0.981   0.672  11.010  0.3920 -0.1842 -0.3157
  693MPD2    C510249   0.871   0.733  10.961  0.4046 -0.3477  0.3562
  693MPD2     H10250   0.873   0.595  11.316  1.7923 -0.9444 -1.0331
  693MPD2    H110251   1.055   0.653  10.933  1.7135  1.5023  0.5378
  693MPD2    H210252   0.666   0.789  11.002 -0.4387  0.1075  0.2431
  693MPD2    H310253   0.877   0.780  10.863  1.5349  0.7156  0.9433
  693MPD2     N10254   1.089   0.538  11.171  0.2660  0.1319 -0.5150
  693MPD2    H510255   1.155   0.530  11.094 -2.5304 -0.9705 -2.8079
  693MPD2    N110256   0.630   0.694  11.234  0.2224  0.7033 -0.9032
  693MPD2    H710257   0.545   0.723  11.188 -1.1478  1.2857  2.0103
  694TMC3    C110258   0.479   0.605  11.389  0.0297 -0.3534  0.1536
  694TMC3    C210259   0.406   0.549  11.290  0.0003  1.0989 -0.6120
  694TMC3    C310260   0.313   0.451  11.323  0.2202 -0.5629  0.0534
  694TMC3    C410261   0.474   0.555  11.518  0.3298 -0.5015  0.1544
  694TMC3    C510262   0.392   0.453  11.544  0.1168 -0.1567  0.1020
  694TMC3    C610263   0.311   0.395  11.449  0.1252 -0.3925  0.3962
  694TMC3     C10264   0.613   0.656  11.361  0.4360 -0.4269 -0.2136
  694TMC3     O10265   0.691   0.663  11.455 -0.6092  1.0117 -0.1133
  694TMC3     H10266   0.409   0.604  11.196 -0.0000 -1.5525 -2.1445
  694TMC3    H110267   0.539   0.589  11.599  0.3838 -0.9190  0.2868
  694TMC3    H210268   0.240   0.315  11.467 -0.2130 -0.4369 -1.0927
  694TMC3    C710269   0.382   0.423  11.687 -0.2412  0.6273 -0.3616
  694TMC3    C810270   0.277   0.356  11.223 -0.0535 -0.4289  0.0219
  694TMC3    O110271   0.423   0.500  11.778 -0.0892  0.4774 -0.0606
  694TMC3    O210272   0.197   0.268  11.246  0.1153 -0.0112  0.9239
  695MPD2     C10273   1.224   2.505  13.664  0.1146 -0.4701  0.1665
  695MPD2    C110274   1.172   2.471  13.790  0.3699  0.1750  0.2421
  695MPD2    C210275   1.037   2.451  13.804 -0.2490 -0.5946  0.4684
  695MPD2    C310276   0.946   2.465  13.703 -0.3964  0.1117 -1.4097
  695MPD2    C410277   0.999   2.484  13.577 -0.0293 -0.4292 -0.0049
  695MPD2    C510278   1.136   2.504  13.560  0.2491 -0.2905  0.4891
  695MPD2     H10279   1.006   2.433  13.907 -0.7998  0.2688  0.4532
  695MPD2    H110280   0.942   2.481  13.484 -0.4437 -0.2092  0.2402
  695MPD2    H210281   1.327   2.534  13.644 -0.4121  1.0756 -0.3365
  695MPD2    H310282   1.174   2.508  13.459  0.1285 -0.4759  0.4361
  695MPD2     N10283   0.809   2.451  13.737  0.2992 -0.3921 -0.2873
  695MPD2    H510284   0.801   2.438  13.837  1.4794  0.0415 -0.1403
  695MPD2    N110285   1.256   2.471  13.907 -0.1602  0.0571  0.5060
  695MPD2    H710286   1.206   2.468  13.996 -0.0021  0.3083  0.6049
  696TMC3    C110287   0.577   2.425  13.724 -0.2454  0.1990  0.0981
  696TMC3    C210288   0.581   2.346  13.831  0.1693  0.2534  0.1079
  696TMC3    C310289   0.464   2.319  13.897 -0.2149  0.1582 -0.3568
  696TMC3    C410290   0.465   2.489  13.674  0.0274 -0.0112  0.8663
  696TMC3    C510291   0.362   2.480  13.754 -0.5376 -0.5232  0.1577
  696TMC3    C610292   0.353   2.386  13.853  0.2284 -0.0982 -0.2469
  696TMC3     C10293   0.702   2.451  13.657 -0.5558  0.0204 -0.3322
  696TMC3     O10294   0.692   2.494  13.542 -0.5815 -0.0413  0.6540
  696TMC3     H10295   0.671   2.299  13.869 -0.1215  0.9492  1.6479
  696TMC3    H110296   0.473   2.555  13.588 -0.4451  0.7925  1.4367
  696TMC3    H210297   0.258   2.370  13.902  0.2160 -2.7070 -1.1548
  696TMC3    C710298   0.298   2.599  13.781  0.5210  0.2173  0.2853
  696TMC3    C810299   0.479   2.347  14.033 -0.8550 -0.0343  0.7469
  696TMC3    O110300   0.270   2.671  13.682  0.0928 -0.0717 -0.4016
  696TMC3    O210301   0.397   2.420  14.088  0.0008  0.2107  0.3904
  697MPD2     C10302   0.459   4.229  15.853 -0.4705 -0.1298 -0.0455
  697MPD2    C110303   0.410   4.153  15.752 -0.4909 -0.6315 -0.3883
  697MPD2    C210304   0.398   4.211  15.627  0.2225 -0.0928  0.1877
  697MPD2    C310305   0.444   4.336  15.598 -0.5814  0.0082 -0.6384
  697MPD2    C410306   0.499   4.410  15.704  0.0836  0.0999 -0.0067
  697MPD2    C510307   0.500   4.356  15.826  0.1108 -0.0150  0.9229
  697MPD2     H10308   0.352   4.159  15.543 -0.2510  0.4181  0.1307
  697MPD2    H110309   0.555   4.502  15.694 -0.3420  0.2565 -0.9240
  697MPD2    H210310   0.488   4.192  15.951  0.3909  0.1940 -0.1824
  697MPD2    H310311   0.553   4.410  15.903 -0.4737  0.9050  0.6870
  697MPD2     N10312   0.438   4.394  15.471 -0.0762  0.6459  0.1382
  697MPD2    H510313   0.382   4.347  15.400 -0.3846 -0.0858  0.8662
  697MPD2    N110314   0.365   4.015  15.755 -0.1406 -0.1497  0.5568
  697MPD2    H710315   0.328   3.978  15.668 -0.7090 -0.2208  0.8274
  698TMC3    C110316   0.427   4.573  15.312 -0.8059 -0.0997 -0.5707
  698TMC3    C210317   0.407   4.706  15.299 -0.2364 -0.6784 -0.1127
  698TMC3    C310318   0.353   0.022  15.182  0.1430  1.0212 -0.6348
  698TMC3    C410319   0.393   4.478  15.221 -1.1327  0.5219 -0.3786
  698TMC3    C510320   0.342   4.525  15.103 -0.0679 -0.4356 -0.5168
  698TMC3    C610321   0.319   4.662  15.079 -0.8347 -0.3794  0.0642
  698TMC3     C10322   0.473   4.529  15.440  0.0736 -0.7031  0.3259
  698TMC3     O10323   0.543   4.612  15.506  0.6176  0.0384  1.1729
  698TMC3     H10324   0.411   0.045  15.387  1.6037  0.7223 -1.2154
  698TMC3    H110325   0.437   4.379  15.219 -0.3112  0.8958 -0.7687
  698TMC3    H210326   0.280   4.691  14.981 -1.5585 -4.3303 -0.8310
  698TMC3    C710327   0.341   4.445  14.983 -0.5372 -0.3445 -0.7546
  698TMC3    C810328   0.328   0.153  15.157  0.5262 -0.3985  0.0762
  698TMC3    O110329   0.345   4.508  14.879  0.7458  0.0278 -0.0160
  698TMC3    O210330   0.232   0.175  15.085  0.3697 -0.5356 -0.2446
  699TMC3    C110331   0.848   2.315  13.301 -0.1897  0.6951  0.3828
  699TMC3    C210332   0.905   2.206  13.366 -0.5423 -0.1935 -0.0352
  699TMC3    C310333   0.824   2.102  13.402  0.9213  0.4061 -0.1317
  699TMC3    C410334   0.712   2.318  13.279 -0.1918  0.1856 -0.3381
  699TMC3    C510335   0.635   2.204  13.300 -0.7337 -0.1837  0.3829
  699TMC3    C610336   0.692   2.099  13.363  0.4023 -0.9211  0.2217
  699TMC3     C10337   0.927   2.404  13.217 -0.9915 -0.6244 -0.2144
  699TMC3     O10338   0.867   2.503  13.172  0.3881  0.4304 -0.0066
  699TMC3     H10339   1.006   2.201  13.404 -0.0203 -0.6250 -1.4727
  699TMC3    H110340   0.682   2.405  13.222  1.2479  1.0730  0.2707
  699TMC3    H210341   0.638   2.006  13.367 -0.3834 -0.5285 -1.0109
  699TMC3    C710342   0.494   2.221  13.333  0.4866 -0.3371 -0.5099
  699TMC3    C810343   0.841   2.078  13.543 -0.2455  0.2946  0.6676
  699TMC3    O110344   0.450   2.162  13.425  0.0090  0.3124  0.0045
  699TMC3    O210345   0.953   2.071  13.595  0.6334  0.1805  0.8836
  700TMC3    C110346   4.214   4.722  17.390 -0.2231  0.6124  0.3501
  700TMC3    C210347   4.302   4.634  17.330 -0.7604 -0.0831 -1.4231
  700TMC3    C310348   4.415   4.601  17.404  0.6209  0.0833  0.3227
  700TMC3    C410349   4.233   0.052  17.519  0.0425 -0.1345  0.5433
  700TMC3    C510350   4.344   0.012  17.585  0.1342 -0.6915 -0.1530
  700TMC3    C610351   4.441   4.659  17.524 -0.4863  0.3923 -0.0029
  700TMC3     C10352   4.133   0.079  17.302  0.8287 -0.4227  1.1169
  700TMC3     O10353   4.071   0.020  17.212  0.2299 -0.0548  0.0038
  700TMC3     H10354   4.283   4.602  17.228  2.8865  0.2919 -2.2048
  700TMC3    H110355   4.164   0.126  17.557  0.3926  0.2571  0.4143
  700TMC3    H210356   4.527   4.624  17.579 -1.8693 -1.7292  0.7983
  700TMC3    C710357   4.377   0.089  17.696  0.1469 -0.1940  0.1320
  700TMC3    C810358   4.521   4.523  17.353 -0.4234 -0.5619 -0.3717
  700TMC3    O110359   4.306   0.179   0.038 -0.4251 -0.1618 -0.1064
  700TMC3    O210360   4.627   4.528  17.414 -0.4569  0.2414 -0.5976
  701TMC3    C110361   4.479   3.416  15.980  0.0462  0.4794  0.0824
  701TMC3    C210362   4.530   3.338  15.880  0.2179 -0.6417  0.4707
  701TMC3    C310363   4.645   3.384  15.820  0.0799 -0.0477  0.2908
  701TMC3    C410364   4.546   3.524  16.034  0.2664 -0.0037 -0.4799
  701TMC3    C510365   4.659   3.560  15.972 -0.0520 -0.0747 -0.3856
  701TMC3    C610366   4.718   3.492  15.865 -0.3645  0.0319 -0.5740
  701TMC3     C10367   4.361   3.366  16.048  0.0506 -0.6724 -0.5990
  701TMC3     O10368   4.315   3.269  15.996 -0.0775 -0.0758 -0.0652
  701TMC3     H10369   4.478   3.250  15.843 -0.7596 -0.2148  0.8148
  701TMC3    H110370   4.518   3.575  16.126 -0.3639  0.0592 -0.7090
  701TMC3    H210371   0.087   3.524  15.821  0.0370 -0.0686  0.2078
  701TMC3    C710372   4.697   3.700  15.953 -0.8296 -0.0728 -0.4895
  701TMC3    C810373   4.682   3.338  15.688 -0.4751  0.1122 -0.4170
  701TMC3    O110374   0.004   3.733  15.840  0.6191 -0.1865 -0.2547
  701TMC3    O210375   0.073   3.356  15.646  0.0245 -0.3414  0.7439
  702MPD2     C10376   4.612   1.078  11.312  0.2940 -0.3268 -0.0046
  702MPD2    C110377   4.506   1.118  11.231  0.5217  0.6679 -0.3686
  702MPD2    C210378   4.515   1.226  11.153  0.4902  0.4916  0.7301
  702MPD2    C310379   4.634   1.294  11.137 -0.2763  0.1422 -0.3949
  702MPD2    C410380   0.023   1.248  11.202  0.2321 -0.1426 -0.1351
  702MPD2    C510381   0.011   1.139  11.286  0.4291 -0.0352 -0.5767
  702MPD2     H10382   4.433   1.256  11.088  1.1696  0.5492 -0.0939
  702MPD2    H110383   0.122   1.291  11.200 -0.3238  1.0801 -1.0044
  702MPD2    H210384   4.606   0.983  11.365 -0.2662 -0.6099 -0.5767
  702MPD2    H310385   0.102   1.097  11.327 -0.3794 -0.9153  0.2940
  702MPD2     N10386   4.649   1.408  11.064 -0.1776 -0.2036  0.0012
  702MPD2    H510387   0.018   1.448  11.064  0.1613 -1.0070  0.0442
  702MPD2    N110388   4.374   1.069  11.245  0.7584 -0.1448 -0.0515
  702MPD2    H710389   4.305   1.129  11.200  2.2814  1.5237 -0.1771
  703TMC3    C110390   4.601   1.610  10.948  0.0824  0.3507  0.3294
  703TMC3    C210391   4.497   1.691  10.920 -0.3763 -1.0256  0.0224
  703TMC3    C310392   4.515   1.796  10.847 -0.4572  0.1884 -0.3226
  703TMC3    C410393   0.001   1.634  10.905 -0.5432 -0.1103 -0.8872
  703TMC3    C510394   0.017   1.749  10.837  0.4499 -0.8219  0.4022
  703TMC3    C610395   4.641   1.824  10.797 -0.7100 -0.4417  0.0147
  703TMC3     C10396   4.548   1.485  11.000 -0.0897  0.0680  0.6533
  703TMC3     O10397   4.428   1.458  10.993 -0.2246 -0.2273  0.1790
  703TMC3     H10398   4.408   1.679  10.981 -0.1261  0.7546  0.7513
  703TMC3    H110399   0.076   1.555  10.909  0.8707  1.2997  0.9067
  703TMC3    H210400   4.649   1.919  10.746 -1.3360  0.5119  1.6674
  703TMC3    C710401   0.148   1.789  10.816 -0.8031  0.0590  0.0135
  703TMC3    C810402   4.411   1.902  10.852  0.0940 -0.7143 -0.1041
  703TMC3    O110403   0.161   1.883  10.735  0.7424  0.1603 -0.2443
  703TMC3    O210404   4.449   2.017  10.831  0.4208  0.6118  0.1836
  704TMC3    C110405   1.616   3.638  12.808 -0.1167  0.8134 -0.2372
  704TMC3    C210406   1.740   3.685  12.843  0.0822 -1.0227  0.3212
  704TMC3    C310407   1.831   3.593  12.885 -0.3057 -0.1239  0.2210
  704TMC3    C410408   1.573   3.514  12.834  0.3390 -0.7668 -0.4628
  704TMC3    C510409   1.665   3.424  12.880 -0.2207  0.3906  0.1379
  704TMC3    C610410   1.792   3.459  12.899 -0.0273  0.1970 -0.2227
  704TMC3     C10411   1.570   3.684  12.672  0.7508  0.1422 -0.8847
  704TMC3     O10412   1.458   3.663  12.628 -0.4248  0.3241 -0.3195
  704TMC3     H10413   1.768   3.788  12.824 -1.3637 -0.6285  0.3009
  704TMC3    H110414   1.473   3.481  12.809  0.2985 -0.8093 -0.2419
  704TMC3    H210415   1.873   3.387  12.908  0.5707  0.8484 -0.4070
  704TMC3    C710416   1.651   3.297  12.808  0.8755  0.5138  0.6881
  704TMC3    C810417   1.962   3.623  12.825 -0.5480  0.1556 -0.5100
  704TMC3    O110418   1.742   3.280  12.731 -0.0266  0.4379 -0.0900
  704TMC3    O210419   1.966   3.705  12.731 -0.0217 -0.0292  0.1250
  705MPD2     C10420   1.111   1.970  17.003  0.3497 -0.1650  0.3943
  705MPD2    C110421   1.104   2.092  16.943 -0.1522  0.1646  1.2192
  705MPD2    C210422   1.017   2.190  16.997  0.5988 -0.2505  0.1196
  705MPD2    C310423   0.915   2.143  17.080 -0.5776  0.2284 -0.9094
  705MPD2    C410424   0.922   2.020  17.131  0.7416  0.4543 -0.1621
  705MPD2    C510425   1.022   1.938  17.098 -0.0496  0.0586  0.0524
  705MPD2     H10426   1.013   2.290  16.955 -0.3127 -1.0351 -1.6607
  705MPD2    H110427   0.847   1.992  17.204  2.9674 -0.2692  1.7906
  705MPD2    H210428   1.198   1.911  16.980 -1.2771 -2.6972  0.7013
  705MPD2    H310429   1.022   1.839  17.144 -1.9330 -0.0500 -0.1605
  705MPD2     N10430   0.808   2.220  17.138 -0.1239 -0.1218  0.1828
  705MPD2    H510431   0.738   2.173  17.194  0.8570 -1.7319  0.0794
  705MPD2    N110432   1.184   2.128  16.834 -0.6606 -0.5728 -0.2282
  705MPD2    H710433   1.158   2.219  16.799 -1.4855 -0.6973  0.0589
  706TMC3    C110434   1.492   2.176  16.494 -0.1823 -0.2924  0.3656
  706TMC3    C210435   1.407   2.256  16.420  0.0157  0.3146 -0.2285
  706TMC3    C310436   1.290   2.298  16.486  0.2672 -0.1435  0.3431
  706TMC3    C410437   1.460   2.117  16.610 -0.1911  0.1668  0.2317
  706TMC3    C510438   1.340   2.153  16.666  0.0841  0.2604  0.2350
  706TMC3    C610439   1.252   2.250  16.611 -0.3558  0.1944  0.5231
  706TMC3     C10440   1.589   2.105  16.416  0.3700  0.8164  0.1845
  706TMC3     O10441   1.706   2.120  16.445  0.2302  0.1034 -0.1410
  706TMC3     H10442   1.445   2.301  16.330  0.6208 -3.1244 -1.7119
  706TMC3    H110443   1.527   2.056  16.669 -1.2478  0.5534  1.8375
  706TMC3    H210444   1.151   2.274  16.643 -0.0301  0.8077  1.0896
  706TMC3    C710445   1.295   2.073  16.774 -0.9180  0.0491 -0.5053
  706TMC3    C810446   1.231   2.413  16.431  0.2427  0.3314 -0.2126
  706TMC3    O110447   1.364   1.977  16.800 -0.9538 -0.2747  0.2562
  706TMC3    O210448   1.238   2.436  16.311 -0.4718 -0.0043 -0.0228
  707TMC3    C110449   2.490   0.298   1.093 -0.4714  0.4288  0.4770
  707TMC3    C210450   2.507   0.239   1.216  0.7357 -0.2300 -0.3679
  707TMC3    C310451   2.398   0.174   1.261  0.0827 -0.5088  0.1133
  707TMC3    C410452   2.383   0.283   1.006 -0.4964 -0.0838  0.5027
  707TMC3    C510453   2.284   0.209   1.053  0.3135  0.7449 -1.0454
  707TMC3    C610454   2.285   0.156   1.180 -0.1923  0.0871 -0.6713
  707TMC3     C10455   2.598   0.376   1.035  0.3531  0.3957 -0.0004
  707TMC3     O10456   2.709   0.375   1.090  0.1837 -0.0764 -0.0741
  707TMC3     H10457   2.597   0.262   1.272  1.4882 -0.5318 -1.4551
  707TMC3    H110458   2.372   0.332   0.909  0.0749 -0.8764  0.0347
  707TMC3    H210459   2.202   0.103   1.223 -0.6730  2.0935  0.9004
  707TMC3    C710460   2.164   0.215   0.974 -0.7836  0.1236 -0.4711
  707TMC3    C810461   2.420   0.064   1.352  0.1199 -0.8282 -0.7379
  707TMC3    O110462   2.153   0.312   0.901  0.4293 -0.4409  0.3041
  707TMC3    O210463   2.327   0.004   1.400 -0.6939 -0.2003  0.0049
  708MPD2     C10464   4.128   0.641  13.879  0.3797 -0.2208  0.1173
  708MPD2    C110465   4.091   0.718  13.991 -0.1630 -0.6578  0.2336
  708MPD2    C210466   4.148   0.689  14.114 -0.0061 -0.9046  0.1712
  708MPD2    C310467   4.244   0.588  14.122  0.0197 -0.2838 -0.5094
  708MPD2    C410468   4.283   0.512  14.011  0.4819  0.3368 -0.1743
  708MPD2    C510469   4.221   0.540  13.894 -0.4204  0.7874  0.5430
  708MPD2     H10470   4.116   0.739  14.205  1.8486 -2.0836  1.4676
  708MPD2    H110471   4.364   0.440  14.016  1.2115  1.2457  1.2055
  708MPD2    H210472   4.071   0.662  13.789  0.9483  0.2522 -0.1328
  708MPD2    H310473   4.254   0.495  13.801 -2.1887 -0.7385  0.6315
  708MPD2     N10474   4.288   0.562  14.258 -0.5001  0.1276  1.1476
  708MPD2    H510475   4.284   0.635  14.328 -1.9136 -0.3175  1.5342
  708MPD2    N110476   3.985   0.816  13.970  0.4832 -0.1334 -0.0319
  708MPD2    H710477   3.938   0.815  13.880 -3.5662  0.5456  2.0619
  709TMC3    C110478   3.787   0.906  14.041  0.9378 -0.2306  0.0659
  709TMC3    C210479   3.746   0.856  13.919 -0.6102 -0.5516 -0.0671
  709TMC3    C310480   3.632   0.782  13.916  0.8999  0.0174  0.1792
  709TMC3    C410481   3.717   0.893  14.162  0.3468  0.9969  0.5320
  709TMC3    C510482   3.624   0.792  14.164  0.6318  0.3450  0.3962
  709TMC3    C610483   3.587   0.735  14.043  0.1420 -0.1845  0.8611
  709TMC3     C10484   3.929   0.892  14.068  0.3916  0.7789 -0.5180
  709TMC3     O10485   3.972   0.927  14.181  0.1088  0.2350 -0.0604
  709TMC3     H10486   3.801   0.898  13.836  0.5421 -1.6150  0.1510
  709TMC3    H110487   3.754   0.928  14.258  1.8112  1.5410 -0.2342
  709TMC3    H210488   3.502   0.668  14.042 -0.4490  0.5625  3.2510
  709TMC3    C710489   3.596   0.722  14.289 -0.2824 -0.1625 -0.0123
  709TMC3    C810490   3.603   0.698  13.801  0.2088  0.3488  0.2430
  709TMC3    O110491   3.631   0.778  14.392 -0.2086 -0.4758 -0.3905
  709TMC3    O210492   3.563   0.581  13.829 -0.1381 -0.3552  0.2831
  710TMC3    C110493   0.112   1.698   0.635 -0.7732 -0.1949  0.1651
  710TMC3    C210494   0.191   1.779   0.563  0.5131  0.2406  0.6696
  710TMC3    C310495   0.319   1.735   0.530  0.6216 -0.1296 -0.1926
  710TMC3    C410496   0.150   1.574   0.677 -0.5535  0.2384  1.1404
  710TMC3    C510497   0.282   1.536   0.655  0.1022  0.2635  0.6122
  710TMC3    C610498   0.367   1.609   0.572  0.7821 -0.0366  0.1135
  710TMC3     C10499   0.001   1.750   0.709  0.8593  0.3838  0.0658
  710TMC3     O10500   4.625   1.678   0.720  1.0474 -0.1859  0.0336
  710TMC3     H10501   0.141   1.865   0.520 -1.6103  0.0515  2.7896
  710TMC3    H110502   0.094   1.520   0.752  2.0603 -0.4385  2.5945
  710TMC3    H210503   0.475   1.597   0.576  0.5325 -2.2377  0.3475
  710TMC3    C710504   0.346   1.420   0.722 -0.2038  0.5810 -0.3799
  710TMC3    C810505   0.405   1.808   0.433  0.3208 -0.1660 -0.4367
  710TMC3    O110506   0.330   1.415   0.840 -0.2813  0.5811 -0.5643
  710TMC3    O210507   0.503   1.746   0.390 -0.0282 -0.1070  0.2156
  711TMC3    C110508   4.707   2.893  15.250 -0.2565 -0.0700 -0.2792
  711TMC3    C210509   0.000   2.908  15.386  0.0878  0.0857  0.7592
  711TMC3    C310510   0.115   2.965  15.424  0.3998  0.4204  0.0978
  711TMC3    C410511   0.057   2.960  15.155 -0.0181  0.5191  0.4478
  711TMC3    C510512   0.171   3.021  15.193  0.2915 -0.1278 -0.2101
  711TMC3    C610513   0.195   3.029  15.330  0.9469  0.1874  0.6877
  711TMC3     C10514   4.666   2.770  15.202 -0.2990 -0.8545 -0.1650
  711TMC3     O10515   4.598   2.771  15.100 -0.4269 -0.1871  0.9316
  711TMC3     H10516   4.654   2.854  15.447 -3.3561  2.5561 -1.0469
  711TMC3    H110517   0.041   2.949  15.049 -0.5947  1.6319  0.4228
  711TMC3    H210518   0.293   3.058  15.367  0.8220  0.8299  0.5101
  711TMC3    C710519   0.293   2.970  15.120 -0.0690 -0.1919  0.5141
  711TMC3    C810520   0.188   2.872  15.511 -0.4459  0.4065 -0.0704
  711TMC3    O110521   0.401   3.002  15.166 -0.0507  0.7101  0.0131
  711TMC3    O210522   0.152   2.757  15.516 -0.1415  0.4920 -0.0370
  712MPD2     C10523   2.028   4.287  14.195 -0.2194  0.1717  0.2722
  712MPD2    C110524   1.945   4.332  14.089 -1.2812  0.4580 -0.4965
  712MPD2    C210525   1.981   4.448  14.018  0.2173 -0.1052 -0.1168
  712MPD2    C310526   2.102   4.512  14.048 -0.9999  0.2117  0.2205
  712MPD2    C410527   2.173   4.471  14.154 -0.3225 -0.5449  0.4393
  712MPD2    C510528   2.143   4.359  14.226  0.2869  0.3570  0.4027
  712MPD2     H10529   1.923   4.477  13.932  0.8670  0.9577 -0.1899
  712MPD2    H110530   2.268   4.520  14.170 -0.7621 -0.0187  1.4463
  712MPD2    H210531   2.001   4.197  14.250 -0.0622 -0.4484 -0.6645
  712MPD2    H310532   2.211   4.326  14.304 -0.8808 -1.0611  0.8224
  712MPD2     N10533   2.155   4.620  13.973 -0.4833  0.6516  0.9328
  712MPD2    H510534   2.254   4.641  13.984 -0.2660  0.4199 -0.6035
  712MPD2    N110535   1.823   4.271  14.054 -0.1309 -0.3096  0.1018
  712MPD2    H710536   1.767   4.321  13.986 -0.1873 -1.0725 -0.4091
  713TMC3    C110537   2.137   0.069  13.814  0.3667  0.1037 -0.0919
  713TMC3    C210538   2.272   0.076  13.826  0.1330  0.1473 -0.2656
  713TMC3    C310539   2.341   0.107  13.714 -0.6914 -0.4920  0.0090
  713TMC3    C410540   2.070   0.112  13.702  0.3070 -0.5970  0.5115
  713TMC3    C510541   2.140   0.141  13.590 -0.0403  0.1808 -1.2271
  713TMC3    C610542   2.275   0.137  13.591 -0.3583  0.7553 -0.2240
  713TMC3     C10543   2.070   4.700  13.894  0.2762 -0.1441  0.4590
  713TMC3     O10544   1.950   4.710  13.888 -0.3520  0.4944  0.1357
  713TMC3     H10545   2.321   0.060  13.921  2.2066  1.5980 -1.1011
  713TMC3    H110546   1.962   0.108  13.700  0.1840  4.4165 -1.8811
  713TMC3    H210547   2.331   0.181  13.509  2.9626  0.4306  1.9004
  713TMC3    C710548   2.053   0.183  13.481  1.0154  0.8476 -0.4946
  713TMC3    C810549   2.479   0.144  13.731  0.5151  0.1867  0.0680
  713TMC3    O110550   1.936   0.192  13.509  0.2228  0.1124 -0.4324
  713TMC3    O210551   2.533   0.180  13.626  0.1547  0.0844 -0.2183
  714MPD2     C10552   3.598   2.682   1.608 -0.5788 -0.5469  0.3353
  714MPD2    C110553   3.605   2.580   1.509  0.1251  0.1222  0.6545
  714MPD2    C210554   3.541   2.601   1.386 -0.0293  0.4074  0.0218
  714MPD2    C310555   3.466   2.714   1.364  1.0143 -0.5522  0.2692
  714MPD2    C410556   3.455   2.810   1.463 -0.0804  0.4897  0.0742
  714MPD2    C510557   3.516   2.789   1.589 -0.1218 -0.6865  0.0014
  714MPD2     H10558   3.545   2.519   1.315  0.2340 -0.7695  1.3934
  714MPD2    H110559   3.395   2.900   1.457  0.0784  0.5677 -0.3487
  714MPD2    H210560   3.648   2.678   1.704 -0.3619 -2.4828  0.1512
  714MPD2    H310561   3.498   2.854   1.674 -1.2353  1.7323 -2.1166
  714MPD2     N10562   3.396   2.734   1.242  0.4327 -0.5718  1.1736
  714MPD2    H510563   3.349   2.820   1.217  0.3137 -1.0117 -0.1093
  714MPD2    N110564   3.685   2.477   1.542 -0.0875 -0.8001 -0.4198
  714MPD2    H710565   3.729   2.473   1.634 -0.0194 -0.3074 -0.4307
  715TMC3    C110566   3.841   2.307   1.514  0.5752  0.1822 -0.4618
  715TMC3    C210567   3.872   2.187   1.457  0.1795 -0.2617  0.6091
  715TMC3    C310568   3.993   2.137   1.505  0.3814 -0.7238 -0.2349
  715TMC3    C410569   3.923   2.366   1.606  0.1981 -0.3319  0.0469
  715TMC3    C510570   4.040   2.314   1.639  0.0792 -0.3684  0.1520
  715TMC3    C610571   4.081   2.200   1.586  0.1937  0.1819  0.4617
  715TMC3     C10572   3.717   2.370   1.464 -0.5112  0.6764 -0.1267
  715TMC3     O10573   3.665   2.331   1.361 -0.0709  0.5480  0.1683
  715TMC3     H10574   3.815   2.136   1.380 -0.4700 -2.2245  2.3921
  715TMC3    H110575   3.907   2.470   1.634 -0.1339 -0.3932  0.0782
  715TMC3    H210576   4.187   2.183   1.600 -0.5412 -1.7839  3.4077
  715TMC3    C710577   4.124   2.375   1.743  0.3294 -0.2303  0.5535
  715TMC3    C810578   4.023   2.006   1.455  0.2524 -0.7130 -1.2643
  715TMC3    O110579   4.241   2.341   1.756 -0.2543  0.1708  0.0135
  715TMC3    O210580   4.015   1.995   1.333 -0.2568 -0.4740  0.1588
  716MPD2     C10581   4.258   2.046  10.547  0.0994  0.1662  0.1578
  716MPD2    C110582   4.318   1.961  10.461  0.9422  0.1165 -0.3590
  716MPD2    C210583   4.237   1.860  10.412 -0.3835 -0.5167  0.3172
  716MPD2    C310584   4.102   1.852  10.425 -0.6123 -0.2042  0.0785
  716MPD2    C410585   4.041   1.941  10.516 -0.1007  0.6394  0.0617
  716MPD2    C510586   4.120   2.043  10.564  0.3148 -0.0947 -0.4913
  716MPD2     H10587   4.279   1.789  10.342 -0.7376  0.9548 -1.4006
  716MPD2    H110588   3.936   1.944  10.540 -0.5547 -0.9982 -1.7733
  716MPD2    H210589   4.317   2.125  10.591 -0.4405  1.3155 -1.1579
  716MPD2    H310590   4.077   2.120  10.626  0.2450  0.0617 -0.7344
  716MPD2     N10591   4.032   1.746  10.364  0.2106  1.5581  0.2196
  716MPD2    H510592   4.075   1.675  10.305 -1.2650  1.0067 -0.2023
  716MPD2    N110593   4.462   1.963  10.442 -0.6765  0.1514 -0.4955
  716MPD2    H710594   4.516   2.031  10.495 -1.1140  0.7130 -0.7644
  717TMC3    C110595   3.867   1.573  10.397 -0.4161 -0.2106 -0.2488
  717TMC3    C210596   3.963   1.481  10.357 -0.5023 -0.3506  0.0371
  717TMC3    C310597   3.953   1.351  10.412  0.1267 -0.6717  0.5998
  717TMC3    C410598   3.765   1.543  10.481 -0.2534 -0.4216 -0.2215
  717TMC3    C510599   3.761   1.410  10.527  0.1042 -0.5462  0.6410
  717TMC3    C610600   3.856   1.316  10.499  0.0608 -0.6229 -0.0522
  717TMC3     C10601   3.902   1.710  10.408 -0.5833 -0.3915 -0.5109
  717TMC3     O10602   3.817   1.782  10.453  0.1996  0.5135 -0.4220
  717TMC3     H10603   4.046   1.499  10.289  0.1922  0.5267  1.1005
  717TMC3    H110604   3.687   1.613  10.510 -1.8457 -1.1053 -2.8748
  717TMC3    H210605   3.853   1.211  10.527 -0.6353 -1.1667 -2.1929
  717TMC3    C710606   3.647   1.377  10.607  0.0187  0.8013 -0.1591
  717TMC3    C810607   4.072   1.269  10.415 -0.3308 -0.1819  0.2709
  717TMC3    O110608   3.548   1.449  10.594  0.3025  0.4102 -0.1698
  717TMC3    O210609   4.141   1.262  10.314  0.4882 -0.4135  0.5507
  718MPD2     C10610   3.726   4.503  13.383  0.0729 -0.2757 -0.2741
  718MPD2    C110611   3.691   4.513  13.252 -0.4185 -0.3525 -0.7763
  718MPD2    C210612   3.554   4.503  13.226 -0.5347 -0.1383 -0.3143
  718MPD2    C310613   3.464   4.482  13.325 -0.1145 -0.0558  0.2825
  718MPD2    C410614   3.493   4.464  13.459  0.1189 -0.2195 -0.3051
  718MPD2    C510615   3.629   4.487  13.486 -0.0567  0.6243 -0.1759
  718MPD2     H10616   3.515   4.509  13.125 -4.7702  1.0578  1.3849
  718MPD2    H110617   3.417   4.451  13.536  0.4981  0.2230  0.1516
  718MPD2    H210618   3.831   4.508  13.408  0.0531  0.3397 -0.3086
  718MPD2    H310619   3.666   4.480  13.588 -0.9896 -0.7301  0.0796
  718MPD2     N10620   3.330   4.475  13.279 -1.0766 -1.4644 -0.1644
  718MPD2    H510621   3.315   4.479  13.179 -0.8046 -1.1873 -0.1963
  718MPD2    N110622   3.787   4.527  13.153  0.1210  0.2946  0.4115
  718MPD2    H710623   3.883   4.550  13.176  0.6229 -1.4171  0.0492
  719TMC3    C110624   3.875   4.543  12.928 -0.5327  0.8172  0.3683
  719TMC3    C210625   3.819   4.535  12.798 -0.7676 -0.4504 -0.4713
  719TMC3    C310626   3.849   4.632  12.706  0.3228  0.2847 -0.1600
  719TMC3    C410627   3.953   4.650  12.959  0.4631 -0.4846 -0.4469
  719TMC3    C510628   3.975   0.020  12.870  0.4744 -0.5998  0.2184
  719TMC3    C610629   3.929   0.013  12.742  0.1916 -0.2907 -0.8529
  719TMC3     C10630   3.763   4.505  13.021  0.3447 -0.0945 -0.3628
  719TMC3     O10631   3.663   4.477  12.957  0.0112  0.7147  0.2545
  719TMC3     H10632   3.768   4.449  12.756 -0.4821 -1.2314  0.7938
  719TMC3    H110633   3.998   4.657  13.057 -1.4267 -0.5412  0.4109
  719TMC3    H210634   3.952   0.090  12.669 -0.4679  1.8271  1.1648
  719TMC3    C710635   4.072   0.127  12.886 -0.3052 -0.2051  0.7128
  719TMC3    C810636   3.732   4.688  12.647 -0.8043  0.1767 -0.4961
  719TMC3    O110637   4.114   0.175  12.781 -0.4148  0.0412 -0.3246
  719TMC3    O210638   3.745   0.057  12.566 -0.7233 -0.0387 -0.0351
  720MPD2     C10639   1.435   1.438  14.073 -0.0157 -0.0152 -0.1217
  720MPD2    C110640   1.535   1.423  13.976 -0.1362 -0.1078  0.1196
  720MPD2    C210641   1.669   1.421  14.010 -0.3366 -0.9729 -0.2489
  720MPD2    C310642   1.694   1.403  14.146 -0.2634  0.4518 -0.2952
  720MPD2    C410643   1.596   1.425  14.244  0.3684 -0.5914 -0.0804
  720MPD2    C510644   1.467   1.440  14.205  0.3695  0.2943  0.3904
  720MPD2     H10645   1.751   1.435  13.940  1.1827 -1.6853  1.3891
  720MPD2    H110646   1.610   1.434  14.351  0.1836 -1.8681  0.0598
  720MPD2    H210647   1.328   1.437  14.053 -0.7906  0.5899  3.9078
  720MPD2    H310648   1.393   1.455  14.283 -1.6978 -1.3673 -1.2435
  720MPD2     N10649   1.831   1.369  14.178 -0.1263  1.2285 -0.0204
  720MPD2    H510650   1.899   1.349  14.105 -1.3739 -1.5008 -0.4491
  720MPD2    N110651   1.500   1.448  13.840 -0.7488 -0.2566  0.5019
  720MPD2    H710652   1.581   1.459  13.779 -0.9408 -2.4883 -0.1747
  721TMC3    C110653   2.018   1.320  14.288 -0.4107  0.3987 -0.6098
  721TMC3    C210654   2.082   1.260  14.401  0.1007  0.7027  0.2567
  721TMC3    C310655   2.217   1.239  14.392 -0.2426  0.1036 -0.2427
  721TMC3    C410656   2.089   1.355  14.173  0.2348 -0.2776 -0.1075
  721TMC3    C510657   2.225   1.325  14.181  0.9227 -0.2712 -0.2887
  721TMC3    C610658   2.291   1.274  14.289 -0.1596 -0.1312 -0.7437
  721TMC3     C10659   1.882   1.356  14.304 -0.9646 -0.0729 -0.6578
  721TMC3     O10660   1.840   1.371  14.419 -0.5049  0.2795  0.4499
  721TMC3     H10661   2.037   1.237  14.496  0.4858 -0.3587  0.1813
  721TMC3    H110662   2.050   1.419  14.094 -0.3847 -2.8985 -1.9066
  721TMC3    H210663   2.396   1.254  14.275  0.0022  0.2722 -0.0975
  721TMC3    C710664   2.301   1.388  14.074  0.5180  0.3888  0.0880
  721TMC3    C810665   2.301   1.247  14.516 -0.5874  0.2427 -0.0286
  721TMC3    O110666   2.411   1.427  14.086 -0.1693  0.1418 -0.4083
  721TMC3    O210667   2.399   1.323  14.511 -0.2936 -0.9196 -1.1829
  722MPD2     C10668   1.036   4.623  13.248 -0.2184  0.6044 -0.3486
  722MPD2    C110669   1.033   0.011  13.171  0.0796 -0.1177  0.0687
  722MPD2    C210670   0.913   0.078  13.152 -0.0198 -0.4462  0.2129
  722MPD2    C310671   0.797   0.023  13.193  0.6655 -0.8638 -0.2964
  722MPD2    C410672   0.799   4.629  13.261 -0.0727 -0.4373  0.3526
  722MPD2    C510673   0.920   4.581  13.300 -0.5135  0.0548 -0.2691
  722MPD2     H10674   0.913   0.181  13.117 -0.2665 -0.7708 -0.7657
  722MPD2    H110675   0.707   4.581  13.294 -1.2484  0.8667 -0.9936
  722MPD2    H210676   1.122   4.567  13.282  0.9848  1.8235 -1.3771
  722MPD2    H310677   0.934   4.498  13.369  0.1830 -0.0058 -0.4874
  722MPD2     N10678   0.669   0.089  13.165  0.2938 -0.3448 -0.0712
  722MPD2    H510679   0.681   0.176  13.113  2.1945 -0.4842  0.1384
  722MPD2    N110680   1.149   0.065  13.109  0.3363 -0.2616  0.4082
  722MPD2    H710681   1.123   0.133  13.038  1.5574 -0.8700 -0.6101
  723TMC3    C110682   0.431   0.135  13.152  0.0700  0.2521 -0.0119
  723TMC3    C210683   0.309   0.090  13.182 -0.8777 -0.6658 -0.3579
  723TMC3    C310684   0.203   0.179  13.166  0.0544 -0.1915  0.1499
  723TMC3    C410685   0.457   0.260  13.118 -0.2984 -0.5750 -0.8057
  723TMC3    C510686   0.356   0.356  13.114 -0.6773  0.3783 -0.0819
  723TMC3    C610687   0.223   0.313  13.132  0.7376 -0.4467 -0.3699
  723TMC3     C10688   0.542   0.048  13.189  0.1962 -0.8480  0.3640
  723TMC3     O10689   0.514   4.678  13.260 -0.0229  0.1552 -0.2204
  723TMC3     H10690   0.285   4.711  13.203  1.0461 -0.7384  1.5553
  723TMC3    H110691   0.561   0.289  13.101 -0.0541 -0.3652  1.0268
  723TMC3    H210692   0.132   0.368  13.112  0.5017 -0.3299  1.0344
  723TMC3    C710693   0.388   0.494  13.117 -0.3603 -0.0787 -0.6953
  723TMC3    C810694   0.068   0.123  13.141  0.2726  0.1658  0.6910
  723TMC3    O110695   0.505   0.519  13.100 -0.2553 -0.1573  0.1630
  723TMC3    O210696   4.693   0.193  13.146 -0.6279  0.2540  0.3068
  724TMC3    C110697   1.476   3.439  10.075 -0.2780 -0.0824 -0.6784
  724TMC3    C210698   1.567   3.527  10.019 -0.1608 -0.0730  0.3618
  724TMC3    C310699   1.533   3.559   9.893  0.7550  0.3634  0.5907
  724TMC3    C410700   1.354   3.409  10.019  0.0996 -0.7746  0.3965
  724TMC3    C510701   1.328   3.454   9.893  0.1037  0.4049  0.3544
  724TMC3    C610702   1.408   3.544   9.835  0.6237 -0.6006  0.1873
  724TMC3     C10703   1.530   3.361  10.179  0.2264 -0.7812 -0.1183
  724TMC3     O10704   1.485   3.249  10.181  0.2024  0.1551  0.6228
  724TMC3     H10705   1.671   3.524  10.051  0.2756 -0.2498 -1.1069
  724TMC3    H110706   1.287   3.335  10.061  0.7153 -0.7421  1.4392
  724TMC3    H210707   1.389   3.578   9.734  2.6966  0.7630  0.2536
  724TMC3    C710708   1.187   3.448   9.854 -0.6060  0.2238  0.2381
  724TMC3    C810709   1.623   3.649   9.827 -0.4678  0.1337 -0.2271
  724TMC3    O110710   1.135   3.340   9.875 -0.4222 -0.1953  0.1834
  724TMC3    O210711   1.704   3.709   9.899  0.1917  0.1485 -0.1151
  725TMC3    C110712   2.347   1.799  13.122  0.5249  0.7869 -0.2393
  725TMC3    C210713   2.289   1.823  13.000  0.0482  0.0920 -0.5021
  725TMC3    C310714   2.230   1.714  12.943 -0.2003  0.0645 -0.1195
  725TMC3    C410715   2.351   1.681  13.184  0.0937 -0.0119  0.0048
  725TMC3    C510716   2.301   1.575  13.117 -0.3934  0.0741  0.1086
  725TMC3    C610717   2.238   1.593  12.994 -0.3579  0.2817  0.2249
  725TMC3     C10718   2.412   1.914  13.182  1.0007 -0.0204  0.4678
  725TMC3     O10719   2.445   2.008  13.112 -0.0707  0.4745 -0.7091
  725TMC3     H10720   2.299   1.921  12.955 -0.3116  0.1762 -0.4029
  725TMC3    H110721   2.373   1.659  13.288 -0.3681  2.7908  0.6970
  725TMC3    H210722   2.202   1.507  12.939  0.1371  0.4995 -0.4340
  725TMC3    C710723   2.411   1.486  13.095 -0.0618  0.2299 -0.6940
  725TMC3    C810724   2.200   1.713  12.803 -0.1226 -0.0923 -0.0674
  725TMC3    O110725   2.397   1.392  13.014  0.4121 -0.0551  0.2711
  725TMC3    O210726   2.152   1.610  12.753 -1.0749  0.2324 -0.0190
  726MPD2     C10727   0.889   3.341  10.848  0.7199 -0.0534 -0.4334
  726MPD2    C110728   0.776   3.378  10.781 -0.9836 -0.1764 -0.1197
  726MPD2    C210729   0.649   3.347  10.830 -0.5395  0.4015  0.9721
  726MPD2    C310730   0.641   3.278  10.955  0.0228 -0.6027 -0.9082
  726MPD2    C410731   0.763   3.247  11.016 -0.3851  0.1891 -0.0904
  726MPD2    C510732   0.883   3.272  10.962 -0.3638 -0.1786  0.4249
  726MPD2     H10733   0.561   3.388  10.782  0.9616  0.2136 -1.9049
  726MPD2    H110734   0.759   3.206  11.116 -2.0062 -0.6177 -0.4780
  726MPD2    H210735   0.992   3.368  10.829  0.1659  1.1492 -1.7812
  726MPD2    H310736   0.971   3.254  11.022  0.0282 -0.4854 -0.2526
  726MPD2     N10737   0.519   3.242  11.018  0.3640  0.1000  0.2873
  726MPD2    H510738   0.521   3.182  11.100  0.2386  0.7887  0.7952
  726MPD2    N110739   0.781   3.461  10.670  0.0748  0.2599  0.1980
  726MPD2    H710740   0.692   3.492  10.634 -1.2928 -0.7505  2.6792
  727TMC3    C110741   0.868   3.614  10.521  0.3898 -0.3074  0.3107
  727TMC3    C210742   0.958   3.715  10.523  0.3060 -0.4665 -0.8239
  727TMC3    C310743   0.943   3.836  10.454  0.1702 -0.0913  0.1650
  727TMC3    C410744   0.761   3.619  10.440 -0.0539  0.0315 -0.5051
  727TMC3    C510745   0.747   3.730  10.360 -0.3857 -0.8174  0.4162
  727TMC3    C610746   0.823   3.846  10.373 -0.5282  0.0491 -0.0180
  727TMC3     C10747   0.893   3.498  10.604 -0.0799  0.2112 -0.1381
  727TMC3     O10748   1.010   3.469  10.626  0.3776 -0.3870 -0.2160
  727TMC3     H10749   1.048   3.703  10.582 -1.6849 -0.9818  2.1303
  727TMC3    H110750   0.697   3.532  10.430  2.2010 -1.6587 -0.1776
  727TMC3    H210751   0.796   3.940  10.326 -1.3472 -0.1561  0.0522
  727TMC3    C710752   0.634   3.728  10.268 -0.1650  0.1407 -0.1894
  727TMC3    C810753   1.035   3.943  10.487  0.3545 -0.5506 -0.0070
  727TMC3    O110754   0.548   3.645  10.295 -0.5987 -0.3611  0.1431
  727TMC3    O210755   1.114   3.924  10.579 -0.0615 -0.5493 -0.0108
  728TMC3    C110756   3.738   1.681  15.480 -0.6378  0.3684 -0.0960
  728TMC3    C210757   3.863   1.662  15.541  0.0370  0.3238  0.0052
  728TMC3    C310758   3.974   1.655  15.465  0.3974 -0.9836  0.1364
  728TMC3    C410759   3.737   1.702  15.347  0.3864 -0.8529  0.2642
  728TMC3    C510760   3.849   1.703  15.270 -0.2030  0.0353  1.3210
  728TMC3    C610761   3.969   1.679  15.330 -0.6357 -0.0309  0.2403
  728TMC3     C10762   3.633   1.721  15.563 -0.2380 -1.1977  0.2221
  728TMC3     O10763   3.623   1.660  15.672 -1.0035 -0.1794 -0.0907
  728TMC3     H10764   3.865   1.652  15.649  2.9176  0.7635 -0.0050
  728TMC3    H110765   3.642   1.725  15.301  0.8815 -0.9094 -0.7883
  728TMC3    H210766   4.047   1.640  15.266 -0.6402  0.6639 -0.1878
  728TMC3    C710767   3.831   1.733  15.129 -0.7710 -0.5490 -0.0023
  728TMC3    C810768   4.098   1.614  15.529  0.1750  0.1778 -0.5557
  728TMC3    O110769   3.717   1.733  15.079  0.0360  0.4287  0.0195
  728TMC3    O210770   4.089   1.591  15.650 -0.0218  0.4843  0.2763
  729MPD2     C10771   1.598   3.143  16.399  0.4037 -1.0181 -0.1353
  729MPD2    C110772   1.725   3.111  16.440  0.7364 -0.1196 -0.5121
  729MPD2    C210773   1.752   3.076  16.575  0.1239  0.5472  0.3524
  729MPD2    C310774   1.650   3.055  16.662 -0.4605 -0.5212  0.0020
  729MPD2    C410775   1.517   3.083  16.615  0.0783  0.8323  0.3323
  729MPD2    C510776   1.495   3.132  16.486 -0.0947  0.3437  0.1206
  729MPD2     H10777   1.852   3.053  16.611  0.6096  2.0515 -0.0542
  729MPD2    H110778   1.439   3.081  16.691  1.2794 -1.4443  1.5266
  729MPD2    H210779   1.581   3.164  16.294 -0.0992 -2.6066 -0.3752
  729MPD2    H310780   1.396   3.167  16.456  0.1616 -1.0268 -2.2610
  729MPD2     N10781   1.670   3.023  16.794  0.6128  0.3218 -0.6552
  729MPD2    H510782   1.592   3.026  16.858  0.0957  1.9642 -1.3543
  729MPD2    N110783   1.821   3.113  16.335 -0.0770  0.0280 -0.6636
  729MPD2    H710784   1.793   3.149  16.244 -0.0082 -3.6268 -2.1327
  730TMC3    C110785   1.819   3.024  16.982  0.3030  0.8839  0.9498
  730TMC3    C210786   1.952   3.048  17.003 -0.0918  0.5339 -0.5832
  730TMC3    C310787   1.991   3.144  17.088  0.5277 -0.3439 -0.1697
  730TMC3    C410788   1.727   3.091  17.057  0.1841 -0.1826 -0.5012
  730TMC3    C510789   1.772   3.193  17.135 -0.6498 -0.1775  0.0880
  730TMC3    C610790   1.904   3.225  17.150 -0.5848 -0.1566 -0.4737
  730TMC3     C10791   1.791   2.982  16.846  0.2282  0.8290 -0.1157
  730TMC3     O10792   1.877   2.917  16.787  0.5046 -0.2764  0.0195
  730TMC3     H10793   2.029   3.007  16.938  0.7683  2.5769 -0.8507
  730TMC3    H110794   1.619   3.081  17.050  0.1463 -0.6917  0.8597
  730TMC3    H210795   1.943   3.308  17.207 -2.1489 -0.0906  0.4993
  730TMC3    C710796   1.689   3.307  17.104 -0.0014  0.6057 -0.1217
  730TMC3    C810797   2.126   3.192  17.054 -0.4481 -0.2912  0.3088
  730TMC3    O110798   1.605   3.292  17.016  0.6475  0.0878  0.1832
  730TMC3    O210799   2.204   3.209  17.145 -0.3590 -0.5333 -0.6157
  731MPD2     C10800   1.951   0.779  11.802 -0.1802 -0.1447  0.3512
  731MPD2    C110801   2.081   0.793  11.833 -0.7782  0.1968  0.5047
  731MPD2    C210802   2.120   0.751  11.961 -0.3427  0.3187  0.1512
  731MPD2    C310803   2.031   0.705  12.054  0.6251  0.1161  0.3146
  731MPD2    C410804   1.897   0.696  12.019 -0.3861  0.7638  0.2035
  731MPD2    C510805   1.859   0.734  11.891  0.1541 -0.2730 -0.4194
  731MPD2     H10806   2.221   0.759  12.000  0.5476 -0.9437 -1.8746
  731MPD2    H110807   1.823   0.648  12.081  0.2164 -1.1075 -0.5419
  731MPD2    H210808   1.913   0.813  11.707  3.2211 -0.2495 -1.0521
  731MPD2    H310809   1.759   0.709  11.857 -0.4265  2.4109 -0.6873
  731MPD2     N10810   2.077   0.671  12.186 -0.1771  0.0862  0.3448
  731MPD2    H510811   2.170   0.695  12.220  0.6080 -2.1334 -0.1995
  731MPD2    N110812   2.164   0.855  11.733  0.6104  0.0803 -0.2507
  731MPD2    H710813   2.114   0.899  11.656  1.8124 -0.1119 -1.1339
  732TMC3    C110814   2.335   0.991  11.661 -0.3660 -0.2713 -0.2238
  732TMC3    C210815   2.262   1.012  11.549  0.6298  0.2820  0.0805
  732TMC3    C310816   2.251   1.138  11.491 -0.2036 -0.2660  0.2597
  732TMC3    C410817   2.402   1.088  11.722 -0.1924 -0.4383 -0.0761
  732TMC3    C510818   2.380   1.216  11.679  0.6199 -0.0931 -0.4327
  732TMC3    C610819   2.303   1.240  11.568  0.6271  0.3117  0.2514
  732TMC3     C10820   2.302   0.878  11.748 -0.0034  0.1215  0.6050
  732TMC3     O10821   2.383   0.843  11.833  0.1104  0.1373 -0.0394
  732TMC3     H10822   2.230   0.925  11.493  0.6621 -0.3229  1.0126
  732TMC3    H110823   2.468   1.058  11.803  0.7843  1.2394 -0.2527
  732TMC3    H210824   2.288   1.341  11.533 -1.0274  0.5065  1.5382
  732TMC3    C710825   2.416   1.325  11.762  0.1825 -0.1370  1.2113
  732TMC3    C810826   2.126   1.148  11.422  0.1716 -0.5621  0.3038
  732TMC3    O110827   2.346   1.422  11.744  0.0578  0.2211 -0.1285
  732TMC3    O210828   2.119   1.085  11.319 -0.4405 -1.2290  0.1117
  733TMC3    C110829   2.898   4.425  13.187 -0.1102 -0.2132 -0.3026
  733TMC3    C210830   2.991   4.415  13.288 -0.1325 -0.1495 -0.7653
  733TMC3    C310831   3.102   4.492  13.266 -0.1035  0.9330 -0.1773
  733TMC3    C410832   2.923   4.476  13.062  0.0264  0.4253  0.0725
  733TMC3    C510833   3.037   4.557  13.055  0.7478  0.6338 -0.1069
  733TMC3    C610834   3.128   4.562  13.151  0.1993  0.0863 -0.8933
  733TMC3     C10835   2.776   4.347  13.202  0.5799 -0.0199 -0.2044
  733TMC3     O10836   2.700   4.323  13.114  0.4485  0.1685  0.9412
  733TMC3     H10837   2.990   4.346  13.371 -1.4527 -0.1202 -0.7590
  733TMC3    H110838   2.862   4.480  12.972  1.6432 -0.7180 -1.0645
  733TMC3    H210839   3.215   4.624  13.134  0.8047 -0.1501  1.2988
  733TMC3    C710840   3.071   4.609  12.925 -0.2677  0.0987 -0.9173
  733TMC3    C810841   3.216   4.462  13.351  0.1318 -0.1196  0.4011
  733TMC3    O110842   2.989   4.674  12.867  0.0574  0.5388 -0.5500
  733TMC3    O210843   3.198   4.425  13.464  0.3110 -0.0311  0.2474
  734MPD2     C10844   0.435   2.478  12.592 -0.3436 -0.2559  0.3061
  734MPD2    C110845   0.425   2.364  12.515  0.4709  0.0659 -0.1639
  734MPD2    C210846   0.485   2.359  12.392  0.3803  0.0351 -0.8247
  734MPD2    C310847   0.552   2.465  12.338  0.0291 -0.4482 -0.0476
  734MPD2    C410848   0.558   2.583  12.412 -0.0246  0.2297 -0.7971
  734MPD2    C510849   0.504   2.590  12.541 -0.2339  0.1264 -0.1904
  734MPD2     H10850   0.460   2.287  12.315 -2.5615 -0.4837  0.6082
  734MPD2    H110851   0.620   2.662  12.371 -0.8969  0.3100 -1.9446
  734MPD2    H210852   0.398   2.471  12.694 -1.3851  0.4690 -0.0282
  734MPD2    H310853   0.515   2.681  12.599 -1.4550  0.4085 -0.4028
  734MPD2     N10854   0.600   2.458  12.203  0.4479  0.2992 -0.3609
  734MPD2    H510855   0.591   2.369  12.154 -0.2254 -0.3733  0.9929
  734MPD2    N110856   0.344   2.260  12.561 -0.2274 -0.6855 -0.6847
  734MPD2    H710857   0.297   2.277  12.649  1.1996  0.1409 -0.0805
  735TMC3    C110858   0.195   2.078  12.537 -0.4106  0.0121  0.2643
  735TMC3    C210859   0.117   2.089  12.426  0.3508  0.2588 -0.3686
  735TMC3    C310860   0.058   1.977  12.370 -0.2977 -0.5525 -0.4837
  735TMC3    C410861   0.216   1.957  12.595  0.0623  0.6274 -0.0474
  735TMC3    C510862   0.145   1.850  12.544  0.0271 -0.2925  0.4516
  735TMC3    C610863   0.062   1.854  12.431  0.5811 -0.2680  0.0473
  735TMC3     C10864   0.310   2.148  12.489  0.4489 -0.0102  0.5448
  735TMC3     O10865   0.343   2.117  12.378 -0.6291 -0.3150  0.7425
  735TMC3     H10866   0.113   2.184  12.374 -0.1651  1.0334  1.0635
  735TMC3    H110867   0.271   1.953  12.688  1.3284 -0.4587 -0.8480
  735TMC3    H210868   0.017   1.766  12.387 -0.9447  1.1764 -1.3337
  735TMC3    C710869   0.247   1.749  12.528  0.6599  0.9906 -0.3513
  735TMC3    C810870   0.054   1.969  12.220 -0.2694  0.4315  0.2840
  735TMC3    O110871   0.355   1.795  12.576  0.3912 -0.3255 -0.1890
  735TMC3    O210872   4.713   1.883  12.162 -0.1821 -0.3759 -0.3903
  736MPD2     C10873   0.221   1.394  12.466  0.0208 -0.0188 -0.1380
  736MPD2    C110874   0.279   1.518  12.454  0.3480 -0.1299  0.4806
  736MPD2    C210875   0.409   1.539  12.410  0.5045 -0.4164  0.0666
  736MPD2    C310876   0.484   1.429  12.376  0.0546  0.8240 -0.5203
  736MPD2    C410877   0.423   1.307  12.378 -0.2819  0.8391  0.2043
  736MPD2    C510878   0.301   1.287  12.437 -0.3448  0.1687  0.2325
  736MPD2     H10879   0.445   1.641  12.397  1.4384 -0.6684  0.6836
  736MPD2    H110880   0.478   1.220  12.342 -1.0596  0.2504  0.4363
  736MPD2    H210881   0.119   1.374  12.498  0.4231  0.7794  1.6321
  736MPD2    H310882   0.262   1.189  12.463 -1.8635  0.6955 -0.0588
  736MPD2     N10883   0.615   1.440  12.321  0.4714  0.1011 -0.2772
  736MPD2    H510884   0.671   1.355  12.318  1.9129  1.0010  0.9303
  736MPD2    N110885   0.195   1.630  12.484 -0.3054 -0.1575  0.7849
  736MPD2    H710886   0.095   1.610  12.477 -0.0528 -1.1019 -0.0661
  737TMC3    C110887   0.818   1.533  12.243  0.5630 -0.5047  0.3301
  737TMC3    C210888   0.879   1.648  12.201  0.1964  0.4204  0.3775
  737TMC3    C310889   0.983   1.642  12.121 -0.3004  0.6726 -0.5484
  737TMC3    C410890   0.851   1.416  12.184  0.1731  0.1215  0.3190
  737TMC3    C510891   0.963   1.409  12.105  0.5122 -0.0235 -0.4556
  737TMC3    C610892   1.036   1.525  12.076 -0.7359  0.0535  0.9033
  737TMC3     C10893   0.679   1.555  12.289  0.4290  0.1336  0.2166
  737TMC3     O10894   0.644   1.666  12.256 -0.0760  0.4135 -0.6138
  737TMC3     H10895   0.842   1.741  12.243 -1.9830 -0.3231  0.1168
  737TMC3    H110896   0.805   1.319  12.199  2.0199 -0.8061 -0.0956
  737TMC3    H210897   1.132   1.511  12.029 -0.6718 -2.2385  1.7402
  737TMC3    C710898   0.998   1.280  12.050  0.5433  1.0231  0.5942
  737TMC3    C810899   1.006   1.766  12.051 -1.2128  0.3719  1.2235
  737TMC3    O110900   0.935   1.181  12.080 -0.1183  0.3757  0.3268
  737TMC3    O210901   0.950   1.868  12.089  0.1127 -0.1346  0.3118
  738MPD2     C10902   0.369   0.418  15.051 -0.9568  0.3018  0.1109
  738MPD2    C110903   0.459   0.357  15.127  0.8612  0.3686 -0.1978
  738MPD2    C210904   0.586   0.405  15.137  0.3081  0.3062 -0.3214
  738MPD2    C310905   0.631   0.516  15.067 -0.2019  0.4075 -0.7979
  738MPD2    C410906   0.539   0.566  14.976  0.4324  0.1775 -0.4870
  738MPD2    C510907   0.414   0.518  14.968 -0.4545  1.0899  0.5792
  738MPD2     H10908   0.656   0.352  15.200 -0.5628 -1.2133 -0.6212
  738MPD2    H110909   0.565   0.661  14.930 -2.1530  1.7979  1.4332
  738MPD2    H210910   0.270   0.377  15.043 -0.8875 -0.6034  3.6922
  738MPD2    H310911   0.347   0.569  14.900 -2.6504 -2.9177 -0.2566
  738MPD2     N10912   0.753   0.582  15.087  0.1306 -0.7083 -0.0858
  738MPD2    H510913   0.773   0.667  15.035 -0.1043 -0.2458  0.5730
  738MPD2    N110914   0.438   0.229  15.182 -0.2466 -0.6216 -0.3428
  738MPD2    H710915   0.511   0.176  15.228 -0.3668  0.1616  0.7402
  739TMC3    C110916   0.984   0.584  15.119 -0.4743  0.1290  0.2841
  739TMC3    C210917   0.999   0.641  14.995 -0.3528  0.4568  0.3732
  739TMC3    C310918   1.122   0.695  14.964 -0.4199  0.2213 -0.5467
  739TMC3    C410919   1.088   0.581  15.212 -0.0074  0.4855 -0.5210
  739TMC3    C510920   1.202   0.652  15.185 -0.2912 -0.2939  0.3862
  739TMC3    C610921   1.223   0.707  15.056 -0.3224  0.6913 -0.1618
  739TMC3     C10922   0.860   0.528  15.160  0.0244 -0.7944  0.4824
  739TMC3     O10923   0.854   0.457  15.255 -0.1186  0.7061 -0.7636
  739TMC3     H10924   0.924   0.628  14.918  1.4479 -0.6082 -1.1847
  739TMC3    H110925   1.066   0.547  15.312  2.1097 -0.1969 -0.2913
  739TMC3    H210926   1.315   0.763  15.043  1.0812 -1.6847 -0.4720
  739TMC3    C710927   1.314   0.662  15.281 -0.6362  0.2050  0.5096
  739TMC3    C810928   1.128   0.737  14.826  0.3715  0.7089 -0.4470
  739TMC3    O110929   1.418   0.719  15.244 -0.0050 -0.4533  0.8692
  739TMC3    O210930   1.023   0.730  14.758  0.7999 -0.6313 -0.4511
  740TMC3    C110931   1.664   1.767  14.566 -0.2208  0.6508 -0.4030
  740TMC3    C210932   1.716   1.790  14.692  0.6551 -0.9617 -0.2815
  740TMC3    C310933   1.850   1.780  14.702 -0.6661 -0.0651 -0.2924
  740TMC3    C410934   1.751   1.739  14.455 -0.4290  0.5195 -0.4960
  740TMC3    C510935   1.883   1.735  14.477 -0.3342  0.3909  0.6589
  740TMC3    C610936   1.937   1.761  14.597 -0.9138  0.1281 -0.0235
  740TMC3     C10937   1.523   1.767  14.535  0.5059 -0.7942 -0.0305
  740TMC3     O10938   1.493   1.780  14.417 -0.2911 -0.0213  0.1716
  740TMC3     H10939   1.659   1.811  14.781  2.2307 -0.5241  0.6211
  740TMC3    H110940   1.714   1.712  14.356 -0.1168 -0.8569 -0.2351
  740TMC3    H210941   2.043   1.782  14.612 -0.9700  0.1324  0.3654
  740TMC3    C710942   1.974   1.722  14.363 -0.2903 -0.8107 -0.1362
  740TMC3    C810943   1.897   1.741  14.833  0.2113  0.8040 -0.7913
  740TMC3    O110944   2.085   1.683  14.403 -0.3182 -0.0698  0.0574
  740TMC3    O210945   1.828   1.783  14.926 -0.5059  0.4660 -0.0972
  741TMC3    C110946   1.067   1.115  14.487 -0.5289  0.1150  0.0187
  741TMC3    C210947   0.940   1.071  14.477 -0.6514 -0.2433 -0.0514
  741TMC3    C310948   0.874   1.016  14.582 -0.3368  0.3556 -0.1663
  741TMC3    C410949   1.131   1.110  14.611 -0.0347 -0.0272  0.2621
  741TMC3    C510950   1.057   1.069  14.723 -0.7928 -0.8383  0.2537
  741TMC3    C610951   0.932   1.016  14.706 -0.3318 -0.1974  0.3862
  741TMC3     C10952   1.145   1.139  14.370  0.1644  0.4064  0.0036
  741TMC3     O10953   1.267   1.159  14.391 -0.6704  0.7990  0.0049
  741TMC3     H10954   0.869   1.068  14.396 -1.5339  1.8423  0.6338
  741TMC3    H110955   1.233   1.144  14.616 -0.1971  0.7932 -1.6930
  741TMC3    H210956   0.881   0.990  14.798 -0.5423 -0.4960  0.1869
  741TMC3    C710957   1.094   1.113  14.858 -0.0984  0.2210 -0.6322
  741TMC3    C810958   0.757   0.931  14.557  0.9210 -0.3959  0.2152
  741TMC3    O110959   1.034   1.072  14.952 -0.1199 -0.2450 -0.4012
  741TMC3    O210960   0.675   0.968  14.474 -0.1166 -0.1155 -0.0549
  742TMC3    C110961   1.162   4.309  15.646 -0.1396 -0.4677 -0.0175
  742TMC3    C210962   1.078   4.304  15.540 -0.3121  0.2410  0.0019
  742TMC3    C310963   1.088   4.199  15.448 -0.0372 -0.1181  0.0888
  742TMC3    C410964   1.254   4.206  15.663 -0.0047 -0.0464  0.9644
  742TMC3    C510965   1.263   4.103  15.575  0.2906  0.3871  0.9884
  742TMC3    C610966   1.189   4.092  15.468  0.1097 -0.7229 -0.1787
  742TMC3     C10967   1.135   4.387  15.768 -0.3968  0.1594 -0.4148
  742TMC3     O10968   1.214   4.386  15.860 -0.1292  0.1744  0.7149
  742TMC3     H10969   1.012   4.389  15.525 -1.1425 -0.1129  1.6699
  742TMC3    H110970   1.320   4.208  15.749 -0.5501  1.5279  1.3513
  742TMC3    H210971   1.206   4.016  15.394 -4.2542 -0.0377 -1.8863
  742TMC3    C710972   1.366   3.997  15.578  0.3439  0.2532  0.0296
  742TMC3    C810973   0.987   4.183  15.341 -0.1395 -0.0251 -0.3067
  742TMC3    O110974   1.396   3.932  15.477 -0.0112 -0.3720 -0.0261
  742TMC3    O210975   1.010   4.088  15.266  0.1138  0.3791  0.3083
  743MPD2     C10976   3.307   4.032   1.584 -0.1005  0.1055 -0.0139
  743MPD2    C110977   3.365   4.091   1.476 -0.1430 -0.4225 -0.5613
  743MPD2    C210978   3.505   4.103   1.464  0.3602 -0.3771  0.4189
  743MPD2    C310979   3.587   4.058   1.568 -0.6101 -0.2410  0.0304
  743MPD2    C410980   3.525   4.005   1.678  0.1207 -0.3799  0.5361
  743MPD2    C510981   3.394   3.988   1.682  0.6571 -0.0001  0.4407
  743MPD2     H10982   3.557   4.141   1.377  2.6080  0.7087  2.2154
  743MPD2    H110983   3.573   3.974   1.770 -0.4666 -1.2773  0.5430
  743MPD2    H210984   3.201   4.012   1.589 -0.4752  2.1446  0.1470
  743MPD2    H310985   3.348   3.950   1.773 -0.5183  1.8155  0.6145
  743MPD2     N10986   3.724   4.085   1.558 -0.0404  0.4027 -0.5292
  743MPD2    H510987   3.757   4.141   1.480  1.4221  0.5252  0.1604
  743MPD2    N110988   3.283   4.155   1.377  0.1925  0.0056  0.2336
  743MPD2    H710989   3.186   4.180   1.392  0.3569  0.7218  0.0804
  744TMC3    C110990   3.223   4.223   1.161  0.1343  0.2247  0.8087
  744TMC3    C210991   3.126   4.301   1.222  0.3799  0.1157  0.8711
  744TMC3    C310992   3.069   4.401   1.142 -0.2513  0.3839 -0.3648
  744TMC3    C410993   3.260   4.246   1.032 -0.3411  0.0840  0.0314
  744TMC3    C510994   3.193   4.350   0.959 -0.4246 -0.2532  0.6752
  744TMC3    C610995   3.091   4.421   1.013 -0.3485 -0.3728 -0.0908
  744TMC3     C10996   3.327   4.178   1.246  0.4572 -0.3167 -0.3428
  744TMC3     O10997   3.438   4.161   1.194  0.1526  0.5045 -0.4904
  744TMC3     H10998   3.109   4.307   1.329  0.2529  0.2903  0.8420
  744TMC3    H110999   3.339   4.187   0.988 -1.7398 -0.9147 -1.1586
  744TMC3    H211000   3.039   4.491   0.948  0.5447  0.1471 -0.2494
  744TMC3    C711001   3.245   4.383   0.823 -0.1545 -0.7019 -0.3554
  744TMC3    C811002   2.947   4.471   1.184 -0.2279  0.6054 -0.1092
  744TMC3    O111003   3.228   4.491   0.771 -0.1941  0.0420  0.2981
  744TMC3    O211004   2.923   4.577   1.122  0.4867 -0.4342 -0.0339
  745TMC3    C111005   1.640   4.116  14.066 -0.1699 -1.0829  0.2700
  745TMC3    C211006   1.562   4.054  14.156 -0.4337  0.2381  0.0596
  745TMC3    C311007   1.430   4.089  14.154  0.2484  0.0577 -0.1754
  745TMC3    C411008   1.588   4.183  13.960  0.3631 -0.0902 -0.0552
  745TMC3    C511009   1.456   4.204  13.951 -0.1997  0.7881  0.0000
  745TMC3    C611010   1.375   4.160  14.053 -0.5024 -0.8161  0.9342
  745TMC3     C11011   1.759   4.177  14.128 -0.4466  0.3962 -0.2116
  745TMC3     O11012   1.777   4.140  14.245  0.1516 -0.2185 -0.5282
  745TMC3     H11013   1.602   4.005  14.243  2.5305  0.7527 -1.0046
  745TMC3    H111014   1.657   4.208  13.881  0.5559  0.7983  0.4018
  745TMC3    H211015   1.267   4.156  14.040 -0.3835 -2.6952  0.6329
  745TMC3    C711016   1.400   4.256  13.826 -0.7925  0.2702 -0.4612
  745TMC3    C811017   1.388   4.132  14.284 -0.3585 -0.7289  0.5600
  745TMC3    O111018   1.286   4.308  13.842  0.2753  0.9433 -0.3814
  745TMC3    O211019   1.270   4.155  14.296  0.2292  0.2331  0.4237
  746TMC3    C111020   4.029   1.161  11.418  1.4648 -0.1653 -0.7918
  746TMC3    C211021   4.152   1.127  11.371 -0.4312  0.4238 -0.2149
  746TMC3    C311022   4.180   0.998  11.337 -0.6709  0.4423 -0.2122
  746TMC3    C411023   3.930   1.074  11.418  0.5785 -0.1415  0.0223
  746TMC3    C511024   3.954   0.947  11.374 -0.2029 -0.0171 -0.0335
  746TMC3    C611025   4.086   0.900  11.346  0.1309 -0.1818 -0.1518
  746TMC3     C11026   3.983   1.300  11.401  0.1001  0.5543 -0.4476
  746TMC3     O11027   3.881   1.329  11.462 -0.5916  0.1264 -0.0037
  746TMC3     H11028   4.232   1.200  11.377 -0.0407  0.0678 -1.0527
  746TMC3    H111029   3.832   1.113  11.444  0.7448 -0.8384  1.6680
  746TMC3    H211030   4.098   0.794  11.330 -0.7623  0.0486 -2.4366
  746TMC3    C711031   3.853   0.852  11.359  0.1928 -0.2059  0.0782
  746TMC3    C811032   4.328   0.973  11.320  0.3670 -0.4374  0.5566
  746TMC3    O111033   3.893   0.737  11.342 -0.0610  0.1330  0.5677
  746TMC3    O211034   4.371   0.859  11.324  0.2418  0.1698 -0.4098
  747TMC3    C111035   1.516   1.339  11.223  0.4598 -0.6837 -0.3548
  747TMC3    C211036   1.451   1.245  11.296 -0.8321 -0.2484  0.2905
  747TMC3    C311037   1.508   1.207  11.417  0.2131 -0.3696  0.8477
  747TMC3    C411038   1.623   1.415  11.276  0.4149 -0.8489  0.6015
  747TMC3    C511039   1.668   1.382  11.405 -0.2334  0.0029 -0.2071
  747TMC3    C611040   1.603   1.284  11.477 -0.2884 -0.7195  0.3459
  747TMC3     C11041   1.455   1.386  11.104  0.6564  0.3766 -0.9507
  747TMC3     O11042   1.468   1.506  11.086 -1.0376 -0.4023  0.0789
  747TMC3     H11043   1.367   1.191  11.255 -1.5371  1.1926 -0.1732
  747TMC3    H111044   1.676   1.481  11.208  0.1205 -1.3303 -0.1030
  747TMC3    H211045   1.653   1.242  11.563 -1.4632  0.6718  1.6989
  747TMC3    C711046   1.808   1.399  11.434  0.1442 -0.5309 -0.0693
  747TMC3    C811047   1.431   1.118  11.506 -0.5056 -0.3017  0.0394
  747TMC3    O111048   1.848   1.404  11.549  0.2541  0.3596  0.3528
  747TMC3    O211049   1.385   1.014  11.459 -0.2112 -0.6229 -0.3076
  748MPD2     C11050   2.741   1.894   2.080  0.3609  0.5386 -0.1190
  748MPD2    C111051   2.778   1.761   2.069 -0.2199  0.7507 -1.1914
  748MPD2    C211052   2.887   1.739   1.984 -0.6913  0.3222  0.3153
  748MPD2    C311053   2.945   1.840   1.909  0.0340  0.1665 -0.3101
  748MPD2    C411054   2.889   1.968   1.913  0.5201  0.0514 -0.6575
  748MPD2    C511055   2.801   1.991   2.013 -0.3674  0.6212  0.1761
  748MPD2     H11056   2.916   1.636   1.966 -0.5475  0.4855 -0.3821
  748MPD2    H111057   2.926   2.048   1.850 -0.3527  0.7374 -0.2953
  748MPD2    H211058   2.664   1.925   2.150  1.6571 -2.6982  2.7591
  748MPD2    H311059   2.764   2.089   2.039  0.5779  1.0082  0.0632
  748MPD2     N11060   3.044   1.807   1.807 -0.2147  0.0188 -0.2373
  748MPD2    H511061   3.065   1.708   1.802  0.5916  0.1184  1.1867
  748MPD2    N111062   2.708   1.664   2.151  0.1176  0.5575 -0.2938
  748MPD2    H711063   2.644   1.694   2.224 -0.0460 -0.3268 -0.0811
  749TMC3    C111064   3.206   1.831   1.635 -0.1335 -0.0307 -0.1676
  749TMC3    C211065   3.284   1.732   1.690  0.2198 -0.1848  0.2827
  749TMC3    C311066   3.362   1.660   1.606 -0.0526  0.1943  0.1190
  749TMC3    C411067   3.198   1.864   1.503 -0.3939 -0.6577  0.1226
  749TMC3    C511068   3.280   1.785   1.424 -0.4697 -0.5755  0.1229
  749TMC3    C611069   3.372   1.699   1.476 -0.2740  0.1442 -1.1037
  749TMC3     C11070   3.109   1.892   1.716 -0.5164 -0.3022  0.2627
  749TMC3     O11071   3.087   2.011   1.689  0.0458 -0.2004 -0.5342
  749TMC3     H11072   3.287   1.710   1.796  0.4074 -2.2278 -0.1358
  749TMC3    H111073   3.124   1.939   1.476 -1.9476 -2.4110 -0.4297
  749TMC3    H211074   3.448   1.646   1.420  2.0020 -0.8095  2.8607
  749TMC3    C711075   3.309   1.859   1.298  1.2292 -0.8397 -0.8544
  749TMC3    C811076   3.449   1.554   1.661 -0.2149 -0.3593  0.3598
  749TMC3    O111077   3.296   1.981   1.295 -0.6865  0.0811 -0.3349
  749TMC3    O211078   3.457   1.551   1.783  0.7929 -0.1536 -0.1179
  750MPD2     C11079   4.197   3.055  11.712 -1.0542  0.0401 -0.1903
  750MPD2    C111080   4.103   3.080  11.619  0.4845 -0.1961 -0.1156
  750MPD2    C211081   4.055   2.976  11.542 -0.1652  0.2528 -0.3878
  750MPD2    C311082   4.108   2.848  11.548  0.9602 -0.4321  0.0183
  750MPD2    C411083   4.210   2.829  11.639 -0.4669 -0.0990  0.5108
  750MPD2    C511084   4.247   2.933  11.722  0.7089 -1.0166 -0.7285
  750MPD2     H11085   3.989   2.990  11.457 -1.2895 -1.9380  0.1225
  750MPD2    H111086   4.260   2.733  11.643 -1.3443 -0.4314  3.1904
  750MPD2    H211087   4.235   3.130  11.780 -0.9163 -0.5229  0.3540
  750MPD2    H311088   4.331   2.917  11.789  1.3067 -0.7174 -1.4088
  750MPD2     N11089   4.094   2.744  11.454  0.4645  0.0312  0.4019
  750MPD2    H511090   4.158   2.667  11.471 -0.7228 -0.8106  0.9644
  750MPD2    N111091   4.055   3.211  11.611  0.7691 -0.5490  0.0332
  750MPD2    H711092   4.102   3.285  11.663  0.6749 -1.8536  1.9575
  751TMC3    C111093   3.996   2.596  11.301  0.0374 -0.3386  0.6195
  751TMC3    C211094   3.873   2.539  11.273 -0.4581  0.5855  0.6689
  751TMC3    C311095   3.868   2.408  11.237 -0.1362  0.7218 -0.2400
  751TMC3    C411096   4.114   2.526  11.296  0.0685 -0.0503  0.5758
  751TMC3    C511097   4.103   2.395  11.267 -0.1581  1.2525  0.0403
  751TMC3    C611098   3.984   2.338  11.231 -0.4969 -0.8336 -0.2999
  751TMC3     C11099   3.995   2.731  11.362  0.2751  1.0662  0.0518
  751TMC3     O11100   3.893   2.801  11.352  0.7362  0.2195  0.2628
  751TMC3     H11101   3.776   2.584  11.294 -0.1668  2.3297 -1.7329
  751TMC3    H111102   4.214   2.567  11.311  0.6373 -0.2699 -2.6136
  751TMC3    H211103   3.994   2.232  11.210  0.6961 -1.1607  1.8854
  751TMC3    C711104   4.227   2.325  11.228  0.6928 -0.1926 -0.5706
  751TMC3    C811105   3.749   2.348  11.179 -0.1422  0.7854  0.3719
  751TMC3    O111106   4.325   2.394  11.203  0.2416 -0.6277 -0.0928
  751TMC3    O211107   3.743   2.225  11.181 -0.0329 -0.0996  0.1210
  752TMC3    C111108   2.601   2.947  17.056  0.6088  0.2242  0.4868
  752TMC3    C211109   2.469   2.952  17.071 -0.5875  0.2517  0.2310
  752TMC3    C311110   2.409   2.911  17.183  0.2873  0.1974 -0.2186
  752TMC3    C411111   2.680   2.915  17.158  0.4231 -0.6306  0.3325
  752TMC3    C511112   2.618   2.873  17.274 -0.2546  0.0172 -0.5102
  752TMC3    C611113   2.476   2.866  17.283 -0.0925 -0.0164 -0.1386
  752TMC3     C11114   2.673   2.988  16.936 -0.2406  0.3037  0.6206
  752TMC3     O11115   2.790   3.029  16.949 -0.2976  0.0452 -0.1534
  752TMC3     H11116   2.417   3.021  17.006 -0.4909  0.2105  0.1098
  752TMC3    H111117   2.788   2.923  17.151  0.3658  0.2605  0.4830
  752TMC3    H211118   2.416   2.811  17.354  1.3022  1.5538  2.2370
  752TMC3    C711119   2.700   2.832  17.389  0.0807 -1.1012 -0.8101
  752TMC3    C811120   2.270   2.889  17.166  0.1181 -0.1962  0.5370
  752TMC3    O111121   2.819   2.831  17.373  0.4498 -0.0301 -0.3134
  752TMC3    O211122   2.236   2.857  17.054 -0.6750 -0.1273  0.1466
  753TMC3    C111123   4.367   3.700  13.403  0.3761  0.3554 -0.0229
  753TMC3    C211124   4.419   3.692  13.528 -0.3902  0.4370 -0.1187
  753TMC3    C311125   4.341   3.637  13.622 -0.7992 -1.1728  0.5156
  753TMC3    C411126   4.250   3.645  13.362  0.3186 -0.5579 -0.3206
  753TMC3    C511127   4.178   3.586  13.460  0.0936 -0.3211  0.5164
  753TMC3    C611128   4.219   3.584  13.586 -0.0022 -0.4560  0.1945
  753TMC3     C11129   4.421   3.798  13.313  0.3347 -0.0999 -0.0689
  753TMC3     O11130   4.349   3.857  13.234  0.2547 -0.2032 -0.1474
  753TMC3     H11131   4.515   3.732  13.559 -0.7364  0.4538  0.9373
  753TMC3    H111132   4.208   3.663  13.264 -1.1885  3.2193  1.0276
  753TMC3    H211133   4.165   3.520  13.656  0.7160 -2.1941 -0.8549
  753TMC3    C711134   4.055   3.522  13.418  0.5514 -0.2983  0.0674
  753TMC3    C811135   4.366   3.650  13.771  0.0124  0.5599  0.1974
  753TMC3    O111136   4.049   3.495  13.301 -0.5248  0.2585  0.4800
  753TMC3    O211137   4.298   3.566  13.835 -0.4493 -0.0706  0.4602
  754MPD2     C11138   3.077   3.160  13.150 -0.8458 -1.0012  0.0499
  754MPD2    C111139   3.065   3.038  13.088  0.3256  0.0034  0.0444
  754MPD2    C211140   2.943   2.977  13.102  0.0567 -0.3272 -0.0261
  754MPD2    C311141   2.842   3.038  13.179  0.5148 -0.2308 -0.0832
  754MPD2    C411142   2.847   3.168  13.228  0.4003  0.4770 -0.0483
  754MPD2    C511143   2.969   3.217  13.219 -0.1423 -0.7833  0.2246
  754MPD2     H11144   2.925   2.878  13.062 -1.0136 -1.0906  2.3692
  754MPD2    H111145   2.768   3.218  13.282 -0.0779  1.1190 -1.3364
  754MPD2    H211146   3.174   3.205  13.167 -0.4637 -1.6534 -0.3846
  754MPD2    H311147   3.000   3.312  13.260  1.1298 -0.9768 -0.2792
  754MPD2     N11148   2.714   2.973  13.195 -0.0003  0.3077 -0.3091
  754MPD2    H511149   2.629   3.028  13.209 -0.1981 -0.1660  0.3473
  754MPD2    N111150   3.169   2.971  13.030 -0.1518  0.2162 -0.5067
  754MPD2    H711151   3.263   3.009  13.034  0.4252 -1.1921 -0.6202
  755MPD2     C11152   1.934   3.187  13.534  0.4340  0.1924  0.1059
  755MPD2    C111153   1.908   3.055  13.499 -0.6722 -0.0019 -0.7208
  755MPD2    C211154   2.012   2.984  13.440  0.2434 -0.4521  0.3971
  755MPD2    C311155   2.131   3.045  13.401 -0.0557 -0.0190 -0.1830
  755MPD2    C411156   2.155   3.174  13.439 -0.4962 -0.1378  0.0445
  755MPD2    C511157   2.059   3.250  13.505 -0.1945  0.2025 -0.0036
  755MPD2     H11158   1.992   2.878  13.425 -2.7515  0.5081 -2.3094
  755MPD2    H111159   2.243   3.234  13.419  0.7043 -1.5827  0.9330
  755MPD2    H211160   1.860   3.253  13.577  0.9507  2.0251 -1.8031
  755MPD2    H311161   2.083   3.352  13.531  1.3427  0.0727 -0.9585
  755MPD2     N11162   2.234   2.976  13.337 -0.7617 -0.1220 -0.3216
  755MPD2    H511163   2.323   3.022  13.353 -1.1405  1.4187 -2.6490
  755MPD2    N111164   1.803   2.980  13.557  0.7530  0.2858  0.3643
  755MPD2    H711165   1.807   2.881  13.534 -0.0247  0.4534 -0.4880
  756MPD2     C11166   4.579   3.575   9.952 -0.2742 -0.0514 -0.3794
  756MPD2    C111167   4.464   3.520  10.007  0.1569  0.0037 -0.3586
  756MPD2    C211168   4.405   3.412   9.943 -0.5090 -1.5313 -0.6079
  756MPD2    C311169   4.464   3.358   9.833  0.3043 -0.1786 -0.9812
  756MPD2    C411170   4.579   3.415   9.783  0.1404 -0.0474  0.3281
  756MPD2    C511171   4.636   3.518   9.844  0.5108  0.0841  0.1859
  756MPD2     H11172   4.322   3.357   9.986 -1.2231  0.8836  1.0430
  756MPD2    H111173   4.626   3.375   9.694  2.5226  0.6582  1.2738
  756MPD2    H211174   4.635   3.657   9.994 -0.3891  0.1749 -0.6695
  756MPD2    H311175   0.004   3.562   9.808  0.3482  1.3681  1.3454
  756MPD2     N11176   4.414   3.245   9.771  0.4137  0.0743  0.5558
  756MPD2    H511177   4.339   3.193   9.817  0.1420 -0.4767 -0.5250
  756MPD2    N111178   4.393   3.588  10.108 -0.1122  0.1528  0.0821
  756MPD2    H711179   4.305   3.544  10.135 -0.5120  1.0132  0.1939
  757MPD2     C11180   3.649   2.716   9.984 -0.4984 -0.7360  0.4914
  757MPD2    C111181   3.728   2.624   9.912  1.1205  0.1793 -0.8184
  757MPD2    C211182   3.830   2.668   9.833 -0.0040 -0.3323  0.1900
  757MPD2    C311183   3.871   2.798   9.830  0.3729  0.2921 -0.0753
  757MPD2    C411184   3.802   2.880   9.910 -0.5405 -0.1194 -0.4006
  757MPD2    C511185   3.691   2.848   9.978  0.0146 -0.1822  0.4497
  757MPD2     H11186   3.890   2.599   9.776  0.6549  1.9377 -1.8760
  757MPD2    H111187   3.829   2.986   9.908 -0.4663 -0.1838 -2.6461
  757MPD2    H211188   3.571   2.691  10.055  0.1098 -1.5653  0.8590
  757MPD2    H311189   3.642   2.922  10.040  1.6848 -0.5782  2.2162
  757MPD2     N11190   3.992   2.827   9.757 -0.1189  0.0174 -0.3466
  757MPD2    H511191   4.029   2.758   9.693  1.3398 -0.0110  0.5416
  757MPD2    N111192   3.684   2.484   9.921 -0.4290 -0.4210 -0.1812
  757MPD2    H711193   3.606   2.456   9.979 -1.9869  0.6087 -1.7735
  758MPD2     C11194   3.425   2.226  15.789  0.2789 -0.5953  0.4059
  758MPD2    C111195   3.483   2.134  15.877  0.2297  0.9701  0.5315
  758MPD2    C211196   3.431   2.117  15.996 -0.3139 -0.1510 -0.7633
  758MPD2    C311197   3.320   2.185  16.042 -0.2788  0.5331  0.0822
  758MPD2    C411198   3.256   2.268  15.954  0.3917  0.1762  0.3847
  758MPD2    C511199   3.318   2.299  15.835 -0.2373 -0.1994  0.7674
  758MPD2     H11200   3.480   2.051  16.066 -0.6686 -0.2607 -0.6177
  758MPD2    H111201   3.177   2.328  15.996 -0.0828  0.5867 -1.0820
  758MPD2    H211202   3.461   2.242  15.688 -0.2386 -0.5116  0.2302
  758MPD2    H311203   3.277   2.376  15.770  0.1372 -0.2693  0.4426
  758MPD2     N11204   3.280   2.184  16.181  0.1563 -0.1465 -0.0366
  758MPD2    H511205   3.213   2.250  16.218  0.4548 -0.3413  0.8502
  758MPD2    N111206   3.601   2.074  15.827  0.1502  0.1386  0.0346
  758MPD2    H711207   3.633   2.097  15.734 -0.5556  0.1207 -0.2076
  759MPD2     C11208   3.677   0.865   9.500 -0.2149  0.5545  0.2670
  759MPD2    C111209   3.779   0.835   9.588  0.2591  0.1789  0.0948
  759MPD2    C211210   3.904   0.801   9.542 -0.2322 -0.1812  0.2918
  759MPD2    C311211   3.937   0.811   9.401 -0.6192  0.1461 -0.4792
  759MPD2    C411212   3.833   0.852   9.316  0.0206 -0.0808 -0.1650
  759MPD2    C511213   3.705   0.878   9.370  0.4113  0.5397  0.6827
  759MPD2     H11214   3.985   0.773   9.609 -1.2697 -0.0390  1.5974
  759MPD2    H111215   3.840   0.867   9.209  2.6041 -1.5250 -0.2073
  759MPD2    H211216   3.571   0.870   9.523  0.4721  4.0985  2.6024
  759MPD2    H311217   3.619   0.904   9.309  1.9474  1.3324 -1.1416
  759MPD2     N11218   4.056   0.770   9.344  0.1485 -0.6134 -0.2392
  759MPD2    H511219   4.056   0.780   9.243  1.5788 -0.7602 -0.2540
  759MPD2    N111220   3.756   0.817   9.724 -0.5337 -0.0017  0.4091
  759MPD2    H711221   3.834   0.769   9.769  1.6797  1.2575 -2.1164
  760MPD2     C11222   2.248   2.735  11.837 -1.4451  0.2568 -0.1913
  760MPD2    C111223   2.371   2.782  11.895 -0.2498 -0.3146  0.1578
  760MPD2    C211224   2.425   2.717  12.001  0.3056 -0.5387 -0.4478
  760MPD2    C311225   2.374   2.595  12.046  0.0203  0.5622 -0.4973
  760MPD2    C411226   2.254   2.552  11.988 -0.7706  0.1254 -0.1244
  760MPD2    C511227   2.191   2.622  11.887  0.3592 -0.1839 -0.5707
  760MPD2     H11228   2.518   2.759  12.038  0.0213 -1.5040  1.3832
  760MPD2    H111229   2.216   2.453  12.010 -0.9234  0.1842 -0.1238
  760MPD2    H211230   2.192   2.786  11.760 -0.2423 -1.4302 -2.1995
  760MPD2    H311231   2.106   2.578  11.836 -1.0123  2.2219 -0.3462
  760MPD2     N11232   2.440   2.505  12.135  0.3740  0.5979  0.5927
  760MPD2    H511233   2.401   2.412  12.142  0.2313  0.3286 -4.0348
  760MPD2    N111234   2.425   2.903  11.852  0.5778 -0.2327  0.0509
  760MPD2    H711235   2.507   2.940  11.900  0.3683  0.0962  0.1605
  761MPD2     C11236   3.295   2.368  10.947  0.8570 -0.3893 -0.3026
  761MPD2    C111237   3.393   2.272  10.948 -1.1587  0.1831  0.2373
  761MPD2    C211238   3.512   2.286  11.021 -0.4084  0.8079 -0.2010
  761MPD2    C311239   3.537   2.411  11.067 -0.6010 -0.6184  0.3569
  761MPD2    C411240   3.446   2.513  11.056  0.4450 -0.2072 -0.0342
  761MPD2    C511241   3.328   2.491  10.999  0.1617 -0.3643  0.5983
  761MPD2     H11242   3.590   2.212  11.031 -0.9680  0.2307 -0.0709
  761MPD2    H111243   3.455   2.609  11.105  1.0312 -1.1396  1.6707
  761MPD2    H211244   3.204   2.357  10.890  0.5872  0.2004  0.0135
  761MPD2    H311245   3.257   2.572  10.986 -0.0647 -0.6000  0.3874
  761MPD2     N11246   3.658   2.440  11.133  0.3056  0.1134  0.2377
  761MPD2    H511247   3.683   2.538  11.141 -0.1787  0.4466 -2.3157
  761MPD2    N111248   3.381   2.155  10.869  0.0412 -0.1149 -0.5080
  761MPD2    H711249   3.288   2.143  10.831 -0.8822  0.5837  1.5602
  762MPD2     C11250   3.943   2.078  10.885 -0.3733 -0.1971  0.0949
  762MPD2    C111251   3.931   1.945  10.858 -0.9314 -0.8044  0.1161
  762MPD2    C211252   4.043   1.872  10.865  0.8208 -0.3163 -0.3648
  762MPD2    C311253   4.170   1.930  10.883  0.7282 -0.5320 -0.7802
  762MPD2    C411254   4.182   2.065  10.914  0.9316 -0.2112 -0.2039
  762MPD2    C511255   4.068   2.135  10.915  0.3085 -0.1800 -0.6949
  762MPD2     H11256   4.033   1.767  10.838  1.0598 -0.0440 -1.5167
  762MPD2    H111257   4.274   2.121  10.922  0.8115  0.0494 -0.6654
  762MPD2    H211258   3.853   2.135  10.863  0.3541  0.5444 -0.9782
  762MPD2    H311259   4.072   2.243  10.929  0.1846 -0.1394 -0.9877
  762MPD2     N11260   4.281   1.850  10.858  0.5633  0.7390  0.3869
  762MPD2    H511261   4.256   1.752  10.848 -0.3912  0.9403  0.8225
  762MPD2    N111262   3.806   1.907  10.826 -0.8077 -0.2862 -0.1370
  762MPD2    H711263   3.734   1.975  10.849  1.8415  2.2932  0.4526
  763MPD2     C11264   0.007   2.315  16.363  0.3478 -0.0783 -0.6784
  763MPD2    C111265   0.093   2.400  16.306 -0.0319  0.0771  0.2176
  763MPD2    C211266   0.156   2.495  16.388 -0.4036  0.1200 -0.3055
  763MPD2    C311267   0.135   2.489  16.527 -0.0577 -0.8996  0.1811
  763MPD2    C411268   0.046   2.400  16.583  0.2206 -0.6065  0.0117
  763MPD2    C511269   4.704   2.316  16.500  0.0739  0.3799 -0.4714
  763MPD2     H11270   0.225   2.567  16.346 -0.4793 -0.4031 -1.3179
  763MPD2    H111271   0.020   2.387  16.688 -0.9893 -1.2323 -0.3611
  763MPD2    H211272   4.685   2.245  16.295  1.9777 -2.6645  0.8667
  763MPD2    H311273   4.653   2.231  16.544 -0.6513  1.3483  0.5449
  763MPD2     N11274   0.213   2.580  16.601 -0.0713 -0.8901 -0.0700
  763MPD2    H511275   0.285   2.625  16.546  0.3026  0.2898  1.3732
  763MPD2    N111276   0.121   2.402  16.167 -0.9713 -0.6654  0.0105
  763MPD2    H711277   0.180   2.475  16.129  0.8383 -1.4421  1.3329
  764MPD2     C11278   3.656   3.830  17.440 -0.3488  0.4806 -0.0294
  764MPD2    C111279   3.572   3.745  17.367 -0.1094  0.5190 -0.4858
  764MPD2    C211280   3.590   3.610  17.393  0.3970 -0.3417  0.1140
  764MPD2    C311281   3.662   3.559  17.503  0.2649 -0.5854 -0.0193
  764MPD2    C411282   3.745   3.650  17.574 -0.0241  0.3921  0.4714
  764MPD2    C511283   3.738   3.782  17.541  0.1760 -0.1195  0.4670
  764MPD2     H11284   3.542   3.533  17.333 -0.9169  0.5006  0.0787
  764MPD2    H111285   3.817   3.629  17.652 -0.3268  0.0237  0.6488
  764MPD2    H211286   3.655   3.937  17.428  0.0227  0.4513 -0.3014
  764MPD2    H311287   3.799   3.861  17.584  0.8949 -0.3999 -0.0574
  764MPD2     N11288   3.658   3.415  17.513 -0.1297 -0.0871 -0.0852
  764MPD2    H511289   3.581   3.376  17.459 -0.9307  1.7584 -0.2892
  764MPD2    N111290   3.470   3.784  17.274 -0.3138 -0.0458  0.5834
  764MPD2    H711291   3.427   3.704  17.231 -0.7686  0.8979 -0.7240
  765MPD2     C11292   2.339   1.756  16.208 -0.0237 -0.2423 -0.2399
  765MPD2    C111293   2.397   1.799  16.097  0.1088 -0.3559 -0.0882
  765MPD2    C211294   2.532   1.783  16.090 -0.0306  0.2909 -0.3438
  765MPD2    C311295   2.609   1.740  16.194  0.4964 -0.0248 -0.1697
  765MPD2    C411296   2.551   1.714  16.314  1.1465 -0.7329 -0.0164
  765MPD2    C511297   2.416   1.730  16.321  0.4968 -0.7181  0.5670
  765MPD2     H11298   2.594   1.806  16.004  3.0478 -0.2354  1.7206
  765MPD2    H111299   2.608   1.689  16.402  2.8518 -0.1415 -0.9487
  765MPD2    H211300   2.231   1.764  16.214 -0.1671 -0.0326 -3.1146
  765MPD2    H311301   2.366   1.707  16.414 -2.2320 -1.9935 -1.1939
  765MPD2     N11302   2.747   1.729  16.174 -0.2178  0.3007 -0.4321
  765MPD2    H511303   2.785   1.749  16.082  1.4576  0.1294  0.2157
  765MPD2    N111304   2.330   1.850  15.989  0.5576 -0.0559 -0.2865
  765MPD2    H711305   2.384   1.865  15.904  2.0482  0.5374  0.7672
  766MPD2     C11306   2.582   1.523  15.667 -0.1623 -0.2211  0.6299
  766MPD2    C111307   2.544   1.643  15.617 -0.2361  0.1222  0.7039
  766MPD2    C211308   2.636   1.717  15.543 -1.2079  0.0763  0.7219
  766MPD2    C311309   2.769   1.677  15.546 -0.2482  0.1520 -0.1660
  766MPD2    C411310   2.809   1.557  15.607  0.4321  0.2980 -0.1678
  766MPD2    C511311   2.711   1.486  15.663 -0.3929 -0.0259  0.8928
  766MPD2     H11312   2.611   1.809  15.492 -0.6829 -0.5093 -0.6033
  766MPD2    H111313   2.908   1.513  15.605  0.3339 -0.0002  1.6322
  766MPD2    H211314   2.512   1.460  15.719 -0.7414  1.2069  1.5825
  766MPD2    H311315   2.738   1.389  15.702 -0.2415 -0.5285 -0.4909
  766MPD2     N11316   2.873   1.753  15.485 -0.3482 -0.4404  0.5239
  766MPD2    H511317   2.965   1.712  15.497 -0.6716 -1.2094  0.3928
  766MPD2    N111318   2.410   1.679  15.629  0.2229 -0.7207 -0.1366
  766MPD2    H711319   2.349   1.640  15.700 -0.4574  0.3941 -0.1070
  767MPD2     C11320   2.356   2.316  15.284  0.5236 -0.3156  0.4619
  767MPD2    C111321   2.471   2.285  15.221  0.1879 -0.5036  0.1265
  767MPD2    C211322   2.470   2.183  15.125 -0.1813 -0.2985  0.4908
  767MPD2    C311323   2.358   2.117  15.085 -0.3424  0.2094 -0.6850
  767MPD2    C411324   2.238   2.151  15.157 -0.4324  0.0231 -0.0194
  767MPD2    C511325   2.238   2.240  15.260 -0.1063  1.0660  0.1060
  767MPD2     H11326   2.565   2.158  15.080 -0.5193 -1.6700  0.5137
  767MPD2    H111327   2.146   2.097  15.136  1.3699 -2.0839 -2.5629
  767MPD2    H211328   2.342   2.394  15.358 -0.0289  0.9418 -0.9684
  767MPD2    H311329   2.150   2.262  15.319 -0.7169  0.5692 -0.6113
  767MPD2     N11330   2.355   2.027  14.969  0.1962  0.2442 -0.2792
  767MPD2    H511331   2.448   1.995  14.943 -0.2825 -0.3147 -1.2816
  767MPD2    N111332   2.592   2.355  15.239 -0.2280  0.1316  0.2743
  767MPD2    H711333   2.682   2.318  15.209  0.8257  1.4221  1.8369
  768MPD2     C11334   4.097   0.446  11.057  0.5735  0.4578 -0.5335
  768MPD2    C111335   4.022   0.417  11.167  0.6099  0.1164 -0.4473
  768MPD2    C211336   4.085   0.448  11.286  0.6641  0.5242 -0.8717
  768MPD2    C311337   4.214   0.505  11.295 -0.1470 -1.0502 -0.3194
  768MPD2    C411338   4.282   0.538  11.181  0.0766  0.2828 -0.4500
  768MPD2    C511339   4.216   0.509  11.064  0.3944  0.1128  0.2521
  768MPD2     H11340   4.033   0.416  11.376  2.3260 -3.4391 -1.3426
  768MPD2    H111341   4.384   0.572  11.171  0.0299  0.7936  0.8157
  768MPD2    H211342   4.061   0.430  10.956  1.1619  0.2358 -0.7068
  768MPD2    H311343   4.262   0.535  10.969 -0.8627  1.2520 -0.0412
  768MPD2     N11344   4.284   0.524  11.418 -0.5184 -0.7486  0.5222
  768MPD2    H511345   4.370   0.577  11.421 -1.3335  0.6461 -0.5753
  768MPD2    N111346   3.894   0.356  11.169 -0.1371  1.0922 -0.0234
  768MPD2    H711347   3.843   0.362  11.257 -0.8918 -1.5598 -0.2989
  769MPD2     C11348   4.560   3.218  15.207  0.9276  0.8630  0.2354
  769MPD2    C111349   4.441   3.211  15.284 -0.4980  0.3888  0.2204
  769MPD2    C211350   4.447   3.229  15.421  0.5594  0.6843  0.9018
  769MPD2    C311351   4.574   3.271  15.479 -0.3949 -0.3549  1.2870
  769MPD2    C411352   4.682   3.284  15.393  0.1250 -0.6971 -0.1786
  769MPD2    C511353   4.673   3.252  15.262  0.4622  0.3948  0.1569
  769MPD2     H11354   4.362   3.197  15.479  1.6609 -0.5649  1.8004
  769MPD2    H111355   0.053   3.322  15.427 -0.3257  1.5936 -1.4668
  769MPD2    H211356   4.572   3.191  15.103  1.3679  0.5995  0.3522
  769MPD2    H311357   0.033   3.268  15.196 -1.1161  1.6865 -1.5425
  769MPD2     N11358   4.572   3.303  15.616  0.5582 -0.0507  0.5250
  769MPD2    H511359   4.480   3.308  15.659 -0.5461  1.1224 -2.0171
  769MPD2    N111360   4.323   3.177  15.203 -0.2060 -0.4486  0.1067
  769MPD2    H711361   4.341   3.155  15.106  0.3224  0.6226 -0.0354
  770MPD2     C11362   3.563   2.690  14.947 -0.3032 -0.1543 -0.2740
  770MPD2    C111363   3.693   2.674  14.926  0.4408 -0.4723  0.0317
  770MPD2    C211364   3.776   2.777  14.964 -0.4299 -0.1587 -0.6049
  770MPD2    C311365   3.718   2.896  15.012  0.3029 -0.1014  0.2262
  770MPD2    C411366   3.586   2.913  15.030 -0.7269 -0.0974  0.1839
  770MPD2    C511367   3.508   2.803  15.000  0.3643 -0.1789  0.7932
  770MPD2     H11368   3.884   2.765  14.961 -0.2418  0.4164  4.1676
  770MPD2    H111369   3.545   3.004  15.073 -1.0930  0.4037 -1.2280
  770MPD2    H211370   3.483   2.621  14.920 -3.0900  3.2215 -0.5237
  770MPD2    H311371   3.401   2.812  15.008  0.3134  1.0535 -1.3304
  770MPD2     N11372   3.813   2.995  15.050 -0.0815  0.1994 -0.4929
  770MPD2    H511373   3.908   2.969  15.026 -0.0630  0.2221 -0.4441
  770MPD2    N111374   3.737   2.561  14.852  0.6591  0.5131 -0.3852
  770MPD2    H711375   3.667   2.494  14.823  0.3577  1.1153 -1.0329
  771MPD2     C11376   4.357   1.846  13.542 -0.3483  0.5921 -0.1051
  771MPD2    C111377   4.482   1.787  13.550 -0.4293 -0.8058 -0.0531
  771MPD2    C211378   4.506   1.682  13.466 -0.4152  0.0940 -0.6474
  771MPD2    C311379   4.413   1.625  13.375  0.0147 -0.2290 -0.4118
  771MPD2    C411380   4.293   1.696  13.364 -0.0653 -0.1541  0.7119
  771MPD2    C511381   4.267   1.802  13.445  0.2860  1.0690  0.1567
  771MPD2     H11382   4.602   1.637  13.485 -1.5634 -1.0872  2.2753
  771MPD2    H111383   4.218   1.673  13.288 -1.6464  1.7471  1.6921
  771MPD2    H211384   4.330   1.926  13.611 -2.5055 -0.8414  0.7007
  771MPD2    H311385   4.166   1.838  13.434 -0.2871 -0.8564 -0.8486
  771MPD2     N11386   4.443   1.500  13.308 -0.5158  0.0654 -0.3136
  771MPD2    H511387   4.539   1.467  13.318  0.0317  1.8484  0.2043
  771MPD2    N111388   4.562   1.818  13.660  0.1804 -0.4546  0.2023
  771MPD2    H711389   4.535   1.893  13.723  3.2813 -0.4527  1.4873
  772MPD2     C11390   4.364   1.751  14.356 -0.3228  0.4398 -0.5275
  772MPD2    C111391   4.352   1.744  14.216  0.1929 -0.9514  0.1227
  772MPD2    C211392   4.225   1.724  14.154  0.2851 -0.5863  0.1038
  772MPD2    C311393   4.116   1.689  14.232  0.4343  0.0615  0.0183
  772MPD2    C411394   4.128   1.691  14.373  0.5856 -0.1772  1.0028
  772MPD2    C511395   4.249   1.724  14.428 -0.1707  0.3208 -0.5652
  772MPD2     H11396   4.223   1.725  14.046  0.6328  0.9111  0.1133
  772MPD2    H111397   4.043   1.670  14.437 -0.0305  2.3692  0.9939
  772MPD2    H211398   4.452   1.776  14.414 -1.6276  0.2780  1.5188
  772MPD2    H311399   4.260   1.742  14.535  0.8508 -2.8525 -0.1277
  772MPD2     N11400   3.991   1.662  14.167  0.4679 -0.4395  0.9465
  772MPD2    H511401   3.913   1.644  14.230  0.3032 -1.8236  0.3494
  772MPD2    N111402   4.456   1.780  14.125 -0.0151 -0.2311  0.3790
  772MPD2    H711403   4.431   1.777  14.026 -2.5257  0.8918  0.9888
  773MPD2     C11404   3.782   2.429   0.517 -0.2773  0.2056 -0.5141
  773MPD2    C111405   3.761   2.342   0.414  0.0039 -0.3136 -0.0199
  773MPD2    C211406   3.815   2.220   0.429  0.3046 -0.4831 -0.0441
  773MPD2    C311407   3.891   2.179   0.535 -0.2908  0.1194 -0.4214
  773MPD2    C411408   3.906   2.267   0.639 -0.3080  0.2217 -0.3595
  773MPD2    C511409   3.857   2.393   0.627  0.4571 -1.0874  0.1420
  773MPD2     H11410   3.810   2.150   0.347  0.0667  1.3552 -1.5892
  773MPD2    H111411   3.956   2.245   0.733  0.4417  2.6083 -0.1971
  773MPD2    H211412   3.735   2.526   0.519  2.5476  1.5648 -0.5863
  773MPD2    H311413   3.867   2.464   0.708 -2.0146  0.2815 -0.7570
  773MPD2     N11414   3.952   2.049   0.530 -0.3234  0.4512 -0.5103
  773MPD2    H511415   3.944   2.000   0.441 -0.3048 -1.4934  0.5686
  773MPD2    N111416   3.684   2.371   0.297  0.6077  0.0865  0.4474
  773MPD2    H711417   3.663   2.287   0.244 -0.6580  0.3652  0.5177
  774MPD2     C11418   2.880   1.979  13.034  0.4649  0.8213 -0.1948
  774MPD2    C111419   2.897   2.049  13.152 -0.3749 -0.7691 -0.0326
  774MPD2    C211420   2.966   2.169  13.145  0.6230  0.2134  0.5854
  774MPD2    C311421   3.021   2.228  13.032 -0.1544  0.2191 -0.5279
  774MPD2    C411422   3.013   2.145  12.914 -0.2124 -0.6136  1.0669
  774MPD2    C511423   2.938   2.027  12.918 -0.5484  0.3673 -0.4005
  774MPD2     H11424   2.979   2.219  13.240  1.6132 -1.1169  1.1468
  774MPD2    H111425   3.057   2.159  12.816 -1.5183  0.2867  0.6030
  774MPD2    H211426   2.824   1.886  13.036  0.9830  0.5007 -0.5466
  774MPD2    H311427   2.936   1.974  12.824  2.5062 -2.7753  1.2906
  774MPD2     N11428   3.085   2.357  13.035  0.2442  0.3745 -0.0840
  774MPD2    H511429   3.092   2.400  13.127  1.3704  2.6515 -1.2327
  774MPD2    N111430   2.848   1.984  13.266 -0.1526  0.3436  0.1998
  774MPD2    H711431   2.815   1.889  13.253 -1.3624  1.1806 -2.7783
  775MPD2     C11432   0.022   3.082  16.095  0.4649 -0.3343 -0.2713
  775MPD2    C111433   4.722   3.201  16.160 -1.2117 -0.0941 -0.0569
  775MPD2    C211434   0.077   3.314  16.125 -0.1506 -0.3417  0.1743
  775MPD2    C311435   0.183   3.295  16.037  1.1861 -0.5141  0.2126
  775MPD2    C411436   0.207   3.173  15.974 -0.2928 -0.6402  0.0780
  775MPD2    C511437   0.123   3.064  16.002 -0.0923  0.4243  0.0665
  775MPD2     H11438   0.058   3.417  16.152  2.6247  0.5098 -1.0029
  775MPD2    H111439   0.279   3.160  15.894 -0.4888  0.3013 -0.2541
  775MPD2    H211440   4.683   2.997  16.115  0.4491  0.1351  1.6734
  775MPD2    H311441   0.151   2.963  15.976  0.7500  0.4906  0.6963
  775MPD2     N11442   0.270   3.400  15.997 -0.4933  0.0206  0.3701
  775MPD2    H511443   0.333   3.371  15.923 -3.9097 -1.1041 -2.0785
  775MPD2    N111444   4.628   3.198  16.270  0.0597 -0.2207 -0.3034
  775MPD2    H711445   4.560   3.124  16.263 -0.8650  0.5684  0.2160
  776MPD2     C11446   4.095   3.890  11.212 -0.2916  0.7675 -0.1662
  776MPD2    C111447   4.147   3.864  11.342  0.2286 -0.1914 -0.6645
  776MPD2    C211448   4.235   3.941  11.401  0.2599  0.2912 -0.5955
  776MPD2    C311449   4.277   4.054  11.330  0.9639 -0.3192  0.0485
  776MPD2    C411450   4.228   4.079  11.205 -0.2406 -0.2575  0.1747
  776MPD2    C511451   4.137   3.999  11.144  0.3569  0.4477  0.1206
  776MPD2     H11452   4.261   3.926  11.505  0.5366  1.2016 -0.5337
  776MPD2    H111453   4.265   4.163  11.149 -3.0017  0.0305 -1.2096
  776MPD2    H211454   4.011   3.829  11.179  1.1203 -0.1582 -2.0149
  776MPD2    H311455   4.099   4.020  11.045  0.7002  1.1092  0.1262
  776MPD2     N11456   4.372   4.146  11.372 -0.6306 -0.0744 -0.2892
  776MPD2    H511457   4.389   4.223  11.308 -0.5497 -0.6742 -0.9917
  776MPD2    N111458   4.086   3.762  11.413  0.8945 -0.4262  0.2676
  776MPD2    H711459   4.003   3.717  11.375  2.6925 -4.1028  0.6961
  777MPD2     C11460   3.496   0.785   0.716 -0.3793  0.4262 -0.3101
  777MPD2    C111461   3.569   0.696   0.783  0.5088  0.2409 -0.3699
  777MPD2    C211462   3.595   0.572   0.735 -0.0514 -0.2493 -0.0315
  777MPD2    C311463   3.562   0.527   0.607  0.1964  0.2019  0.2586
  777MPD2    C411464   3.488   0.621   0.530 -0.4042 -0.1704 -0.4537
  777MPD2    C511465   3.455   0.747   0.588  0.4045 -0.0816 -0.8261
  777MPD2     H11466   3.670   0.505   0.774  1.7664  0.2216 -2.6645
  777MPD2    H111467   3.446   0.612   0.431 -0.2469  0.4828 -0.5779
  777MPD2    H211468   3.482   0.887   0.751 -0.0852  0.6933 -0.9564
  777MPD2    H311469   3.401   0.814   0.521 -0.9764 -2.2144 -1.8294
  777MPD2     N11470   3.602   0.404   0.559 -0.1419  0.7372 -0.0460
  777MPD2    H511471   3.626   0.327   0.621  2.1015  2.9766  1.8368
  777MPD2    N111472   3.624   0.748   0.899  0.3009 -0.5331  0.0072
  777MPD2    H711473   3.608   0.847   0.918  0.9440 -0.5068  0.4223
  778MPD2     C11474   0.250   1.371  14.914  0.1473 -0.1208  0.5456
  778MPD2    C111475   0.260   1.241  14.864  0.1056 -0.4631  0.8268
  778MPD2    C211476   0.320   1.226  14.741  0.1573  0.3255 -0.4066
  778MPD2    C311477   0.381   1.331  14.673 -0.1406 -0.6198  0.1834
  778MPD2    C411478   0.369   1.456  14.733 -0.2061  0.5697  0.0254
  778MPD2    C511479   0.303   1.474  14.852  0.0151  0.5088 -0.4185
  778MPD2     H11480   0.330   1.122  14.711  0.1321  0.7417 -1.8341
  778MPD2    H111481   0.409   1.546  14.688  0.2523  0.8303  0.9465
  778MPD2    H211482   0.197   1.390  15.007 -1.5111  1.3059 -0.7007
  778MPD2    H311483   0.305   1.577  14.885  1.8718 -0.0059  1.0347
  778MPD2     N11484   0.463   1.313  14.558 -0.3468 -0.3541 -0.0069
  778MPD2    H511485   0.450   1.231  14.500 -2.0709 -0.0633 -0.0149
  778MPD2    N111486   0.222   1.122  14.930 -0.0533 -0.3245 -0.7356
  778MPD2    H711487   0.214   1.035  14.878  0.2731 -0.6300 -0.2732
  779MPD2     C11488   4.680   4.724  13.987  0.1114 -0.5829  0.4607
  779MPD2    C111489   0.058   0.004  14.079  0.0428 -0.3758 -0.6521
  779MPD2    C211490   0.088   0.125  14.139 -0.6046  0.1938  0.0050
  779MPD2    C311491   0.022   0.241  14.102 -1.0439 -0.0114 -0.5167
  779MPD2    C411492   4.632   0.232  14.018  0.4455  0.0154 -0.4130
  779MPD2    C511493   4.607   0.111  13.955  0.7808 -0.2546 -0.1165
  779MPD2     H11494   0.171   0.124  14.209 -1.1379 -2.7242  0.5849
  779MPD2    H111495   4.563   0.315  14.006  0.8808  0.2773 -1.0880
  779MPD2    H211496   4.664   4.635  13.928 -1.9832 -0.0273  0.1799
  779MPD2    H311497   4.532   0.112  13.877  1.0740 -0.1869 -0.3998
  779MPD2     N11498   0.059   0.361  14.166 -0.1555  0.0534  0.1265
  779MPD2    H511499   0.125   0.357  14.243  0.9807  0.4531 -0.8302
  779MPD2    N111500   0.131   4.615  14.114 -0.4156 -0.0211 -0.3086
  779MPD2    H711501   0.201   4.634  14.186 -0.2435  1.0534 -0.7596
  780MPD2     C11502   4.717   4.285   1.027 -1.1559 -0.2213 -0.1014
  780MPD2    C111503   4.587   4.263   0.987 -0.9115 -0.3482 -0.2327
  780MPD2    C211504   4.523   4.361   0.908 -0.5898 -0.1879  0.5371
  780MPD2    C311505   4.591   4.475   0.869 -0.3160 -0.5888 -0.2087
  780MPD2    C411506   4.722   4.492   0.917  0.0552 -0.0192 -0.1181
  780MPD2    C511507   0.064   4.400   0.998 -0.6132  0.6496 -0.5212
  780MPD2     H11508   4.423   4.338   0.873 -1.0596 -0.5322  2.0939
  780MPD2    H111509   0.052   4.583   0.897  0.9899 -0.3807  0.7996
  780MPD2    H211510   0.047   4.208   1.081 -0.8938 -0.5556 -0.8343
  780MPD2    H311511   0.164   4.418   1.035 -2.3844  3.1644  3.0695
  780MPD2     N11512   4.524   4.561   0.775  0.0449 -0.1298 -0.0002
  780MPD2    H511513   4.433   4.532   0.740 -0.2741  0.6761  0.1678
  780MPD2    N111514   4.525   4.141   1.036  0.0253 -0.5866  0.5574
  780MPD2    H711515   4.577   4.082   1.102 -0.8343  1.4449  3.0600
  781MPD2     C11516   2.073   2.158  12.221 -0.3743 -0.3343  0.4819
  781MPD2    C111517   2.066   2.026  12.195 -0.1358  0.1840  1.5570
  781MPD2    C211518   2.152   1.967  12.105 -0.8667  0.4435  0.6523
  781MPD2    C311519   2.249   2.053  12.044 -0.0275 -0.7028 -0.1261
  781MPD2    C411520   2.248   2.191  12.067 -0.1773  0.1671  0.2305
  781MPD2    C511521   2.154   2.242  12.152  0.7266  0.5988  0.6076
  781MPD2     H11522   2.143   1.861  12.084  1.0907 -0.0662  2.4315
  781MPD2    H111523   2.310   2.260  12.010  0.4413 -0.1316  0.5416
  781MPD2    H211524   2.006   2.200  12.296 -0.9565  0.8859 -0.7327
  781MPD2    H311525   2.152   2.349  12.173  0.7177  0.7819 -0.3115
  781MPD2     N11526   2.339   2.006  11.955 -0.3189  0.2660  0.2587
  781MPD2    H511527   2.403   2.068  11.906  0.5416  0.8186  2.0831
  781MPD2    N111528   1.976   1.938  12.262  0.0262  0.1188 -0.4094
  781MPD2    H711529   2.003   1.841  12.276 -0.5409 -0.2418 -1.8882
  782MPD2     C11530   0.019   2.583  10.651 -0.0721  0.5951  0.2028
  782MPD2    C111531   0.115   2.568  10.750 -0.3093 -0.3477 -0.8699
  782MPD2    C211532   0.143   2.681  10.820 -0.6213 -0.7350 -0.1258
  782MPD2    C311533   0.068   2.794  10.809  0.9272  0.7095  0.3611
  782MPD2    C411534   4.673   2.799  10.739  0.2237 -0.6340 -0.4510
  782MPD2    C511535   4.654   2.691  10.652 -0.2533 -0.2238  0.1478
  782MPD2     H11536   0.226   2.671  10.888  0.1775  0.8926 -0.8522
  782MPD2    H111537   4.597   2.874  10.726  0.9308 -0.1351 -1.7242
  782MPD2    H211538   4.717   2.500  10.587 -0.6602 -0.0768  1.3284
  782MPD2    H311539   4.568   2.690  10.586  0.5451  0.3696 -0.9074
  782MPD2     N11540   0.116   2.899  10.881 -0.7006 -0.1971 -0.2610
  782MPD2    H511541   0.192   2.872  10.942 -1.9108 -1.1237  0.8257
  782MPD2    N111542   0.189   2.456  10.789 -0.0070 -0.5742 -0.1520
  782MPD2    H711543   0.266   2.455  10.856 -1.2026  1.1906  1.2300
  783MPD2     C11544   4.343   1.988  11.332 -0.1792 -0.3107  0.0361
  783MPD2    C111545   4.344   2.109  11.259 -0.2807 -0.2913  0.8367
  783MPD2    C211546   4.461   2.143  11.194  0.2964  0.5653  0.2048
  783MPD2    C311547   4.573   2.064  11.199 -0.0542  0.0459  0.0181
  783MPD2    C411548   4.566   1.943  11.270  0.4008 -0.2450 -0.1739
  783MPD2    C511549   4.455   1.911  11.343  0.1399  0.0050 -0.3340
  783MPD2     H11550   4.461   2.213  11.111  1.1468 -1.5460 -1.6036
  783MPD2    H111551   4.653   1.879  11.277 -0.6089 -1.2404  2.8772
  783MPD2    H211552   4.258   1.956  11.391  1.5890 -2.1793  1.6001
  783MPD2    H311553   4.445   1.812  11.384 -0.2656  0.8701  1.6442
  783MPD2     N11554   4.686   2.097  11.118  0.7008  0.3685 -0.8327
  783MPD2    H511555   4.685   2.188  11.074 -0.1209  0.7715  0.0202
  783MPD2    N111556   4.229   2.189  11.253  0.5734 -0.3523  0.0105
  783MPD2    H711557   4.154   2.152  11.311 -0.6818 -0.2417 -1.5549
  784MPD2     C11558   2.268   2.503   0.637  0.9181 -0.9271  0.4275
  784MPD2    C111559   2.208   2.542   0.754  0.0694 -0.8232  0.1974
  784MPD2    C211560   2.081   2.592   0.747 -0.0505  0.0170  0.7812
  784MPD2    C311561   2.006   2.599   0.638  0.0244 -0.5252 -0.1292
  784MPD2    C411562   2.064   2.561   0.521 -0.0050  0.3605 -0.3857
  784MPD2    C511563   2.195   2.511   0.518 -1.0744 -0.0734  0.0486
  784MPD2     H11564   2.043   2.637   0.838 -4.6070 -1.5076 -0.3270
  784MPD2    H111565   2.015   2.567   0.424  2.8872 -0.1424 -1.8919
  784MPD2    H211566   2.364   2.452   0.629  2.1401  1.3909  0.2196
  784MPD2    H311567   2.240   2.479   0.425 -0.3713  0.8788  0.0695
  784MPD2     N11568   1.876   2.648   0.631 -0.0233 -0.3029  0.1584
  784MPD2    H511569   1.835   2.654   0.539 -0.3104 -2.5136  0.1256
  784MPD2    N111570   2.267   2.529   0.888  0.7660  0.2560  0.0948
  784MPD2    H711571   2.199   2.548   0.961 -1.0077  0.5741 -1.6251
  785MPD2     C11572   1.739   0.886  10.665 -0.7299  0.5513 -0.7111
  785MPD2    C111573   1.753   0.971  10.561  0.3470  0.2173 -0.7619
  785MPD2    C211574   1.797   0.919  10.441  0.3647 -0.1777 -0.2149
  785MPD2    C311575   1.832   0.785  10.431 -0.1434  0.2072 -0.3126
  785MPD2    C411576   1.823   0.703  10.537 -0.3655  0.5323 -0.2365
  785MPD2    C511577   1.767   0.753  10.651 -0.1648 -0.1695  0.1618
  785MPD2     H11578   1.793   0.983  10.354  1.4723  2.7697  1.9226
  785MPD2    H111579   1.846   0.597  10.531  0.4958  0.5458  2.8596
  785MPD2    H211580   1.704   0.913  10.764  1.3234 -0.3114  0.2452
  785MPD2    H311581   1.740   0.688  10.733  1.4605 -1.7951 -0.6174
  785MPD2     N11582   1.881   0.741  10.308  0.6689  0.6037  0.0607
  785MPD2    H511583   1.885   0.811  10.235 -3.2507  1.4568  0.6924
  785MPD2    N111584   1.718   1.103  10.569  0.0751  0.3005 -1.0339
  785MPD2    H711585   1.710   1.161  10.486  0.4315  1.5101 -0.2253
  786MPD2     C11586   0.679   4.364  14.974 -0.5464  0.1688  0.2468
  786MPD2    C111587   0.725   4.239  15.001 -0.2438  0.4303  0.5495
  786MPD2    C211588   0.801   4.218  15.115 -0.2722  0.9392  0.6842
  786MPD2    C311589   0.819   4.318  15.218 -0.1427  0.4531 -0.1494
  786MPD2    C411590   0.767   4.440  15.190 -0.1415 -0.3951  0.1259
  786MPD2    C511591   0.693   4.462  15.072  0.3683 -0.0214  0.2957
  786MPD2     H11592   0.844   4.120  15.128 -3.1464 -0.7590 -2.3891
  786MPD2    H111593   0.801   4.525  15.248  3.0521 -0.8742 -1.0129
  786MPD2    H211594   0.623   4.393  14.886 -2.4999 -2.3637  0.6795
  786MPD2    H311595   0.649   4.559  15.054  1.0486  0.5438  1.6851
  786MPD2     N11596   0.907   4.295  15.322  0.3215  0.0272  0.6536
  786MPD2    H511597   0.904   4.368  15.393 -0.1881 -1.0672  1.7455
  786MPD2    N111598   0.708   4.131  14.907  0.3326 -0.3010  0.9203
  786MPD2    H711599   0.750   4.046  14.942 -0.8779 -1.0675  0.5362
  787MPD2     C11600   0.583   3.370  14.979  0.0449  0.0767 -0.4379
  787MPD2    C111601   0.682   3.455  14.937  1.3730 -0.2258 -0.5597
  787MPD2    C211602   0.817   3.419  14.956  0.2628 -0.1135  0.2760
  787MPD2    C311603   0.844   3.306  15.030  0.9924  0.2980  0.6178
  787MPD2    C411604   0.745   3.218  15.065  0.1384 -0.1887  0.6825
  787MPD2    C511605   0.616   3.245  15.030  0.7475  0.6410 -0.1166
  787MPD2     H11606   0.898   3.484  14.925  0.7300 -2.1379 -2.7616
  787MPD2    H111607   0.759   3.122  15.114  2.4996 -0.5020 -0.6173
  787MPD2    H211608   0.478   3.393  14.966 -0.3546 -0.6647  1.3890
  787MPD2    H311609   0.538   3.177  15.061 -0.4516  2.4245  0.7690
  787MPD2     N11610   0.980   3.275  15.041 -0.3114 -0.0774 -0.0394
  787MPD2    H511611   1.052   3.335  15.002  0.3382 -0.3532  0.7342
  787MPD2    N111612   0.643   3.568  14.856  0.1234 -0.4937 -0.0449
  787MPD2    H711613   0.544   3.580  14.840  0.0127  0.3744  1.2881
  788MPD2     C11614   2.598   1.841   1.173 -0.8251 -0.0956  0.0694
  788MPD2    C111615   2.598   1.758   1.064 -0.6190 -0.6188 -0.1490
  788MPD2    C211616   2.639   1.809   0.941 -0.1662 -0.5531 -0.1090
  788MPD2    C311617   2.643   1.950   0.928  0.7428 -0.5152  0.5152
  788MPD2    C411618   2.636   2.038   1.040  0.2510 -0.8099 -1.1901
  788MPD2    C511619   2.619   1.981   1.162  0.1525  0.3020 -0.2077
  788MPD2     H11620   2.645   1.750   0.851 -1.8187  0.8458 -1.1441
  788MPD2    H111621   2.645   2.146   1.043  1.6541 -0.9837  1.0517
  788MPD2    H211622   2.579   1.805   1.273 -2.4805 -1.6127 -0.7871
  788MPD2    H311623   2.607   2.043   1.250 -1.5301 -1.3675  0.7415
  788MPD2     N11624   2.645   2.006   0.794  0.0664 -0.1344 -0.0952
  788MPD2    H511625   2.648   2.107   0.784  1.9537 -0.2619 -0.9063
  788MPD2    N111626   2.575   1.618   1.078  0.6364  0.2995 -0.0014
  788MPD2    H711627   2.596   1.556   1.000  2.7614  1.1984 -0.1446
  789MPD2     C11628   2.927   2.016  16.418  0.3685  0.0235  0.2390
  789MPD2    C111629   2.915   1.993  16.552 -0.1166 -0.3079 -0.1459
  789MPD2    C211630   2.828   2.077  16.624 -0.5306 -0.1477 -0.9161
  789MPD2    C311631   2.764   2.180  16.554  0.5409 -0.4360  0.4251
  789MPD2    C411632   2.787   2.203  16.421  0.4310 -0.0337  0.1591
  789MPD2    C511633   2.869   2.128  16.355 -0.2053  0.3677 -0.1048
  789MPD2     H11634   2.821   2.071  16.732  0.6447  1.6527 -0.7458
  789MPD2    H111635   2.749   2.287  16.364  2.1497  0.9145  0.4062
  789MPD2    H211636   2.992   1.959  16.354  0.2369 -0.0483  0.1681
  789MPD2    H311637   2.881   2.151  16.250  0.6466  0.7054  0.0667
  789MPD2     N11638   2.682   2.275  16.617 -0.6759 -0.3012  0.1932
  789MPD2    H511639   2.646   2.349  16.558  0.8713  0.3490  0.0746
  789MPD2    N111640   2.959   1.872  16.607  0.3807 -0.3423  0.1709
  789MPD2    H711641   2.938   1.849  16.703  2.0096 -0.3551  0.5218
  790MPD2     C11642   3.961   3.800  13.904 -0.4009  0.2522 -0.0259
  790MPD2    C111643   3.830   3.788  13.876  0.0376 -0.1393  0.3145
  790MPD2    C211644   3.788   3.788  13.743  0.7374  0.7564  0.8453
  790MPD2    C311645   3.878   3.816  13.640  0.0673 -0.2093 -0.0977
  790MPD2    C411646   4.010   3.833  13.676 -0.1604  0.3234  0.3516
  790MPD2    C511647   4.050   3.837  13.805  0.5250  0.2956  0.1784
  790MPD2     H11648   3.686   3.773  13.710  0.6277  2.5597  0.3835
  790MPD2    H111649   4.087   3.848  13.602 -0.9674  1.2749 -0.2958
  790MPD2    H211650   3.993   3.800  14.008  1.1799  0.4767 -0.5087
  790MPD2    H311651   4.154   3.857  13.825  0.6493  0.1385 -0.3047
  790MPD2     N11652   3.835   3.806  13.506  0.2320  0.5203 -1.0052
  790MPD2    H511653   3.741   3.777  13.482  0.4858  0.9336 -2.4988
  790MPD2    N111654   3.749   3.740  13.983 -0.5682 -0.1911 -0.7315
  790MPD2    H711655   3.796   3.714  14.070 -1.3432  0.4526 -0.1249
  791MPD2     C11656   3.240   3.713  13.306  0.0833  0.1130  0.0590
  791MPD2    C111657   3.321   3.665  13.210 -0.6769  0.7164 -0.4937
  791MPD2    C211658   3.258   3.601  13.105 -0.3639 -0.4608  0.3908
  791MPD2    C311659   3.123   3.585  13.089  0.0882 -0.1350 -0.7178
  791MPD2    C411660   3.046   3.643  13.186 -0.1722  1.0055  0.0426
  791MPD2    C511661   3.102   3.701  13.296  0.5988 -0.4811  0.3136
  791MPD2     H11662   3.320   3.558  13.027 -2.0844  0.6380 -1.6121
  791MPD2    H111663   2.937   3.647  13.180 -0.1875  1.1484  0.3751
  791MPD2    H211664   3.277   3.767  13.393  0.0322 -0.7454  0.6176
  791MPD2    H311665   3.035   3.734  13.374  1.5606  0.2547  0.8241
  791MPD2     N11666   3.078   3.505  12.983  1.0766  0.4317 -0.7218
  791MPD2    H511667   3.155   3.460  12.935 -0.4814 -1.9211 -1.0042
  791MPD2    N111668   3.459   3.692  13.223 -0.1780 -0.2396 -0.4855
  791MPD2    H711669   3.492   3.729  13.311  1.0505 -0.3500 -0.8949
  792MPD2     C11670   4.573   3.271  11.534 -0.4031  0.0859 -0.1029
  792MPD2    C111671   4.477   3.344  11.465 -0.2090  0.4638  0.5579
  792MPD2    C211672   4.373   3.274  11.402 -0.4792 -0.0644  0.3393
  792MPD2    C311673   4.372   3.138  11.401 -1.2295 -0.8625 -0.1295
  792MPD2    C411674   4.471   3.063  11.471 -0.2160  0.2658  0.0483
  792MPD2    C511675   4.568   3.130  11.539  0.6724 -0.4632 -0.1341
  792MPD2     H11676   4.295   3.332  11.354 -1.0223 -0.5134  0.6783
  792MPD2    H111677   4.468   2.955  11.465 -0.2391  0.3493 -1.5072
  792MPD2    H211678   4.653   3.322  11.586 -0.8977  1.0737 -0.3276
  792MPD2    H311679   4.637   3.069  11.597 -1.3691 -1.4086  1.2735
  792MPD2     N11680   4.265   3.065  11.335  0.1689 -0.3160  0.2890
  792MPD2    H511681   4.271   2.964  11.337  0.9599 -0.2469  1.8423
  792MPD2    N111682   4.494   3.480  11.455  0.0735 -0.0562  0.2593
  792MPD2    H711683   4.574   3.511  11.509  0.7207  0.0082 -0.7356
  793MPD2     C11684   3.837   3.391  10.534  0.5213 -0.5083 -0.8591
  793MPD2    C111685   3.949   3.420  10.608 -0.2255 -0.2799 -0.5085
  793MPD2    C211686   3.969   3.359  10.721 -0.1236  0.4379 -0.1241
  793MPD2    C311687   3.889   3.252  10.760 -0.2290 -0.3501  0.3603
  793MPD2    C411688   3.772   3.228  10.682 -0.1633  0.0217  0.7613
  793MPD2    C511689   3.741   3.303  10.573 -0.6025 -0.5355 -0.0160
  793MPD2     H11690   4.064   3.377  10.771  0.1463 -0.1142 -0.4387
  793MPD2    H111691   3.694   3.159  10.714  0.5696 -0.8266  0.7029
  793MPD2    H211692   3.824   3.428  10.433  0.8063 -1.8695 -1.3854
  793MPD2    H311693   3.657   3.280  10.509 -0.7816 -2.0078  0.7607
  793MPD2     N11694   3.924   3.175  10.875  0.5249 -0.5206  0.2846
  793MPD2    H511695   4.004   3.200  10.931 -0.5960 -1.6141  2.3991
  793MPD2    N111696   4.053   3.508  10.563  0.2232  0.6153  0.5820
  793MPD2    H711697   4.139   3.497  10.615  0.5979  0.4778 -0.0664
  794MPD2     C11698   3.666   2.862  17.306 -0.3979  0.2510 -0.0396
  794MPD2    C111699   3.586   2.751  17.291 -0.3224 -0.2888  0.0189
  794MPD2    C211700   3.517   2.739  17.168  0.1054 -0.4522 -0.0323
  794MPD2    C311701   3.540   2.833  17.067 -0.5976  0.7357 -0.3074
  794MPD2    C411702   3.644   2.923  17.077  0.2692 -0.7585  0.2604
  794MPD2    C511703   3.698   2.943  17.205  0.2528  0.1537  1.0132
  794MPD2     H11704   3.432   2.672  17.161  0.3573 -0.9030  1.3156
  794MPD2    H111705   3.653   3.000  17.002  0.2883  1.7924  2.8797
  794MPD2    H211706   3.717   2.895  17.396 -0.1531 -1.2572  0.3757
  794MPD2    H311707   3.774   3.018  17.222  2.2745 -1.7717  0.6373
  794MPD2     N11708   3.462   2.842  16.950 -0.0411  0.0263 -0.0545
  794MPD2    H511709   3.468   2.931  16.902  0.4610  0.6929  1.2314
  794MPD2    N111710   3.558   2.661  17.398 -0.7314 -0.4722  0.0621
  794MPD2    H711711   3.496   2.584  17.375 -0.9912 -0.8118  1.9146
  795MPD2     C11712   1.928   0.340  13.018 -0.4983  0.7287 -0.1917
  795MPD2    C111713   1.856   0.260  13.108 -0.6581 -0.8733  0.4423
  795MPD2    C211714   1.918   0.227  13.229  0.2170 -0.1642  0.1139
  795MPD2    C311715   2.048   0.264  13.248 -0.2800  0.4992 -0.8209
  795MPD2    C411716   2.122   0.333  13.152 -0.5037 -0.8555  0.3605
  795MPD2    C511717   2.055   0.377  13.044 -0.0049  0.0852 -0.4839
  795MPD2     H11718   1.859   0.185  13.309 -0.9490  2.5575  0.6720
  795MPD2    H111719   2.225   0.360  13.173 -0.9140  1.0369 -0.0895
  795MPD2    H211720   1.886   0.378  12.926 -0.5350  0.8414 -0.1292
  795MPD2    H311721   2.115   0.435  12.975  0.6887 -0.8694 -0.6740
  795MPD2     N11722   2.117   0.223  13.363 -0.3190 -0.1557  0.7598
  795MPD2    H511723   2.216   0.243  13.365 -0.7579  2.1453  0.1663
  795MPD2    N111724   1.724   0.214  13.078 -0.6954 -0.2878  0.0047
  795MPD2    H711725   1.691   0.145  13.144  1.5008  0.1257  1.5271
  796MPD2     C11726   0.638   1.735  16.381 -0.4807  0.1591  0.0455
  796MPD2    C111727   0.749   1.812  16.410  0.8150  0.4140  0.3648
  796MPD2    C211728   0.756   1.936  16.351 -0.5115 -0.4643  0.9514
  796MPD2    C311729   0.659   1.971  16.256  0.0497 -0.4030  0.3406
  796MPD2    C411730   0.555   1.887  16.226 -0.4620  0.2012  0.2125
  796MPD2    C511731   0.545   1.770  16.286 -0.8388  0.1254  0.4946
  796MPD2     H11732   0.835   2.009  16.369 -0.2593 -1.2249  2.8824
  796MPD2    H111733   0.489   1.899  16.140 -0.8392  2.9666  0.8846
  796MPD2    H211734   0.627   1.637  16.426  0.6830  0.1512  0.3060
  796MPD2    H311735   0.461   1.711  16.251 -0.5701 -1.0413  1.8579
  796MPD2     N11736   0.664   2.099  16.190 -0.6068  0.0603 -0.1351
  796MPD2    H511737   0.744   2.156  16.217 -1.2002  1.0252 -0.4204
  796MPD2    N111738   0.837   1.759  16.506 -0.1302 -0.2465 -0.1221
  796MPD2    H711739   0.795   1.684  16.561 -1.6608  0.2637 -0.5884
  797MPD2     C11740   1.868   1.123  17.576  0.2595  0.5482 -0.1412
  797MPD2    C111741   1.975   1.212  17.586  0.2753  0.3352 -0.4227
  797MPD2    C211742   2.021   1.275  17.474  0.5780  0.0248 -0.8009
  797MPD2    C311743   1.966   1.246  17.350 -0.5495 -0.7943 -0.3169
  797MPD2    C411744   1.868   1.147  17.341  0.3999  0.6335 -0.8559
  797MPD2    C511745   1.815   1.092  17.459 -0.3244 -0.3121 -0.0681
  797MPD2     H11746   2.103   1.346  17.480 -0.9352  1.3950  3.1888
  797MPD2    H111747   1.809   1.136  17.251 -1.4066  0.8836  0.2801
  797MPD2    H211748   1.826   1.077  17.665  0.9931 -1.5879 -0.8933
  797MPD2    H311749   1.728   1.027  17.456 -0.3826 -0.2106 -0.5159
  797MPD2     N11750   2.026   1.322  17.247 -0.1018  0.2856 -0.2071
  797MPD2    H511751   2.104   1.381  17.275 -1.0583  1.8268 -0.8056
  797MPD2    N111752   2.023   1.253   0.011 -0.2322  0.5665  0.3113
  797MPD2    H711753   2.089   1.330   0.008 -0.4264  0.7194 -0.1441
  798MPD2     C11754   2.072   1.890  17.448 -0.4394  0.1590  0.7461
  798MPD2    C111755   2.137   1.771  17.439  0.6108 -0.8783 -0.7774
  798MPD2    C211756   2.145   1.690  17.550 -0.0825 -0.0034  0.3813
  798MPD2    C311757   2.082   1.731  17.670  1.2220 -0.1037 -0.7097
  798MPD2    C411758   2.017   1.848  17.682 -0.7938 -0.3745  0.4436
  798MPD2    C511759   2.004   1.922  17.567 -0.2338  0.6311 -0.0239
  798MPD2     H11760   2.205   1.599  17.550 -0.5185 -0.2918  1.6182
  798MPD2    H111761   1.962   1.869   0.073  0.6378  0.3303  1.1579
  798MPD2    H211762   2.059   1.957  17.364 -0.5948  0.5905  1.1102
  798MPD2    H311763   1.947   2.014  17.564  0.0817  0.7198 -3.1303
  798MPD2     N11764   2.100   1.654   0.086 -0.2920 -0.5126  0.2451
  798MPD2    H511765   2.038   1.683   0.161  0.9249 -0.7730  1.3536
  798MPD2    N111766   2.191   1.729  17.317 -0.9770  0.4553 -0.6979
  798MPD2    H711767   2.168   1.794  17.242 -2.9468  2.7197  1.8962
  799MPD2     C11768   1.022   2.654  14.982  0.6764 -0.1868  0.1093
  799MPD2    C111769   0.933   2.566  14.924 -0.3312 -0.4664 -0.2361
  799MPD2    C211770   0.817   2.618  14.872  0.8838  0.1911 -0.1257
  799MPD2    C311771   0.784   2.753  14.874  0.4241  0.0518  0.2546
  799MPD2    C411772   0.880   2.841  14.934  0.2569 -0.4208  0.5264
  799MPD2    C511773   0.992   2.790  14.994  0.2270  0.2555 -0.3542
  799MPD2     H11774   0.745   2.550  14.826  2.1363 -0.5704 -0.9580
  799MPD2    H111775   0.868   2.948  14.933 -0.4386 -0.4941  1.3722
  799MPD2    H211776   1.113   2.629  15.036  0.4808  0.0511  0.5432
  799MPD2    H311777   1.069   2.853  15.036 -0.3960  0.8370 -0.0828
  799MPD2     N11778   0.663   2.806  14.832 -0.1969  0.3139 -0.0290
  799MPD2    H511779   0.648   2.907  14.836 -3.9204 -0.2547  0.6588
  799MPD2    N111780   0.961   2.431  14.910 -0.1630  0.0204  0.5212
  799MPD2    H711781   0.898   2.370  14.860 -0.3868 -0.1190  0.9738
  800MPD2     C11782   1.513   4.492  14.621  0.1461  1.0998  0.9414
  800MPD2    C111783   1.627   4.435  14.571  0.0510  0.2508 -0.9607
  800MPD2    C211784   1.619   4.323  14.492 -0.0348 -0.0955  0.7323
  800MPD2    C311785   1.499   4.279  14.456  0.4139  0.2900 -0.2935
  800MPD2    C411786   1.386   4.345  14.505  0.4431 -0.1829  0.3853
  800MPD2    C511787   1.394   4.443  14.601  0.1152  0.2501 -0.6235
  800MPD2     H11788   1.710   4.275  14.460 -0.3650  0.3561 -0.8791
  800MPD2    H111789   1.288   4.312  14.473 -0.3124  1.8907  0.6010
  800MPD2    H211790   1.515   4.583  14.679 -1.6978  1.4071  0.5195
  800MPD2    H311791   1.300   4.491  14.626 -1.1789 -1.4757 -2.2076
  800MPD2     N11792   1.501   4.178  14.356 -0.5303  0.6445 -0.2301
  800MPD2    H511793   1.593   4.172  14.314 -0.2604 -2.7033  0.7809
  800MPD2    N111794   1.748   4.504  14.594 -0.6637  0.5540  0.3770
  800MPD2    H711795   1.730   4.597  14.630  1.8344  1.0643  0.3093
  801MPD2     C11796   1.892   0.453  14.664  0.0309 -0.4657 -0.0760
  801MPD2    C111797   1.825   0.349  14.604 -0.4422 -0.0085 -0.2643
  801MPD2    C211798   1.696   0.366  14.566 -0.1612 -0.2685 -0.2285
  801MPD2    C311799   1.631   0.481  14.580 -0.0427  0.1200 -0.1245
  801MPD2    C411800   1.692   0.588  14.654  0.0660  0.8424 -0.1516
  801MPD2    C511801   1.826   0.573  14.681 -0.3039 -0.1204 -0.6357
  801MPD2     H11802   1.642   0.286  14.517 -3.3945  2.8506 -1.7123
  801MPD2    H111803   1.642   0.681  14.678 -0.7365  0.8581 -1.8569
  801MPD2    H211804   1.991   0.436  14.705 -0.2846 -1.4870  0.2636
  801MPD2    H311805   1.877   0.656  14.728  0.8963 -1.1814 -0.0514
  801MPD2     N11806   1.497   0.495  14.542  0.0177 -0.3400  0.0597
  801MPD2    H511807   1.454   0.572  14.592  1.7091  0.8849 -0.3740
  801MPD2    N111808   1.883   0.225  14.574 -0.1952 -0.7235  0.0482
  801MPD2    H711809   1.822   0.153  14.535  1.4888 -2.8715  1.3732
  802MPD2     C11810   0.186   0.986   0.318 -0.7943 -0.2915  0.0386
  802MPD2    C111811   0.229   0.886   0.401 -0.2956  0.4705 -0.4345
  802MPD2    C211812   0.238   0.761   0.346  0.2278  0.6118  0.1589
  802MPD2    C311813   0.178   0.724   0.220  0.0119 -0.0895  0.3964
  802MPD2    C411814   0.121   0.825   0.143  0.0796  0.5548 -0.5443
  802MPD2    C511815   0.128   0.952   0.197  0.1999 -0.2008  0.1152
  802MPD2     H11816   0.269   0.674   0.402 -2.7485 -0.2749  0.3980
  802MPD2    H111817   0.066   0.801   0.052 -2.1935  0.7967  0.7840
  802MPD2    H211818   0.176   1.090   0.348  1.0545  0.0930 -0.6739
  802MPD2    H311819   0.088   1.031   0.136 -0.5785  0.4028  1.3979
  802MPD2     N11820   0.168   0.587   0.184  0.3512 -0.3062  0.2363
  802MPD2    H511821   0.216   0.523   0.247 -0.7315 -0.0120  1.3714
  802MPD2    N111822   0.257   0.904   0.535 -0.2146  0.1969  0.0387
  802MPD2    H711823   0.302   0.827   0.585  1.8732  1.5490  0.2255
  803MPD2     C11824   2.192   3.136  12.031  0.4122 -0.0977 -0.7271
  803MPD2    C111825   2.193   3.197  12.154  0.1113 -0.6459  0.6778
  803MPD2    C211826   2.133   3.130  12.257 -0.3754 -0.3652 -0.7296
  803MPD2    C311827   2.088   3.002  12.243  0.7323  0.4270 -1.0702
  803MPD2    C411828   2.087   2.941  12.116  0.2285 -0.0355  0.4209
  803MPD2    C511829   2.129   3.017  12.010  0.5078  0.2500  0.0881
  803MPD2     H11830   2.120   3.180  12.352 -1.0314  0.6763 -1.3693
  803MPD2    H111831   2.050   2.839  12.104  0.0911  0.3863 -2.5187
  803MPD2    H211832   2.226   3.184  11.940  0.7743 -0.8759 -1.0030
  803MPD2    H311833   2.123   2.974  11.910 -5.1578 -3.4862  1.9835
  803MPD2     N11834   2.056   2.923  12.357 -0.7897  0.0804 -0.0945
  803MPD2    H511835   2.003   2.838  12.341  1.0962 -1.0356 -0.3628
  803MPD2    N111836   2.254   3.322  12.175  0.2724  0.3076  0.3352
  803MPD2    H711837   2.247   3.367  12.266  2.2889  1.4262 -0.0771
  804MPD2     C11838   1.480   0.381  17.088  0.2571  0.0058  0.2050
  804MPD2    C111839   1.495   0.313  17.212 -0.0590 -0.0576 -0.3153
  804MPD2    C211840   1.550   0.390  17.312 -0.0335  0.8175  0.4425
  804MPD2    C311841   1.587   0.523  17.295 -0.7269 -0.1301  0.3126
  804MPD2    C411842   1.568   0.582  17.175 -0.8326 -0.3709  0.7699
  804MPD2    C511843   1.514   0.513  17.069  0.8353  0.6069 -0.0556
  804MPD2     H11844   1.578   0.345  17.406 -2.3965 -2.1191 -0.2776
  804MPD2    H111845   1.591   0.686  17.156  0.1462 -0.8653 -0.6717
  804MPD2    H211846   1.431   0.339  17.000  1.7224  0.9881 -1.0704
  804MPD2    H311847   1.498   0.555  16.971  1.0969  3.7213  1.2364
  804MPD2     N11848   1.648   0.590  17.400  0.6676 -0.2555 -0.3471
  804MPD2    H511849   1.688   0.531  17.472  1.3036 -0.4043 -0.8181
  804MPD2    N111850   1.455   0.182  17.233  0.4956 -0.0503  0.3594
  804MPD2    H711851   1.470   0.138  17.324  3.0133 -0.4290 -0.2223
  805MPD2     C11852   0.378   2.726  15.695  0.0382 -0.4349  0.1582
  805MPD2    C111853   0.394   2.858  15.658  0.2378  0.4676  0.0208
  805MPD2    C211854   0.502   2.931  15.711  0.2253  0.2765  0.5526
  805MPD2    C311855   0.600   2.858  15.784 -0.0563 -0.4484  0.5699
  805MPD2    C411856   0.587   2.723  15.798 -0.5323 -0.6450  0.7430
  805MPD2    C511857   0.474   2.658  15.762 -0.0712  0.0406 -0.1908
  805MPD2     H11858   0.497   3.038  15.692  1.8960  0.4756  1.2412
  805MPD2    H111859   0.665   2.666  15.847  0.1818 -1.2299 -1.0890
  805MPD2    H211860   0.283   2.684  15.665 -1.4497  2.6484  0.5862
  805MPD2    H311861   0.460   2.553  15.780  2.1400 -0.5216 -1.6810
  805MPD2     N11862   0.696   2.945  15.842 -0.5323  0.1054  0.2620
  805MPD2    H511863   0.698   3.038  15.801  0.3101 -0.0972 -0.1631
  805MPD2    N111864   0.298   2.928  15.575 -0.5487  0.0830 -0.3137
  805MPD2    H711865   0.309   3.028  15.563 -0.5940 -0.0783 -1.6658
  806MPD2     C11866   1.082   2.018   0.244 -0.5057  0.4563  0.7664
  806MPD2    C111867   1.018   2.117   0.313 -0.4453  0.6956  0.4407
  806MPD2    C211868   1.048   2.246   0.297  0.1294 -0.1726 -0.1541
  806MPD2    C311869   1.165   2.281   0.233 -1.1079  0.0465 -0.0921
  806MPD2    C411870   1.236   2.183   0.172 -0.3856  0.8232 -0.2844
  806MPD2    C511871   1.190   2.056   0.170  0.3759 -0.3117 -0.7844
  806MPD2     H11872   0.991   2.331   0.332  0.8582  0.0411  0.5272
  806MPD2    H111873   1.338   2.195   0.137 -1.0230  1.7844 -1.8072
  806MPD2    H211874   1.057   1.912   0.243 -0.8497  0.5536 -0.6304
  806MPD2    H311875   1.246   1.984   0.112  3.5210 -0.4236  2.3840
  806MPD2     N11876   1.196   2.419   0.224 -0.1283  1.1630 -0.1640
  806MPD2    H511877   1.133   2.490   0.259  0.0971  0.6742  1.2335
  806MPD2    N111878   0.904   2.072   0.394  0.1896  0.4835  0.5976
  806MPD2    H711879   0.883   1.973   0.407  0.0148  0.4198 -0.1887
  807MPD2     C11880   0.812   1.511   0.694 -0.1670  0.0247  0.8193
  807MPD2    C111881   0.711   1.565   0.765 -0.6787  0.2760 -0.0047
  807MPD2    C211882   0.661   1.496   0.877 -1.6609 -0.2293 -0.0583
  807MPD2    C311883   0.730   1.388   0.934  0.4159  0.3671 -0.3313
  807MPD2    C411884   0.843   1.346   0.869 -0.2361 -0.4580  0.4834
  807MPD2    C511885   0.881   1.406   0.751  0.6033  0.3211  0.0090
  807MPD2     H11886   0.583   1.538   0.940 -0.8532  0.7675  0.2686
  807MPD2    H111887   0.906   1.271   0.914 -0.5312 -0.2837  1.1826
  807MPD2    H211888   0.871   1.561   0.617  2.1816 -1.8947  1.3729
  807MPD2    H311889   0.978   1.379   0.710  0.2556 -0.2963 -0.4077
  807MPD2     N11890   0.685   1.329   1.051  0.3480 -0.6090 -0.4148
  807MPD2    H511891   0.606   1.378   1.093 -0.3022 -2.5080  0.5529
  807MPD2    N111892   0.664   1.695   0.739  0.8048 -0.5563 -0.2993
  807MPD2    H711893   0.594   1.731   0.803 -0.3237 -0.7164 -1.4604
  808MPD2     C11894   2.221   4.637  10.171  0.1663  0.1221  0.3215
  808MPD2    C111895   2.236   4.625  10.036 -0.2055 -0.0501 -0.1797
  808MPD2    C211896   2.350   4.670   9.977 -1.0071  0.5086  0.2521
  808MPD2    C311897   2.460   4.697  10.060 -0.2381 -0.1857  0.7668
  808MPD2    C411898   2.454   4.694  10.198  0.4310 -0.1963  0.3017
  808MPD2    C511899   2.327   4.680  10.247  0.0080 -0.5884  0.4602
  808MPD2     H11900   2.371   4.669   9.871  1.9311 -0.1780  0.8395
  808MPD2    H111901   2.539   4.706  10.263  2.1989  0.9738 -2.2420
  808MPD2    H211902   2.126   4.631  10.222  0.0981 -0.7153  0.0871
  808MPD2    H311903   2.313   4.680  10.355  0.0972 -1.8909  0.4654
  808MPD2     N11904   2.590   4.709  10.003 -0.4976  0.0852 -0.4671
  808MPD2    H511905   2.670   4.718  10.065  0.2818 -1.6802 -1.2197
  808MPD2    N111906   2.141   4.570   9.949 -0.1483 -0.1076  0.1291
  808MPD2    H711907   2.164   4.576   9.851  1.5051 -2.1841  0.3845
  809MPD2     C11908   3.040   4.158   9.312 -0.5523 -0.3785  0.8855
  809MPD2    C111909   3.143   4.191   9.402 -0.1387 -0.3279 -0.3042
  809MPD2    C211910   3.127   4.295   9.493  0.5982  0.8115  0.0656
  809MPD2    C311911   3.000   4.362   9.493  0.1958  0.1074 -0.1689
  809MPD2    C411912   2.906   4.332   9.402  0.1195 -0.3609 -0.5646
  809MPD2    C511913   2.929   4.238   9.310 -0.2343 -0.2571  0.4007
  809MPD2     H11914   3.209   4.328   9.556 -1.0030  0.2898  2.4146
  809MPD2    H111915   2.812   4.385   9.408  0.8420  1.0275 -1.4429
  809MPD2    H211916   3.052   4.089   9.230 -0.1183 -0.0306  0.6604
  809MPD2    H311917   2.859   4.222   9.229  1.8411 -2.5022 -0.9486
  809MPD2     N11918   2.957   4.463   9.585  0.3234 -0.1116 -0.4286
  809MPD2    H511919   2.864   4.504   9.582 -0.6156 -2.0385  2.6321
  809MPD2    N111920   3.267   4.121   9.400  0.5309  0.0662  0.0887
  809MPD2    H711921   3.335   4.141   9.472  1.1549  0.3624 -0.5815
  810MPD2     C11922   1.955   3.829  10.787  0.0510  0.3634 -0.4038
  810MPD2    C111923   1.823   3.800  10.839 -0.2703 -0.3270 -0.2502
  810MPD2    C211924   1.761   3.907  10.903  0.0374  0.7002  0.2378
  810MPD2    C311925   1.825   4.034  10.921 -0.2711 -0.2196 -0.5058
  810MPD2    C411926   1.958   4.046  10.884 -0.2316 -0.2907  0.1049
  810MPD2    C511927   2.028   3.944  10.818 -0.2631 -0.4656  0.0810
  810MPD2     H11928   1.659   3.895  10.938  0.1061 -3.2523 -0.8220
  810MPD2    H111929   2.006   4.143  10.895  0.6171 -0.8117  1.0130
  810MPD2    H211930   2.001   3.756  10.721 -2.2008 -0.3664 -1.1578
  810MPD2    H311931   2.128   3.948  10.776 -0.6181  1.2523 -0.5601
  810MPD2     N11932   1.763   4.150  10.964  0.1013 -0.0097 -0.0747
  810MPD2    H511933   1.818   4.236  10.959 -0.6186  0.5297  1.2713
  810MPD2    N111934   1.754   3.691  10.791  0.2092  0.1898  0.0564
  810MPD2    H711935   1.798   3.635  10.720 -1.2607 -1.5860  0.5556
  811MPD2     C11936   1.120   3.594  10.222  0.1285  0.1765  0.1372
  811MPD2    C111937   1.227   3.654  10.279  1.2985  0.4343 -0.0377
  811MPD2    C211938   1.265   3.781  10.223  0.6561  0.2275  0.1176
  811MPD2    C311939   1.185   3.851  10.138  0.3894 -0.6381 -0.8845
  811MPD2    C411940   1.064   3.787  10.094  0.4028  0.0776  0.4259
  811MPD2    C511941   1.037   3.655  10.133 -0.1363  0.1361  0.0790
  811MPD2     H11942   1.352   3.833  10.260  1.4359  0.4844 -2.0380
  811MPD2    H111943   0.989   3.838  10.035  1.3130  2.1108  1.0334
  811MPD2    H211944   1.090   3.498  10.263  4.2426 -0.8314  0.8475
  811MPD2    H311945   0.945   3.605  10.106 -0.1335 -0.1962  0.6900
  811MPD2     N11946   1.221   3.984  10.089 -0.0447  0.0285  0.0349
  811MPD2    H511947   1.309   4.020  10.125 -0.1363 -0.9211  1.2100
  811MPD2    N111948   1.312   3.588  10.370 -0.5532 -0.2926 -0.2548
  811MPD2    H711949   1.288   3.496  10.405  0.0948 -0.9338 -1.5138
  812MPD2     C11950   0.270   3.547  12.533  0.4810  0.1575  0.4051
  812MPD2    C111951   0.137   3.584  12.557 -1.3756 -0.0410  0.0808
  812MPD2    C211952   0.066   3.514  12.648 -0.1208 -0.2233  0.0337
  812MPD2    C311953   0.113   3.395  12.703  0.2295  0.1877  0.2256
  812MPD2    C411954   0.238   3.356  12.670 -0.0954 -0.1414 -0.4414
  812MPD2    C511955   0.315   3.435  12.593 -0.3286 -0.3096 -0.2127
  812MPD2     H11956   4.689   3.544  12.675  0.2966  0.8520  0.3838
  812MPD2    H111957   0.284   3.263  12.700 -1.9866 -1.0035 -0.2160
  812MPD2    H211958   0.330   3.602  12.460  0.2102 -0.0054  0.0601
  812MPD2    H311959   0.419   3.406  12.580 -0.8392 -1.5850 -1.3581
  812MPD2     N11960   0.027   3.309  12.771  0.1678 -1.0171 -0.2337
  812MPD2    H511961   4.660   3.346  12.795 -0.1680 -1.6638 -0.5195
  812MPD2    N111962   0.098   3.707  12.500  0.4041  0.1214 -0.9326
  812MPD2    H711963   0.165   3.756  12.442  0.9978 -0.4023 -0.6842
  813MPD2     C11964   3.560   0.541  13.004  0.0153  0.4430 -0.3068
  813MPD2    C111965   3.592   0.668  12.966  0.4831 -0.0346  0.1241
  813MPD2    C211966   3.566   0.780  13.052 -0.1063  0.2252 -0.1015
  813MPD2    C311967   3.498   0.762  13.171  0.5944 -0.2242  0.1606
  813MPD2    C411968   3.473   0.631  13.209  0.4787 -0.2717  0.3780
  813MPD2    C511969   3.489   0.532  13.119 -0.0828 -0.0528  0.3516
  813MPD2     H11970   3.572   0.885  13.023  0.3817 -0.3060 -1.9610
  813MPD2    H111971   3.422   0.611  13.302  0.1686  1.7826  0.6607
  813MPD2    H211972   3.585   0.465  12.930 -0.0522 -0.0215  0.1507
  813MPD2    H311973   3.466   0.433  13.156  0.4140 -0.0457  0.6871
  813MPD2     N11974   3.476   0.870  13.252  0.1034  0.1021  0.0401
  813MPD2    H511975   3.522   0.958  13.231 -4.2519  2.0619 -1.2516
  813MPD2    N111976   3.652   0.683  12.837 -0.1638  0.2981 -0.1161
  813MPD2    H711977   3.634   0.600  12.782 -1.1914 -0.6802  1.7248
  814MPD2     C11978   4.469   2.053  12.477  0.0960  0.5089  0.5511
  814MPD2    C111979   4.460   2.151  12.375 -0.9361  0.6221  0.4558
  814MPD2    C211980   4.527   2.269  12.396  0.3427  0.2446  0.0174
  814MPD2    C311981   4.594   2.289  12.514 -0.0268  0.0490 -0.8130
  814MPD2    C411982   4.598   2.189  12.604 -0.2034 -1.3081  0.0752
  814MPD2    C511983   4.535   2.070  12.587 -0.0488  0.8913  0.3786
  814MPD2     H11984   4.525   2.351  12.324  1.0869  1.5466  1.4937
  814MPD2    H111985   4.658   2.218  12.688 -1.7336 -0.4458  0.8726
  814MPD2    H211986   4.424   1.956  12.456  0.6829  0.5925 -1.1400
  814MPD2    H311987   4.554   1.988  12.656 -0.6762 -0.2928 -0.8640
  814MPD2     N11988   4.664   2.409  12.547  0.1114 -0.3971 -0.6747
  814MPD2    H511989   4.681   2.412  12.647  0.3990 -0.4474 -0.7212
  814MPD2    N111990   4.403   2.130  12.251 -0.8820  0.1660 -0.1058
  814MPD2    H711991   4.451   2.184  12.180 -1.3005 -0.3019 -0.7502
  815MPD2     C11992   0.762   0.306  12.476 -0.2403 -0.0612  0.1601
  815MPD2    C111993   0.676   0.347  12.380  0.0179  0.9145  0.6071
  815MPD2    C211994   0.561   0.413  12.409 -0.7135  0.3016 -0.6229
  815MPD2    C311995   0.533   0.441  12.537 -0.3970  0.6111 -0.6395
  815MPD2    C411996   0.622   0.407  12.633  0.5222  0.4170  0.7477
  815MPD2    C511997   0.737   0.344  12.603  0.0423 -0.5897 -0.1884
  815MPD2     H11998   0.487   0.434  12.333 -0.9343 -0.6571 -0.6820
  815MPD2    H111999   0.607   0.430  12.737  1.6510 -0.9454  1.2134
  815MPD2    H212000   0.854   0.253  12.456 -0.8650 -0.6463 -1.1298
  815MPD2    H312001   0.799   0.313  12.686  0.4411  0.9474  0.0814
  815MPD2     N12002   0.405   0.488  12.568  0.2511 -0.6997  0.0419
  815MPD2    H512003   0.349   0.539  12.501  1.4654 -3.0450 -2.7639
  815MPD2    N112004   0.706   0.314  12.252 -0.1235 -0.2821 -0.2047
  815MPD2    H712005   0.788   0.256  12.243  1.9614  2.7475 -0.7244
  816MPD2     C12006   4.523   4.240  17.122 -0.0908  0.1230  0.2924
  816MPD2    C112007   4.579   4.346  17.197  0.5196 -0.0088 -0.3954
  816MPD2    C212008   4.718   4.345  17.213  0.8146 -0.5461  0.3984
  816MPD2    C312009   0.073   4.253  17.149  0.0689 -0.0063  0.6388
  816MPD2    C412010   0.013   4.159  17.066  0.1665 -0.0759  0.3291
  816MPD2    C512011   4.601   4.152  17.054  0.0135  0.1289 -0.3240
  816MPD2     H12012   0.045   4.426  17.263 -2.4736  2.0681 -0.4441
  816MPD2    H112013   0.077   4.086  17.018  0.3036  0.5674 -0.4794
  816MPD2    H212014   4.416   4.237  17.107 -0.0371 -0.7816  0.0925
  816MPD2    H312015   4.563   4.076  16.987  1.6059 -0.3065 -0.7385
  816MPD2     N12016   0.215   4.267  17.160 -0.1589 -0.0018  0.7925
  816MPD2    H512017   0.241   4.353  17.207 -0.2827  0.6014 -0.2543
  816MPD2    N112018   4.490   4.443  17.245 -0.4694 -0.6758  0.3033
  816MPD2    H712019   4.392   4.430  17.223 -0.5439 -2.2823  1.5998
  817MPD2     C12020   0.782   0.827   9.761  0.5162 -0.3937 -1.4285
  817MPD2    C112021   0.740   0.866   9.883 -0.4152 -0.0448  0.1219
  817MPD2    C212022   0.628   0.949   9.888 -0.6399 -0.6743 -0.1382
  817MPD2    C312023   0.562   0.997   9.773 -0.0936  0.3222 -0.0045
  817MPD2    C412024   0.617   0.958   9.658 -0.4189  0.0293  0.8433
  817MPD2    C512025   0.721   0.879   9.653  0.5779 -0.1688  0.3466
  817MPD2     H12026   0.591   0.969   9.988  0.4723  0.5455  0.0204
  817MPD2    H112027   0.584   0.985   9.559 -3.3755  0.5970  1.9812
  817MPD2    H212028   0.874   0.770   9.746  1.5086  0.5467  1.2505
  817MPD2    H312029   0.767   0.859   9.556  1.3780  0.9506  0.4875
  817MPD2     N12030   0.445   1.078   9.793 -0.0096 -0.3120  0.5716
  817MPD2    H512031   0.419   1.097   9.890  1.1309 -1.4094  1.0956
  817MPD2    N112032   0.801   0.828  10.005 -0.2577 -0.6503 -0.1180
  817MPD2    H712033   0.769   0.879  10.087  1.4380  1.0614 -0.5105
  818MPD2     C12034   3.800   1.061  10.017 -0.5168  0.6793 -0.8442
  818MPD2    C112035   3.793   1.025  10.146 -0.0997  0.4821  0.1521
  818MPD2    C212036   3.911   0.965  10.199  0.3325  0.7166 -0.5421
  818MPD2    C312037   4.030   0.948  10.134 -0.0398  0.6121  0.2959
  818MPD2    C412038   4.029   1.006  10.009  0.7014  0.2656 -0.5907
  818MPD2    C512039   3.917   1.056   9.951 -0.2759 -0.8350  0.3360
  818MPD2     H12040   3.910   0.943  10.305  2.1766  0.1987 -0.6364
  818MPD2    H112041   4.121   0.997   9.954  0.5266  0.6112 -0.9421
  818MPD2    H212042   3.714   1.096   9.961 -0.8620 -0.0864 -0.7848
  818MPD2    H312043   3.923   1.097   9.850 -1.6886 -0.8008  0.2769
  818MPD2     N12044   4.139   0.897  10.205 -0.4775  0.0623 -0.4526
  818MPD2    H512045   4.222   0.892  10.148  0.1879  1.1866  0.4208
  818MPD2    N112046   3.681   1.021  10.227  0.5374 -0.0983 -0.1980
  818MPD2    H712047   3.689   1.000  10.326 -2.8168 -1.1509 -0.1430
  819MPD2     C12048   1.028   2.971  15.695  0.3820 -0.2149 -0.3974
  819MPD2    C112049   1.043   2.840  15.734 -0.2476  0.1170  0.1318
  819MPD2    C212050   1.146   2.798  15.817 -0.3147 -0.6291  0.0469
  819MPD2    C312051   1.231   2.885  15.875  0.7592  0.1287  0.8715
  819MPD2    C412052   1.222   3.016  15.837  0.0975 -0.4602  0.1236
  819MPD2    C512053   1.122   3.058  15.748 -0.1159 -0.0229 -0.3335
  819MPD2     H12054   1.156   2.692  15.833 -0.8894 -0.9824 -1.9256
  819MPD2    H112055   1.296   3.087  15.872  1.5752 -2.1502  0.4029
  819MPD2    H212056   0.941   2.999  15.636 -0.5314  0.2705  1.1860
  819MPD2    H312057   1.105   3.164  15.733  0.0733  0.1350  0.5833
  819MPD2     N12058   1.335   2.826  15.956 -0.0283 -0.0917  0.6344
  819MPD2    H512059   1.330   2.724  15.956  0.4267 -0.1058  2.4254
  819MPD2    N112060   0.952   2.751  15.677  0.0728  0.2591  0.6816
  819MPD2    H712061   0.881   2.785  15.613  1.4290  2.1004  0.1389
  820MPD2     C12062   0.294   2.643  14.961  0.4623 -0.0344 -0.0112
  820MPD2    C112063   0.334   2.735  15.057 -0.3020  0.1995  0.5116
  820MPD2    C212064   0.412   2.702  15.160 -0.2513  0.6946 -0.3809
  820MPD2    C312065   0.470   2.573  15.159  0.3324  0.5795  0.6923
  820MPD2    C412066   0.440   2.481  15.063 -0.6533 -0.2408  0.3851
  820MPD2    C512067   0.354   2.519  14.965 -0.3339 -0.1912 -0.4691
  820MPD2     H12068   0.432   2.767  15.244  0.3383 -0.0417  0.0427
  820MPD2    H112069   0.493   2.387  15.057  1.9912  1.4005 -1.8839
  820MPD2    H212070   0.223   2.669  14.883  0.1250 -1.9756 -0.3579
  820MPD2    H312071   0.350   2.448  14.883 -0.0999 -1.1681  0.3628
  820MPD2     N12072   0.542   2.528  15.274  0.9067 -0.0896 -0.2414
  820MPD2    H512073   0.562   2.430  15.286 -1.6995 -0.1881  3.3345
  820MPD2    N112074   0.261   2.860  15.046 -0.2927 -0.1393 -1.3615
  820MPD2    H712075   0.182   2.860  14.983 -2.4594  2.6457  1.3222
  821MPD2     C12076   1.371   4.395  13.556 -0.3198 -0.0922  0.0251
  821MPD2    C112077   1.470   4.307  13.590  0.6096  0.6783 -0.0493
  821MPD2    C212078   1.577   4.291  13.503 -0.3423  0.3609  0.1097
  821MPD2    C312079   1.577   4.334  13.373  0.6241  0.3912 -0.7499
  821MPD2    C412080   1.473   4.414  13.337 -0.3410  0.8102  0.5074
  821MPD2    C512081   1.382   4.448  13.435 -0.4595  1.0557 -0.5024
  821MPD2     H12082   1.668   4.249  13.543  1.0649  1.7520 -1.6799
  821MPD2    H112083   1.462   4.461  13.240 -1.8637 -2.0056 -0.6591
  821MPD2    H212084   1.284   4.420  13.615 -0.4300  0.2629 -0.2858
  821MPD2    H312085   1.314   4.528  13.408 -0.6093  1.3448  0.7346
  821MPD2     N12086   1.672   4.317  13.272  0.4593 -0.7841 -0.3396
  821MPD2    H512087   1.662   4.378  13.192  2.5071  0.8484  0.6610
  821MPD2    N112088   1.483   4.242  13.714  0.1466 -0.3550 -0.6383
  821MPD2    H712089   1.556   4.171  13.718 -0.5927 -0.9997  1.3950
  822MPD2     C12090   1.720   4.223  15.775  1.0139  0.8841 -0.9116
  822MPD2    C112091   1.814   4.247  15.870 -0.7957  0.3605 -0.0623
  822MPD2    C212092   1.802   4.357  15.953  0.1216  0.2926  0.4087
  822MPD2    C312093   1.687   4.434  15.957  0.1346 -0.9294 -0.2600
  822MPD2    C412094   1.582   4.404  15.877  0.3670 -0.3886 -0.8770
  822MPD2    C512095   1.607   4.311  15.779  0.1784 -0.4384 -0.6114
  822MPD2     H12096   1.884   4.372  16.023  1.0765 -1.8332 -0.2539
  822MPD2    H112097   1.485   4.453  15.876  1.1426  1.1564 -0.0942
  822MPD2    H212098   1.713   4.140  15.705 -4.0236 -0.2288  0.8908
  822MPD2    H312099   1.532   4.293  15.703 -1.5600 -0.2743  1.0603
  822MPD2     N12100   1.667   4.548  16.039 -0.0710  0.3277 -0.1625
  822MPD2    H512101   1.576   4.591  16.050 -0.1716 -0.1330  0.9122
  822MPD2    N112102   1.921   4.164  15.894  0.2044 -0.3706 -0.7577
  822MPD2    H712103   1.966   4.170  15.984 -1.7363 -0.6276  0.2201
  823MPD2     C12104   1.612   4.495  16.877  0.0539 -0.1947 -0.5346
  823MPD2    C112105   1.565   4.477  16.755  0.0463  0.5966 -1.0477
  823MPD2    C212106   1.483   4.371  16.720 -0.4282  0.3140  0.4551
  823MPD2    C312107   1.465   4.269  16.813 -0.3643 -0.6221 -0.0556
  823MPD2    C412108   1.521   4.285  16.934  0.2519  0.7242  0.1791
  823MPD2    C512109   1.581   4.401  16.972 -0.1900  0.5276  0.4399
  823MPD2     H12110   1.443   4.358  16.620  1.2041 -1.2801  0.0147
  823MPD2    H112111   1.501   4.208  17.009 -3.4041 -0.9621 -2.4886
  823MPD2    H212112   1.656   4.585  16.919  0.3170 -1.1740  1.3238
  823MPD2    H312113   1.623   4.405  17.072 -0.4160 -1.6259  0.6182
  823MPD2     N12114   1.386   4.158  16.783  0.0072 -0.2201 -0.5574
  823MPD2    H512115   1.374   4.091  16.859  0.5723  1.2226  0.7970
  823MPD2    N112116   1.608   4.577  16.662  0.4675  0.0230 -0.9687
  823MPD2    H712117   1.683   4.641  16.688  0.0798  0.4673 -0.9441
  824MPD2     C12118   2.104   3.344  15.860  1.1852 -0.2858 -0.2634
  824MPD2    C112119   2.220   3.408  15.889  0.1382 -0.2878  1.2345
  824MPD2    C212120   2.332   3.324  15.913  0.9351  0.2766  0.6539
  824MPD2    C312121   2.325   3.182  15.903 -0.6790 -0.4601  0.0918
  824MPD2    C412122   2.197   3.125  15.886 -0.5814  0.0364 -0.1084
  824MPD2    C512123   2.091   3.207  15.857  0.3374 -0.1789  0.1457
  824MPD2     H12124   2.430   3.369  15.929  1.5124 -0.3078 -1.3425
  824MPD2    H112125   2.177   3.019  15.894  0.5673 -0.0850  1.3349
  824MPD2    H212126   2.010   3.390  15.831  1.2489 -1.8333 -2.9151
  824MPD2    H312127   1.994   3.159  15.852  1.2417 -2.0319  0.5148
  824MPD2     N12128   2.441   3.113  15.898  0.5092  1.0030  0.1731
  824MPD2    H512129   2.528   3.166  15.902  0.8867  0.4129 -0.2506
  824MPD2    N112130   2.224   3.550  15.903 -0.2100 -0.0519  0.5600
  824MPD2    H712131   2.309   3.584  15.947 -3.1188  4.8408  2.4453
  825MPD2     C12132   3.231   2.954  15.596 -0.0713 -0.3002  0.4175
  825MPD2    C112133   3.129   3.048  15.634 -0.0979  0.3042 -0.0241
  825MPD2    C212134   3.154   3.187  15.628  0.8117  0.1197  0.4401
  825MPD2    C312135   3.257   3.216  15.536 -0.3258  0.2839  0.0646
  825MPD2    C412136   3.344   3.121  15.482 -0.3589 -0.2373  0.2764
  825MPD2    C512137   3.335   2.992  15.515  0.1135 -0.7947  0.3298
  825MPD2     H12138   3.083   3.258  15.667  0.1189 -0.8756  1.0069
  825MPD2    H112139   3.430   3.134  15.418  1.4933 -1.2189  2.5466
  825MPD2    H212140   3.220   2.848  15.612 -1.0987 -0.2314  0.1683
  825MPD2    H312141   3.410   2.919  15.486  1.9372  1.4093 -0.4520
  825MPD2     N12142   3.276   3.349  15.492 -0.1700  0.0715  0.1497
  825MPD2    H512143   3.331   3.359  15.407  0.6566  3.0054  1.0161
  825MPD2    N112144   3.011   2.999  15.696 -0.8063  0.0224  0.2165
  825MPD2    H712145   3.016   2.899  15.710 -2.7045 -0.5775 -3.4259
  826MPD2     C12146   2.464   3.217  13.728 -0.4192 -0.4437 -0.2636
  826MPD2    C112147   2.533   3.325  13.779 -0.3885  0.7166  0.2852
  826MPD2    C212148   2.455   3.437  13.836 -0.3908  0.2240  0.0866
  826MPD2    C312149   2.314   3.437  13.825  0.3452  0.3977 -0.0322
  826MPD2    C412150   2.255   3.321  13.775  0.0084 -0.7631 -0.5310
  826MPD2    C512151   2.329   3.220  13.727  0.0659 -0.2485  0.1593
  826MPD2     H12152   2.508   3.525  13.870  1.7234 -1.6821  1.7753
  826MPD2    H112153   2.148   3.307  13.768 -0.0722 -0.7338  0.6431
  826MPD2    H212154   2.515   3.130  13.687 -1.2063 -1.8905  1.8386
  826MPD2    H312155   2.276   3.133  13.690 -1.3570  0.9187 -0.5013
  826MPD2     N12156   2.232   3.542  13.867  0.3243 -0.1408  0.3073
  826MPD2    H512157   2.132   3.529  13.856  0.1762  0.7111  0.6533
  826MPD2    N112158   2.677   3.312  13.780 -0.2489  0.1167 -0.3050
  826MPD2    H712159   2.709   3.231  13.729 -0.1721  1.6657 -2.6923
  827MPD2     C12160   4.652   0.128  10.205 -0.8331 -0.1864 -0.2614
  827MPD2    C112161   4.595   0.007  10.245  0.2897  0.1548  0.3836
  827MPD2    C212162   4.571   4.634  10.152 -0.4219  0.2247 -0.1718
  827MPD2    C312163   4.588   4.660  10.019 -0.4626 -0.5844  0.1310
  827MPD2    C412164   4.641   0.056   9.981 -0.4243 -0.0075 -0.2752
  827MPD2    C512165   4.673   0.154  10.071 -0.1983  0.6512  0.9928
  827MPD2     H12166   4.540   4.536  10.187  0.2014  0.4464  1.0065
  827MPD2    H112167   4.660   0.081   9.877  0.7536 -1.1260 -0.3285
  827MPD2    H212168   4.680   0.203  10.279 -2.0571 -0.3673  0.3837
  827MPD2    H312169   4.711   0.247  10.031  0.2916 -0.2342 -0.6061
  827MPD2     N12170   4.562   4.553   9.930 -0.6231 -0.0581 -0.7449
  827MPD2    H512171   4.511   4.477   9.972 -1.8702 -0.7315 -3.4877
  827MPD2    N112172   4.573   4.713  10.379 -0.1194 -0.6037  0.0660
  827MPD2    H712173   4.594   0.069  10.437  1.1253 -2.6604  2.4622
  828MPD2     C12174   2.104   3.892  13.131  0.1610 -0.0881 -0.0657
  828MPD2    C112175   2.160   3.920  13.010  0.3567  0.6239  0.0189
  828MPD2    C212176   2.300   3.904  12.984  0.2334  0.0139  0.0794
  828MPD2    C312177   2.381   3.871  13.092  0.5058 -0.3534  0.1443
  828MPD2    C412178   2.328   3.876  13.216  0.7621 -0.8037 -0.1896
  828MPD2    C512179   2.194   3.878  13.232  0.5087 -0.6628 -0.0593
  828MPD2     H12180   2.345   3.919  12.886 -2.3417  1.6294 -0.8546
  828MPD2    H112181   2.385   3.860  13.306 -2.7018 -1.5377  1.8867
  828MPD2    H212182   1.999   3.894  13.159  0.1860  3.0975 -0.2804
  828MPD2    H312183   2.154   3.874  13.332  0.3208  1.0902 -0.0578
  828MPD2     N12184   2.522   3.849  13.078 -0.6574  0.2354 -0.1122
  828MPD2    H512185   2.580   3.839  13.161 -0.4700 -1.4787 -0.4594
  828MPD2    N112186   2.081   3.977  12.907 -0.5277 -0.3735  0.7756
  828MPD2    H712187   2.132   4.002  12.823 -1.3321 -1.2056  0.0390
  829MPD2     C12188   2.351   4.268  12.155  0.6777  0.8312 -0.1214
  829MPD2    C112189   2.222   4.236  12.111  0.1287 -0.4992  0.1136
  829MPD2    C212190   2.134   4.186  12.204  0.1336  0.2444 -0.2088
  829MPD2    C312191   2.170   4.178  12.340  0.7043  0.5288 -0.4995
  829MPD2    C412192   2.297   4.216  12.375 -0.5710  0.9004 -1.0677
  829MPD2    C512193   2.389   4.267  12.284 -0.1927 -0.0634 -0.0571
  829MPD2     H12194   2.033   4.155  12.180 -0.3965 -0.1434  2.5301
  829MPD2    H112195   2.338   4.218  12.475  0.5976 -0.7881 -1.5015
  829MPD2    H212196   2.425   4.300  12.084 -0.8407 -0.4220 -2.2690
  829MPD2    H312197   2.485   4.302  12.319 -0.6506 -0.3067  1.4282
  829MPD2     N12198   2.080   4.145  12.448 -0.1451  0.3574 -0.0133
  829MPD2    H512199   2.119   4.147  12.542  0.4337 -1.7411 -0.2102
  829MPD2    N112200   2.204   4.250  11.972  0.3303  0.1987  0.0246
  829MPD2    H712201   2.263   4.309  11.914  1.9224 -1.9798 -0.5674
  830MPD2     C12202   1.891   2.310  16.250  0.4172 -0.7626  0.2974
  830MPD2    C112203   1.794   2.368  16.170 -0.8740  0.9882  0.5920
  830MPD2    C212204   1.830   2.397  16.039 -0.0046 -0.7089 -0.0254
  830MPD2    C312205   1.944   2.350  15.986  0.0100 -0.0865 -0.6527
  830MPD2    C412206   2.042   2.285  16.068 -0.1757  0.4078  0.4058
  830MPD2    C512207   2.009   2.260  16.199 -0.6352  0.0790  0.1023
  830MPD2     H12208   1.762   2.458  15.981 -0.6519 -0.3739  1.0873
  830MPD2    H112209   2.136   2.248  16.028 -0.5559  0.2037 -0.2979
  830MPD2    H212210   1.871   2.279  16.352 -2.3831 -0.7183 -0.2480
  830MPD2    H312211   2.066   2.196  16.264  1.5343  2.1067  0.2111
  830MPD2     N12212   1.978   2.365  15.853  0.0615  0.0389 -0.8137
  830MPD2    H512213   2.075   2.341  15.833 -0.1775 -1.8088  0.2913
  830MPD2    N112214   1.686   2.425  16.236  0.2940 -0.4195 -0.0458
  830MPD2    H712215   1.694   2.431  16.337  0.8125  1.7251 -0.2241
  831MPD2     C12216   1.893   4.272  16.543 -0.2582 -0.4860 -0.2164
  831MPD2    C112217   1.890   4.308  16.408  0.2442  0.3824 -0.0475
  831MPD2    C212218   1.767   4.296  16.342  0.1331 -0.7918 -0.1368
  831MPD2    C312219   1.658   4.247  16.409 -0.2975 -0.7883  1.0211
  831MPD2    C412220   1.669   4.208  16.541  0.8927  0.5374 -0.2117
  831MPD2    C512221   1.788   4.215  16.608 -0.1023 -0.1109  0.1254
  831MPD2     H12222   1.766   4.331  16.240  0.0279  1.2936  0.5854
  831MPD2    H112223   1.581   4.161  16.583  0.2125  0.4151 -1.7732
  831MPD2    H212224   1.981   4.281  16.606  0.1874 -2.5321 -0.5715
  831MPD2    H312225   1.797   4.172  16.707 -0.8429  0.4532  0.4365
  831MPD2     N12226   1.530   4.237  16.353  0.0634  0.0426  0.7821
  831MPD2    H512227   1.455   4.214  16.418 -1.5597  0.0570 -1.0918
  831MPD2    N112228   1.997   4.367  16.337  0.4241 -0.3736  0.2482
  831MPD2    H712229   1.979   4.400  16.242  2.3548 -1.8120 -0.6291
  832MPD2     C12230   0.397   0.596  17.556 -0.3451 -0.9446  0.1885
  832MPD2    C112231   0.409   0.728  17.522  0.6509  0.9336 -0.4726
  832MPD2    C212232   0.332   0.780  17.414 -0.1551  0.2629  0.4135
  832MPD2    C312233   0.255   0.694  17.339 -0.4204  0.0722 -0.0969
  832MPD2    C412234   0.247   0.558  17.380 -0.3284  0.3560  0.9019
  832MPD2    C512235   0.321   0.511  17.486  0.3663  1.2645 -0.3020
  832MPD2     H12236   0.334   0.879  17.370 -0.8796 -0.0880 -0.4048
  832MPD2    H112237   0.186   0.486  17.326  0.8902 -0.6591  0.8873
  832MPD2    H212238   0.456   0.551  17.635 -0.0419 -2.6308 -1.0236
  832MPD2    H312239   0.317   0.408  17.517  1.5601  1.0992 -0.6817
  832MPD2     N12240   0.167   0.728  17.245 -0.1780  0.4746  0.3448
  832MPD2    H512241   0.128   0.644  17.202 -1.0035  1.7515 -1.4129
  832MPD2    N112242   0.508   0.794  17.590 -0.5099 -0.0401  0.3146
  832MPD2    H712243   0.537   0.741  17.671  0.3553 -0.0151  0.0179
  833MPD2     C12244   2.683   1.852  12.584 -0.8617 -0.7890 -0.5973
  833MPD2    C112245   2.759   1.972  12.555  0.0560  0.1581 -0.2613
  833MPD2    C212246   2.856   1.973  12.458  0.4643 -0.5409  0.8907
  833MPD2    C312247   2.860   1.863  12.379 -0.1469 -0.6156 -0.0629
  833MPD2    C412248   2.785   1.750  12.411 -0.2957 -0.2509  0.2772
  833MPD2    C512249   2.686   1.746  12.506 -0.5664  0.0335  0.3683
  833MPD2     H12250   2.918   2.059  12.438 -0.1542  0.4237  3.0574
  833MPD2    H112251   2.801   1.670  12.339 -1.3613 -0.5017  0.3181
  833MPD2    H212252   2.606   1.854  12.661 -2.2081 -0.1655 -1.9654
  833MPD2    H312253   2.621   1.662  12.522  0.1479 -0.8265 -1.2421
  833MPD2     N12254   2.958   1.868  12.282 -0.1598 -0.0780 -0.0176
  833MPD2    H512255   3.014   1.952  12.281 -2.3522  1.3517 -1.5098
  833MPD2    N112256   2.734   2.086  12.631 -0.4434  0.2892  0.1728
  833MPD2    H712257   2.658   2.077  12.699 -3.1652 -0.7004 -2.9837
  834MPD2     C12258   2.891   1.929  11.324  0.4157 -0.6009 -0.4475
  834MPD2    C112259   2.865   1.822  11.400  0.3449  0.2393  0.4858
  834MPD2    C212260   2.915   1.819  11.528 -0.1532 -0.1848 -0.6241
  834MPD2    C312261   2.988   1.922  11.585 -0.6539 -0.1151  0.3141
  834MPD2    C412262   3.009   2.033  11.506  0.0649  0.3611  0.5950
  834MPD2    C512263   2.956   2.040  11.378 -0.7190  0.4320 -0.2595
  834MPD2     H12264   2.887   1.737  11.593 -0.1633 -0.7280 -1.3172
  834MPD2    H112265   3.069   2.112  11.550 -1.5245  3.0128 -2.0001
  834MPD2    H212266   2.855   1.929  11.221 -1.4545  1.2118  0.2099
  834MPD2    H312267   2.971   2.122  11.308  0.2069 -2.4941 -3.5241
  834MPD2     N12268   3.037   1.903  11.714  0.4950 -0.1622  0.4883
  834MPD2    H512269   2.991   1.828  11.764 -1.5674  1.1936  0.6376
  834MPD2    N112270   2.805   1.717  11.332 -0.1784  0.0851  0.1620
  834MPD2    H712271   2.789   1.734  11.234 -1.6230 -0.4034  0.3133
  835MPD2     C12272   3.143   4.425  11.568 -0.3251 -0.4959  0.0833
  835MPD2    C112273   3.084   4.547  11.587  0.1256  0.2319 -0.4298
  835MPD2    C212274   3.003   4.566  11.699 -0.0353 -0.0916  0.2936
  835MPD2    C312275   2.987   4.468  11.792 -0.8037  0.2253  0.2478
  835MPD2    C412276   3.045   4.340  11.771  0.3991 -0.2247  0.2140
  835MPD2    C512277   3.120   4.320  11.655  0.0254  1.1730 -0.4010
  835MPD2     H12278   2.945   4.655  11.721 -1.1321 -0.9352  0.8480
  835MPD2    H112279   3.026   4.248  11.826 -0.5676 -0.0882  0.1197
  835MPD2    H212280   3.198   4.404  11.477  1.5122 -0.2866  1.1521
  835MPD2    H312281   3.165   4.225  11.630 -0.5425  0.8544 -0.2092
  835MPD2     N12282   2.911   4.497  11.904 -0.1412 -0.8819 -0.1206
  835MPD2    H512283   2.853   4.579  11.887 -0.3987 -0.7170  1.6295
  835MPD2    N112284   3.099   4.639  11.481 -0.3823  0.0016  0.0086
  835MPD2    H712285   3.145   4.609  11.396 -0.1633 -2.6063  1.0589
  836MPD2     C12286   2.386   0.016  11.750 -0.4194 -0.1999  0.3355
  836MPD2    C112287   2.364   4.686  11.873  0.6550  0.2533  0.3119
  836MPD2    C212288   2.236   4.652  11.902  0.4438  0.1598 -0.3091
  836MPD2    C312289   2.133   4.670  11.810 -0.2398  0.5495  0.6248
  836MPD2    C412290   2.157   4.715  11.686 -0.1667  0.7771  0.5872
  836MPD2    C512291   2.285   0.027  11.659  0.4283 -0.7093 -0.3174
  836MPD2     H12292   2.229   4.593  11.993  1.1764 -0.7763 -0.8622
  836MPD2    H112293   2.081   0.014  11.612  0.3917 -0.1821 -0.3072
  836MPD2    H212294   2.489   0.030  11.720 -1.0399 -0.5278 -1.9527
  836MPD2    H312295   2.307   0.067  11.561  0.1213 -2.4251 -1.0759
  836MPD2     N12296   1.997   4.640  11.844  0.2338  0.3075 -0.4092
  836MPD2    H512297   1.930   4.662  11.771 -0.5172 -0.3267  0.0859
  836MPD2    N112298   2.474   4.657  11.961 -0.0090  0.2824 -0.1277
  836MPD2    H712299   2.562   4.650  11.912  0.1928 -0.7723  0.4090
  837MPD2     C12300   1.200   4.659   9.503  0.3030 -0.6526  0.5954
  837MPD2    C112301   1.195   4.678   9.642 -0.3288  0.6956  0.6818
  837MPD2    C212302   1.202   0.074   9.699 -0.6428  0.3647  0.3011
  837MPD2    C312303   1.212   0.191   9.629 -0.2833 -0.9043  0.1376
  837MPD2    C412304   1.227   0.181   9.488  0.2393  0.4318  0.2808
  837MPD2    C512305   1.206   0.056   9.428  0.1850  0.4002  0.5064
  837MPD2     H12306   1.210   0.082   9.807  0.9444 -1.6685  0.3324
  837MPD2    H112307   1.213   0.264   9.419  0.8522  0.1605 -0.1632
  837MPD2    H212308   1.189   4.562   9.455 -1.1836 -0.8333  1.2938
  837MPD2    H312309   1.195   0.045   9.321  1.5426  1.3607  0.2671
  837MPD2     N12310   1.230   0.307   9.707  0.5857  0.1794  0.3094
  837MPD2    H512311   1.188   0.302   9.800 -0.1275  0.8861  0.0241
  837MPD2    N112312   1.190   4.568   9.733  0.0086 -0.3658 -0.3751
  837MPD2    H712313   1.201   4.592   9.831  0.7631 -1.3948 -0.2123
  838MPD2     C12314   4.210   3.150  12.282  0.0775 -0.4742 -0.0214
  838MPD2    C112315   4.184   3.022  12.248 -0.2584  0.3174  0.2525
  838MPD2    C212316   4.060   2.964  12.280 -0.0757 -0.5817  0.0522
  838MPD2    C312317   3.957   3.041  12.340 -0.7834 -0.0629  0.6176
  838MPD2    C412318   3.994   3.169  12.369  0.0623 -0.5790  0.3729
  838MPD2    C512319   4.112   3.218  12.344 -0.0256  0.1081  0.9422
  838MPD2     H12320   4.053   2.857  12.270  1.4795 -0.3838 -3.2462
  838MPD2    H112321   3.920   3.229  12.421 -0.2494 -0.1540 -0.5542
  838MPD2    H212322   4.305   3.201  12.270  0.5761 -1.5764 -0.7388
  838MPD2    H312323   4.121   3.324  12.362 -0.5308  0.3795 -0.3763
  838MPD2     N12324   3.829   2.986  12.347 -0.0916  0.2002  0.4652
  838MPD2    H512325   3.827   2.893  12.305  1.0006  0.6468 -0.5684
  838MPD2    N112326   4.280   2.947  12.188  0.3757  0.0742  0.8472
  838MPD2    H712327   4.251   2.851  12.170  1.5408 -0.2016  0.4199
  839MPD2     C12328   3.950   2.276  12.020 -0.0912  0.4886  0.1677
  839MPD2    C112329   3.986   2.329  11.899  0.0916  0.1704 -0.0321
  839MPD2    C212330   4.104   2.403  11.896  0.1153 -0.4999  0.4785
  839MPD2    C312331   4.171   2.439  12.015 -0.1180  0.0055 -0.0048
  839MPD2    C412332   4.122   2.388  12.137  0.4476 -0.0443  0.4034
  839MPD2    C512333   4.016   2.307  12.136 -0.2204  0.2424 -0.9631
  839MPD2     H12334   4.137   2.438  11.799 -1.2374  3.0676  1.3122
  839MPD2    H112335   4.156   2.399  12.240  1.3706  1.6377 -0.0797
  839MPD2    H212336   3.862   2.215  12.037 -0.4909  1.4001  1.3825
  839MPD2    H312337   3.982   2.263  12.229 -1.5587  1.9660 -0.6391
  839MPD2     N12338   4.287   2.521  12.016  0.1182 -0.4520 -0.4511
  839MPD2    H512339   4.334   2.535  12.105  0.3640 -0.7860 -0.5289
  839MPD2    N112340   3.920   2.282  11.779  0.6871 -0.2791  0.4025
  839MPD2    H712341   3.976   2.270  11.695  1.6026 -0.2644  1.0107
  840MPD2     C12342   0.323   0.188  10.740  0.0584  0.6780 -0.0688
  840MPD2    C112343   0.222   0.158  10.829  0.2622  0.6448  0.5796
  840MPD2    C212344   0.228   0.218  10.953  0.0065 -0.2281 -0.1049
  840MPD2    C312345   0.332   0.299  10.987  0.7784 -0.2120  0.3095
  840MPD2    C412346   0.434   0.319  10.897 -0.1882 -0.0202  0.2387
  840MPD2    C512347   0.427   0.262  10.776  0.8156  0.4956 -0.5347
  840MPD2     H12348   0.148   0.206  11.024 -0.2398  0.9260 -0.1783
  840MPD2    H112349   0.520   0.375  10.933 -1.1568  0.8204  1.2389
  840MPD2    H212350   0.316   0.149  10.639  0.7811  2.1813 -0.6947
  840MPD2    H312351   0.504   0.279  10.701  0.4541  2.9786 -0.3431
  840MPD2     N12352   0.349   0.372  11.108 -0.1944 -0.0677  0.0926
  840MPD2    H512353   0.432   0.431  11.118  0.7383 -1.1848 -1.0741
  840MPD2    N112354   0.116   0.069  10.790 -0.4212  0.1877 -0.2260
  840MPD2    H712355   0.110   0.060  10.689 -1.0323 -0.9692 -0.0881
  841MPD2     C12356   3.587   0.174  15.740  0.4444 -0.6009  0.0180
  841MPD2    C112357   3.666   0.090  15.669  0.0714  0.6607  0.0762
  841MPD2    C212358   3.716   0.128  15.546 -0.1111 -0.7768  0.1818
  841MPD2    C312359   3.694   0.259  15.492  0.6943 -0.5477 -0.4973
  841MPD2    C412360   3.638   0.351  15.583  0.0128  0.9211 -0.4563
  841MPD2    C512361   3.570   0.304  15.698  0.1557 -0.0915  0.4022
  841MPD2     H12362   3.758   0.047  15.488  0.6928  0.3786 -0.8741
  841MPD2    H112363   3.633   0.459  15.568 -1.0810  0.8579 -0.6031
  841MPD2    H212364   3.545   0.150  15.837 -0.1330  2.7419  0.5930
  841MPD2    H312365   3.532   0.381  15.765  0.6115 -0.2564  0.8447
  841MPD2     N12366   3.730   0.291  15.362  0.2468  1.0136 -0.6744
  841MPD2    H512367   3.756   0.211  15.305  0.2398 -1.5180  2.8713
  841MPD2    N112368   3.686   4.681  15.711 -0.1140 -0.2415  0.6055
  841MPD2    H712369   3.726   4.612  15.647  2.1114  0.4454  1.2410
  842MPD2     C12370   4.474   1.202  17.098 -0.4176  0.8781 -0.3442
  842MPD2    C112371   4.398   1.091  17.078 -0.5064 -0.4136 -0.0936
  842MPD2    C212372   4.387   1.001  17.187  0.0191 -0.9721  0.5863
  842MPD2    C312373   4.467   1.017  17.302 -0.2210 -0.2649  0.1336
  842MPD2    C412374   4.555   1.126  17.309  0.6538 -0.6543 -0.4152
  842MPD2    C512375   4.552   1.216  17.209 -0.9382  0.4535 -0.1323
  842MPD2     H12376   4.325   0.913  17.178  0.8171 -1.4222 -0.6756
  842MPD2    H112377   4.612   1.153  17.397 -0.1997 -1.2659  0.3290
  842MPD2    H212378   4.472   1.282  17.024 -0.1656  1.5054  0.3334
  842MPD2    H312379   4.604   1.310  17.220  0.0558  0.0072 -1.0960
  842MPD2     N12380   4.482   0.922  17.402 -0.2437 -0.3835  0.1638
  842MPD2    H512381   4.569   0.937  17.453 -0.2866 -0.2525  0.1992
  842MPD2    N112382   4.314   1.086  16.965 -0.5970  0.2319 -0.5541
  842MPD2    H712383   4.336   1.157  16.896  1.8173  1.0860  1.0940
  843MPD2     C12384   1.513   1.111  17.624 -0.3922  0.9428 -0.3262
  843MPD2    C112385   1.548   1.050   0.044 -0.0811  0.2278 -0.2256
  843MPD2    C212386   1.619   1.126   0.133  0.6152 -1.1185  0.0796
  843MPD2    C312387   1.642   1.265   0.117 -0.3389 -0.5139 -0.4169
  843MPD2    C412388   1.609   1.326  17.694  0.6039  0.0567  0.2785
  843MPD2    C512389   1.554   1.244  17.597 -0.7975 -0.6393  0.4014
  843MPD2     H12390   1.651   1.079   0.226 -1.3808  0.6756  1.6718
  843MPD2    H112391   1.605   1.432  17.672 -0.4837  0.2692  1.5100
  843MPD2    H212392   1.444   1.074  17.549  0.8276 -0.8905 -0.5301
  843MPD2    H312393   1.523   1.293  17.505 -0.5172  0.3807  0.8501
  843MPD2     N12394   1.696   1.347   0.220  0.1252  0.2760  0.0640
  843MPD2    H512395   1.739   1.435   0.195 -0.5683  0.7854  0.6784
  843MPD2    N112396   1.516   0.913   0.074  0.5190 -0.3279 -0.1766
  843MPD2    H712397   1.566   0.863   0.147 -1.7272 -1.9574  0.2308
  844MPD2     C12398   0.204   0.576  16.642 -0.0590  0.2721  1.0419
  844MPD2    C112399   0.322   0.509  16.672 -0.0526  0.9505  0.6455
  844MPD2    C212400   0.397   0.555  16.781  0.0623  0.3315 -0.3768
  844MPD2    C312401   0.363   0.661  16.863  0.1822  0.3085 -0.1415
  844MPD2    C412402   0.245   0.723  16.830 -0.2470 -0.6068  0.5807
  844MPD2    C512403   0.166   0.684  16.722  0.4180 -0.2688 -0.0058
  844MPD2     H12404   0.499   0.519  16.796 -0.5295 -0.6058  1.3930
  844MPD2    H112405   0.219   0.809  16.892 -1.4297 -0.6310  0.1089
  844MPD2    H212406   0.129   0.533  16.578  0.8001 -0.3278  0.4424
  844MPD2    H312407   0.069   0.725  16.698  0.6117  0.3637  0.2961
  844MPD2     N12408   0.453   0.696  16.961 -0.6048 -0.1757  0.1347
  844MPD2    H512409   0.534   0.636  16.966  0.7034  1.5370 -0.7522
  844MPD2    N112410   0.373   0.411  16.589  0.1772  0.2155  0.0593
  844MPD2    H712411   0.435   0.350  16.642 -0.0861  0.8322  1.0734
  845MPD2     C12412   0.767   1.515  17.405 -0.0667  0.8407 -0.6626
  845MPD2    C112413   0.638   1.469  17.402  0.0685  0.1984 -0.5756
  845MPD2    C212414   0.618   1.338  17.371  0.0328  0.2011 -0.8410
  845MPD2    C312415   0.726   1.258  17.332  0.6452 -0.1267 -0.0542
  845MPD2    C412416   0.853   1.294  17.340 -0.1463  0.0561  0.5467
  845MPD2    C512417   0.873   1.429  17.369 -0.5326 -0.5604 -0.0636
  845MPD2     H12418   0.516   1.301  17.361 -0.5318  1.6079 -0.1881
  845MPD2    H112419   0.938   1.242  17.297  0.8276  1.3089  0.9762
  845MPD2    H212420   0.787   1.614  17.445 -1.5678  0.6154  0.6653
  845MPD2    H312421   0.970   1.478  17.368 -0.9383  0.2537  0.4909
  845MPD2     N12422   0.701   1.122  17.284 -0.4885 -0.6231  0.0034
  845MPD2    H512423   0.610   1.085  17.261  0.0898 -2.3957  0.6400
  845MPD2    N112424   0.531   1.561  17.426  0.1035 -0.2199  0.0630
  845MPD2    H712425   0.555   1.656  17.451 -2.9028  0.1260  1.6938
  846MPD2     C12426   2.156   1.802  13.894 -0.4935 -0.5897 -0.9134
  846MPD2    C112427   2.027   1.857  13.902 -0.6442 -0.1568 -0.6706
  846MPD2    C212428   1.958   1.836  14.020  0.3356 -0.5313  0.4252
  846MPD2    C312429   2.003   1.764  14.124  0.4080  0.7852 -0.0390
  846MPD2    C412430   2.127   1.711  14.113 -0.6806  0.8763  0.4829
  846MPD2    C512431   2.204   1.725  13.995 -0.4702  0.2621  0.4604
  846MPD2     H12432   1.860   1.882  14.032  0.3405 -0.8335  1.5562
  846MPD2    H112433   2.176   1.658  14.193  0.1376  0.2541 -0.4294
  846MPD2    H212434   2.212   1.809  13.802 -0.1472  3.4818 -0.3711
  846MPD2    H312435   2.306   1.689  13.994 -0.3287  0.6113  1.5396
  846MPD2     N12436   1.924   1.754  14.238 -0.3645 -0.0744  0.2201
  846MPD2    H512437   1.837   1.806  14.227 -1.4496 -2.2211 -1.3688
  846MPD2    N112438   1.985   1.956  13.805 -0.0774 -0.1457 -0.0882
  846MPD2    H712439   1.910   2.020  13.828 -1.1703 -1.1491 -0.8609
  847MPD2     C12440   2.004   3.187  14.020 -0.6694  0.8440  0.8080
  847MPD2    C112441   2.072   3.182  14.137 -0.3494  0.7865 -0.8992
  847MPD2    C212442   2.102   3.061  14.184  0.0815  0.6794  0.7583
  847MPD2    C312443   2.026   2.947  14.146  0.7143  0.1119 -0.4029
  847MPD2    C412444   1.950   2.959  14.031 -0.1793 -0.1458  0.4415
  847MPD2    C512445   1.951   3.081  13.962  0.1745 -0.4617  0.3822
  847MPD2     H12446   2.158   3.053  14.277 -0.6845 -0.0487  1.1550
  847MPD2    H112447   1.888   2.877  13.998 -0.0792 -0.9027  2.1433
  847MPD2    H212448   1.987   3.281  13.970 -1.7956  0.8573  1.2241
  847MPD2    H312449   1.889   3.097  13.875  0.9652  0.7203  0.0341
  847MPD2     N12450   2.046   2.837  14.225  0.2037  0.2696 -0.0389
  847MPD2    H512451   2.108   2.864  14.301 -1.4800  0.6071  1.2023
  847MPD2    N112452   2.122   3.294  14.215  0.2034  0.2139  0.4816
  847MPD2    H712453   2.190   3.272  14.287 -1.0204  1.7920  2.1094
  848MPD2     C12454   4.620   1.022  16.522 -0.0718 -1.0137 -0.5006
  848MPD2    C112455   4.676   1.082  16.632 -0.5031  0.5222 -0.2007
  848MPD2    C212456   0.026   1.200  16.613  0.2883  0.4740 -0.3683
  848MPD2    C312457   0.023   1.267  16.493  0.8681 -0.2405 -0.5434
  848MPD2    C412458   4.680   1.216  16.388  0.6127 -0.3223 -0.6605
  848MPD2    C512459   4.626   1.093  16.402  0.3279 -0.2331  0.5713
  848MPD2     H12460   0.085   1.237  16.696  0.2874 -0.1447 -0.0957
  848MPD2    H112461   4.692   1.265  16.292 -3.1535 -0.0033 -0.9475
  848MPD2    H212462   4.584   0.920  16.516  0.4563 -1.2948  1.1700
  848MPD2    H312463   4.578   1.045  16.318 -0.6315  1.3459  0.2073
  848MPD2     N12464   0.083   1.392  16.467  1.1783 -0.7377  0.5653
  848MPD2    H512465   0.090   1.428  16.373 -1.4432  2.5686  1.6289
  848MPD2    N112466   4.673   1.030  16.764  1.3108  0.6080  0.4008
  848MPD2    H712467   4.701   1.093  16.839  0.8566  1.3419 -0.0422
  849MPD2     C12468   3.594   0.355  14.313  0.4115  0.2138  0.4518
  849MPD2    C112469   3.639   0.479  14.337 -0.4688  0.4997 -0.2724
  849MPD2    C212470   3.748   0.498  14.414  0.2052  0.2007 -0.7690
  849MPD2    C312471   3.816   0.385  14.460 -0.2477  0.0144  0.2726
  849MPD2    C412472   3.767   0.258  14.437  0.0789  0.5452  0.1586
  849MPD2    C512473   3.654   0.238  14.361 -0.3799  0.1978 -0.2736
  849MPD2     H12474   3.788   0.598  14.428 -0.0489  0.2210 -0.2121
  849MPD2    H112475   3.821   0.174  14.480 -0.4057  0.4204  0.5237
  849MPD2    H212476   3.515   0.335  14.242 -0.9035 -1.3354  2.3362
  849MPD2    H312477   3.622   0.141  14.325 -1.1710  0.7357 -1.0045
  849MPD2     N12478   3.941   0.379  14.522 -0.2078  0.3712  0.4674
  849MPD2    H512479   3.977   0.289  14.552  1.8293  1.0926  0.2348
  849MPD2    N112480   3.572   0.583  14.268 -0.2826  0.6779  0.1019
  849MPD2    H712481   3.510   0.537  14.202  0.7113  2.6255 -2.2018
  850MPD2     C12482   2.424   3.519  14.999 -0.1337  0.4383  0.1678
  850MPD2    C112483   2.334   3.556  15.093 -0.2831 -0.1577  0.8170
  850MPD2    C212484   2.383   3.582  15.223 -0.0689 -0.3928 -0.7808
  850MPD2    C312485   2.496   3.521  15.265 -0.2891  1.0472  0.5576
  850MPD2    C412486   2.583   3.465  15.172  0.2353  0.3188  0.7263
  850MPD2    C512487   2.549   3.469  15.038 -0.3111 -0.0313  0.3774
  850MPD2     H12488   2.317   3.624  15.299  0.8457 -0.0744 -0.1693
  850MPD2    H112489   2.676   3.417  15.201  0.1928  0.9202  1.8509
  850MPD2    H212490   2.403   3.520  14.892  0.4479  0.9368  0.0567
  850MPD2    H312491   2.621   3.434  14.964  0.1218 -2.5990  1.9984
  850MPD2     N12492   2.542   3.536  15.403 -0.1453  0.1088  0.5288
  850MPD2    H512493   2.635   3.499  15.421  0.4375  1.2871 -0.0657
  850MPD2    N112494   2.201   3.587  15.044 -0.3593 -0.0149 -0.1794
  850MPD2    H712495   2.192   3.577  14.944 -0.3036 -2.4845  0.0780
  851MPD2     C12496   2.422   3.178  15.446  0.3410  0.1172 -0.8395
  851MPD2    C112497   2.286   3.178  15.464 -0.4722 -0.2101  0.1182
  851MPD2    C212498   2.222   3.056  15.496 -0.0241 -0.2710  0.9903
  851MPD2    C312499   2.289   2.936  15.521  0.0936 -0.2581 -0.8165
  851MPD2    C412500   2.427   2.935  15.496 -0.0886  0.3469  0.1202
  851MPD2    C512501   2.491   3.060  15.472 -0.1127  0.1165 -0.3294
  851MPD2     H12502   2.114   3.060  15.504  0.0124  0.5877  1.1279
  851MPD2    H112503   2.486   2.845  15.511 -0.1694 -0.1691 -2.6793
  851MPD2    H212504   2.489   3.260  15.423  2.2945 -1.1211  0.3438
  851MPD2    H312505   2.598   3.065  15.457 -0.1332  0.7314 -0.2423
  851MPD2     N12506   2.211   2.823  15.536 -0.4798  0.0983 -0.1847
  851MPD2    H512507   2.110   2.831  15.531 -0.4174  0.9431 -0.1687
  851MPD2    N112508   2.210   3.300  15.438  0.7723 -0.8879 -0.0610
  851MPD2    H712509   2.259   3.375  15.391 -0.4242  0.0475  0.1973
  852MPD2     C12510   2.659   0.848  10.207 -0.5685  0.0008  1.0802
  852MPD2    C112511   2.553   0.937  10.205  0.1621 -0.4794 -0.6435
  852MPD2    C212512   2.567   1.061  10.256  0.1629  0.0562  0.3349
  852MPD2    C312513   2.693   1.105  10.300  0.2551 -0.1059 -0.6433
  852MPD2    C412514   2.804   1.029  10.270  0.7326  0.6017 -0.1552
  852MPD2    C512515   2.785   0.895  10.243 -0.1235 -0.0909 -0.3670
  852MPD2     H12516   2.482   1.128  10.249 -1.2830 -1.9064 -0.8598
  852MPD2    H112517   2.907   1.056  10.292  0.4549  0.3758  1.4543
  852MPD2    H212518   2.656   0.748  10.165 -4.1345  1.0159 -1.1235
  852MPD2    H312519   2.871   0.834  10.217 -0.3377  0.0831 -1.4603
  852MPD2     N12520   2.702   1.237  10.353  0.6931  0.2634  0.0791
  852MPD2    H512521   2.616   1.288  10.372  0.2681 -0.6446  0.6111
  852MPD2    N112522   2.423   0.900  10.167 -0.3987  0.3017  0.3484
  852MPD2    H712523   2.349   0.968  10.186 -0.8953  0.3969 -1.8895
  853MPD2     C12524   3.151   1.510  12.338 -0.3335 -0.2014 -0.1998
  853MPD2    C112525   3.271   1.572  12.367 -0.1888  0.1195  0.5835
  853MPD2    C212526   3.372   1.564  12.274 -0.3169 -0.0012 -0.0149
  853MPD2    C312527   3.356   1.500  12.159 -0.3596  0.1014 -0.6017
  853MPD2    C412528   3.234   1.455  12.126  0.3135  0.4243  0.1158
  853MPD2    C512529   3.136   1.459  12.216  0.5431 -0.0153 -0.0991
  853MPD2     H12530   3.466   1.615  12.290  0.2770 -1.2891  0.6276
  853MPD2    H112531   3.208   1.411  12.031  0.2437  0.8356 -0.0523
  853MPD2    H212532   3.063   1.502  12.402 -1.1821  1.7384 -1.1327
  853MPD2    H312533   3.051   1.393  12.205  1.1860 -0.9266  0.4357
  853MPD2     N12534   3.461   1.488  12.065  0.1422  0.3481  0.1255
  853MPD2    H512535   3.432   1.464  11.971  1.2701  1.8617 -0.6072
  853MPD2    N112536   3.277   1.666  12.475  0.2180  0.3520 -0.4136
  853MPD2    H712537   3.208   1.663  12.550 -1.2870  0.3812 -1.8074
  854MPD2     C12538   0.262   0.978  12.738 -0.3245  0.1748 -0.1148
  854MPD2    C112539   0.393   1.030  12.741  0.3000  0.0254  0.5479
  854MPD2    C212540   0.499   0.946  12.779  0.0273  0.1725 -0.4816
  854MPD2    C312541   0.476   0.814  12.821 -0.0862 -0.3622 -0.1816
  854MPD2    C412542   0.348   0.771  12.821 -0.2638  1.0675 -0.9401
  854MPD2    C512543   0.242   0.845  12.781  0.4997  0.5502 -0.3267
  854MPD2     H12544   0.598   0.985  12.797  0.1587 -0.5720  0.4085
  854MPD2    H112545   0.319   0.672  12.855  0.6215  0.9565 -0.5346
  854MPD2    H212546   0.183   1.037  12.693  0.5082  1.1922 -0.2345
  854MPD2    H312547   0.143   0.802  12.775 -0.1880  1.9554  0.7148
  854MPD2     N12548   0.579   0.740  12.874  0.1628 -0.0006  0.1918
  854MPD2    H512549   0.553   0.661  12.932 -2.3844  0.5337 -0.2132
  854MPD2    N112550   0.412   1.166  12.714  0.0872  0.3718 -0.1128
  854MPD2    H712551   0.330   1.218  12.684 -0.6576 -1.3869 -1.1207
  855MPD2     C12552   0.621   0.623  13.694  0.5089 -0.4535  1.1632
  855MPD2    C112553   0.750   0.641  13.654 -0.1448 -0.6514 -0.3577
  855MPD2    C212554   0.790   0.618  13.526 -0.3453 -1.2468 -0.4722
  855MPD2    C312555   0.695   0.572  13.431 -0.5841  0.1662  0.0243
  855MPD2    C412556   0.565   0.560  13.473 -0.2912 -0.6327  0.1163
  855MPD2    C512557   0.526   0.586  13.603  0.6780  0.0232 -0.2200
  855MPD2     H12558   0.897   0.634  13.511 -0.5315 -0.2609 -0.7278
  855MPD2    H112559   0.484   0.521  13.413 -1.1212  0.4696  0.5128
  855MPD2    H212560   0.584   0.645  13.793  0.7490  1.1591  0.8929
  855MPD2    H312561   0.422   0.578  13.635  0.1706  2.2936 -1.3028
  855MPD2     N12562   0.731   0.555  13.298 -0.1139 -0.3874  0.8010
  855MPD2    H512563   0.658   0.553  13.228 -1.0050  0.8058  1.6984
  855MPD2    N112564   0.859   0.676  13.741  0.2687  0.0013  0.0283
  855MPD2    H712565   0.951   0.686  13.698  0.3408 -1.1883 -0.1057
  856MPD2     C12566   2.899   2.108  14.564 -0.2941 -0.1583  0.6975
  856MPD2    C112567   2.943   2.200  14.471 -0.5861 -0.4034  0.1244
  856MPD2    C212568   2.850   2.294  14.428  0.1756 -0.1547  0.2204
  856MPD2    C312569   2.730   2.315  14.492 -1.0054  0.5031  0.4257
  856MPD2    C412570   2.693   2.229  14.591  0.9338  0.0520  0.1345
  856MPD2    C512571   2.780   2.124  14.629 -0.2162 -0.1125  0.0284
  856MPD2     H12572   2.877   2.357  14.343  2.1884  1.2599  1.9230
  856MPD2    H112573   2.601   2.235  14.647 -1.0676 -0.2201 -3.1496
  856MPD2    H212574   2.962   2.031  14.606  0.3606 -1.0806 -2.0085
  856MPD2    H312575   2.755   2.052  14.707 -0.2276 -2.5336 -2.2325
  856MPD2     N12576   2.653   2.423  14.462  0.4997 -0.3774 -0.0265
  856MPD2    H512577   2.565   2.432  14.512 -0.1831  0.0044 -1.2899
  856MPD2    N112578   3.061   2.194  14.396  0.0050  0.2614  0.2363
  856MPD2    H712579   3.068   2.257  14.316  1.4014 -0.3285 -0.1088
  857MPD2     C12580   4.504   4.460  12.937  0.4594 -0.4036  0.0322
  857MPD2    C112581   4.640   4.424  12.935 -0.1445 -0.4081 -0.5472
  857MPD2    C212582   0.011   4.514  12.978 -0.8122  0.2828  0.0662
  857MPD2    C312583   4.693   4.640  13.027  0.1845  0.0359 -0.3070
  857MPD2    C412584   4.556   4.668  13.018 -0.4367  0.5086 -0.6237
  857MPD2    C512585   4.461   4.577  12.982 -0.8867  0.5685 -0.4072
  857MPD2     H12586   0.115   4.482  12.981 -0.9228 -0.1501 -0.6246
  857MPD2    H112587   4.517   0.042  13.042  0.6063  0.5885  0.7177
  857MPD2    H212588   4.428   4.396  12.893  0.3115  0.1464 -0.5128
  857MPD2    H312589   4.354   4.594  12.988 -1.3657 -1.8825 -1.9291
  857MPD2     N12590   0.076   4.722  13.080 -0.1249 -0.6631  0.0885
  857MPD2    H512591   0.167   4.678  13.073  0.2882  0.0363  1.0473
  857MPD2    N112592   4.671   4.296  12.891  0.2438 -0.3617  0.3328
  857MPD2    H712593   4.606   4.218  12.892 -1.6256  1.2131  1.6965
  858MPD2     C12594   0.340   3.360  16.741 -0.2253  0.8928 -0.7692
  858MPD2    C112595   0.410   3.271  16.819 -0.4162 -0.4952  0.3517
  858MPD2    C212596   0.482   3.319  16.927 -0.0446 -0.3021 -0.4065
  858MPD2    C312597   0.476   3.452  16.958 -0.5152 -0.2051 -0.2528
  858MPD2    C412598   0.412   3.544  16.882  0.0414 -0.1322  0.8606
  858MPD2    C512599   0.342   3.495  16.768 -0.0543  0.1555 -0.0440
  858MPD2     H12600   0.526   3.250  16.998 -0.8116 -0.8812 -0.4912
  858MPD2    H112601   0.421   3.651  16.902 -2.8212  0.0217  1.3688
  858MPD2    H212602   0.278   3.328  16.658 -0.4809 -0.7100  0.0444
  858MPD2    H312603   0.276   3.554  16.705 -1.8435 -0.0023  1.6737
  858MPD2     N12604   0.540   3.507  17.068 -0.0247 -0.0739  0.3588
  858MPD2    H512605   0.513   3.602  17.090  1.9410  1.4056 -3.6485
  858MPD2    N112606   0.410   3.127  16.804 -0.1095 -0.2456  0.0976
  858MPD2    H712607   0.477   3.069  16.854 -1.5354 -2.9830 -1.1574
  859MPD2     C12608   3.862   0.436  15.797 -0.1294  0.7631 -0.5648
  859MPD2    C112609   3.953   0.446  15.689  0.5040  0.5336  0.5701
  859MPD2    C212610   4.027   0.341  15.651  0.0186  0.1985 -0.2765
  859MPD2    C312611   4.024   0.225  15.721 -0.2724 -0.0130  0.0100
  859MPD2    C412612   3.942   0.212  15.825 -0.3857  0.5884 -0.4183
  859MPD2    C512613   3.858   0.314  15.860  0.7061 -1.0730 -0.0257
  859MPD2     H12614   4.086   0.345  15.560 -2.9440  2.6269 -2.1035
  859MPD2    H112615   3.929   0.125  15.889  0.2839  1.3429  0.7371
  859MPD2    H212616   3.803   0.519  15.835  1.7746  1.1876  1.4872
  859MPD2    H312617   3.808   0.297  15.955 -2.4925 -3.3591 -2.1253
  859MPD2     N12618   4.101   0.115  15.689  0.6187  0.2639  0.0721
  859MPD2    H512619   4.090   0.033  15.748  1.0380 -0.9436 -1.5230
  859MPD2    N112620   3.953   0.566  15.622  0.1105  0.0668 -0.2479
  859MPD2    H712621   3.880   0.634  15.643 -0.6003 -1.0096  0.7592
  860MPD2     C12622   1.856   1.037  11.412 -0.5333  0.2208  0.0962
  860MPD2    C112623   1.913   1.093  11.524 -0.1029  0.7972 -0.2152
  860MPD2    C212624   1.854   1.084  11.646  0.4175 -0.1512 -0.3475
  860MPD2    C312625   1.736   1.003  11.651 -0.5532 -1.1602 -0.5754
  860MPD2    C412626   1.682   0.945  11.534 -0.1356  0.1065 -0.5033
  860MPD2    C512627   1.738   0.973  11.415  0.1965  0.1035 -0.1171
  860MPD2     H12628   1.903   1.113  11.738 -1.7419 -1.1946  1.1508
  860MPD2    H112629   1.594   0.882  11.538  0.2902 -0.5928 -2.1501
  860MPD2    H212630   1.905   1.040  11.316  0.7909 -0.4507  0.7607
  860MPD2    H312631   1.696   0.931  11.324 -0.8343 -1.5464  1.1157
  860MPD2     N12632   1.682   0.992  11.778 -0.2916  0.9754 -0.2506
  860MPD2    H512633   1.725   1.049  11.850  0.7471 -0.7266  0.4699
  860MPD2    N112634   2.045   1.150  11.531  0.3897 -0.2300 -0.2989
  860MPD2    H712635   2.073   1.193  11.619 -1.8097 -0.4952  0.5289
  861MPD2     C12636   0.364   3.768  11.442 -0.0525 -0.7115 -0.1532
  861MPD2    C112637   0.424   3.887  11.480  0.6523 -0.2228  0.4660
  861MPD2    C212638   0.402   4.001  11.408 -0.4308 -0.0187  0.4091
  861MPD2    C312639   0.315   4.004  11.295 -0.5260  0.3371  0.2145
  861MPD2    C412640   0.255   3.885  11.259  0.5682 -0.6517  0.1603
  861MPD2    C512641   0.281   3.772  11.337 -0.3335 -0.6389 -0.4211
  861MPD2     H12642   0.444   4.098  11.433 -2.0589  0.7555  0.1789
  861MPD2    H112643   0.189   3.879  11.173  1.7194  1.1477 -0.8425
  861MPD2    H212644   0.390   3.673  11.486  4.2079  0.2903 -0.4747
  861MPD2    H312645   0.236   3.680  11.302  0.6978 -2.3563  2.7250
  861MPD2     N12646   0.285   4.124  11.222  0.2355  0.7779  0.2006
  861MPD2    H512647   0.249   4.126  11.127 -0.6261  0.5606  0.5315
  861MPD2    N112648   0.521   3.900  11.585  0.5265 -0.1017 -0.9720
  861MPD2    H712649   0.554   3.994  11.606 -1.2451  0.5571 -1.1161
  862MPD2     C12650   0.413   4.238  10.548 -0.4170 -0.4667 -0.2364
  862MPD2    C112651   0.414   4.169  10.668  0.7093  0.3150 -0.5051
  862MPD2    C212652   0.430   4.033  10.671  0.3875  0.7546  0.0620
  862MPD2    C312653   0.450   3.961  10.555 -0.1178  0.4487  0.2371
  862MPD2    C412654   0.452   4.033  10.438  0.8893  0.2104  0.0339
  862MPD2    C512655   0.433   4.168  10.436 -0.2191  0.2313 -0.1609
  862MPD2     H12656   0.407   3.974  10.759 -6.2046  2.0425 -0.8035
  862MPD2    H112657   0.458   3.983  10.342  0.0547  2.2644 -1.0773
  862MPD2    H212658   0.395   4.343  10.532 -2.1271 -1.0084 -1.8550
  862MPD2    H312659   0.439   4.219  10.340  2.0366 -0.4499 -0.3731
  862MPD2     N12660   0.460   3.819  10.543  0.7961  0.0576  0.1089
  862MPD2    H512661   0.454   3.784  10.448 -2.9575  1.4111 -0.1423
  862MPD2    N112662   0.395   4.235  10.786 -0.1422  0.2414  0.4572
  862MPD2    H712663   0.372   4.186  10.872  2.0845 -0.2738  0.7458
  863MPD2     C12664   3.696   1.781  16.678  0.0072  0.4885 -0.3206
  863MPD2    C112665   3.661   1.905  16.735  0.5218 -0.2704 -0.7388
  863MPD2    C212666   3.722   1.939  16.854  0.1001  0.1942  0.1339
  863MPD2    C312667   3.819   1.863  16.917  0.3165  0.3066  0.6743
  863MPD2    C412668   3.848   1.739  16.862  0.2511  0.3977 -0.4010
  863MPD2    C512669   3.788   1.701  16.742  0.1690  0.0146 -0.2751
  863MPD2     H12670   3.708   2.042  16.884 -0.3651 -0.3646  1.8358
  863MPD2    H112671   3.918   1.674  16.913  1.3178  1.3601 -0.6408
  863MPD2    H212672   3.654   1.753  16.583 -0.8200 -0.0787  0.2076
  863MPD2    H312673   3.818   1.609  16.694  1.1844  0.5408 -0.6448
  863MPD2     N12674   3.883   1.889  17.040  0.8001 -0.7196 -0.5211
  863MPD2    H512675   3.944   1.819  17.081  0.8498 -0.7532 -0.6511
  863MPD2    N112676   3.554   1.975  16.671 -0.3021  0.5720 -0.4750
  863MPD2    H712677   3.516   1.935  16.585 -2.1422  1.9463 -0.3179
  864MPD2     C12678   3.932   2.877   0.034  0.9014  0.7585  0.0185
  864MPD2    C112679   3.974   2.880  17.604  0.0237 -0.3036  1.1348
  864MPD2    C212680   4.024   2.991  17.551 -0.0808 -0.4001  0.0541
  864MPD2    C312681   4.018   3.108  17.626  0.1927 -0.3808  0.9748
  864MPD2    C412682   3.977   3.106   0.060  0.5084 -0.2286 -0.8276
  864MPD2    C512683   3.928   2.987   0.111  0.4116 -0.0222 -0.1695
  864MPD2     H12684   4.049   2.993  17.445 -1.7876  1.1449 -0.3130
  864MPD2    H112685   3.982   3.196   0.121  0.5879 -0.8653  0.0962
  864MPD2    H212686   3.894   2.783   0.073 -0.0519  0.7081 -1.0027
  864MPD2    H312687   3.902   2.986   0.216  0.9306  0.5183 -0.0380
  864MPD2     N12688   4.051   3.226  17.561 -1.0257 -0.2365  0.5436
  864MPD2    H512689   4.013   3.310  17.605 -1.1220  0.6428 -1.2162
  864MPD2    N112690   3.960   2.765  17.528 -0.5882 -0.8914  0.1440
  864MPD2    H712691   3.893   2.702  17.572  1.3827 -1.3518  2.4938
  865MPD2     C12692   4.095   3.692  16.756  0.3073 -0.1337  0.4597
  865MPD2    C112693   4.117   3.571  16.821 -0.2987  0.0342 -0.1663
  865MPD2    C212694   4.044   3.555  16.937 -0.4010  0.0906  0.3843
  865MPD2    C312695   3.984   3.665  16.999  0.7010  0.2820 -0.0338
  865MPD2    C412696   3.966   3.777  16.924 -0.4247 -0.0806  0.4729
  865MPD2    C512697   4.017   3.793  16.802 -0.4328  0.3246 -0.6412
  865MPD2     H12698   4.057   3.463  16.991  2.2327  0.8221  0.9910
  865MPD2    H112699   3.924   3.870  16.962 -2.4532 -0.6533 -0.3951
  865MPD2    H212700   4.137   3.702  16.656  1.7392  0.3980  1.1066
  865MPD2    H312701   4.006   3.883  16.743  0.7961 -0.1989 -1.6753
  865MPD2     N12702   3.937   3.662  17.128 -0.6243  0.0021 -0.0282
  865MPD2    H512703   3.931   3.751  17.176 -0.2137 -0.5054  0.9678
  865MPD2    N112704   4.201   3.465  16.773  0.2439 -0.4228  0.3457
  865MPD2    H712705   4.201   3.381  16.830  2.3579 -0.9506 -0.4254
  866MPD2     C12706   1.448   4.108  11.761  0.2352 -0.1702 -0.0150
  866MPD2    C112707   1.425   4.146  11.630  0.2480  0.2802  0.3908
  866MPD2    C212708   1.306   4.215  11.609 -0.3425  0.7410  0.4904
  866MPD2    C312709   1.199   4.224  11.699 -0.1143 -0.1397  0.5785
  866MPD2    C412710   1.225   4.169  11.825  0.6031  0.1609  0.4887
  866MPD2    C512711   1.348   4.110  11.854  0.3766 -0.2938 -0.3011
  866MPD2     H12712   1.297   4.241  11.504 -0.8716  0.3933  0.4492
  866MPD2    H112713   1.149   4.166  11.903 -1.0904  0.7560 -1.1212
  866MPD2    H212714   1.540   4.058  11.788 -0.8730 -0.8969  2.4092
  866MPD2    H312715   1.366   4.067  11.952 -2.5685 -0.2922  0.2570
  866MPD2     N12716   1.076   4.287  11.681  0.5050  0.3871  0.5025
  866MPD2    H512717   1.015   4.273  11.761 -0.5466 -0.8905 -0.5249
  866MPD2    N112718   1.533   4.135  11.540  0.7241 -0.1253 -0.1573
  866MPD2    H712719   1.618   4.095  11.577 -0.5301 -0.5225  2.2587
  867MPD2     C12720   3.005   3.402  16.510  0.0528  0.0908 -0.1433
  867MPD2    C112721   3.075   3.355  16.617 -0.7783  0.3661 -0.2948
  867MPD2    C212722   3.110   3.446  16.719  0.0221 -0.2870 -0.2237
  867MPD2    C312723   3.088   3.581  16.693 -0.5494  0.2521 -0.3188
  867MPD2    C412724   3.022   3.628  16.577 -0.1094 -0.3901  0.0814
  867MPD2    C512725   2.982   3.532  16.488  0.2283 -0.0879  0.2391
  867MPD2     H12726   3.144   3.416  16.817 -1.8053 -1.5083  0.0446
  867MPD2    H112727   3.021   3.736  16.569 -1.1904 -0.4930 -1.1916
  867MPD2    H212728   2.974   3.330  16.435  0.4220  0.9309 -1.1116
  867MPD2    H312729   2.919   3.550  16.402 -0.0658 -1.5208  0.1524
  867MPD2     N12730   3.132   3.679  16.785 -0.0921  0.2182  0.0952
  867MPD2    H512731   3.128   3.774  16.749  1.3999 -0.3033 -1.4238
  867MPD2    N112732   3.099   3.213  16.623  0.5264 -0.0835  0.7028
  867MPD2    H712733   3.097   3.161  16.535 -2.1571 -0.1870  0.8181
  868MPD2     C12734   0.263   2.430  13.150  0.3126 -0.2177  0.3004
  868MPD2    C112735   0.308   2.365  13.264  0.2799 -0.7901 -0.0864
  868MPD2    C212736   0.226   2.353  13.378  0.0219  0.4701 -0.1899
  868MPD2    C312737   0.109   2.427  13.383 -0.1588 -0.4865 -0.1088
  868MPD2    C412738   0.065   2.490  13.269 -0.0787  0.4423 -0.1670
  868MPD2    C512739   0.145   2.494  13.158 -0.4407  0.6643  0.1346
  868MPD2     H12740   0.254   2.305  13.471  0.8994 -0.1714 -0.7846
  868MPD2    H112741   4.698   2.547  13.259  1.0233  2.4924  1.4952
  868MPD2    H212742   0.313   2.434  13.054 -2.4355  1.8568 -1.0498
  868MPD2    H312743   0.109   2.546  13.070 -0.3025 -0.3785 -0.5476
  868MPD2     N12744   0.023   2.434  13.496 -0.5830  0.2741 -0.4152
  868MPD2    H512745   0.039   2.370  13.573 -2.0527 -0.7269 -0.9359
  868MPD2    N112746   0.431   2.301  13.242  0.0408 -0.4257  0.2172
  868MPD2    H712747   0.486   2.331  13.163  0.5649 -0.7908  0.4406
  869MPD2     C12748   1.501   4.382   1.543 -0.0341 -0.2039  0.1170
  869MPD2    C112749   1.555   4.396   1.419 -0.6598 -0.1857  0.1105
  869MPD2    C212750   1.501   4.492   1.329  0.3207 -0.2248  0.3800
  869MPD2    C312751   1.395   4.569   1.371 -0.0100  0.2416 -0.2868
  869MPD2    C412752   1.342   4.559   1.499 -0.4616  0.4972 -0.2363
  869MPD2    C512753   1.392   4.458   1.579  0.0596  0.3342 -0.0513
  869MPD2     H12754   1.513   4.481   1.222 -0.2710 -0.1554  0.3088
  869MPD2    H112755   1.265   4.629   1.529 -2.3896 -1.6565 -0.1533
  869MPD2    H212756   1.530   4.303   1.610 -4.1758 -2.1406 -0.3464
  869MPD2    H312757   1.352   4.435   1.678 -0.1406  0.3047 -0.1398
  869MPD2     N12758   1.340   4.672   1.296 -0.5975 -0.0326  0.0378
  869MPD2    H512759   1.261   0.002   1.330 -0.7919  0.0378 -0.5183
  869MPD2    N112760   1.668   4.321   1.385 -1.0121 -0.4558 -0.6335
  869MPD2    H712761   1.691   4.253   1.457 -1.7573 -0.2474 -0.2079
  870MPD2     C12762   1.542   3.567   1.775 -0.4552 -0.2997 -0.2767
  870MPD2    C112763   1.414   3.517   1.807  0.3511  0.5274  0.6343
  870MPD2    C212764   1.296   3.590   1.787  0.6421 -0.1962  0.1805
  870MPD2    C312765   1.309   3.699   1.702 -0.8953 -0.5741  0.6723
  870MPD2    C412766   1.437   3.757   1.685  0.4674  0.2833 -0.2506
  870MPD2    C512767   1.553   3.694   1.729  0.2720 -0.0724 -0.0430
  870MPD2     H12768   1.200   3.542   1.797  0.7085 -0.4832 -0.5009
  870MPD2    H112769   1.449   3.855   1.641 -0.4560  0.9476  0.9905
  870MPD2    H212770   1.627   3.502   1.792 -0.7872 -1.3696 -2.7947
  870MPD2    H312771   1.650   3.735   1.703 -0.2478  1.4905  0.4801
  870MPD2     N12772   1.185   3.744   1.648  0.2212 -0.0491 -0.1622
  870MPD2    H512773   1.104   3.683   1.656 -0.5428  0.6283 -3.0108
  870MPD2    N112774   1.415   3.384   1.851 -0.3703  0.3556  0.3957
  870MPD2    H712775   1.509   3.352   1.873 -0.6083  0.6958  1.9277
  871MPD2     C12776   1.695   3.931  16.273  0.6866 -0.0592  0.2709
  871MPD2    C112777   1.662   3.833  16.362 -1.0073 -0.8293  0.0957
  871MPD2    C212778   1.737   3.719  16.365 -0.6149  0.5213  0.0921
  871MPD2    C312779   1.851   3.698  16.285  0.0955 -0.1878  0.1641
  871MPD2    C412780   1.878   3.788  16.187  0.1174 -0.4833 -0.1033
  871MPD2    C512781   1.799   3.901  16.191  0.1927  0.2068 -0.3562
  871MPD2     H12782   1.706   3.639  16.432  1.7660 -0.6927 -0.2671
  871MPD2    H112783   1.929   3.757  16.097 -1.9761 -2.1631 -0.7072
  871MPD2    H212784   1.645   4.026  16.258  0.1815 -0.7847 -2.6268
  871MPD2    H312785   1.816   3.969  16.108  0.9199 -1.8519 -1.8925
  871MPD2     N12786   1.914   3.573  16.285 -0.1257  0.1658  0.1401
  871MPD2    H512787   1.868   3.501  16.340  0.3058 -0.8036 -0.7850
  871MPD2    N112788   1.541   3.861  16.435 -0.4849  0.3551  0.2661
  871MPD2    H712789   1.497   3.951  16.416  0.2063 -0.0941 -3.5789
  872MPD2     C12790   2.347   1.517  13.567 -0.0225  0.2283 -0.1880
  872MPD2    C112791   2.436   1.529  13.666  0.8793  0.0388  0.3438
  872MPD2    C212792   2.398   1.488  13.800 -0.7268 -0.3798  0.1161
  872MPD2    C312793   2.278   1.422  13.826  0.7825 -1.1692 -0.0076
  872MPD2    C412794   2.195   1.408  13.718  0.1737 -0.0311  0.5169
  872MPD2    C512795   2.225   1.459  13.597 -0.0987  0.2951 -0.1085
  872MPD2     H12796   2.469   1.520  13.874  1.5806 -2.1553 -1.3353
  872MPD2    H112797   2.092   1.375  13.730  1.0338 -1.3897  3.9767
  872MPD2    H212798   2.361   1.574  13.476  3.1899 -1.9017 -1.0435
  872MPD2    H312799   2.149   1.463  13.519  1.7421 -5.4034 -2.2368
  872MPD2     N12800   2.239   1.369  13.951  0.4912 -0.4180 -0.3902
  872MPD2    H512801   2.154   1.314  13.958  0.3258 -0.0392  0.5679
  872MPD2    N112802   2.558   1.597  13.649 -0.0444  0.0971 -0.1780
  872MPD2    H712803   2.602   1.615  13.739  0.9293 -1.8719 -0.2619
  873MPD2     C12804   3.833   0.878   0.612 -0.5519  0.6690 -0.3047
  873MPD2    C112805   3.916   0.847   0.714 -0.4485  0.2990 -0.0478
  873MPD2    C212806   3.964   0.716   0.725  0.0553 -0.7440 -0.2330
  873MPD2    C312807   3.924   0.621   0.635  0.3906 -0.0924 -0.1662
  873MPD2    C412808   3.861   0.658   0.520  0.4570 -0.1158  0.9537
  873MPD2    C512809   3.800   0.777   0.518 -0.0793 -0.4802  0.5317
  873MPD2     H12810   4.032   0.678   0.800 -1.8164 -0.4966  1.5780
  873MPD2    H112811   3.815   0.579   0.461  0.3818 -0.7420  1.8467
  873MPD2    H212812   3.777   0.971   0.615 -1.2491  0.2216  0.8615
  873MPD2    H312813   3.712   0.789   0.456 -0.4750 -1.8739  0.8235
  873MPD2     N12814   3.959   0.486   0.653  1.1292  0.4079  0.9545
  873MPD2    H512815   3.950   0.427   0.571  0.4197 -0.1465  1.4340
  873MPD2    N112816   3.950   0.955   0.800 -0.0807 -0.2308 -0.2722
  873MPD2    H712817   3.903   1.044   0.786  0.2995  0.2827  1.7748
  874MPD2     C12818   4.237   1.370  16.187  0.4308  0.7882  0.3211
  874MPD2    C112819   4.307   1.336  16.300 -0.3544 -0.4705  0.0706
  874MPD2    C212820   4.417   1.408  16.332  0.1442 -0.1945  0.1455
  874MPD2    C312821   4.466   1.512  16.254  0.7186 -0.2814 -0.2614
  874MPD2    C412822   4.404   1.539  16.138 -0.3301 -0.1283  0.0349
  874MPD2    C512823   4.285   1.468  16.108  0.4739 -0.9339  0.1330
  874MPD2     H12824   4.475   1.398  16.423  0.0828  0.2694  0.2374
  874MPD2    H112825   4.441   1.618  16.074 -0.0033 -0.4606 -0.1822
  874MPD2    H212826   4.151   1.309  16.162  0.7230  0.5452 -0.1014
  874MPD2    H312827   4.224   1.498  16.024  0.0891 -1.7435  0.1216
  874MPD2     N12828   4.585   1.575  16.297  0.9818 -0.1056 -0.2154
  874MPD2    H512829   4.633   1.538  16.378 -0.5489 -2.0221 -0.1729
  874MPD2    N112830   4.251   1.226  16.377  0.0158 -0.1983 -0.3945
  874MPD2    H712831   4.169   1.178  16.341 -0.4305 -0.0629  0.4611
  875MPD2     C12832   0.109   4.051  14.749  0.6866 -0.8821 -0.4021
  875MPD2    C112833   0.156   4.171  14.696 -0.3857  0.5441  0.2725
  875MPD2    C212834   0.221   4.262  14.779  0.1889 -0.2762  0.4587
  875MPD2    C312835   0.252   4.234  14.911 -0.5929 -0.6147  0.2794
  875MPD2    C412836   0.206   4.114  14.964 -0.1859  0.2047  0.3749
  875MPD2    C512837   0.136   4.022  14.884  0.6276  0.2887 -0.5868
  875MPD2     H12838   0.239   4.363  14.743 -2.8688  0.7455  1.7888
  875MPD2    H112839   0.207   4.101  15.072  3.1400 -0.2969  0.2717
  875MPD2    H212840   0.056   3.987  14.680  1.0817 -3.3431  1.5496
  875MPD2    H312841   0.089   3.938  14.934  1.2898  0.4012  0.2144
  875MPD2     N12842   0.307   4.318  15.009  0.0617  0.5766 -0.4420
  875MPD2    H512843   0.305   4.284  15.105 -0.4337 -1.4801 -1.1766
  875MPD2    N112844   0.145   4.196  14.556  0.1126 -0.5656  0.4289
  875MPD2    H712845   0.091   4.129  14.502  0.1708 -1.9007  2.0297
  876MPD2     C12846   4.225   0.963  16.170  0.7501 -0.1766  0.5914
  876MPD2    C112847   4.352   0.954  16.122 -0.2110  0.6122 -0.4494
  876MPD2    C212848   4.444   0.869  16.175 -0.2945 -0.2962 -0.5404
  876MPD2    C312849   4.397   0.792  16.278  0.1631 -0.7163 -0.7988
  876MPD2    C412850   4.267   0.800  16.322 -0.5623 -0.5083 -0.3857
  876MPD2    C512851   4.181   0.887  16.269  0.2548  0.5844  0.8719
  876MPD2     H12852   4.547   0.862  16.142 -0.0725  0.5583 -0.0213
  876MPD2    H112853   4.229   0.734  16.399 -0.3077 -1.0998 -0.7714
  876MPD2    H212854   4.146   1.025  16.127 -1.6237 -2.4767  1.6237
  876MPD2    H312855   4.077   0.882  16.301  0.1251 -1.1397  0.1882
  876MPD2     N12856   4.488   0.701  16.328 -0.1870  0.2511  0.1989
  876MPD2    H512857   4.582   0.696  16.290  0.8580 -0.3364  2.8918
  876MPD2    N112858   4.373   1.041  16.011 -0.0331 -0.2039  0.2083
  876MPD2    H712859   4.297   1.102  15.984  0.2587 -1.0897 -2.5639
  877MPD2     C12860   3.959   1.285  15.430 -0.2130  0.5739  0.2256
  877MPD2    C112861   4.089   1.310  15.396 -0.4498  0.1641 -0.0131
  877MPD2    C212862   4.116   1.347  15.259 -0.1002 -0.6351 -0.0458
  877MPD2    C312863   4.008   1.367  15.168  0.0143 -0.1551 -0.3374
  877MPD2    C412864   3.877   1.340  15.206  0.1225 -0.4136 -0.8029
  877MPD2    C512865   3.861   1.292  15.335 -0.1883 -0.8627 -0.0407
  877MPD2     H12866   4.220   1.363  15.232  0.0527 -0.0787  0.8856
  877MPD2    H112867   3.794   1.349  15.138  0.0850 -0.7059 -0.7960
  877MPD2    H212868   3.919   1.267  15.529  1.1836 -1.2227  0.4577
  877MPD2    H312869   3.761   1.268  15.368  0.3508 -0.5520  1.7823
  877MPD2     N12870   4.022   1.415  15.030 -0.5215 -0.3430 -0.2983
  877MPD2    H512871   3.945   1.386  14.971 -1.2510 -2.0836  1.5078
  877MPD2    N112872   4.195   1.287  15.478  0.2737 -0.3286  0.1728
  877MPD2    H712873   4.284   1.315  15.437 -0.5181  1.6235 -0.1986
  878MPD2     C12874   3.756   0.543  13.326 -0.2107  0.1774 -0.0933
  878MPD2    C112875   3.787   0.671  13.342  0.0705  0.2308 -0.5625
  878MPD2    C212876   3.757   0.729  13.459  0.5050  0.9733  0.3597
  878MPD2    C312877   3.683   0.659  13.564 -0.2160  0.5810 -0.0045
  878MPD2    C412878   3.660   0.522  13.546 -0.0593 -0.0875  1.3784
  878MPD2    C512879   3.690   0.467  13.423  0.3833  0.4521 -0.9081
  878MPD2     H12880   3.769   0.836  13.469  0.1305  1.1159 -0.7893
  878MPD2    H112881   3.593   0.471  13.614 -0.0918 -1.9282 -0.0398
  878MPD2    H212882   3.785   0.489  13.237 -2.4016  1.2516 -1.4688
  878MPD2    H312883   3.660   0.364  13.405 -0.1995  0.5289 -0.4059
  878MPD2     N12884   3.651   0.739  13.680  0.5855  0.0623  0.0856
  878MPD2    H512885   3.672   0.838  13.665  3.6665 -0.3232  1.9797
  878MPD2    N112886   3.858   0.726  13.228 -0.4950  0.7168 -0.8509
  878MPD2    H712887   3.885   0.664  13.152 -0.1836  0.3372 -0.4266
  879MPD2     C12888   4.201   2.304  17.049  0.4240 -0.4248  0.1149
  879MPD2    C112889   4.283   2.203  17.108 -0.3035 -1.0159  0.2866
  879MPD2    C212890   4.286   2.075  17.052  0.3994  0.0865 -0.0906
  879MPD2    C312891   4.202   2.044  16.942  0.2248  0.9375  0.1004
  879MPD2    C412892   4.118   2.147  16.899 -0.4980 -0.4531 -0.2151
  879MPD2    C512893   4.113   2.269  16.945 -0.0808 -0.2709 -0.1520
  879MPD2     H12894   4.366   2.012  17.089  0.5999  0.3112 -0.1385
  879MPD2    H112895   4.060   2.134  16.809  1.3122  0.0671 -1.4514
  879MPD2    H212896   4.189   2.403  17.091 -0.9842  0.2525 -1.8809
  879MPD2    H312897   4.050   2.344  16.899 -2.3537 -1.1117  1.5642
  879MPD2     N12898   4.209   1.926  16.870 -0.9226  0.2891  0.3955
  879MPD2    H512899   4.152   1.910  16.787  0.4429  3.5185 -1.1734
  879MPD2    N112900   4.363   2.249  17.215  0.4251 -0.5172  0.1238
  879MPD2    H712901   4.356   2.346  17.244 -1.2185 -0.7656  0.5461
  880MPD2     C12902   1.517   3.449   0.218 -0.2053 -0.0427  0.3571
  880MPD2    C112903   1.499   3.487   0.349  0.1078  0.3872 -0.3200
  880MPD2    C212904   1.519   3.384   0.441  0.8499 -0.5546 -0.9428
  880MPD2    C312905   1.551   3.254   0.402 -0.2890 -0.5944 -0.2469
  880MPD2    C412906   1.576   3.226   0.270 -0.1227 -0.0584  0.7861
  880MPD2    C512907   1.563   3.326   0.181 -0.0816 -0.9933  0.1776
  880MPD2     H12908   1.513   3.408   0.546  2.3395 -0.2852 -0.9234
  880MPD2    H112909   1.615   3.134   0.227 -0.0877  0.1846  0.3128
  880MPD2    H212910   1.515   3.522   0.138  1.6704  0.4184  0.7305
  880MPD2    H312911   1.576   3.308   0.075 -2.0584 -1.9135  0.0928
  880MPD2     N12912   1.560   3.156   0.500  0.0751 -0.4395 -0.4689
  880MPD2    H512913   1.541   3.171   0.599  2.7735 -2.4378  0.3748
  880MPD2    N112914   1.472   3.621   0.390  0.5430  0.4861  0.7933
  880MPD2    H712915   1.475   3.638   0.490 -1.3231 -0.4613  1.0019
  881MPD2     C12916   1.339   4.690   0.082  0.6906 -0.1698 -0.5094
  881MPD2    C112917   1.380   4.577   0.020 -0.1756 -0.1782 -0.3178
  881MPD2    C212918   1.381   4.451   0.088  0.5578  0.3984 -0.2845
  881MPD2    C312919   1.340   4.443   0.218 -0.6877 -0.9326 -0.0996
  881MPD2    C412920   1.309   4.558   0.279  0.0624  0.2177  0.2159
  881MPD2    C512921   1.299   4.681   0.210  0.2980 -0.6751  0.8224
  881MPD2     H12922   1.419   4.365   0.035  1.3593  0.4367  0.2328
  881MPD2    H112923   1.284   4.563   0.385 -0.3806 -2.2188  0.2384
  881MPD2    H212924   1.339   0.060   0.029  1.3338 -0.1268 -0.4401
  881MPD2    H312925   1.276   0.049   0.261 -0.4408 -0.1451 -0.4592
  881MPD2     N12926   1.360   4.324   0.299  0.1694 -0.3072 -0.6076
  881MPD2    H512927   1.309   4.319   0.387 -1.7096 -0.5637 -1.7118
  881MPD2    N112928   1.386   4.582  17.579  0.6062  0.1467 -0.0129
  881MPD2    H712929   1.361   4.674  17.543  0.2731 -0.2441 -0.7746
  882MPD2     C12930   3.953   1.330  14.195 -0.2591 -0.0070 -1.0858
  882MPD2    C112931   3.902   1.331  14.321 -0.3150 -0.6841  0.3691
  882MPD2    C212932   3.777   1.292  14.343  0.0479 -0.2556  0.0488
  882MPD2    C312933   3.697   1.251  14.240 -0.3503  0.2887  0.4565
  882MPD2    C412934   3.753   1.244  14.116 -0.5042 -0.5450 -0.2116
  882MPD2    C512935   3.881   1.288  14.095 -0.8652 -0.5653 -0.1266
  882MPD2     H12936   3.743   1.288  14.446  1.4516 -0.1403  0.5108
  882MPD2    H112937   3.689   1.221  14.031  0.9498 -2.0370 -0.9104
  882MPD2    H212938   4.054   1.363  14.173 -0.0266  0.7893  1.1167
  882MPD2    H312939   3.919   1.282  13.994  0.8703  2.9825  0.3390
  882MPD2     N12940   3.555   1.242  14.264  0.8492  0.2203  0.1477
  882MPD2    H512941   3.534   1.266  14.361  1.5831  0.3615  0.2722
  882MPD2    N112942   3.988   1.373  14.428 -0.0174  0.0563 -0.5262
  882MPD2    H712943   4.089   1.369  14.416  0.2860  1.1230  1.7204
  883MPD2     C12944   1.224   1.211  16.447 -0.0809  0.3536 -0.8930
  883MPD2    C112945   1.292   1.269  16.343 -0.1315 -0.1687  0.5274
  883MPD2    C212946   1.424   1.299  16.359  0.3447  0.0580 -0.1947
  883MPD2    C312947   1.480   1.305  16.479 -0.0763 -0.0036 -0.1081
  883MPD2    C412948   1.405   1.254  16.588 -0.4270 -0.2433  0.1553
  883MPD2    C512949   1.286   1.187  16.563 -0.4261  0.9841  0.7153
  883MPD2     H12950   1.489   1.317  16.274 -2.2254 -0.4674 -2.2833
  883MPD2    H112951   1.455   1.226  16.680 -0.2684 -1.7338 -0.3870
  883MPD2    H212952   1.126   1.170  16.425 -0.2799  0.8024 -0.8400
  883MPD2    H312953   1.237   1.124  16.636  1.3126 -1.8964 -0.6137
  883MPD2     N12954   1.614   1.348  16.485 -0.0256  0.4234 -0.3666
  883MPD2    H512955   1.646   1.387  16.398 -2.1360  0.7110 -1.0042
  883MPD2    N112956   1.238   1.288  16.215  0.6633  0.4673 -0.0377
  883MPD2    H712957   1.304   1.310  16.141  1.1889 -2.8468 -0.5593
  884MPD2     C12958   3.564   2.259  15.207  0.0393 -0.5712 -0.7462
  884MPD2    C112959   3.514   2.291  15.080 -0.8770 -0.5931 -0.3832
  884MPD2    C212960   3.381   2.343  15.068  0.0583  0.8129  1.0700
  884MPD2    C312961   3.302   2.349  15.181  0.0922 -0.5429  0.3586
  884MPD2    C412962   3.350   2.307  15.303 -0.4618 -0.1657 -0.0936
  884MPD2    C512963   3.483   2.276  15.313  0.3817 -0.0164 -0.7855
  884MPD2     H12964   3.330   2.356  14.973  0.4365 -0.0954  0.7375
  884MPD2    H112965   3.289   2.313  15.392  1.2607  0.0197  1.0567
  884MPD2    H212966   3.659   2.213  15.231  1.4165  2.6323  0.0538
  884MPD2    H312967   3.508   2.251  15.416 -0.6868  1.7582 -0.0970
  884MPD2     N12968   3.178   2.415  15.160 -0.1281 -0.3897 -0.3716
  884MPD2    H512969   3.160   2.443  15.065 -2.9144  0.8586  0.5152
  884MPD2    N112970   3.585   2.254  14.964 -0.6819  0.1932 -0.3407
  884MPD2    H712971   3.538   2.259  14.875  0.5130 -0.5632 -1.0100
  885MPD2     C12972   1.530   1.732   0.211 -0.1494 -0.4965 -0.0753
  885MPD2    C112973   1.546   1.853   0.277  0.2190  0.5364  0.3711
  885MPD2    C212974   1.556   1.974   0.210  0.5035 -0.6790 -0.0784
  885MPD2    C312975   1.556   1.978   0.072  0.0293 -0.4937 -0.1088
  885MPD2    C412976   1.544   1.862  17.699  0.3255 -0.6886 -0.0055
  885MPD2    C512977   1.531   1.745   0.076 -0.4693  0.2274 -0.3734
  885MPD2     H12978   1.549   2.060   0.274  0.5018  0.3000 -1.3934
  885MPD2    H112979   1.539   1.845  17.592 -0.1651  1.0246 -0.2411
  885MPD2    H212980   1.523   1.629   0.247 -0.2087  0.0650  1.5354
  885MPD2    H312981   1.523   1.658   0.011 -0.7691 -0.8936  1.1525
  885MPD2     N12982   1.591   2.101   0.012  0.2321  0.7808  0.2775
  885MPD2    H512983   1.604   2.183   0.070  1.3145  1.7375 -1.3238
  885MPD2    N112984   1.551   1.842   0.416 -0.0712 -0.9360  0.6163
  885MPD2    H712985   1.531   1.755   0.464 -0.8622  0.3095  2.5687
  886MPD2     C12986   2.733   0.846  15.601 -0.6739 -0.0894  0.0967
  886MPD2    C112987   2.838   0.900  15.668  0.5179 -0.1067 -1.2475
  886MPD2    C212988   2.886   1.020  15.627  0.0915  0.5325 -0.2339
  886MPD2    C312989   2.828   1.083  15.516  0.8005  0.6117 -0.3313
  886MPD2    C412990   2.715   1.028  15.452 -0.2059  0.2871 -0.2144
  886MPD2    C512991   2.669   0.913  15.501  0.4523 -0.0715  0.7104
  886MPD2     H12992   2.978   1.054  15.673  0.9436 -1.2508 -0.5895
  886MPD2    H112993   2.671   1.083  15.370  2.1903  2.2962 -0.1476
  886MPD2    H212994   2.691   0.752  15.633 -2.9468  0.2594 -1.8426
  886MPD2    H312995   2.585   0.864  15.455 -0.3709  0.4542  1.6530
  886MPD2     N12996   2.883   1.206  15.466  0.3832  0.0461  0.2467
  886MPD2    H512997   2.843   1.221  15.374 -0.8208 -1.2292  0.5547
  886MPD2    N112998   2.909   0.838  15.775  0.1750 -0.2032 -0.3649
  886MPD2    H712999   2.992   0.889  15.805  1.0813 -2.5697  1.1697
  887MPD2     C13000   3.416   1.027  16.187 -0.5143 -0.6102  0.9440
  887MPD2    C113001   3.282   1.050  16.180 -0.2744  0.1156  0.0703
  887MPD2    C213002   3.237   1.176  16.176  0.5662  0.3499  0.2427
  887MPD2    C313003   3.318   1.286  16.183  0.1652  0.6953  0.1812
  887MPD2    C413004   3.457   1.265  16.174 -0.1763  0.2261  0.0643
  887MPD2    C513005   3.501   1.134  16.178  0.1009  0.2043 -0.3181
  887MPD2     H13006   3.131   1.193  16.161  0.4475 -3.7386 -3.7096
  887MPD2    H113007   3.517   1.355  16.168 -0.5074  0.5696  1.8483
  887MPD2    H213008   3.464   0.930  16.196  1.2362  0.2762  1.1144
  887MPD2    H313009   3.604   1.118  16.207  0.1871  0.0056 -0.7277
  887MPD2     N13010   3.243   1.408  16.186  0.0066 -0.0193 -0.1448
  887MPD2    H513011   3.143   1.395  16.180 -0.1509  0.0145  2.3579
  887MPD2    N113012   3.188   0.945  16.167 -1.0054 -0.6221  0.0933
  887MPD2    H713013   3.091   0.971  16.153 -0.1398  1.2060 -2.4491
  888MPD2     C13014   0.584   1.045  14.860 -0.3704  0.7631  0.3998
  888MPD2    C113015   0.586   1.056  14.997  0.1681 -0.9027  0.6083
  888MPD2    C213016   0.667   1.149  15.053  0.0149 -0.7805 -0.7642
  888MPD2    C313017   0.727   1.248  14.976 -0.7889 -0.3239  0.2260
  888MPD2    C413018   0.721   1.242  14.835  0.4590 -0.4147 -0.2831
  888MPD2    C513019   0.648   1.140  14.784 -0.0733 -0.9130 -0.0168
  888MPD2     H13020   0.670   1.160  15.161  0.2547 -1.0332 -0.7416
  888MPD2    H113021   0.778   1.321  14.787  0.8416 -0.8731 -0.5811
  888MPD2    H213022   0.523   0.970  14.811  1.2118  0.6595 -1.4166
  888MPD2    H313023   0.634   1.136  14.676  1.0802 -0.9571 -0.1741
  888MPD2     N13024   0.785   1.364  15.027  0.1511 -0.1984 -0.1002
  888MPD2    H513025   0.822   1.428  14.957  2.8115 -1.7237 -0.0940
  888MPD2    N113026   0.533   0.964  15.096  0.0677 -0.7342 -0.4208
  888MPD2    H713027   0.545   0.992  15.193  0.8100 -0.2089 -0.6656
  889MPD2     C13028   0.384   0.776  13.173  0.5254 -0.0067  0.2345
  889MPD2    C113029   0.275   0.710  13.117  0.1264  0.0348  0.7930
  889MPD2    C213030   0.154   0.777  13.124 -0.3574 -1.0131  0.7307
  889MPD2    C313031   0.147   0.912  13.151 -0.0317 -0.2170 -0.0231
  889MPD2    C413032   0.262   0.979  13.191  1.3696 -0.0725  0.3024
  889MPD2    C513033   0.382   0.906  13.199  0.3381  0.0089  0.6349
  889MPD2     H13034   0.074   0.725  13.072 -2.4720  1.2768  1.6690
  889MPD2    H113035   0.261   1.081  13.226 -1.7444  0.4469 -1.3376
  889MPD2    H213036   0.484   0.736  13.171  1.3334  2.1411 -2.1046
  889MPD2    H313037   0.471   0.956  13.236  1.6928 -3.1784  1.6551
  889MPD2     N13038   0.018   0.972  13.135 -0.5727  0.2951  0.4792
  889MPD2    H513039   4.667   0.912  13.104 -1.3680  1.1331  0.7884
  889MPD2    N113040   0.276   0.570  13.103 -0.3150 -0.7467 -0.3668
  889MPD2    H713041   0.184   0.528  13.101 -0.6184 -0.0964 -0.0661
  890MPD2     C13042   3.991   1.850  14.660  0.4733  0.4805 -0.5464
  890MPD2    C113043   4.096   1.867  14.742 -0.5753  0.1597  0.1152
  890MPD2    C213044   4.083   1.835  14.878  0.2932 -0.1594 -0.1841
  890MPD2    C313045   3.964   1.781  14.931 -0.4367 -0.0973  0.0435
  890MPD2    C413046   3.858   1.758  14.840 -0.3265 -0.5878  0.7070
  890MPD2    C513047   3.869   1.795  14.708 -0.0569 -0.1340  0.4724
  890MPD2     H13048   4.170   1.848  14.942  1.1828 -1.0857 -1.2161
  890MPD2    H113049   3.761   1.715  14.865  0.2045 -1.5046  1.1908
  890MPD2    H213050   3.999   1.881  14.556 -0.4045  2.4768 -0.0159
  890MPD2    H313051   3.789   1.780  14.637 -0.7286  0.4369  1.1119
  890MPD2     N13052   3.951   1.751  15.071 -0.1322  0.3667  0.1640
  890MPD2    H513053   4.039   1.754  15.121  0.0444 -2.3022  0.0012
  890MPD2    N113054   4.207   1.940  14.698  0.3901  0.1183  0.2848
  890MPD2    H713055   4.194   1.992  14.612  0.6648  2.5093  1.7021
  891MPD2     C13056   2.365   0.352  16.761 -0.0599  0.1097  0.3340
  891MPD2    C113057   2.372   0.488  16.788  0.7718 -0.2663 -0.2202
  891MPD2    C213058   2.476   0.547  16.858 -0.8754  0.1232  0.4904
  891MPD2    C313059   2.576   0.464  16.905  0.1009 -0.1336  0.3311
  891MPD2    C413060   2.580   0.329  16.868 -0.0290  0.3665 -0.2482
  891MPD2    C513061   2.472   0.276  16.798 -0.8747  0.2383 -0.2142
  891MPD2     H13062   2.486   0.652  16.879  0.5036  0.3979 -1.4491
  891MPD2    H113063   2.665   0.264  16.883 -0.7931 -1.4250 -3.7823
  891MPD2    H213064   2.284   0.309  16.703 -0.2744  2.0922 -0.8354
  891MPD2    H313065   2.480   0.171  16.773  1.0240 -0.1748  2.0818
  891MPD2     N13066   2.662   0.521  16.996  0.1841  0.0465  0.5960
  891MPD2    H513067   2.645   0.613  17.036 -1.5584 -0.2197  0.4734
  891MPD2    N113068   2.259   0.558  16.734 -0.2734 -0.0820 -0.2299
  891MPD2    H713069   2.181   0.512  16.690 -0.9093  1.4107 -0.6784
  892MPD2     C13070   3.421   1.560  15.002  0.2811  0.1279 -0.0859
  892MPD2    C113071   3.299   1.605  14.943  0.2328  0.3017 -0.4306
  892MPD2    C213072   3.274   1.553  14.818  0.8987  0.1255  0.5166
  892MPD2    C313073   3.372   1.470  14.750  0.1084  0.2647  0.0480
  892MPD2    C413074   3.485   1.432  14.815 -0.8557 -0.4893  0.2304
  892MPD2    C513075   3.509   1.486  14.934  0.0982  0.2787  0.2352
  892MPD2     H13076   3.194   1.589  14.756 -1.2730 -0.8991  2.7346
  892MPD2    H113077   3.557   1.361  14.776  1.7251  1.1053  2.1216
  892MPD2    H213078   3.455   1.592  15.100 -0.3544 -1.5005  0.6578
  892MPD2    H313079   3.604   1.469  14.984 -0.3892 -1.5588  0.5360
  892MPD2     N13080   3.335   1.403  14.631 -0.3590  0.4088  0.3816
  892MPD2    H513081   3.402   1.345  14.582 -1.4430 -1.4630  1.1174
  892MPD2    N113082   3.207   1.695  15.004  0.4051  0.1041  0.2992
  892MPD2    H713083   3.129   1.727  14.947  2.0886  0.0444 -2.0184
  893MPD2     C13084   1.142   3.298   2.249  0.0485  0.3115  0.0814
  893MPD2    C113085   1.275   3.326   2.224  0.4774 -0.9203  0.0388
  893MPD2    C213086   1.368   3.224   2.239 -0.1643  0.0157  0.0713
  893MPD2    C313087   1.333   3.093   2.279  0.0980  0.1864  0.1616
  893MPD2    C413088   1.197   3.070   2.298  1.3352 -0.5912  0.0519
  893MPD2    C513089   1.104   3.169   2.277  0.4432  0.2172  0.3059
  893MPD2     H13090   1.471   3.241   2.211 -0.4092  0.0518 -0.7892
  893MPD2    H113091   1.160   2.969   2.314 -0.8875  0.5246  1.9443
  893MPD2    H213092   1.073   3.381   2.232 -0.0055  0.3522  0.5061
  893MPD2    H313093   0.998   3.144   2.280  0.4739  0.0244 -0.2312
  893MPD2     N13094   1.415   2.976   2.293 -0.1147  0.9623  0.6636
  893MPD2    H513095   1.370   2.889   2.319 -1.1745  1.2272 -0.3229
  893MPD2    N113096   1.303   3.458   2.180  0.0553  0.4496  0.0471
  893MPD2    H713097   1.231   3.529   2.182 -0.7085 -0.2923 -0.9672
  894MPD2     C13098   2.999   2.010   0.716  0.4201  0.6277  0.1370
  894MPD2    C113099   3.032   2.037   0.848 -0.1328  0.1454 -0.2164
  894MPD2    C213100   3.067   2.162   0.888  0.7502 -0.3588  0.1939
  894MPD2    C313101   3.069   2.269   0.795  0.4002 -0.2908  0.0826
  894MPD2    C413102   3.044   2.239   0.662 -0.7653  0.7005  0.6027
  894MPD2    C513103   3.007   2.112   0.628 -0.0779  0.1240  0.1404
  894MPD2     H13104   3.087   2.183   0.992 -3.1152 -0.4867  0.9888
  894MPD2    H113105   3.051   2.315   0.584 -3.4645  1.3686  1.0029
  894MPD2    H213106   2.972   1.911   0.680  2.2494  0.2070 -0.1000
  894MPD2    H313107   2.972   2.091   0.528  1.8157 -3.5989  0.2654
  894MPD2     N13108   3.112   2.394   0.846  0.0954  0.1558  0.1067
  894MPD2    H513109   3.167   2.392   0.931  0.5484 -0.4087 -0.2018
  894MPD2    N113110   3.033   1.932   0.943  0.2512  0.5499  0.5260
  894MPD2    H713111   3.040   1.968   1.037  3.0287  0.2035  0.4382
  895MPD2     C13112   2.516   1.207  13.637  0.0341  0.2618  0.2000
  895MPD2    C113113   2.545   1.153  13.512  0.0352  0.1759  0.4030
  895MPD2    C213114   2.673   1.113  13.483  0.3355  0.3531  0.4002
  895MPD2    C313115   2.765   1.117  13.586  0.0337 -0.3018 -0.4488
  895MPD2    C413116   2.733   1.159  13.712  0.6221  0.3044  0.4822
  895MPD2    C513117   2.613   1.209  13.737 -0.0296 -0.0478 -0.4223
  895MPD2     H13118   2.689   1.075  13.382 -2.3529 -4.7304  1.9005
  895MPD2    H113119   2.816   1.152  13.782  1.0874  0.3482 -0.0685
  895MPD2    H213120   2.415   1.242  13.654 -0.2438 -0.3214 -0.2413
  895MPD2    H313121   2.589   1.251  13.834  0.6321 -1.0648  0.1810
  895MPD2     N13122   2.899   1.069  13.574  0.0044 -0.1148 -0.4965
  895MPD2    H513123   2.957   1.059  13.656 -0.3708  0.7191 -0.1327
  895MPD2    N113124   2.443   1.140  13.413  0.3132  0.0257 -0.0222
  895MPD2    H713125   2.472   1.144  13.316 -1.5925 -3.2749 -0.7250
  896MPD2     C13126   4.694   3.044   2.002  0.3020 -0.2770  0.1011
  896MPD2    C113127   4.680   3.002   1.874 -0.2232  0.2507  0.5606
  896MPD2    C213128   4.549   2.980   1.823 -0.3413  0.1500 -0.2731
  896MPD2    C313129   4.434   2.996   1.898 -0.0850  0.4664  0.2414
  896MPD2    C413130   4.453   3.039   2.027 -0.1841 -0.3717  0.0858
  896MPD2    C513131   4.581   3.058   2.078  0.3640  0.7506  0.4772
  896MPD2     H13132   4.530   2.951   1.720  2.8182  1.0881 -1.1002
  896MPD2    H113133   4.375   3.042   2.103 -1.0532 -0.8887 -0.7889
  896MPD2    H213134   0.064   3.055   2.054  1.1949 -2.8960 -0.9616
  896MPD2    H313135   4.600   3.074   2.183  2.4123 -2.6531  0.6229
  896MPD2     N13136   4.315   2.946   1.840  0.2123 -0.4586 -0.0904
  896MPD2    H513137   4.320   2.885   1.759 -1.2681 -0.3790 -0.2384
  896MPD2    N113138   0.079   2.974   1.805 -0.1307  0.1208 -0.5296
  896MPD2    H713139   0.163   2.985   1.860  0.1464 -2.3686 -0.4547
  897MPD2     C13140   1.652   0.347  10.596  0.3594 -0.5128  0.1141
  897MPD2    C113141   1.541   0.423  10.620 -0.4661 -0.1480  0.1302
  897MPD2    C213142   1.476   0.409  10.739  0.5496  0.2855  0.8028
  897MPD2    C313143   1.514   0.321  10.833 -0.6160  0.0691 -0.1469
  897MPD2    C413144   1.619   0.234  10.802  0.8797  0.0433  0.4390
  897MPD2    C513145   1.683   0.242  10.681 -0.0158  0.0642  0.1075
  897MPD2     H13146   1.380   0.458  10.756 -0.4110 -0.8839 -1.3239
  897MPD2    H113147   1.653   0.153  10.866 -1.7405 -0.1900  1.5678
  897MPD2    H213148   1.713   0.350  10.506 -0.5288  2.3048 -0.4015
  897MPD2    H313149   1.768   0.176  10.670 -0.1205  0.3162 -2.2633
  897MPD2     N13150   1.433   0.304  10.948  0.9275  0.0917 -0.0261
  897MPD2    H513151   1.354   0.368  10.951 -0.3641 -1.3381 -4.0044
  897MPD2    N113152   1.504   0.528  10.529  0.0588 -0.0224  0.5142
  897MPD2    H713153   1.555   0.516  10.442 -0.9457 -2.3336  0.2363
  898MPD2     C13154   2.828   0.851  17.691 -1.4062  0.6477 -0.4052
  898MPD2    C113155   2.932   0.909  17.622 -0.0993  0.4599 -0.7364
  898MPD2    C213156   2.921   1.041  17.579 -0.5249  0.5432 -0.0788
  898MPD2    C313157   2.810   1.120  17.603  0.1197  0.2271  0.4101
  898MPD2    C413158   2.712   1.070  17.687  0.7709  0.6250 -0.2328
  898MPD2    C513159   2.720   0.936   0.025 -0.5829 -0.0299 -0.1560
  898MPD2     H13160   3.000   1.089  17.521 -0.0814  0.9310  0.8563
  898MPD2    H113161   2.623   1.122   0.022  0.1179 -0.3518 -0.4221
  898MPD2    H213162   2.822   0.747   0.021 -1.2190  1.1176  1.2617
  898MPD2    H313163   2.631   0.900   0.076  1.2810 -0.7601  2.5878
  898MPD2     N13164   2.814   1.251  17.547  0.5801 -0.7420  0.1924
  898MPD2    H513165   2.895   1.274  17.491 -1.0919  0.4979 -1.6898
  898MPD2    N113166   3.056   0.839  17.590 -0.6863  0.1712  0.5631
  898MPD2    H713167   3.120   0.897  17.536  0.4592 -1.5355  0.0762
  899MPD2     C13168   3.932   1.436  17.423  0.0355  0.4092  0.3563
  899MPD2    C113169   3.937   1.546  17.509 -0.2194  0.5333 -0.2750
  899MPD2    C213170   3.883   1.535  17.634 -0.0208  0.0547 -0.0242
  899MPD2    C313171   3.819   1.421  17.668 -0.3300 -0.1450 -0.3838
  899MPD2    C413172   3.817   1.310  17.581 -0.0229  0.4096 -0.4548
  899MPD2    C513173   3.878   1.320  17.459  0.1590 -1.0682  0.6680
  899MPD2     H13174   3.878   1.626  17.693 -1.4092 -0.7222  1.0504
  899MPD2    H113175   3.770   1.215  17.607 -1.1741  1.7664  2.4229
  899MPD2    H213176   3.962   1.449  17.319 -0.8105 -1.3027 -0.1072
  899MPD2    H313177   3.868   1.239  17.388  1.8586 -2.9036  2.5459
  899MPD2     N13178   3.738   1.427   0.087  0.3973 -0.2810 -0.6579
  899MPD2    H513179   3.750   1.513   0.140 -2.3828  0.3342 -1.0499
  899MPD2    N113180   3.985   1.669  17.454  0.2233 -0.1727  0.0470
  899MPD2    H713181   3.995   1.671  17.353  0.6915  1.1772  0.1257
  900MPD2     C13182   3.860   3.717  12.670 -0.1289  0.0827 -0.8020
  900MPD2    C113183   3.772   3.612  12.665  0.4048  0.3403 -0.3457
  900MPD2    C213184   3.646   3.631  12.607 -0.1995  0.3001  0.0188
  900MPD2    C313185   3.608   3.750  12.562  0.0011  0.2276  0.0575
  900MPD2    C413186   3.700   3.855  12.568 -0.2838 -0.4567 -0.2067
  900MPD2    C513187   3.828   3.839  12.619  0.5258 -0.0287  0.0172
  900MPD2     H13188   3.572   3.552  12.599  0.6579 -0.6701  1.5390
  900MPD2    H113189   3.674   3.956  12.540 -0.9335 -0.2928  0.9928
  900MPD2    H213190   3.956   3.692  12.713 -0.1368 -0.2277 -0.9625
  900MPD2    H313191   3.890   3.927  12.623 -2.1303  1.9184 -2.2628
  900MPD2     N13192   3.486   3.764  12.495  0.0762 -0.5006 -0.5226
  900MPD2    H513193   3.424   3.683  12.490  0.3200 -0.8237  1.6469
  900MPD2    N113194   3.821   3.487  12.716  0.1659 -0.0725 -0.6625
  900MPD2    H713195   3.913   3.490  12.760 -0.2772  0.5518  0.2300
  901MPD2     C13196   3.754   2.494  13.196 -0.1656 -0.3301  0.4708
  901MPD2    C113197   3.805   2.480  13.067 -0.0590 -0.3214 -0.0237
  901MPD2    C213198   3.837   2.597  12.996  0.2254 -0.2190 -0.0723
  901MPD2    C313199   3.806   2.725  13.044 -0.5137  0.0686 -0.0688
  901MPD2    C413200   3.741   2.734  13.166  0.0456  0.7316 -0.7286
  901MPD2    C513201   3.719   2.622  13.237  0.2964 -0.0719  0.1671
  901MPD2     H13202   3.878   2.600  12.896  2.3822  0.5376  0.8264
  901MPD2    H113203   3.700   2.826  13.206 -0.3842 -0.3084  1.2244
  901MPD2    H213204   3.724   2.411  13.259  0.1166  0.1339  1.2225
  901MPD2    H313205   3.658   2.631  13.326  0.5431 -0.1000  0.3384
  901MPD2     N13206   3.833   2.833  12.958 -0.3082 -0.0389  0.5334
  901MPD2    H513207   3.868   2.802  12.868  1.0042  1.8451  0.4119
  901MPD2    N113208   3.840   2.349  13.026 -0.9977  0.2881 -0.5429
  901MPD2    H713209   3.802   2.279  13.088  0.4863  1.2369  1.4394
  902MPD2     C13210   2.717   1.413  13.282  0.4624  0.5254  0.0353
  902MPD2    C113211   2.639   1.434  13.168  0.2108 -0.2044  0.3613
  902MPD2    C213212   2.691   1.399  13.049 -0.1734  0.0530  0.0132
  902MPD2    C313213   2.808   1.327  13.030  0.1003 -0.2143 -0.0225
  902MPD2    C413214   2.869   1.290  13.145 -1.0116 -0.5046  0.6191
  902MPD2    C513215   2.822   1.331  13.262  0.7302  0.4663  0.1790
  902MPD2     H13216   2.636   1.423  12.959 -0.9168  1.0852  0.7560
  902MPD2    H113217   2.954   1.222  13.152 -0.8640 -0.1373  2.4151
  902MPD2    H213218   2.679   1.428  13.383 -1.0488 -0.0773 -0.4351
  902MPD2    H313219   2.874   1.298  13.351  1.2168  1.2541  0.1880
  902MPD2     N13220   2.863   1.289  12.905  0.2807 -0.6380 -0.6970
  902MPD2    H513221   2.948   1.233  12.902 -0.0539 -1.1119 -1.1273
  902MPD2    N113222   2.516   1.493  13.184  0.0503  0.4199 -0.3233
  902MPD2    H713223   2.499   1.536  13.275 -0.4723 -0.6516  0.0934
  903MPD2     C13224   2.569   1.520  12.204  1.1728  0.0149  0.3898
  903MPD2    C113225   2.632   1.399  12.192 -0.3713 -0.0977  0.0796
  903MPD2    C213226   2.617   1.332  12.069  0.0460  0.8124 -0.9486
  903MPD2    C313227   2.533   1.383  11.975  0.1053 -0.0075  0.7408
  903MPD2    C413228   2.490   1.515  11.986  0.5865 -0.5553  0.7064
  903MPD2    C513229   2.509   1.588  12.103  0.1472  0.3278  0.2012
  903MPD2     H13230   2.652   1.231  12.048 -1.6056  0.3481 -1.5343
  903MPD2    H113231   2.445   1.562  11.899  0.0669  0.5896  1.5930
  903MPD2    H213232   2.582   1.570  12.300 -2.0386  1.2610  0.1757
  903MPD2    H313233   2.474   1.690  12.111 -1.1915 -0.1568  0.5666
  903MPD2     N13234   2.512   1.302  11.857 -0.2333  0.1479  0.1064
  903MPD2    H513235   2.565   1.215  11.857  1.9485  1.4675  2.2955
  903MPD2    N113236   2.699   1.351  12.308 -0.1768 -0.0676 -0.2064
  903MPD2    H713237   2.688   1.410  12.389 -2.9514  0.3657 -0.8674
  904MPD2     C13238   2.247   0.474  13.628 -0.2019 -0.5077  0.5166
  904MPD2    C113239   2.164   0.476  13.737  0.2207 -0.0170  0.0513
  904MPD2    C213240   2.215   0.514  13.861  0.6757 -0.3197  0.5131
  904MPD2    C313241   2.340   0.562  13.872 -0.0316 -0.1842 -0.0023
  904MPD2    C413242   2.418   0.565  13.764  0.0425 -0.0234  0.4189
  904MPD2    C513243   2.374   0.516  13.641 -0.5464 -0.5773 -0.2281
  904MPD2     H13244   2.153   0.508  13.950  1.0745 -1.1511  0.7230
  904MPD2    H113245   2.519   0.602  13.751  0.8318 -1.8816  1.2588
  904MPD2    H213246   2.214   0.446  13.529 -0.1059  0.9004  0.0813
  904MPD2    H313247   2.436   0.522  13.552 -0.3863 -0.8524 -0.1318
  904MPD2     N13248   2.394   0.595  13.995  0.0324  0.1326 -0.0548
  904MPD2    H513249   2.334   0.556  14.067  0.6625 -1.4728 -0.4132
  904MPD2    N113250   2.033   0.430  13.717  0.0720 -0.1244  0.3539
  904MPD2    H713251   1.992   0.396  13.630 -0.5238 -2.1371  1.4333
  905MPD2     C13252   2.129   0.667  13.192  0.3990  0.0900 -0.0987
  905MPD2    C113253   2.118   0.700  13.323 -0.1604  0.0196  0.3739
  905MPD2    C213254   2.236   0.742  13.392  0.1170  0.9730 -0.2862
  905MPD2    C313255   2.362   0.719  13.327  0.8067  0.5405 -0.4231
  905MPD2    C413256   2.365   0.669  13.200  0.4432  0.1415  0.0809
  905MPD2    C513257   2.249   0.650  13.137 -0.3046 -0.4737 -0.4162
  905MPD2     H13258   2.232   0.778  13.494 -1.1312 -1.3173  0.4824
  905MPD2    H113259   2.458   0.643  13.151 -0.5013  0.1617 -1.7544
  905MPD2    H213260   2.039   0.648  13.135  0.1025 -3.5242  1.5673
  905MPD2    H313261   2.248   0.613  13.035 -0.5145 -1.2348 -0.1390
  905MPD2     N13262   2.484   0.749  13.399 -0.9279  0.3256 -0.3893
  905MPD2    H513263   2.477   0.788  13.493 -0.6689  0.8735 -0.5963
  905MPD2    N113264   1.993   0.687  13.383  0.3589  0.6789 -0.1988
  905MPD2    H713265   1.917   0.657  13.323  0.4183  1.5620 -0.7168
  906MPD2     C13266   0.281   0.307  11.953  0.1577 -0.3027 -0.5430
  906MPD2    C113267   0.242   0.276  11.827 -0.6064  0.2499 -0.4592
  906MPD2    C213268   0.137   0.190  11.809  0.2550 -0.3359 -0.0469
  906MPD2    C313269   0.059   0.146  11.912 -0.2390  0.3168  0.3946
  906MPD2    C413270   0.096   0.175  12.037  0.3939  0.1790 -0.5255
  906MPD2    C513271   0.207   0.256  12.055  0.1126 -0.8075  0.4537
  906MPD2     H13272   0.124   0.146  11.711  0.6336  0.0624 -0.2755
  906MPD2    H113273   0.036   0.157  12.126  0.4991  2.2268 -0.0489
  906MPD2    H213274   0.372   0.364  11.972 -1.4457  2.0798  0.0005
  906MPD2    H313275   0.230   0.288  12.157  0.9075  0.6926 -0.1910
  906MPD2     N13276   4.663   0.068  11.895  0.1157  0.7057 -0.4246
  906MPD2    H513277   4.630   0.006  11.968  2.2115 -1.3381 -1.2006
  906MPD2    N113278   0.296   0.321  11.707  0.9504  0.3283  0.2482
  906MPD2    H713279   0.246   0.281  11.629  0.4645 -2.8245  2.1487
  907MPD2     C13280   3.311   4.162  15.776  0.1538  0.2853 -0.3456
  907MPD2    C113281   3.368   4.033  15.802 -0.4246 -0.3335  0.3269
  907MPD2    C213282   3.432   4.010  15.924  0.5239  0.4154  0.0445
  907MPD2    C313283   3.455   4.113  16.016  0.6685 -0.2058 -0.5458
  907MPD2    C413284   3.401   4.240  15.987 -0.0095  0.8821  0.2070
  907MPD2    C513285   3.331   4.263  15.871 -0.6746 -0.0457  0.6764
  907MPD2     H13286   3.470   3.911  15.947  1.8788  1.1240  0.8692
  907MPD2    H113287   3.419   4.323  16.055  0.4918  0.5106  0.5273
  907MPD2    H213288   3.253   4.183  15.687  1.1745  0.9365 -0.8667
  907MPD2    H313289   3.302   4.367  15.857 -1.7147 -0.7733 -2.6788
  907MPD2     N13290   3.534   4.085  16.138 -0.0424 -0.5653  0.7301
  907MPD2    H513291   3.544   3.985  16.151 -0.1111 -0.4881  1.4002
  907MPD2    N113292   3.362   3.925  15.709  0.0142  0.1942 -0.0346
  907MPD2    H713293   3.390   3.833  15.739  0.1691  0.5651  0.9628
  908MPD2     C13294   1.709   0.615   9.702 -0.2004 -0.3869 -0.0456
  908MPD2    C113295   1.649   0.513   9.773  0.3008  1.0218 -0.5972
  908MPD2    C213296   1.611   0.549   9.901  0.3807  0.9453 -0.3646
  908MPD2    C313297   1.632   0.675   9.950  0.0367  0.4572  0.3913
  908MPD2    C413298   1.698   0.775   9.875 -0.7913  0.0127 -0.0903
  908MPD2    C513299   1.736   0.741   9.747  0.8379  0.6772  0.0053
  908MPD2     H13300   1.562   0.474   9.962 -0.2579  0.4248 -1.5020
  908MPD2    H113301   1.735   0.869   9.913  1.1251 -1.4280  1.5719
  908MPD2    H213302   1.732   0.584   9.601  2.1656 -1.4840  0.8231
  908MPD2    H313303   1.790   0.818   9.694 -0.2318  1.7735  0.5160
  908MPD2     N13304   1.581   0.706  10.079 -0.2288 -0.2979 -0.0778
  908MPD2    H513305   1.518   0.638  10.120 -1.0208 -0.0529 -0.8855
  908MPD2    N113306   1.622   0.384   9.708 -0.1999  0.4323  0.0886
  908MPD2    H713307   1.657   0.376   9.614 -2.1128  0.0125 -0.5912
  909MPD2     C13308   1.847   2.829  11.879 -0.1590 -0.2525 -0.0811
  909MPD2    C113309   1.849   2.960  11.850 -0.2264 -0.1710  0.3538
  909MPD2    C213310   1.810   3.055  11.936 -0.2892 -0.5867  0.6271
  909MPD2    C313311   1.763   3.019  12.061 -0.0083 -0.2063 -0.4146
  909MPD2    C413312   1.755   2.883  12.097 -0.7367  0.4564  0.2871
  909MPD2    C513313   1.804   2.788  12.006 -0.3678  0.3088  1.1565
  909MPD2     H13314   1.817   3.158  11.902 -0.6151 -1.5274 -2.3014
  909MPD2    H113315   1.713   2.854  12.192  2.0926 -0.8243  1.1688
  909MPD2    H213316   1.876   2.752  11.808  1.9129  1.0485 -0.6515
  909MPD2    H313317   1.800   2.682  12.029 -0.2376 -0.3030 -1.6812
  909MPD2     N13318   1.713   3.123  12.151 -0.4104 -0.7809 -0.1936
  909MPD2    H513319   1.708   3.216  12.110  1.5123 -0.9077 -0.7246
  909MPD2    N113320   1.896   3.014  11.728 -0.4012 -0.7622  0.2248
  909MPD2    H713321   1.899   3.115  11.717 -1.8386 -0.9888 -2.1534
  910MPD2     C13322   2.519   4.721  16.131  1.0115  0.5624 -0.0737
  910MPD2    C113323   2.576   4.686  16.012 -0.1968 -0.4317 -0.4345
  910MPD2    C213324   2.507   4.699  15.893  0.0058 -0.2290 -0.3405
  910MPD2    C313325   2.370   0.016  15.892 -0.5764  0.0753  0.1391
  910MPD2    C413326   2.318   0.041  16.019 -0.8418 -0.4372 -0.1869
  910MPD2    C513327   2.387   0.028  16.128 -0.6571 -0.2620 -0.1827
  910MPD2     H13328   2.546   4.677  15.794  0.7310 -1.1829  0.1714
  910MPD2    H113329   2.214   0.067  16.034 -0.4837  0.7870  0.2268
  910MPD2    H213330   2.574   4.707  16.223  0.1422  0.9509  0.5072
  910MPD2    H313331   2.347   0.053  16.226 -0.5650  0.3764 -0.3089
  910MPD2     N13332   2.288   0.026  15.785  0.7519 -0.3703 -0.3826
  910MPD2    H513333   2.192   0.057  15.801  0.8567  0.3456 -1.1234
  910MPD2    N113334   2.708   4.636  16.014 -0.6653  0.5327  0.6280
  910MPD2    H713335   2.733   4.592  15.926 -0.9748 -2.0259  1.8055
  911MPD2     C13336   0.835   0.524  16.114  0.0142 -0.0880  0.2643
  911MPD2    C113337   0.816   0.509  16.250  0.0974 -0.0150 -0.1553
  911MPD2    C213338   0.709   0.580  16.302  0.5413 -0.3389  0.2594
  911MPD2    C313339   0.636   0.673  16.228 -0.5631 -0.7164 -0.0796
  911MPD2    C413340   0.661   0.685  16.096  0.6094  0.0708  0.1771
  911MPD2    C513341   0.756   0.603  16.035 -0.7045 -0.4339  0.4139
  911MPD2     H13342   0.682   0.577  16.407  0.6152  0.0804  0.2884
  911MPD2    H113343   0.607   0.756  16.035 -1.8147 -1.4266  0.5895
  911MPD2    H213344   0.920   0.476  16.066  1.2925  1.4586  0.9700
  911MPD2    H313345   0.774   0.612  15.929  2.1548 -1.0303  0.8423
  911MPD2     N13346   0.530   0.757  16.271  0.2630 -0.6023  0.0577
  911MPD2    H513347   0.473   0.800  16.199 -0.6155 -2.6962 -0.4963
  911MPD2    N113348   0.906   0.428  16.319 -0.1550 -0.4196 -0.3160
  911MPD2    H713349   0.984   0.392  16.265  0.7966 -0.4403  1.0639
  912MPD2     C13350   0.263   0.729  15.859  0.1873  0.6010  0.7166
  912MPD2    C113351   0.231   0.732  15.990  0.6460 -0.2265 -0.0904
  912MPD2    C213352   0.283   0.628  16.062  0.0703 -0.3051  0.3795
  912MPD2    C313353   0.368   0.537  16.005 -0.4662  0.5390  0.0811
  912MPD2    C413354   0.405   0.536  15.870 -0.4730 -0.6256  0.5596
  912MPD2    C513355   0.345   0.636  15.795  0.0418 -0.3187 -0.0289
  912MPD2     H13356   0.252   0.617  16.165 -0.6891  1.4980  0.3402
  912MPD2    H113357   0.459   0.459  15.816 -0.9005  0.3478 -1.2593
  912MPD2    H213358   0.219   0.805  15.796 -0.2526 -1.0876 -1.0213
  912MPD2    H313359   0.371   0.644  15.691  0.2372  2.3894  0.2361
  912MPD2     N13360   0.410   0.441  16.094  0.1935  0.0813 -0.5828
  912MPD2    H513361   0.375   0.443  16.189  1.0507  1.7783 -0.3035
  912MPD2    N113362   0.152   0.838  16.041 -0.4533  0.4128  0.3275
  912MPD2    H713363   0.151   0.927  15.994 -0.7867  0.3885  0.2904
  913MPD2     C13364   1.815   1.942  10.652 -0.3995  0.3805  0.0564
  913MPD2    C113365   1.859   1.863  10.543  0.5026  0.9886 -0.1258
  913MPD2    C213366   1.770   1.829  10.445 -0.5939  0.4878  0.4829
  913MPD2    C313367   1.634   1.864  10.451 -0.2289 -0.1175  0.2362
  913MPD2    C413368   1.593   1.937  10.558  0.5504  0.6032 -0.0166
  913MPD2    C513369   1.686   1.976  10.653  0.3946 -0.3738  0.1218
  913MPD2     H13370   1.800   1.756  10.370 -2.6247 -1.5841  1.6902
  913MPD2    H113371   1.491   1.968  10.581  0.0751 -0.4623 -0.6696
  913MPD2    H213372   1.876   1.975  10.735  1.6646 -2.6551 -0.2400
  913MPD2    H313373   1.663   2.033  10.742 -2.9077 -1.4702 -0.0244
  913MPD2     N13374   1.541   1.831  10.353 -0.2687 -0.0793 -0.3848
  913MPD2    H513375   1.448   1.873  10.357  0.5450  1.5529  1.4055
  913MPD2    N113376   1.994   1.827  10.534 -0.1262  0.3785 -0.3884
  913MPD2    H713377   2.056   1.866  10.605  1.2845 -1.4079 -0.6460
  914MPD2     C13378   3.600   2.365  12.175 -0.8742  0.6061  1.0386
  914MPD2    C113379   3.624   2.440  12.284  0.6505 -0.3617 -0.2706
  914MPD2    C213380   3.657   2.380  12.400  0.4241 -0.7881  0.3404
  914MPD2    C313381   3.674   2.242  12.407 -0.1487 -0.1372  0.1412
  914MPD2    C413382   3.649   2.164  12.295  0.1711  0.0092 -0.0844
  914MPD2    C513383   3.616   2.228  12.181 -0.6676 -0.4208 -0.5097
  914MPD2     H13384   3.663   2.446  12.485  0.6054 -0.0429 -0.2531
  914MPD2    H113385   3.657   2.056  12.302 -0.6599 -0.1208 -1.2200
  914MPD2    H213386   3.581   2.414  12.080  3.0686 -0.4164 -0.2460
  914MPD2    H313387   3.594   2.161  12.098  0.9554 -0.7022 -0.7142
  914MPD2     N13388   3.705   2.188  12.534 -0.7778  0.1472  0.6925
  914MPD2    H513389   3.712   2.254  12.611  0.5246 -0.2245  0.8981
  914MPD2    N113390   3.600   2.579  12.290  0.0550  0.6464  0.4934
  914MPD2    H713391   3.593   2.628  12.379  2.6183 -0.9912  1.6162
  915MPD2     C13392   1.683   1.890  15.962  0.0647  0.1368  0.1308
  915MPD2    C113393   1.562   1.843  16.007  0.4000 -0.1616  1.5496
  915MPD2    C213394   1.509   1.890  16.128 -0.6902  0.0483  0.6111
  915MPD2    C313395   1.583   1.969  16.201  0.1315 -0.4808 -0.1323
  915MPD2    C413396   1.712   2.006  16.170  0.0459 -0.5936  0.2492
  915MPD2    C513397   1.754   1.966  16.047 -0.3853 -0.2475  0.1900
  915MPD2     H13398   1.405   1.877  16.155 -1.1624  0.5027 -1.0025
  915MPD2    H113399   1.772   2.076  16.226  1.0253 -1.4499  0.2612
  915MPD2    H213400   1.712   1.874  15.859  2.6698 -0.5618  0.9890
  915MPD2    H313401   1.853   1.995  16.012 -0.0358 -0.1404  1.2526
  915MPD2     N13402   1.522   2.037  16.318  0.0158 -0.1281  0.1112
  915MPD2    H513403   1.423   2.030  16.343 -0.6932 -2.1701 -3.3548
  915MPD2    N113404   1.493   1.759  15.916  0.9797 -0.1669  0.1431
  915MPD2    H713405   1.527   1.752  15.821 -0.9798 -1.3916 -0.4715
  916MPD2     C13406   0.033   0.461  15.892 -0.6382 -0.3335 -0.4226
  916MPD2    C113407   0.039   0.359  15.981 -0.1087 -0.5027  0.1251
  916MPD2    C213408   0.065   0.232  15.936  0.8085  0.3607  0.0596
  916MPD2    C313409   0.098   0.204  15.807 -0.2145 -0.4269 -0.0998
  916MPD2    C413410   0.086   0.306  15.715  0.3410  1.1374  0.7479
  916MPD2    C513411   0.055   0.439  15.762 -0.2774  0.0699  0.7245
  916MPD2     H13412   0.073   0.149  16.005  0.9221 -0.8010 -1.3471
  916MPD2    H113413   0.089   0.280  15.609 -0.3516  0.8397  0.8010
  916MPD2    H213414   0.013   0.561  15.929 -1.6312  0.2454 -2.5657
  916MPD2    H313415   0.044   0.517  15.686  0.4653  1.7026  2.2904
  916MPD2     N13416   0.145   0.072  15.784 -0.4600  0.3570  1.0146
  916MPD2    H513417   0.144   0.011  15.864 -1.0797 -0.4056  0.4318
  916MPD2    N113418   0.019   0.391  16.117  0.0036 -0.2067 -0.0489
  916MPD2    H713419   0.013   0.490  16.135  0.3515  0.2744 -2.6335
  917MPD2     C13420   0.594   2.583  11.378 -0.6549  0.4717  0.3639
  917MPD2    C113421   0.610   2.688  11.475 -0.5346 -0.3826  0.4037
  917MPD2    C213422   0.721   2.774  11.464  0.3526  0.1146  0.2941
  917MPD2    C313423   0.790   2.773  11.344  0.5455 -0.2847 -0.7960
  917MPD2    C413424   0.775   2.674  11.252 -0.0240 -0.2066 -0.4665
  917MPD2    C513425   0.686   2.570  11.278  0.4922  0.4217  1.2714
  917MPD2     H13426   0.746   2.848  11.539 -0.2144 -0.7300  1.3159
  917MPD2    H113427   0.835   2.668  11.161  0.3764  0.3880 -0.2412
  917MPD2    H213428   0.510   2.515  11.391 -0.2487 -0.0567  0.2238
  917MPD2    H313429   0.679   2.484  11.213  0.3957  0.0836  1.7348
  917MPD2     N13430   0.894   2.866  11.309  0.0217  0.3060  0.2291
  917MPD2    H513431   0.953   2.846  11.229  0.7038 -1.3979  1.1675
  917MPD2    N113432   0.522   2.678  11.582 -0.8371  0.4158 -0.9475
  917MPD2    H713433   0.453   2.604  11.579  0.8813 -1.2143  0.0527
  918MPD2     C13434   0.591   3.076  12.542  0.0142 -0.4089  0.0785
  918MPD2    C113435   0.686   3.008  12.467 -0.4389 -0.0274  0.8775
  918MPD2    C213436   0.646   2.939  12.355  0.4538  0.4318 -0.2236
  918MPD2    C313437   0.520   2.931  12.317 -0.4064  0.0358 -0.6142
  918MPD2    C413438   0.422   2.996  12.395 -0.1517 -0.0849 -0.6173
  918MPD2    C513439   0.457   3.066  12.511  0.1474 -0.2744 -0.0366
  918MPD2     H13440   0.724   2.895  12.293  0.8608 -1.9074  1.9601
  918MPD2    H113441   0.321   3.000  12.355 -0.0593  0.3805 -0.8036
  918MPD2    H213442   0.616   3.145  12.622 -0.7016  1.0229 -0.9318
  918MPD2    H313443   0.389   3.119  12.577  2.8323  2.3740  0.6399
  918MPD2     N13444   0.488   2.880  12.191  0.0158  0.5532  0.2065
  918MPD2    H513445   0.563   2.848  12.131  0.4201 -0.0634  1.0255
  918MPD2    N113446   0.816   2.999  12.509 -0.1146 -0.8118  0.3111
  918MPD2    H713447   0.873   2.932  12.458 -0.7896 -1.4461  0.3917
  919MPD2     C13448   0.990   1.950  11.818 -0.4396  0.1868 -0.4741
  919MPD2    C113449   1.058   1.836  11.814 -0.6256 -0.1211 -0.1645
  919MPD2    C213450   1.126   1.796  11.700  0.3170  0.0082  0.1948
  919MPD2    C313451   1.133   1.880  11.592  0.3599 -0.2396 -0.0997
  919MPD2    C413452   1.070   1.999  11.599 -0.0080 -0.0510 -0.0641
  919MPD2    C513453   0.995   2.032  11.705 -0.6010  0.4456  0.3005
  919MPD2     H13454   1.182   1.703  11.699  0.6057  0.1797  2.0896
  919MPD2    H113455   1.081   2.078  11.526 -0.5493  0.2504  0.1776
  919MPD2    H213456   0.918   1.976  11.894 -1.0547 -1.3745 -0.5317
  919MPD2    H313457   0.940   2.125  11.697 -0.4791  0.6032  1.3605
  919MPD2     N13458   1.208   1.851  11.476  0.3399 -0.2555 -0.1997
  919MPD2    H513459   1.198   1.916  11.398 -0.0910 -0.6373 -0.4655
  919MPD2    N113460   1.061   1.746  11.921  0.1296 -0.4611  0.3921
  919MPD2    H713461   1.110   1.658  11.909 -0.4394 -0.5416 -1.3425
  920MPD2     C13462   1.289   2.275  10.627 -0.5024 -0.4235  0.4911
  920MPD2    C113463   1.206   2.162  10.664 -0.9247  0.4810  0.6820
  920MPD2    C213464   1.244   2.083  10.767 -0.1571  0.1395  0.3905
  920MPD2    C313465   1.358   2.116  10.840  0.0192  0.4463  0.5197
  920MPD2    C413466   1.443   2.214  10.799 -0.6008  0.0606 -0.3258
  920MPD2    C513467   1.413   2.291  10.692 -0.0752 -0.2019 -0.0620
  920MPD2     H13468   1.180   2.001  10.798 -0.9879 -0.1410 -2.0686
  920MPD2    H113469   1.540   2.228  10.846 -1.2966  1.5880  0.6435
  920MPD2    H213470   1.268   2.342  10.544 -1.3528 -0.4038  0.7194
  920MPD2    H313471   1.482   2.368  10.661  0.5623 -1.0543 -0.7293
  920MPD2     N13472   1.393   2.042  10.958 -0.4713  0.3350 -0.3167
  920MPD2    H513473   1.479   2.069  11.005 -0.0502 -0.8261 -0.4178
  920MPD2    N113474   1.075   2.137  10.604 -0.1573 -0.1149 -0.1008
  920MPD2    H713475   1.019   2.064  10.648 -0.8695  0.5873  0.1699
  921MPD2     C13476   1.474   0.910  16.847  0.2012  0.2852  0.0037
  921MPD2    C113477   1.559   0.799  16.811 -0.3734 -0.1541 -0.1193
  921MPD2    C213478   1.499   0.688  16.759 -0.2754  0.6088 -0.9472
  921MPD2    C313479   1.361   0.684  16.735 -0.5029 -0.2812  0.0517
  921MPD2    C413480   1.280   0.793  16.763  0.7493 -0.3589 -0.3043
  921MPD2    C513481   1.335   0.905  16.818 -0.2907  0.8367 -0.4023
  921MPD2     H13482   1.559   0.600  16.737 -0.7072  0.1808 -0.4078
  921MPD2    H113483   1.174   0.803  16.743  1.0988 -0.1868 -2.0756
  921MPD2    H213484   1.515   0.995  16.899  1.1055  0.4213 -0.9229
  921MPD2    H313485   1.269   0.985  16.848 -1.1441 -0.0717  0.1455
  921MPD2     N13486   1.281   0.580  16.692  0.6967 -0.4965 -0.2601
  921MPD2    H513487   1.185   0.601  16.668  0.6378  0.9730  1.2407
  921MPD2    N113488   1.697   0.813  16.835  0.0843  0.1717  0.5790
  921MPD2    H713489   1.719   0.901  16.881 -0.2127  1.4797 -1.7516
  922MPD2     C13490   2.425   3.398  16.701 -0.5152  0.0910  0.0346
  922MPD2    C113491   2.467   3.350  16.825 -0.3004 -0.0929 -0.0494
  922MPD2    C213492   2.367   3.289  16.907 -0.2442 -0.1315  1.0025
  922MPD2    C313493   2.240   3.267  16.856 -0.1410 -0.1148 -0.0606
  922MPD2    C413494   2.208   3.302  16.729 -0.1451 -0.7710  0.5672
  922MPD2    C513495   2.301   3.370  16.652 -0.0757 -0.7875  0.3102
  922MPD2     H13496   2.398   3.259  17.007 -1.9399 -0.1619  1.5237
  922MPD2    H113497   2.107   3.302  16.691  0.5479  1.7537 -1.2204
  922MPD2    H213498   2.496   3.466  16.657  0.6513 -1.2878 -0.2233
  922MPD2    H313499   2.268   3.409  16.556  0.3862  1.4714  1.0687
  922MPD2     N13500   2.133   3.209  16.925 -0.6341 -0.3082 -0.1722
  922MPD2    H513501   2.047   3.208  16.870 -0.0110  1.8578 -1.2046
  922MPD2    N113502   2.593   3.375  16.874  0.3173  0.0090  0.0366
  922MPD2    H713503   2.614   3.351  16.970 -1.4099  0.6708  0.5846
  923MPD2     C13504   4.496   1.172  10.673 -0.3583  0.8621 -0.4933
  923MPD2    C113505   4.459   1.143  10.545 -0.0308 -0.1045  0.3624
  923MPD2    C213506   4.330   1.164  10.496  0.8004 -0.6264 -0.7709
  923MPD2    C313507   4.241   1.215  10.582 -0.2873 -0.1671  0.1394
  923MPD2    C413508   4.272   1.232  10.723 -0.1012  0.0346 -0.0503
  923MPD2    C513509   4.397   1.205  10.761  0.1873 -0.6128  0.0089
  923MPD2     H13510   4.311   1.140  10.392  0.7854  0.8419 -1.1076
  923MPD2    H113511   4.199   1.262  10.798 -1.1425  0.1390 -1.0916
  923MPD2    H213512   4.594   1.164  10.719 -1.5156  0.1788  1.8330
  923MPD2    H313513   4.415   1.225  10.866  3.0266 -1.9877 -0.2188
  923MPD2     N13514   4.109   1.241  10.549  0.3900  0.1559  0.3349
  923MPD2    H513515   4.039   1.252  10.621 -1.7645  0.1668 -1.7552
  923MPD2    N113516   4.558   1.093  10.448  0.0884 -0.2467 -0.4602
  923MPD2    H713517   4.648   1.065  10.487  0.2541  1.4635  0.4206
  924MPD2     C13518   3.870   3.432  16.068  0.3495 -0.1748 -0.0594
  924MPD2    C113519   3.793   3.426  16.181 -0.0320  0.2678 -0.0370
  924MPD2    C213520   3.795   3.533  16.265 -0.0233 -1.2100  0.4208
  924MPD2    C313521   3.852   3.654  16.225 -0.1459  0.4716 -0.3319
  924MPD2    C413522   3.926   3.654  16.105 -0.3000  0.4783  0.0012
  924MPD2    C513523   3.936   3.547  16.031  0.4762 -0.2961 -0.0265
  924MPD2     H13524   3.750   3.535  16.364  0.9869  2.2005  0.7979
  924MPD2    H113525   3.996   3.734  16.083 -1.7148  1.5127 -0.7276
  924MPD2    H213526   3.885   3.350  15.998  0.2414 -0.8198  0.6658
  924MPD2    H313527   4.007   3.546  15.949 -0.8187 -0.5566 -1.1542
  924MPD2     N13528   3.847   3.773  16.298 -0.2938  0.2035  0.5848
  924MPD2    H513529   3.890   3.853  16.253 -0.2071  0.6099  1.3868
  924MPD2    N113530   3.727   3.306  16.213 -0.0291  0.2652 -0.0453
  924MPD2    H713531   3.761   3.228  16.156 -1.4372 -1.3466  1.3274
  925MPD2     C13532   2.424   1.242  14.799  0.0405 -0.0109  0.2025
  925MPD2    C113533   2.291   1.214  14.766 -0.8653  0.3056  0.0970
  925MPD2    C213534   2.211   1.177  14.874 -0.2064  0.0513 -0.3305
  925MPD2    C313535   2.251   1.175  15.008  0.3158 -0.4973 -0.1800
  925MPD2    C413536   2.387   1.185  15.030 -0.6145 -0.0814  0.5298
  925MPD2    C513537   2.472   1.219  14.925  0.2891  0.2057 -0.1505
  925MPD2     H13538   2.105   1.171  14.854 -0.2328 -0.7735  0.0386
  925MPD2    H113539   2.428   1.181  15.130  0.3850 -0.3099  0.1024
  925MPD2    H213540   2.500   1.258  14.723 -0.8202  0.3207 -0.5785
  925MPD2    H313541   2.576   1.242  14.945 -0.2783 -0.0878  3.2419
  925MPD2     N13542   2.176   1.147  15.123  0.4160  0.1860  0.0428
  925MPD2    H513543   2.223   1.130  15.211 -2.0994  0.5032  1.4473
  925MPD2    N113544   2.240   1.198  14.634 -0.0442 -0.0030  0.4594
  925MPD2    H713545   2.155   1.141  14.636 -0.5177  0.6843 -0.3794
  926MPD2     C13546   2.161   4.503  13.388 -0.2536 -0.6918 -0.6164
  926MPD2    C113547   2.046   4.548  13.321  0.3569 -0.1837 -0.5451
  926MPD2    C213548   2.058   4.605  13.196 -0.3225 -0.0459  0.5058
  926MPD2    C313549   2.174   4.623  13.131 -0.7316  0.3394 -0.5456
  926MPD2    C413550   2.285   4.574  13.201 -0.6418  0.1403  0.3542
  926MPD2    C513551   2.280   4.516  13.326 -0.2141  0.7204 -1.1119
  926MPD2     H13552   1.969   4.656  13.163  0.2471  1.9773  2.0900
  926MPD2    H113553   2.385   4.577  13.159 -0.8832 -0.8990 -0.3038
  926MPD2    H213554   2.155   4.457  13.486 -2.2470 -4.2055 -2.3870
  926MPD2    H313555   2.372   4.477  13.368  0.5049  1.4910 -1.9611
  926MPD2     N13556   2.187   4.693  13.014 -0.2106  1.2447 -1.0535
  926MPD2    H513557   2.280   4.721  12.986  0.2116  0.6509 -0.2409
  926MPD2    N113558   1.921   4.548  13.378  0.3887  0.0474  0.4267
  926MPD2    H713559   1.844   4.590  13.327 -0.5360 -0.2400  1.5857
  927MPD2     C13560   0.365   2.160   0.321  0.4168  0.0896  0.2282
  927MPD2    C113561   0.423   2.032   0.318 -0.3701  0.3343 -0.0608
  927MPD2    C213562   0.535   2.009   0.245  0.4644  0.2004  0.6482
  927MPD2    C313563   0.597   2.118   0.182  0.2898 -0.2284  0.8580
  927MPD2    C413564   0.545   2.249   0.194 -0.0908  0.2145 -0.0465
  927MPD2    C513565   0.435   2.268   0.267 -0.3640 -0.2972 -0.4664
  927MPD2     H13566   0.576   1.909   0.238  0.3663  0.2012  0.0587
  927MPD2    H113567   0.589   2.335   0.144  0.8369  0.6456  1.5193
  927MPD2    H213568   0.280   2.186   0.382 -0.4594 -1.7219 -0.2173
  927MPD2    H313569   0.396   2.367   0.288  2.1813  0.6300 -0.1128
  927MPD2     N13570   0.719   2.095   0.111 -0.3342 -0.1931 -0.1199
  927MPD2    H513571   0.758   2.001   0.114 -2.2107 -0.9273  0.7577
  927MPD2    N113572   0.357   1.931   0.398  0.4254 -0.2754 -0.2702
  927MPD2    H713573   0.271   1.954   0.447 -1.0467 -1.4365 -2.3274
  928MPD2     C13574   3.405   4.152   0.586  0.2020  0.0534  0.0360
  928MPD2    C113575   3.381   4.276   0.647  0.0683 -0.2796 -0.6054
  928MPD2    C213576   3.426   4.387   0.592  0.3822 -0.3102  0.1938
  928MPD2    C313577   3.497   4.392   0.476 -0.2245  0.0112 -0.5131
  928MPD2    C413578   3.512   4.272   0.415  0.0421  0.2764  0.4865
  928MPD2    C513579   3.473   4.158   0.471 -0.3435  0.1142  0.6624
  928MPD2     H13580   3.417   4.477   0.652  0.3847 -0.8164  0.9532
  928MPD2    H113581   3.557   4.270   0.316 -0.1913  0.8375  0.3705
  928MPD2    H213582   3.369   4.058   0.625  1.1738  0.5272  2.1038
  928MPD2    H313583   3.479   4.061   0.424  0.7177 -0.3385  1.7154
  928MPD2     N13584   3.555   4.509   0.407  0.2346  0.2864  0.3705
  928MPD2    H513585   3.589   4.492   0.313  2.4936  1.3247  1.0215
  928MPD2    N113586   3.310   4.275   0.763 -0.7231 -0.3625 -0.1083
  928MPD2    H713587   3.271   4.188   0.796 -2.0384 -0.8255 -2.8529
  929MPD2     C13588   4.624   0.384  11.057 -0.3039  0.2588 -0.1954
  929MPD2    C113589   4.507   0.350  10.983 -0.2956 -0.6323  0.4453
  929MPD2    C213590   4.475   0.401  10.862 -0.3704  0.5255 -0.6883
  929MPD2    C313591   4.555   0.500  10.816 -0.2051  0.3985 -0.2237
  929MPD2    C413592   4.676   0.530  10.876  0.2589 -0.1501  0.1243
  929MPD2    C513593   4.709   0.464  10.989 -0.2317 -0.2065 -0.0091
  929MPD2     H13594   4.376   0.386  10.820 -0.9968  1.7568  0.3419
  929MPD2    H113595   0.027   0.595  10.834  0.4950  0.5632  1.6393
  929MPD2    H213596   4.648   0.342  11.154 -0.3880  1.2880  0.2666
  929MPD2    H313597   0.072   0.496  11.045 -0.1955  1.5195 -1.0920
  929MPD2     N13598   4.529   0.584  10.706 -0.3755  0.1335 -0.5261
  929MPD2    H513599   4.610   0.633  10.669 -1.3152  1.5693 -0.6829
  929MPD2    N113600   4.421   0.256  11.053 -0.8612 -0.2073  0.1897
  929MPD2    H713601   4.458   0.237  11.146 -1.1456 -0.9351  0.1486
  930MPD2     C13602   0.818   2.451  14.397  0.5380  0.5333 -0.6410
  930MPD2    C113603   0.707   2.519  14.351 -0.3717  0.0395 -0.5789
  930MPD2    C213604   0.621   2.460  14.264  0.3454  0.3334 -0.2624
  930MPD2    C313605   0.649   2.340  14.205  0.2673 -0.2880 -0.2190
  930MPD2    C413606   0.766   2.284  14.241 -0.1712 -0.9783  0.5287
  930MPD2    C513607   0.843   2.337  14.336  0.2007 -0.2173 -0.3015
  930MPD2     H13608   0.548   2.536  14.237  1.0214  1.1651  0.2499
  930MPD2    H113609   0.802   2.193  14.196  1.0606 -0.7515  1.0632
  930MPD2    H213610   0.872   2.490  14.483 -1.5093 -1.8437  1.7199
  930MPD2    H313611   0.930   2.276  14.358  0.6674  0.2334 -0.8811
  930MPD2     N13612   0.581   2.287  14.092 -0.2318  0.0742 -0.2466
  930MPD2    H513613   0.624   2.205  14.049  1.3190  1.4109 -1.2140
  930MPD2    N113614   0.667   2.651  14.395 -0.1106  0.4274 -0.2696
  930MPD2    H713615   0.585   2.689  14.348 -0.5542 -1.2574 -0.8342
  931MPD2     C13616   0.568   1.169   0.558 -0.1625 -0.0380 -0.5136
  931MPD2    C113617   0.494   1.227   0.663 -0.7298 -0.0233 -0.8925
  931MPD2    C213618   0.492   1.168   0.787  0.2623  0.2725  0.1864
  931MPD2    C313619   0.531   1.033   0.800  0.1877 -0.3017  0.4972
  931MPD2    C413620   0.602   0.979   0.693 -0.4069 -0.6565  0.8121
  931MPD2    C513621   0.619   1.047   0.572  0.2819 -0.4813 -0.5681
  931MPD2     H13622   0.444   1.224   0.867 -0.3779 -1.6153  1.1182
  931MPD2    H113623   0.635   0.876   0.703  0.7472 -0.5187 -1.4966
  931MPD2    H213624   0.591   1.224   0.468 -1.4239 -0.2709 -0.9842
  931MPD2    H313625   0.680   1.006   0.492 -0.0836 -0.4693 -0.8586
  931MPD2     N13626   0.498   0.954   0.910 -0.0096 -0.0566 -0.1926
  931MPD2    H513627   0.536   0.860   0.897  0.9419  0.6576 -2.4879
  931MPD2    N113628   0.427   1.352   0.638  0.7573  0.4149  0.3641
  931MPD2    H713629   0.439   1.399   0.549 -0.6518 -0.0752 -0.0801
  932MPD2     C13630   2.473   0.922  11.242 -0.9347 -0.3014 -0.9490
  932MPD2    C113631   2.555   0.994  11.325 -0.2697  0.1853 -0.1575
  932MPD2    C213632   2.626   0.935  11.430  0.2511 -0.1710 -0.5413
  932MPD2    C313633   2.601   0.800  11.454 -0.9461 -0.1122  0.3413
  932MPD2    C413634   2.530   0.732  11.361  0.2120 -0.1520 -0.3202
  932MPD2    C513635   2.448   0.794  11.272  0.0207  1.0819 -0.0084
  932MPD2     H13636   2.685   0.996  11.498 -1.5011 -1.0790  1.8104
  932MPD2    H113637   2.517   0.624  11.368  0.4113 -0.0998  0.7735
  932MPD2    H213638   2.408   0.970  11.170 -0.7506 -0.5352 -1.2658
  932MPD2    H313639   2.385   0.731  11.211  1.1920  1.3290 -1.4835
  932MPD2     N13640   2.672   0.722  11.549 -0.0276  0.2157  0.1601
  932MPD2    H513641   2.665   0.623  11.531  1.2035 -0.3525  2.7777
  932MPD2    N113642   2.573   1.135  11.312 -0.1386  0.7029  0.1496
  932MPD2    H713643   2.635   1.185  11.374  0.4290  0.8091 -0.5089
  933MPD2     C13644   2.704   4.374   1.444 -0.1635  0.4034 -0.0231
  933MPD2    C113645   2.772   4.457   1.357 -0.1231  0.2161 -0.3424
  933MPD2    C213646   2.732   4.588   1.339 -0.4461  0.1210  0.4029
  933MPD2    C313647   2.615   4.635   1.408 -0.1066 -0.0242 -0.6126
  933MPD2    C413648   2.550   4.552   1.497 -0.2957  0.3598 -0.4376
  933MPD2    C513649   2.608   4.434   1.529 -0.3699 -0.2186  0.7394
  933MPD2     H13650   2.765   4.661   1.265 -1.0983  1.6074  1.5628
  933MPD2    H113651   2.462   4.586   1.551 -1.8117 -1.0971 -2.0208
  933MPD2    H213652   2.747   4.276   1.459  1.6809  1.1925 -0.2747
  933MPD2    H313653   2.561   4.364   1.598  2.6513  0.2637  3.2620
  933MPD2     N13654   2.553   0.033   1.363  0.0616 -0.4355 -0.5477
  933MPD2    H513655   2.615   0.091   1.307  0.3164 -2.2291 -2.1307
  933MPD2    N113656   2.878   4.398   1.285 -0.3892 -0.1104  0.4042
  933MPD2    H713657   2.898   4.299   1.297 -1.6358 -0.8661 -3.7302
  934MPD2     C13658   4.182   2.696   2.135  0.8992  0.3746 -0.0108
  934MPD2    C113659   4.274   2.625   2.067  0.1482  0.4549  0.1968
  934MPD2    C213660   4.232   2.546   1.961  0.2793  0.0241 -0.0896
  934MPD2    C313661   4.098   2.528   1.934 -0.3662 -0.4434 -0.0130
  934MPD2    C413662   4.011   2.586   2.025  0.1488 -0.3076 -0.1355
  934MPD2    C513663   4.047   2.676   2.116  0.4392 -0.0976 -0.0579
  934MPD2     H13664   4.308   2.499   1.899  0.7910  0.3758  0.2707
  934MPD2    H113665   3.903   2.570   2.026  0.3487 -1.8250 -3.0576
  934MPD2    H213666   4.206   2.756   2.222 -1.7404  2.0535 -0.4358
  934MPD2    H313667   3.977   2.734   2.175 -0.1010  0.7005 -1.4945
  934MPD2     N13668   4.044   2.443   1.830  0.8096  0.0105 -0.1289
  934MPD2    H513669   3.943   2.448   1.816  0.9874  1.7607 -0.7027
  934MPD2    N113670   4.416   2.640   2.093 -0.3688 -0.1115 -0.0923
  934MPD2    H713671   4.477   2.586   2.032  1.5091 -0.6084  2.2043
  935MPD2     C13672   4.351   1.604   1.505  0.5656 -0.9568  0.4029
  935MPD2    C113673   4.266   1.638   1.394 -0.1054 -1.0506 -0.7025
  935MPD2    C213674   4.180   1.747   1.408  0.1742 -0.0558  0.3500
  935MPD2    C313675   4.179   1.818   1.528  0.1820  0.7603  0.1998
  935MPD2    C413676   4.270   1.792   1.631  0.6929 -0.7659  0.0513
  935MPD2    C513677   4.347   1.682   1.615 -0.1326  0.4067  0.8123
  935MPD2     H13678   4.106   1.770   1.332  0.2868  2.4701  1.0108
  935MPD2    H113679   4.271   1.855   1.720  3.1688 -1.3451  0.4424
  935MPD2    H213680   4.409   1.512   1.506  1.0924 -0.6414 -0.7552
  935MPD2    H313681   4.408   1.652   1.699  0.1786 -2.6588 -0.4762
  935MPD2     N13682   4.112   1.942   1.540 -0.2668 -0.0305 -0.0890
  935MPD2    H513683   4.136   1.983   1.630 -1.7249  1.2481 -0.2892
  935MPD2    N113684   4.262   1.562   1.272 -0.5671  0.1231 -0.5207
  935MPD2    H713685   4.212   1.605   1.195  0.8327  1.0201 -0.9212
  936MPD2     C13686   3.225   0.020  12.708  0.1150 -0.3464 -0.2634
  936MPD2    C113687   3.277   4.654  12.797  1.0200  0.5834  0.5100
  936MPD2    C213688   3.406   4.610  12.783 -0.1153  0.2000  0.5416
  936MPD2    C313689   3.486   4.673  12.691 -0.3150 -0.0462 -0.3953
  936MPD2    C413690   3.437   0.043  12.603 -0.0257 -0.0035 -0.4663
  936MPD2    C513691   3.303   0.077  12.610 -0.1268 -0.0167 -0.1780
  936MPD2     H13692   3.456   4.547  12.855 -1.0800 -0.2028  0.8503
  936MPD2    H113693   3.504   0.086  12.530  0.5445  1.0400  0.6752
  936MPD2    H213694   3.126   0.061  12.727  0.2877 -0.6299  1.2086
  936MPD2    H313695   3.269   0.166  12.558  1.1393 -0.8753 -2.4950
  936MPD2     N13696   3.618   4.634  12.705 -0.1187 -0.1731  0.1128
  936MPD2    H513697   3.635   4.571  12.783 -2.1521  0.1059  0.7698
  936MPD2    N113698   3.200   4.594  12.900 -0.1689  0.4181 -0.3967
  936MPD2    H713699   3.245   4.524  12.958  0.4954  0.0474 -1.3466
  937MPD2     C13700   1.131   1.051  11.913 -0.2667  0.1517  0.9208
  937MPD2    C113701   1.173   1.183  11.911  0.3888 -0.0980  0.6081
  937MPD2    C213702   1.261   1.217  11.812  0.5839  0.5656 -0.0979
  937MPD2    C313703   1.318   1.131  11.724  0.6429 -0.4424 -0.0005
  937MPD2    C413704   1.279   0.998  11.728 -0.3008  0.4893 -0.4279
  937MPD2    C513705   1.191   0.960  11.828  0.7232  0.5427  0.1421
  937MPD2     H13706   1.289   1.322  11.803 -0.3205  1.0610  2.7978
  937MPD2    H113707   1.305   0.919  11.658 -1.2857 -0.3424  0.1417
  937MPD2    H213708   1.064   1.011  11.988  0.6242 -1.3891  0.8953
  937MPD2    H313709   1.156   0.857  11.828  2.4865 -0.0545 -0.1347
  937MPD2     N13710   1.396   1.184  11.617 -0.5190  0.3897  0.3316
  937MPD2    H513711   1.433   1.277  11.633  0.9018 -0.4363  1.8531
  937MPD2    N113712   1.105   1.293  11.965 -0.1951  0.0926  0.0888
  937MPD2    H713713   1.143   1.383  11.937  1.1761 -0.8169 -0.9879
  938MPD2     C13714   3.431   1.884   0.803 -0.2604  0.1096 -0.0563
  938MPD2    C113715   3.409   1.979   0.892 -0.5593  1.1177  0.1938
  938MPD2    C213716   3.379   1.944   1.021  0.4973  0.2435  0.4014
  938MPD2    C313717   3.373   1.811   1.071 -0.7734  0.2758 -0.1415
  938MPD2    C413718   3.399   1.717   0.974 -0.3684  0.1930  0.5247
  938MPD2    C513719   3.443   1.752   0.846 -0.0234  0.1432  0.4467
  938MPD2     H13720   3.371   2.029   1.088 -1.4869  0.4276 -0.0695
  938MPD2    H113721   3.414   1.612   0.996 -0.9905 -0.4601 -2.1218
  938MPD2    H213722   3.450   1.904   0.698 -0.1616 -0.3015 -0.1172
  938MPD2    H313723   3.488   1.674   0.786 -0.3549 -0.9918  1.6909
  938MPD2     N13724   3.349   1.772   1.202 -0.1198 -0.1477 -0.4902
  938MPD2    H513725   3.366   1.674   1.225 -0.1897  0.4654  2.2063
  938MPD2    N113726   3.421   2.117   0.859 -0.9598 -0.0877  0.1059
  938MPD2    H713727   3.397   2.186   0.930  0.7466  2.7876 -2.1213
  939MPD2     C13728   0.477   3.755   1.116 -0.2186  0.5525  0.1692
  939MPD2    C113729   0.574   3.682   1.181 -0.2812  0.4324 -0.0247
  939MPD2    C213730   0.698   3.679   1.117 -0.5190  0.0483  0.0658
  939MPD2    C313731   0.723   3.740   0.991  0.6942  0.4018  0.5210
  939MPD2    C413732   0.625   3.821   0.933  0.4852 -0.0445 -0.3253
  939MPD2    C513733   0.498   3.820   0.991  0.3066 -0.1851  0.2620
  939MPD2     H13734   0.781   3.626   1.161 -0.3032  0.0095 -0.3883
  939MPD2    H113735   0.630   3.866   0.835  1.1397 -1.2469 -0.8412
  939MPD2    H213736   0.375   3.768   1.150 -0.4370 -5.5818  1.7496
  939MPD2    H313737   0.418   3.872   0.940  1.7525  2.7578  1.0202
  939MPD2     N13738   0.844   3.722   0.929  0.1436 -0.3381  0.1182
  939MPD2    H513739   0.903   3.658   0.982  1.3453  1.1753  0.6068
  939MPD2    N113740   0.539   3.613   1.296 -0.0387  0.4254 -0.6737
  939MPD2    H713741   0.439   3.617   1.316  0.2977 -0.7899  1.2307
  940MPD2     C13742   4.075   3.929  14.477 -0.2364 -0.4119  0.3667
  940MPD2    C113743   3.948   3.966  14.447 -0.4128 -0.1678 -0.5966
  940MPD2    C213744   3.910   4.000  14.319 -0.3656 -0.3883  0.3239
  940MPD2    C313745   4.003   4.011  14.220 -0.3349 -0.5966  0.1274
  940MPD2    C413746   4.135   3.987  14.254  0.0006  0.2878 -0.3249
  940MPD2    C513747   4.172   3.943  14.377 -0.2379 -0.0157  0.0733
  940MPD2     H13748   3.807   4.019  14.293 -0.1868 -0.1900 -0.2366
  940MPD2    H113749   4.211   3.989  14.176 -0.9956 -0.2790 -1.3031
  940MPD2    H213750   4.105   3.917  14.581  3.0934  3.7913 -0.0878
  940MPD2    H313751   4.273   3.912  14.400 -0.7797 -2.7404 -1.2295
  940MPD2     N13752   3.972   4.062  14.095 -0.1494 -1.0165 -0.1058
  940MPD2    H513753   4.049   4.068  14.030 -0.5834  0.3196 -0.4904
  940MPD2    N113754   3.842   3.956  14.541  0.0102  0.0219  0.0560
  940MPD2    H713755   3.757   3.998  14.505 -1.0334 -1.5218  0.7031
  941MPD2     C13756   4.152   3.285   9.431 -0.1683 -0.1795 -0.5153
  941MPD2    C113757   4.075   3.310   9.544 -0.0638 -0.6778  0.3067
  941MPD2    C213758   3.963   3.233   9.560 -0.6375  0.0849  0.2774
  941MPD2    C313759   3.926   3.139   9.474 -1.4425 -0.4772  0.0886
  941MPD2    C413760   4.004   3.113   9.358 -0.7708 -0.3740 -0.4739
  941MPD2    C513761   4.109   3.197   9.340 -0.2706 -0.6415 -0.4594
  941MPD2     H13762   3.896   3.240   9.645 -1.9764  0.5572 -0.7994
  941MPD2    H113763   3.983   3.031   9.289 -4.3894  1.0317 -1.0205
  941MPD2    H213764   4.252   3.326   9.420 -0.4536  0.4248 -0.8096
  941MPD2    H313765   4.174   3.179   9.255 -2.1291  0.0577 -2.0557
  941MPD2     N13766   3.827   3.042   9.500 -0.0792 -0.3594  1.0935
  941MPD2    H513767   3.836   2.958   9.442 -2.9276  1.5678 -2.1567
  941MPD2    N113768   4.112   3.413   9.643  0.1417 -0.5191  0.5833
  941MPD2    H713769   4.054   3.410   9.726 -1.5381  0.7535 -0.5560
  942MPD2     C13770   4.057   0.219   9.466  0.0005  0.3434  0.3856
  942MPD2    C113771   4.084   0.179   9.341 -0.1643  0.8595 -0.2183
  942MPD2    C213772   4.196   0.236   9.277  0.0305 -0.2399 -0.2994
  942MPD2    C313773   4.279   0.329   9.334  0.5006 -0.3395  0.0150
  942MPD2    C413774   4.244   0.378   9.456 -0.1450 -0.0774 -0.1756
  942MPD2    C513775   4.140   0.322   9.523 -0.7859  0.2273  0.7640
  942MPD2     H13776   4.215   0.191   9.180 -0.6589  0.5546 -0.8034
  942MPD2    H113777   4.303   0.453   9.508  1.6867 -1.9621  0.4735
  942MPD2    H213778   3.985   0.167   9.528  0.5411 -1.1843 -0.2595
  942MPD2    H313779   4.108   0.348   9.623 -0.9743 -1.8227  1.2528
  942MPD2     N13780   4.396   0.387   9.274 -0.5483  1.0808 -0.3702
  942MPD2    H513781   4.459   0.448   9.325  2.3881 -0.8726 -1.6856
  942MPD2    N113782   4.018   0.063   9.297 -0.4147 -0.2517 -0.2008
  942MPD2    H713783   4.057   0.012   9.218 -1.0301 -0.0348 -0.6466
  943MPD2     C13784   0.109   2.615   9.586 -0.4983  0.8807  0.9410
  943MPD2    C113785   0.246   2.619   9.573 -0.6139 -0.7128 -0.0179
  943MPD2    C213786   0.312   2.742   9.564 -0.3984 -0.6229  0.0645
  943MPD2    C313787   0.253   2.865   9.565  0.3135 -0.5420  0.1894
  943MPD2    C413788   0.111   2.861   9.570 -0.2906  0.4780 -0.3210
  943MPD2    C513789   0.049   2.740   9.585  0.2894  0.0927  0.6337
  943MPD2     H13790   0.419   2.740   9.546  0.0343  1.3880  2.3668
  943MPD2    H113791   0.044   2.947   9.570  0.4038  1.0245 -1.8194
  943MPD2    H213792   0.050   2.525   9.604 -0.0792  0.3768 -0.1723
  943MPD2    H313793   4.670   2.722   9.612 -0.7088  1.5873 -2.1307
  943MPD2     N13794   0.316   2.992   9.540 -0.2061 -0.1839 -0.6404
  943MPD2    H513795   0.264   3.079   9.530  1.3097  0.6944 -0.7943
  943MPD2    N113796   0.312   2.495   9.579 -0.0915  0.0488  0.5953
  943MPD2    H713797   0.251   2.417   9.598  0.6170 -0.7529 -0.4404
  944MPD2     C13798   2.312   2.349  11.611 -0.0259  0.2617 -0.0598
  944MPD2    C113799   2.219   2.351  11.511 -0.4340 -0.2000 -0.1241
  944MPD2    C213800   2.086   2.325  11.544 -0.5784  0.3393  0.5222
  944MPD2    C313801   2.047   2.317  11.675  0.3770 -0.6747  0.8138
  944MPD2    C413802   2.143   2.322  11.775 -0.6255 -0.3016 -0.3000
  944MPD2    C513803   2.274   2.337  11.739  0.0397  0.0102 -0.0989
  944MPD2     H13804   2.008   2.324  11.469 -0.9149 -1.8243  0.8976
  944MPD2    H113805   2.124   2.346  11.879 -0.7242 -0.6157 -0.2458
  944MPD2    H213806   2.417   2.373  11.598 -0.0776 -1.1578 -3.0215
  944MPD2    H313807   2.350   2.341  11.816  1.1579 -0.9299 -1.1537
  944MPD2     N13808   1.906   2.307  11.698 -0.3917 -0.1805 -0.0936
  944MPD2    H513809   1.855   2.335  11.615  0.9130  1.8454 -0.2108
  944MPD2    N113810   2.262   2.377  11.382  0.8058  0.1547  0.1649
  944MPD2    H713811   2.355   2.418  11.374  0.3384  0.8049 -2.0431
    1TCq1    O113812   4.505   3.207  14.056  0.2599 -0.3379  0.1277
    1TCq1    C113813   4.383   3.162  14.014  0.1738  0.0481  0.0234
    1TCq1    O213814   4.351   3.147  13.895 -0.4963 -0.0017 -0.1266
    1TCq1    C213815   4.294   3.135  14.130  0.3631  0.1455  0.3680
    1TCq1    C313816   4.162   3.142  14.109  0.5914 -0.1280  0.0414
    1TCq1    C413817   4.084   3.124  14.222  0.3569 -0.3132 -0.4992
    1TCq1    C513818   4.130   3.103  14.348  0.4102 -0.0554 -0.5525
    1TCq1    C613819   4.270   3.085  14.352  0.1871  0.1851 -0.3163
    1TCq1    C713820   4.353   3.107  14.248  0.4178 -0.4553 -0.4691
    1TCq1    C813821   4.340   3.068  14.475  0.0161  0.5700 -0.0762
    1TCq1    O413822   4.438   2.997  14.477 -0.3485  0.7881 -0.7457
    1TCq1    C913823   3.940   3.142  14.205  0.9472  0.3012 -0.1637
    1TCq1    O513824   3.900   3.146  14.084  0.3155 -0.5673 -0.5551
    1TCq1    O613825   3.871   3.154  14.308  0.1223 -0.0601  0.0815
    1TCq1    H113826   4.507   3.248  14.145 -0.2777 -0.3150  0.1277
    1TCq1    H213827   4.123   3.169  14.012  0.5525 -0.3877 -0.0149
    1TCq1    H313828   4.064   3.099  14.434  1.1383  1.5579  0.0908
    1TCq1    H413829   4.459   3.111  14.270  0.3364  1.0263 -0.3505
    2MPD2     C13830   4.452   3.313  14.918  0.2101  0.0506  0.1309
    2MPD2    C113831   4.329   3.353  14.875  0.2033  1.0485 -0.5247
    2MPD2    C213832   4.270   3.291  14.760 -0.4606  0.2027  0.3941
    2MPD2    C313833   4.338   3.194  14.689  0.4066  0.0035  0.3135
    2MPD2    C413834   4.455   3.150  14.748  0.3732 -0.5981  0.1285
    2MPD2    C513835   4.515   3.216  14.851  0.3036  0.2448 -0.0397
    2MPD2     H13836   4.171   3.323  14.728 -0.5074  1.3275  1.7140
    2MPD2    H113837   4.512   3.075  14.694  1.2196  0.6528 -0.7124
    2MPD2    H213838   4.504   3.373  14.991  0.6113 -1.4988  1.1180
    2MPD2    H313839   4.614   3.180  14.875 -0.0501 -1.1419 -0.6889
    2MPD2     N13840   4.282   3.142  14.570  0.1646  0.0210  0.7908
    2MPD2    H513841   4.190   3.177  14.549  0.7381  0.2862 -1.3021
    2MPD2    N113842   4.269   3.450  14.954  0.1479 -0.2732  0.2176
    2MPD2    H713843   4.305   3.474  15.046  0.2295  0.9485 -0.1276
    3TMC2    C113844   4.134   3.631  15.009 -0.7194  0.5921  0.2431
    3TMC2    C213845   4.095   3.571  15.121 -0.4204 -0.2258  0.2983
    3TMC2    C313846   4.045   3.653  15.219 -0.0312 -0.0351 -0.7187
    3TMC2    C413847   4.114   3.764  14.982 -0.0490  0.1022  0.1732
    3TMC2    C513848   4.052   3.839  15.078  1.0784 -0.2361  0.3617
    3TMC2    C613849   4.013   3.783  15.194  0.2555 -0.1938 -0.2522
    3TMC2     C13850   4.174   3.547  14.906  0.0037 -1.0283 -0.1261
    3TMC2     O13851   4.136   3.562  14.791 -0.6485  0.2141 -0.3336
    3TMC2     H13852   4.112   3.468  15.148  1.4276 -0.5528 -2.1943
    3TMC2    H113853   4.155   3.804  14.890 -2.5003  2.5216  0.1192
    3TMC2    H213854   3.957   3.837  15.269  2.4601  0.6460  0.7834
    3TMC2    C713855   4.036   3.987  15.061  0.4022 -0.5012 -0.0972
    3TMC2    C813856   3.957   3.583  15.311 -0.0870 -0.3543  0.0558
    3TMC2    O113857   3.987   4.043  15.155 -0.1208 -0.1598 -0.3090
    3TMC2    O213858   3.899   3.476  15.283 -0.2329  0.1773  0.3113
    3TMC2    O513859   3.983   3.638  15.431 -0.0023 -0.2861 -0.2076
    3TMC2    H513860   4.055   3.704  15.420  0.1302 -0.5431 -0.8969
    4MPD2     C13861   3.787   0.413  14.007  1.1853  0.2076  0.1807
    4MPD2    C113862   3.748   0.288  13.960  0.8555  0.6935 -0.8165
    4MPD2    C213863   3.802   0.172  14.018 -0.7973 -0.1432  0.2222
    4MPD2    C313864   3.890   0.183  14.118 -0.4624  0.2154 -0.0791
    4MPD2    C413865   3.937   0.304  14.155 -0.3528 -0.3101 -0.1574
    4MPD2    C513866   3.886   0.414  14.103  0.0567  0.2764  0.2343
    4MPD2     H13867   3.775   0.076  13.975 -0.0730 -0.0852 -0.3791
    4MPD2    H113868   4.010   0.322  14.233  0.5876 -0.4033 -1.0072
    4MPD2    H213869   3.748   0.510  13.979  2.1465 -0.1340 -2.2832
    4MPD2    H313870   3.907   0.514  14.137 -0.9606 -0.1124  2.0071
    4MPD2     N13871   3.948   0.064  14.164 -0.1711 -0.0406  0.0654
    4MPD2    H513872   3.922   4.697  14.128  0.7614 -0.2939  0.0234
    4MPD2    N113873   3.648   0.290  13.862 -0.0067 -0.7577  0.0486
    4MPD2    H713874   3.598   0.378  13.848 -1.4440 -1.3916  1.0880
    5TCq2    C113875   4.039   0.046  14.269  0.2748  0.0674 -0.0168
    5TCq2    O213876   4.059   0.118  14.366  0.3183  0.2369  0.2441
    5TCq2    C213877   4.083   4.625  14.271 -0.6781 -0.1943 -0.1381
    5TCq2    C313878   4.132   4.574  14.156  0.9273 -0.4317 -0.3379
    5TCq2    C413879   4.182   4.446  14.169  0.1793 -0.7353 -0.7319
    5TCq2    C513880   4.186   4.384  14.286  0.0359  1.0760  0.9621
    5TCq2    C613881   4.136   4.442  14.393  0.6811 -0.2002 -0.0049
    5TCq2    C713882   4.090   4.567  14.393  0.2102 -0.1590 -0.3550
    5TCq2    C813883   4.136   4.366  14.516  0.0766 -0.3601  0.6604
    5TCq2    O413884   4.231   4.288  14.530  0.1552 -0.2273  0.0654
    5TCq2    C913885   4.227   4.384  14.052  0.1637  0.2482  0.3562
    5TCq2    O513886   4.291   4.277  14.069 -0.3239 -0.4377  0.0977
    5TCq2    O613887   4.200   4.438  13.939  0.1727  0.4301 -0.1568
    5TCq2    H213888   4.126   4.627  14.062 -0.5985  0.5998  0.3439
    5TCq2    H313889   4.228   4.285  14.296 -0.2678  1.0205  1.6782
    5TCq2    H413890   4.055   4.621  14.480 -2.0755 -1.4781 -0.4381
    6MPD1     C13891   3.504   1.200  12.776  0.7299 -0.3241  0.5081
    6MPD1    C113892   3.411   1.197  12.884  0.5624 -0.1073  0.5743
    6MPD1    C213893   3.340   1.080  12.910  0.2882  0.1337 -0.1420
    6MPD1    C313894   3.363   0.972  12.819  0.6404 -0.4821 -0.4201
    6MPD1    C413895   3.452   0.974  12.717 -0.0370 -0.0018 -0.4838
    6MPD1    C513896   3.530   1.087  12.698 -0.8003 -0.2359 -0.2057
    6MPD1     H13897   3.274   1.079  12.996 -1.4174 -1.1626 -1.4592
    6MPD1    H113898   3.459   0.885  12.656  0.9014 -0.2896  0.0398
    6MPD1    H213899   3.559   1.292  12.761 -0.1140  0.1251  0.2301
    6MPD1    H313900   3.598   1.095  12.614  0.4056  0.9291  0.8600
    6MPD1     N13901   3.299   0.853  12.832  0.5318 -0.0884  0.2553
    6MPD1    H513902   3.315   0.782  12.762 -2.0773  1.0645 -1.5132
    6MPD1    N113903   3.380   1.322  12.945 -0.3797 -0.0395 -0.0745
    6MPD1    H613904   3.348   1.311  13.041 -0.2421 -0.3070 -0.0588
    6MPD1    H713905   3.476   1.354  12.954 -0.1006 -0.7680 -0.4078
    7MPD2     C13906   2.775   0.414  13.341 -0.3342 -1.1942 -0.2369
    7MPD2    C113907   2.903   0.462  13.319 -0.5344  0.3732 -0.1376
    7MPD2    C213908   2.997   0.453  13.423  0.3412 -0.6273 -0.4149
    7MPD2    C313909   2.969   0.369  13.532  0.0760  0.0119 -0.6219
    7MPD2    C413910   2.850   0.307  13.535 -0.1722  0.3036  0.5624
    7MPD2    C513911   2.747   0.337  13.449  0.1802 -0.6142  0.2701
    7MPD2     H13912   3.092   0.506  13.418  0.2937 -0.6335 -1.4222
    7MPD2    H113913   2.829   0.251  13.625 -0.4153 -0.4536  0.0350
    7MPD2    H213914   2.693   0.439  13.275  1.7058  2.1481 -1.4927
    7MPD2    H313915   2.649   0.291  13.449  0.4884 -1.2540  1.9690
    7MPD2     N13916   3.059   0.333  13.634 -0.1348 -0.0084 -0.0946
    7MPD2    H513917   3.021   0.279  13.710  0.5619  0.9796  0.9676
    7MPD2    N113918   2.939   0.524  13.198 -0.4397 -0.3371 -0.2340
    7MPD2    H713919   3.029   0.571  13.205  0.1224 -1.4735  0.2496
    8TMC3    C113920   3.269   0.252  13.692  0.5007 -0.2289 -0.3628
    8TMC3    C213921   3.402   0.292  13.727 -0.5328 -0.2976 -0.9159
    8TMC3    C313922   3.502   0.206  13.687 -0.4785  0.3542 -0.0191
    8TMC3    C413923   3.246   0.133  13.626 -0.1720 -0.5056 -0.0845
    8TMC3    C513924   3.356   0.075  13.566 -1.0319  0.4513 -0.3113
    8TMC3    C613925   3.480   0.111  13.601  0.5786 -0.2929 -0.2190
    8TMC3     C13926   3.194   0.360  13.627  0.2900 -0.1085  0.4769
    8TMC3     O13927   3.263   0.445  13.573 -0.0657  0.1695  0.1550
    8TMC3     H13928   3.420   0.379  13.789 -2.6110 -1.3013  1.1076
    8TMC3    H113929   3.146   0.104  13.597 -0.6429  0.4383  0.6111
    8TMC3    H213930   3.568   0.054  13.575  1.3231 -0.2295  2.1271
    8TMC3    C713931   3.335   0.079  13.420 -0.2071  0.3815  0.4434
    8TMC3    C813932   3.621   0.187  13.769 -0.7028 -0.5685  0.2731
    8TMC3    O113933   3.221   0.100  13.378  1.1881 -0.2944 -0.2377
    8TMC3    O213934   3.677   0.078  13.768  0.2395  0.7019  0.0060
    9TMC3    C113935   3.158   0.682  12.923 -0.2367 -0.1790 -0.0798
    9TMC3    C213936   3.216   0.588  12.848 -0.7611 -0.3032 -0.4346
    9TMC3    C313937   3.157   0.462  12.845 -0.0954  0.0424 -0.5080
    9TMC3    C413938   3.041   0.652  12.994 -0.0431  1.0081 -0.5584
    9TMC3    C513939   2.982   0.533  12.972 -0.0254  0.4487 -0.7885
    9TMC3    C613940   3.038   0.433  12.901  0.1137  0.2806  0.2130
    9TMC3     C13941   3.213   0.815  12.931 -0.0948  0.1201  0.6704
    9TMC3     O13942   3.157   0.876  13.023 -0.3939  0.8004  0.2680
    9TMC3     H13943   3.312   0.602  12.801 -0.3744 -1.7974 -0.0898
    9TMC3    H113944   2.982   0.725  13.049  0.4603  1.4608 -0.6192
    9TMC3    H213945   2.992   0.336  12.894  0.0696  0.1676  2.2066
    9TMC3    C713946   2.888   0.497  13.075  0.2886  0.0976  0.4285
    9TMC3    C813947   3.253   0.362  12.842  0.5283 -0.9624  0.3681
    9TMC3    O113948   2.805   0.418  13.041  0.0620  0.0956 -0.1226
    9TMC3    O213949   3.348   0.392  12.765 -0.0630  0.0010 -0.4046
   10MPD2     C13950   3.586   0.109  13.143  0.3589 -0.6642 -0.5270
   10MPD2    C113951   3.463   0.116  13.207  0.3504 -0.4270  0.1745
   10MPD2    C213952   3.348   0.171  13.138  0.7441 -0.2727 -0.3554
   10MPD2    C313953   3.361   0.216  13.004  0.0785  0.1828 -0.2285
   10MPD2    C413954   3.488   0.203  12.940 -1.0922 -0.6195 -0.0540
   10MPD2    C513955   3.595   0.162  13.019 -0.2256 -0.2691 -0.3179
   10MPD2     H13956   3.255   0.194  13.187  0.6027 -1.2749 -0.1481
   10MPD2    H113957   3.516   0.243  12.843  1.1344 -0.8915  0.4821
   10MPD2    H213958   3.670   0.054  13.185  0.5180  0.9488  1.2400
   10MPD2    H313959   3.685   0.148  12.960 -0.7418 -1.9564 -0.7197
   10MPD2     N13960   3.254   0.291  12.951  0.3457  0.5049  0.6934
   10MPD2    H513961   3.168   0.300  13.005 -1.2733  0.3348 -1.8207
   10MPD2    N113962   3.455   0.083  13.349  0.3713  0.2765  0.4399
   10MPD2    H713963   3.536   0.059  13.406 -0.1384  1.2938  1.5857
   11MPD2     C13964   3.942   4.246  14.965 -0.3544  0.8401  0.0766
   11MPD2    C113965   4.025   4.165  14.884  0.5671 -0.2937  0.7163
   11MPD2    C213966   4.050   4.209  14.752  0.2024  0.3832 -0.4288
   11MPD2    C313967   3.982   4.325  14.710 -0.0828  0.2879 -0.4532
   11MPD2    C413968   3.887   4.393  14.778  0.1914  0.1458  0.1500
   11MPD2    C513969   3.879   4.355  14.907 -0.0212  0.5780 -0.4205
   11MPD2     H13970   4.115   4.146  14.692  0.2638  0.4843 -0.4696
   11MPD2    H113971   3.838   4.481  14.737 -1.3816 -0.6240  0.3628
   11MPD2    H213972   3.916   4.235  15.069  0.3742 -0.5878  0.0981
   11MPD2    H313973   3.813   4.405  14.978  0.7896  0.3863  0.4596
   11MPD2     N13974   4.022   4.390  14.589 -0.3295  0.1958  0.0275
   11MPD2    H513975   3.961   4.460  14.549  0.7845  0.2148 -1.6332
   11MPD2    N113976   4.069   4.040  14.936  0.2759  0.1415  0.0716
   11MPD2    H713977   4.129   3.983  14.877 -2.9226 -1.3516 -1.7361
    1MPD1     C13978   1.989   0.711  17.164 -0.3903  0.0172 -0.3146
    1MPD1    C113979   2.104   0.635  17.161 -0.5657  0.3933 -1.0597
    1MPD1    C213980   2.219   0.710  17.147 -0.6735  0.2067  0.2321
    1MPD1    C313981   2.217   0.843  17.103  0.3641 -0.5216  1.3296
    1MPD1    C413982   2.097   0.909  17.098  0.5192 -0.6016 -0.3717
    1MPD1    C513983   1.983   0.843  17.137  0.3020 -0.1584  0.2728
    1MPD1     H13984   2.310   0.653  17.162  0.8425  2.5770 -0.0247
    1MPD1    H113985   2.092   1.013  17.066  1.4469 -0.2360  0.6662
    1MPD1    H213986   1.892   0.664  17.178  0.6161 -0.9597  3.3552
    1MPD1    H313987   1.887   0.895  17.140  0.4352  0.0404  1.1149
    1MPD1     N13988   2.334   0.905  17.061 -0.2164  0.2779 -0.3769
    1MPD1    H513989   2.335   1.004  17.039 -1.1273  0.6930  1.4171
    1MPD1    N113990   2.104   0.501  17.201 -0.0508 -0.0128 -0.0692
    1MPD1    H613991   2.183   0.450  17.161 -0.2728 -0.5790  0.2137
    1MPD1    H713992   2.014   0.456  17.186 -0.6414  0.1851  2.9132
    2MPD1     C13993   2.671   1.816  16.961  0.1247 -0.1035 -0.1501
    2MPD1    C113994   2.791   1.758  16.941 -0.7354 -0.3437 -0.0861
    2MPD1    C213995   2.800   1.627  16.958 -0.1996 -0.4324  0.1765
    2MPD1    C313996   2.689   1.548  16.989  0.5787  0.3488 -0.1166
    2MPD1    C413997   2.560   1.603  16.991 -0.1606  0.4598  1.0336
    2MPD1    C513998   2.553   1.744  16.981  0.3303  1.2033  0.7451
    2MPD1     H13999   2.895   1.577  16.947 -0.8606 -1.5319 -0.5738
    2MPD1    H114000   2.474   1.536  16.995 -0.9495  1.2126 -2.8603
    2MPD1    H214001   2.670   1.925  16.963 -0.7620 -0.1205  0.7138
    2MPD1    H314002   2.454   1.784  17.003  0.6206  2.2439  0.1650
    2MPD1     N14003   2.713   1.402  17.001  0.5341  1.0310  0.0610
    2MPD1    H514004   2.805   1.358  16.999  0.4464  0.9231 -1.3003
    2MPD1    N114005   2.906   1.833  16.899 -0.5395 -0.4124  0.0735
    2MPD1    H614006   2.913   1.934  16.915  1.2234 -0.8430  1.9453
    2MPD1    H714007   2.990   1.793  16.940 -0.4850  0.6284  0.9901
    3TMC3    C114008   2.659   1.165  17.027 -0.3427 -1.2776 -0.1782
    3TMC3    C214009   2.778   1.120  16.991 -0.4426  0.2562  0.4654
    3TMC3    C314010   2.786   0.983  16.967 -0.4131 -0.0081 -0.5373
    3TMC3    C414011   2.550   1.083  17.052  0.4976 -0.1521 -0.7184
    3TMC3    C514012   2.553   0.954  17.006 -0.2724  0.0144  0.0349
    3TMC3    C614013   2.675   0.905  16.968  0.1295  0.2981  0.3177
    3TMC3     C14014   2.612   1.307  17.023  0.2617 -0.5741  0.1603
    3TMC3     O14015   2.491   1.322  17.026  0.5010 -0.3549 -0.5882
    3TMC3     H14016   2.861   1.188  16.979 -0.8240  0.4587 -1.0719
    3TMC3    H114017   2.458   1.112  17.102 -0.1708  0.7794 -2.4830
    3TMC3    H214018   2.685   0.805  16.928  0.5284  0.7711 -0.7560
    3TMC3    C714019   2.460   0.857  17.058 -0.1559 -0.3118 -0.6265
    3TMC3    C814020   2.910   0.921  16.923  0.6949 -0.6790 -0.3675
    3TMC3    O114021   2.511   0.749  17.086  0.4364  0.7085 -0.0508
    3TMC3    O214022   2.919   0.797  16.919  0.1795 -0.5005 -0.5174
    4MPD1     C14023   3.419   0.961  16.855  0.4583  0.1526 -0.6016
    4MPD1    C114024   3.370   1.081  16.878 -0.3527  0.6206  0.4611
    4MPD1    C214025   3.235   1.095  16.894  0.4501 -0.2331 -0.2024
    4MPD1    C314026   3.147   0.987  16.882  0.1213 -0.2680  0.3477
    4MPD1    C414027   3.200   0.859  16.854  0.3289 -0.7174 -0.4761
    4MPD1    C514028   3.336   0.850  16.834  0.8006  0.1914  0.6028
    4MPD1     H14029   3.186   1.184  16.932  1.2475  0.9833 -2.0243
    4MPD1    H114030   3.144   0.768  16.838  0.0858 -0.9461  1.6554
    4MPD1    H214031   3.528   0.956  16.851  0.2351 -2.6245 -3.5255
    4MPD1    H314032   3.377   0.755  16.802  0.8417  0.7475 -0.9957
    4MPD1     N14033   3.012   1.015  16.910 -0.3221 -1.2407  0.0966
    4MPD1    H514034   2.990   1.114  16.922 -1.8148 -1.5104 -0.4677
    4MPD1    N114035   3.452   1.187  16.914  0.1733 -0.8281  0.3014
    4MPD1    H614036   3.541   1.173  16.866  0.0369 -0.6364 -0.0018
    4MPD1    H714037   3.419   1.283  16.912 -1.9866 -1.5879  0.1160
    1TCq1    O114038   4.629   2.484  12.823  0.6226  0.3650 -0.1220
    1TCq1    C114039   4.583   2.407  12.925 -0.4330 -0.7036  0.1790
    1TCq1    O214040   4.649   2.314  12.963 -0.4235 -0.2155  0.0191
    1TCq1    C214041   4.450   2.372  12.883 -0.7002  0.8341 -0.4709
    1TCq1    C314042   4.398   2.448  12.777  0.7389  0.4134 -0.3723
    1TCq1    C414043   4.289   2.391  12.710  1.2951 -0.5069 -0.3971
    1TCq1    C514044   4.249   2.269  12.740 -0.4307 -0.1614 -0.1194
    1TCq1    C614045   4.301   2.199  12.846  0.2699  0.2216 -0.5970
    1TCq1    C714046   4.402   2.255  12.929 -0.1796  0.3047  0.5094
    1TCq1    C814047   4.242   2.079  12.897  0.3252  0.5711  0.1107
    1TCq1    O414048   4.222   2.079  13.021 -0.1843 -0.4528 -0.2041
    1TCq1    C914049   4.252   2.447  12.580 -0.0373 -0.4165 -0.4428
    1TCq1    O514050   4.160   2.385  12.524 -0.6669 -0.2247 -0.2348
    1TCq1    O614051   4.312   2.551  12.539 -0.3362  0.3003  0.3737
    1TCq1    H114052   4.582   2.569  12.839  0.4693  0.4559 -1.0541
    1TCq1    H214053   4.433   2.542  12.737  1.9082 -0.9540 -2.5740
    1TCq1    H314054   4.166   2.226  12.685 -1.5764 -0.2711  1.6678
    1TCq1    H414055   4.456   2.194  13.000 -1.6951  0.0467  1.4480
    2MPD1     C14056   4.037   1.623  12.848  0.5513  0.8623  0.7022
    2MPD1    C114057   4.035   1.677  12.721  0.7869 -0.1001 -1.0285
    2MPD1    C214058   4.107   1.797  12.706 -0.0397  0.1828 -0.1906
    2MPD1    C314059   4.152   1.863  12.815  0.0535 -0.1144 -0.3399
    2MPD1    C414060   4.139   1.815  12.942  0.0940 -0.4053 -0.1535
    2MPD1    C514061   4.084   1.690  12.959 -0.1168 -0.5531 -0.6978
    2MPD1     H14062   4.113   1.840  12.607 -2.2590  0.0267 -0.3915
    2MPD1    H114063   4.179   1.861  13.031 -0.4570  1.9387 -1.1090
    2MPD1    H214064   4.005   1.520  12.860  0.3214  0.8516  0.0272
    2MPD1    H314065   4.086   1.638  13.055  0.7026 -0.7281 -0.8094
    2MPD1     N14066   4.205   1.993  12.796 -0.5489 -0.4411 -0.5371
    2MPD1    H514067   4.217   2.025  12.700 -1.3327  0.7453 -0.2364
    2MPD1    N114068   3.997   1.598  12.609 -0.0981  0.5368 -0.5285
    2MPD1    H614069   3.965   1.649  12.527 -0.8898  1.3332  0.2744
    2MPD1    H714070   3.921   1.531  12.624  0.1760 -0.1235 -2.0326
    1TCq1    O114071   1.321   2.580   1.331 -0.5156  0.0437 -0.2225
    1TCq1    C114072   1.402   2.613   1.232 -0.2141  0.2057 -0.5028
    1TCq1    O214073   1.517   2.648   1.255  0.2419  0.0497  0.3960
    1TCq1    C214074   1.371   2.544   1.113  0.2910 -0.2321  0.2255
    1TCq1    C314075   1.244   2.536   1.067 -0.1011 -0.2518  0.0956
    1TCq1    C414076   1.217   2.455   0.961 -0.4308  0.1452  0.2057
    1TCq1    C514077   1.316   2.420   0.874 -0.0743  0.3290 -0.2043
    1TCq1    C614078   1.441   2.431   0.926 -0.0789  0.4172 -0.3414
    1TCq1    C714079   1.477   2.497   1.040  0.3101 -0.7045 -0.0457
    1TCq1    C814080   1.547   2.381   0.835  0.6175  0.1872  0.7076
    1TCq1    O414081   1.516   2.359   0.718 -0.3873  0.1823  0.0065
    1TCq1    C914082   1.080   2.445   0.916  0.3653 -0.3905 -0.1676
    1TCq1    O514083   1.063   2.411   0.798  0.3499  0.0801  0.0846
    1TCq1    O614084   0.990   2.490   0.988 -0.2557 -0.2274  0.4973
    1TCq1    H114085   1.243   2.523   1.313  0.6452 -1.7327  0.3679
    1TCq1    H214086   1.157   2.573   1.122 -0.0841 -0.2050  0.0910
    1TCq1    H314087   1.282   2.363   0.787  0.1722 -1.6421  0.9963
    1TCq1    H414088   1.581   2.517   1.063 -1.1269  4.4942  1.9738
    2MPD1     C14089   2.028   2.205   0.767 -0.2616 -0.4083 -0.4141
    2MPD1    C114090   1.997   2.190   0.894 -0.4332  0.0843 -0.2694
    2MPD1    C214091   1.874   2.225   0.940 -0.6023 -0.2114 -0.4821
    2MPD1    C314092   1.778   2.283   0.859 -0.8345  0.8406 -0.3642
    2MPD1    C414093   1.805   2.293   0.725 -0.6804 -0.0506  0.1023
    2MPD1    C514094   1.934   2.249   0.683  0.1111 -0.2682 -0.4219
    2MPD1     H14095   1.862   2.227   1.048 -0.5612 -2.1407 -0.4336
    2MPD1    H114096   1.732   2.331   0.655 -0.8908  0.4701  0.6072
    2MPD1    H214097   2.125   2.177   0.727 -0.6537  1.7139 -2.8341
    2MPD1    H314098   1.960   2.264   0.578 -2.0196  0.4713 -0.8460
    2MPD1     N14099   1.651   2.331   0.914 -1.2584  0.3824 -0.8527
    2MPD1    H514100   1.642   2.330   1.015 -1.1765  1.2836 -0.8311
    2MPD1    N114101   2.084   2.118   0.981 -0.2662 -0.3190  0.2055
    2MPD1    H614102   2.089   2.152   1.077 -2.3016 -0.2640  0.3027
    2MPD1    H714103   2.180   2.125   0.950 -0.0805 -0.6596  0.6958
    1MPD1     C14104   4.500   1.689  11.793  0.9064 -1.0382  0.0976
    1MPD1    C114105   4.575   1.633  11.896 -0.8915  0.1629 -0.3264
    1MPD1    C214106   4.714   1.643  11.889  0.9441  0.4029 -0.3003
    1MPD1    C314107   0.050   1.715  11.787 -0.2357  0.3305  0.8183
    1MPD1    C414108   4.700   1.780  11.692  0.3531 -0.7337  0.4930
    1MPD1    C514109   4.568   1.766  11.700  0.3713 -0.1271  0.1624
    1MPD1     H14110   0.048   1.597  11.967 -1.0501 -0.8372  0.4459
    1MPD1    H114111   0.013   1.829  11.603  2.9783 -3.1850  0.2671
    1MPD1    H214112   4.393   1.679  11.788  1.0870 -1.0509 -3.5640
    1MPD1    H314113   4.518   1.825  11.625  2.2435  3.0786  1.4383
    1MPD1     N14114   0.192   1.713  11.786 -0.8199  0.0692 -0.3453
    1MPD1    H514115   0.240   1.654  11.854 -0.0758  1.0138 -0.0351
    1MPD1    N114116   4.528   1.538  11.986  0.6801  0.1622  0.5553
    1MPD1    H614117   4.572   1.558  12.076  0.4257 -0.1366  0.7498
    1MPD1    H714118   4.427   1.548  11.992  0.7238 -0.2419  2.0816
    2MPD1     C14119   0.046   0.540  11.843  0.2235  0.4066  0.7312
    2MPD1    C114120   4.699   0.475  11.744  0.1103  0.6469 -0.0112
    2MPD1    C214121   4.707   0.518  11.613 -0.1949  0.1185 -0.7264
    2MPD1    C314122   0.063   0.624  11.575  0.0226 -0.6496  0.3715
    2MPD1    C414123   0.147   0.678  11.672 -0.9646  0.4983 -0.0135
    2MPD1    C514124   0.134   0.638  11.800  0.5229  0.2408  0.0214
    2MPD1     H14125   4.641   0.463  11.546  0.5740  0.4359 -1.7479
    2MPD1    H114126   0.227   0.748  11.651 -0.3435 -0.5723 -1.2222
    2MPD1    H214127   0.044   0.507  11.946 -1.3922  0.1161  0.6025
    2MPD1    H314128   0.201   0.683  11.871 -0.7233  0.8804  0.7832
    2MPD1     N14129   0.070   0.680  11.440 -0.3014  0.0263  0.4841
    2MPD1    H514130   0.127   0.764  11.431  1.0567 -0.8634  0.7458
    2MPD1    N114131   4.598   0.387  11.784 -0.3379  0.1841 -0.4220
    2MPD1    H614132   4.590   0.308  11.719 -0.2368 -2.0317  2.2378
    2MPD1    H714133   4.610   0.354  11.879 -2.0013  1.2956  0.1621
    3MPD1     C14134   4.028   0.909  10.854 -0.2790 -0.1972  0.5460
    3MPD1    C114135   4.051   0.853  10.968  0.2655  0.3883  0.1584
    3MPD1    C214136   4.185   0.851  11.018  0.1105  0.0083 -0.0279
    3MPD1    C314137   4.299   0.875  10.939  0.1185 -0.3494  0.2642
    3MPD1    C414138   4.270   0.916  10.812  0.1504 -0.5611 -0.0643
    3MPD1    C514139   4.135   0.946  10.770 -0.3596  0.9063  0.0416
    3MPD1     H14140   4.200   0.817  11.120 -1.7623 -1.3113 -0.1851
    3MPD1    H114141   4.356   0.939  10.749  2.2597 -1.0580  2.6532
    3MPD1    H214142   3.927   0.929  10.820 -0.5686  0.6375  1.8912
    3MPD1    H314143   4.127   0.983  10.668 -1.1359 -0.5443 -0.4316
    3MPD1     N14144   4.424   0.862  10.993  0.2860 -0.1101  0.6497
    3MPD1    H514145   4.427   0.863  11.094  0.9331  0.5118  0.6262
    3MPD1    N114146   3.945   0.853  11.060  0.7160  0.1586 -0.7716
    3MPD1    H614147   3.864   0.827  11.003 -0.2381  1.6897 -0.1099
    3MPD1    H714148   3.962   0.790  11.137  1.0425 -1.1954 -1.9560
    4MPD2     C14149   0.836   1.885  11.358 -0.3209 -0.4625 -0.1235
    4MPD2    C114150   0.828   1.793  11.457 -0.3082 -0.3719 -0.5409
    4MPD2    C214151   0.888   1.669  11.440  0.4291 -0.4965 -0.0492
    4MPD2    C314152   0.948   1.631  11.324 -0.5273 -0.1334  0.4594
    4MPD2    C414153   0.960   1.723  11.222 -0.0276 -0.3880  0.1312
    4MPD2    C514154   0.905   1.852  11.244  0.4037 -0.6218 -0.3144
    4MPD2     H14155   0.869   1.608  11.528 -0.1898  1.3095  1.0805
    4MPD2    H114156   1.001   1.694  11.126  0.5963  2.0066 -0.3264
    4MPD2    H214157   0.789   1.983  11.362  0.7335  0.0286  0.3939
    4MPD2    H314158   0.912   1.921  11.161  1.9303 -0.0646  0.2691
    4MPD2     N14159   0.995   1.499  11.304  0.0372 -0.8924  0.4023
    4MPD2    H514160   1.011   1.475  11.207  0.1025 -0.7460  0.3765
    4MPD2    N114161   0.772   1.820  11.587 -0.2143  1.0156  0.2149
    4MPD2    H714162   0.789   1.751  11.659 -3.1984 -1.7844 -1.7945
    5TMC3    C114163   0.618   1.900  11.741 -0.3489  0.1747  0.2614
    5TMC3    C214164   0.484   1.898  11.721 -0.1480 -0.1890  0.1666
    5TMC3    C314165   0.417   1.786  11.750  0.2145  0.3597 -0.8657
    5TMC3    C414166   0.671   1.803  11.815  0.4175  0.2201 -0.1073
    5TMC3    C514167   0.591   1.694  11.852 -0.1749 -0.2058 -0.3552
    5TMC3    C614168   0.461   1.680  11.819  0.0328 -0.1197 -0.2695
    5TMC3     C14169   0.689   1.919  11.613  0.2018 -0.8263  0.2432
    5TMC3     O14170   0.636   2.004  11.536 -0.4520 -0.1281  0.0956
    5TMC3     H14171   0.437   1.972  11.658 -0.3079  0.2652  0.8234
    5TMC3    H114172   0.772   1.810  11.852  1.3642 -0.0191 -2.5942
    5TMC3    H214173   0.411   1.584  11.811 -2.3827  1.1592 -0.3676
    5TMC3    C714174   0.663   1.576  11.823  0.1936  0.2620  0.0632
    5TMC3    C814175   0.279   1.783  11.696  0.2753 -0.8671  0.2924
    5TMC3    O114176   0.772   1.591  11.770  0.2232 -0.2582  0.2069
    5TMC3    O214177   0.255   1.840  11.589 -0.0293  0.0783  0.6833
    6TMC3    C114178   4.723   0.736  11.225  0.2862  0.0541  0.3208
    6TMC3    C214179   4.616   0.764  11.138  0.2451  0.1948  0.3296
    6TMC3    C314180   4.651   0.836  11.024  0.2952  0.9571 -0.3022
    6TMC3    C414181   0.128   0.771  11.191  0.3100  1.0594 -0.2617
    6TMC3    C514182   0.152   0.842  11.078 -0.0242  0.5652 -0.9364
    6TMC3    C614183   0.050   0.870  10.985  0.0442 -1.0918  0.0406
    6TMC3     C14184   4.704   0.643  11.340  0.0239 -0.3229 -0.2826
    6TMC3     O14185   4.613   0.561  11.343 -0.6198  0.5187 -0.2040
    6TMC3     H14186   4.518   0.729  11.166  1.0003 -0.0895  2.6033
    6TMC3    H114187   0.210   0.746  11.257 -0.4368 -1.4424 -0.2920
    6TMC3    H214188   0.066   0.916  10.888 -0.7999  1.2581  1.0421
    6TMC3    C714189   0.294   0.891  11.059 -0.1587  0.1318  0.7757
    6TMC3    C814190   4.548   0.856  10.926  1.2207  0.7622 -0.3791
    6TMC3    O114191   0.378   0.842  11.136  0.9661  0.3253  0.1871
    6TMC3    O214192   4.573   0.869  10.807 -0.0829  0.0849  0.0189
    7MPD2     C14193   0.773   1.067  11.821 -0.3033 -0.6988 -0.0896
    7MPD2    C114194   0.811   1.173  11.742  0.5408  0.4015 -0.4695
    7MPD2    C214195   0.770   1.305  11.769  0.2501  0.4723  0.2851
    7MPD2    C314196   0.672   1.325  11.864 -0.0806 -0.0478  0.0097
    7MPD2    C414197   0.626   1.216  11.937  0.1436  0.3439 -0.1238
    7MPD2    C514198   0.678   1.091  11.915 -0.0581 -1.1672  0.2546
    7MPD2     H14199   0.809   1.381  11.704  2.0854  0.7486  1.7245
    7MPD2    H114200   0.532   1.229  11.989  0.0933 -0.8305  0.0842
    7MPD2    H214201   0.827   0.973  11.816 -1.6347 -1.4176 -1.0071
    7MPD2    H314202   0.641   1.012  11.979  1.4300 -1.0799  1.2177
    7MPD2     N14203   0.622   1.457  11.890 -0.5507 -0.1378  0.4078
    7MPD2    H514204   0.550   1.473  11.960  1.4060  2.2836  1.8684
    7MPD2    N114205   0.904   1.155  11.637  0.3376 -0.7328  0.1153
    7MPD2    H714206   0.927   1.236  11.579 -1.8459  0.1597  0.4799
    8TMC3    C114207   1.009   1.071  11.454 -0.2487 -0.3748  0.8789
    8TMC3    C214208   0.939   1.022  11.349 -0.5688  0.5356 -0.1888
    8TMC3    C314209   0.913   1.102  11.239  0.0605  0.6580 -0.1922
    8TMC3    C414210   1.055   1.195  11.470 -0.0231  0.2575  0.1506
    8TMC3    C514211   1.034   1.276  11.355  0.1950  0.7375 -0.4860
    8TMC3    C614212   0.959   1.231  11.246 -0.2345  0.9913 -0.3440
    8TMC3     C14213   0.946   1.036  11.576 -0.5473 -0.2042 -0.4668
    8TMC3     O14214   0.910   0.921  11.599 -0.1660 -0.3261 -0.4655
    8TMC3     H14215   0.893   0.924  11.355  1.0380 -0.1385  0.8570
    8TMC3    H114216   1.128   1.222  11.545 -0.3028  3.3052 -0.6742
    8TMC3    H214217   0.919   1.301  11.174 -0.7407  0.4440 -0.5978
    8TMC3    C714218   1.014   1.409  11.408 -0.4212  0.2386  0.1751
    8TMC3    C814219   0.788   1.077  11.178 -0.5328 -0.0993 -0.9177
    8TMC3    O114220   0.981   1.406  11.525 -0.5381 -0.4955 -0.1218
    8TMC3    O214221   0.712   1.012  11.248 -0.0999  0.1757  0.1568
    9MPD2     C14222   0.669   1.140  10.827 -0.7230 -0.0039 -0.0796
    9MPD2    C114223   0.662   1.094  10.961  0.3135  1.2239  1.9920
    9MPD2    C214224   0.543   1.047  11.007 -0.0356 -0.0079 -0.3952
    9MPD2    C314225   0.431   1.037  10.918 -0.0688 -0.1616 -0.7734
    9MPD2    C414226   0.439   1.100  10.792 -0.0982 -0.1662  1.3399
    9MPD2    C514227   0.564   1.130  10.744  0.3353 -0.4881 -0.5054
    9MPD2     H14228   0.520   1.018  11.109  3.1473  1.4322  0.7639
    9MPD2    H114229   0.357   1.094  10.721 -0.9166  0.4620  2.2398
    9MPD2    H214230   0.756   1.182  10.778 -1.5732  0.1211 -1.4844
    9MPD2    H314231   0.562   1.198  10.659  0.1139 -0.8843 -0.8131
    9MPD2     N14232   0.308   0.973  10.951  0.1717  0.7805  0.1629
    9MPD2    H514233   0.229   0.983  10.889 -1.3133  2.2013  2.2840
    9MPD2    N114234   0.775   1.117  11.049 -0.0873  0.0889 -0.0909
    9MPD2    H714235   0.849   1.162  10.998 -2.0640  2.9213 -0.4406
    1MPD1     C14236   4.411   4.045  16.623 -0.2984  0.5919  0.0477
    1MPD1    C114237   4.416   3.908  16.580 -0.3718 -0.1325 -0.1601
    1MPD1    C214238   4.391   3.894  16.441 -0.1855  0.3747 -0.5184
    1MPD1    C314239   4.341   3.993  16.358 -0.8855  0.7245 -0.0791
    1MPD1    C414240   4.322   4.122  16.411  0.2212  0.0914 -0.7257
    1MPD1    C514241   4.376   4.143  16.538 -0.5039  0.2575  0.3949
    1MPD1     H14242   4.410   3.796  16.399  1.3091  1.4213 -2.3247
    1MPD1    H114243   4.304   4.208  16.348 -1.5084  0.1639 -0.1416
    1MPD1    H214244   4.449   4.072  16.722  1.4298 -0.7321 -0.2539
    1MPD1    H314245   4.379   4.246  16.570 -0.7109  1.1196 -2.3353
    1MPD1     N14246   4.328   3.980  16.216  0.2768  0.3601  0.3859
    1MPD1    H514247   4.312   4.064  16.161 -1.4713 -0.3335 -0.1551
    1MPD1    N114248   4.489   3.808  16.650 -0.1116 -0.1288  0.4891
    1MPD1    H614249   4.469   3.823  16.749  4.1120  0.8459  1.1827
    1MPD1    H714250   4.442   3.721  16.627 -0.0275  0.1049 -0.5925
    2MPD1     C14251   4.514   4.652  15.769  0.0310 -0.1398 -0.3103
    2MPD1    C114252   4.448   4.608  15.881 -0.2654 -0.7612  0.5184
    2MPD1    C214253   4.419   4.473  15.912 -0.0005  0.5145  0.3208
    2MPD1    C314254   4.451   4.380  15.815 -0.5643  1.0520 -0.5059
    2MPD1    C414255   4.511   4.428  15.700  0.0828 -0.2306 -0.1558
    2MPD1    C514256   4.549   4.553  15.678  0.2198  0.4343  0.0287
    2MPD1     H14257   4.372   4.446  16.006  0.5988 -1.0472  0.1695
    2MPD1    H114258   4.528   4.369  15.611 -1.4429 -0.4862 -0.2777
    2MPD1    H214259   4.552   0.027  15.753  1.3089 -0.6265 -0.2934
    2MPD1    H314260   4.599   4.572  15.584 -2.6288  1.1364 -1.3579
    2MPD1     N14261   4.433   4.244  15.849 -0.1990 -0.1598  0.6319
    2MPD1    H514262   4.372   4.229  15.929 -0.1116 -0.9711  0.5527
    2MPD1    N114263   4.440   4.696  15.995 -0.3865 -0.4231  0.1756
    2MPD1    H614264   4.442   0.070  15.969  0.5923 -0.8028 -1.1625
    2MPD1    H714265   4.355   4.687  16.051 -0.0586 -0.3807  0.6783
    3TCq2    C114266   4.476   4.136  15.777  0.0465 -0.0082 -0.1293
    3TCq2    O214267   4.533   4.134  15.666  0.1601  0.2188 -0.3941
    3TCq2    C214268   4.417   4.011  15.824 -0.1396 -0.2545  0.1584
    3TCq2    C314269   4.385   3.910  15.739 -0.0365 -0.0417 -0.4750
    3TCq2    C414270   4.340   3.793  15.792 -0.2983  0.4931  0.1770
    3TCq2    C514271   4.308   3.781  15.922 -0.5781 -0.2359 -0.4092
    3TCq2    C614272   4.347   3.889  16.000  0.0497  0.0022 -0.1900
    3TCq2    C714273   4.398   4.007  15.958  0.6898  0.1291 -0.4243
    3TCq2    C814274   4.353   3.862  16.144  0.2685  0.0184 -0.1021
    3TCq2    O414275   4.352   3.747  16.185  0.5735  0.1109  0.2722
    3TCq2    C914276   4.318   3.681  15.703 -0.2090 -0.0281 -0.3465
    3TCq2    O514277   4.331   3.707  15.582  0.1861  0.2250  0.1710
    3TCq2    O614278   4.272   3.574  15.750 -0.1254 -0.3113  0.0566
    3TCq2    H214279   4.413   3.913  15.635  2.0758 -2.5374  0.0224
    3TCq2    H314280   4.275   3.686  15.963 -1.4777  0.3221  0.1490
    3TCq2    H414281   4.467   4.059  16.023  0.2793  1.1258 -0.7773
    1TCq1    O114282   2.022   2.817  13.006  0.3869 -0.3401  0.1525
    1TCq1    C114283   1.930   2.909  12.972 -0.5051  0.7704  0.2503
    1TCq1    O214284   1.951   2.986  12.878  0.3834 -0.9730 -0.6488
    1TCq1    C214285   1.870   2.954  13.099  0.4437  0.4418 -0.2204
    1TCq1    C314286   1.798   2.867  13.174 -0.2179  0.0352  0.1028
    1TCq1    C414287   1.694   2.916  13.247 -0.9855  0.5652 -0.4463
    1TCq1    C514288   1.653   3.045  13.234 -0.5072  0.1023  0.1033
    1TCq1    C614289   1.738   3.134  13.181 -0.0052 -0.1320  0.4215
    1TCq1    C714290   1.846   3.090  13.109 -0.4123 -0.2627  0.5403
    1TCq1    C814291   1.727   3.276  13.206  0.4239 -0.1915 -0.9737
    1TCq1    O414292   1.617   3.325  13.215 -0.0885 -0.3534  0.1543
    1TCq1    C914293   1.609   2.816  13.319  0.0711 -0.7669 -0.2948
    1TCq1    O514294   1.499   2.857  13.363  0.1473 -0.4165 -0.3617
    1TCq1    O614295   1.659   2.702  13.336  0.6320  0.8168  0.3049
    1TCq1    H114296   2.007   2.769  13.090 -1.2581 -0.8891 -0.4357
    1TCq1    H214297   1.818   2.760  13.177 -1.0595 -0.1458 -0.8054
    1TCq1    H314298   1.573   3.078  13.299 -1.1597 -0.9344 -0.1709
    1TCq1    H414299   1.905   3.149  13.040 -1.4952  0.2823  0.0799
    2MPD2     C14300   1.770   3.552  13.293 -1.0344 -0.5751 -0.1294
    2MPD2    C114301   1.875   3.468  13.260 -0.3901 -0.5543 -0.0140
    2MPD2    C214302   2.006   3.509  13.289 -0.2077  0.0174  0.8748
    2MPD2    C314303   2.027   3.599  13.388  0.3451  0.2548 -0.0084
    2MPD2    C414304   1.914   3.677  13.428  0.1068  0.5165  0.4762
    2MPD2    C514305   1.785   3.656  13.382  1.0023  0.2887  0.0718
    2MPD2     H14306   2.094   3.451  13.266 -0.1296 -0.0448  1.3214
    2MPD2    H114307   1.929   3.754  13.503 -0.4034  0.1465  0.9545
    2MPD2    H214308   1.669   3.526  13.264 -0.5509 -2.1122 -0.4153
    2MPD2    H314309   1.695   3.710  13.408  0.1838 -0.4120 -1.3167
    2MPD2     N14310   2.162   3.606  13.431 -0.2643 -0.1758  0.0112
    2MPD2    H514311   2.227   3.541  13.387 -0.4291 -0.3316 -0.0004
    2MPD2    N114312   1.852   3.335  13.211  0.7127  0.0515 -0.5347
    2MPD2    H714313   1.932   3.274  13.200  0.7287 -0.0430  0.0726
    3TCq1    O114314   2.568   3.888  13.801 -0.0876 -0.1073  0.4193
    3TCq1    C114315   2.637   3.825  13.705 -0.0741 -0.1743  0.7911
    3TCq1    O214316   2.750   3.844  13.667 -0.4018 -0.4973 -0.1271
    3TCq1    C214317   2.553   3.731  13.637 -0.6331  0.3418  0.0034
    3TCq1    C314318   2.620   3.626  13.577  0.3994 -0.0827  0.0652
    3TCq1    C414319   2.541   3.535  13.505  0.8157 -0.6586  0.1798
    3TCq1    C514320   2.407   3.557  13.486 -0.1682  0.2793 -0.2538
    3TCq1    C614321   2.352   3.674  13.532 -0.6403  0.0807  0.2732
    3TCq1    C714322   2.420   3.756  13.622  0.2937 -0.0386 -0.0375
    3TCq1    C814323   2.211   3.697  13.517 -0.1908 -0.2896  1.2295
    3TCq1    O414324   2.147   3.787  13.569  0.1940  0.1326  0.2366
    3TCq1    C914325   2.597   3.415  13.452 -0.3047 -0.3361 -0.2368
    3TCq1    O514326   2.525   3.354  13.371 -0.1100 -0.2345 -0.5684
    3TCq1    O614327   2.718   3.390  13.478  0.3142 -0.2600 -0.2696
    3TCq1    H114328   2.489   3.831  13.815 -0.0291 -0.6702 -1.4646
    3TCq1    H214329   2.725   3.609  13.598 -0.0742 -0.5240  2.0738
    3TCq1    H314330   2.350   3.482  13.432  0.4572 -1.4395  1.4727
    3TCq1    H414331   2.385   3.852  13.661 -0.4389  0.1370 -1.1281
    1MPD2     C14332   2.404   0.108  14.759 -0.5182 -0.0220 -0.1202
    1MPD2    C114333   2.355   0.005  14.835 -0.1535  0.1757  0.4470
    1MPD2    C214334   2.428   4.615  14.839  0.3365  0.4248  0.2957
    1MPD2    C314335   2.553   4.616  14.779 -0.4240  0.6181  0.3591
    1MPD2    C414336   2.605   0.000  14.721  0.1947  0.3161 -0.2253
    1MPD2    C514337   2.530   0.109  14.705 -0.4611 -0.0433  0.3100
    1MPD2     H14338   2.375   4.526  14.870  3.9461 -2.1116 -0.9094
    1MPD2    H114339   2.701   4.716  14.671 -0.6172 -2.7323 -1.2714
    1MPD2    H214340   2.359   0.206  14.754  0.8422  0.6058 -0.1741
    1MPD2    H314341   2.567   0.192  14.646  0.8926  0.1401  1.4298
    1MPD2     N14342   2.619   4.494  14.797  0.5899  0.8364 -0.3927
    1MPD2    H514343   2.554   4.419  14.822 -0.9087  2.1498 -0.3823
    1MPD2    N114344   2.228   0.013  14.902 -0.1803 -0.0191 -0.1596
    1MPD2    H714345   2.172   0.096  14.888 -0.2862  0.0882  0.9033
    2TMC3    C114346   2.048   4.678  15.047  0.3420 -0.3592  0.0670
    2TMC3    C214347   2.010   4.584  15.140  0.9092 -0.4253  0.4711
    2TMC3    C314348   1.893   4.517  15.125 -0.7254  1.0250  0.4437
    2TMC3    C414349   1.955   4.704  14.942 -0.0083 -0.1361  0.4076
    2TMC3    C514350   1.828   4.636  14.940 -0.2843  0.5549 -1.0720
    2TMC3    C614351   1.799   4.539  15.027 -1.0051 -0.0157  0.5954
    2TMC3     C14352   2.182   4.653  15.000 -0.4230 -0.2319 -0.2360
    2TMC3     O14353   2.240   4.564  15.064 -0.3981 -0.1452 -0.1027
    2TMC3     H14354   2.071   4.572  15.229  0.8960 -3.7206  0.0412
    2TMC3    H114355   1.993   0.049  14.868 -1.2424 -0.1942 -0.2855
    2TMC3    H214356   1.707   4.481  15.020  1.0022 -2.9768 -1.3944
    2TMC3    C714357   1.715   4.723  14.913  0.1689  0.0111  0.2862
    2TMC3    C814358   1.919   4.382  15.157 -0.3111 -0.7469  0.5485
    2TMC3    O114359   1.606   4.669  14.926  0.2332 -0.2797 -0.0176
    2TMC3    O214360   1.827   4.309  15.182 -0.1310  0.1917 -0.0846
    3TCq1    O114361   2.233   0.832  14.955 -0.7704  0.3267 -0.5210
    3TCq1    C114362   2.131   0.769  15.019  0.2920  0.3979 -1.1690
    3TCq1    O214363   2.136   0.733  15.135 -0.0231  0.3007 -0.1240
    3TCq1    C214364   2.005   0.824  14.971 -0.7990 -1.0621 -0.7473
    3TCq1    C314365   2.015   0.901  14.855  0.7569 -0.0923 -0.4871
    3TCq1    C414366   1.893   0.944  14.808  0.6332 -0.9526 -0.2853
    3TCq1    C514367   1.770   0.905  14.857  0.5480  0.0726 -0.4359
    3TCq1    C614368   1.768   0.822  14.970 -0.9881  0.5737  0.4383
    3TCq1    C714369   1.885   0.784  15.028  0.7706 -0.3988  0.1059
    3TCq1    C814370   1.654   0.734  14.961 -0.4317  0.5786  0.1506
    3TCq1    O414371   1.548   0.775  14.916  0.0660 -0.1523  0.8502
    3TCq1    C914372   1.898   1.026  14.685  0.2070 -0.4695 -0.3442
    3TCq1    O514373   2.010   1.046  14.625 -0.3327 -0.4222 -0.3018
    3TCq1    O614374   1.796   1.095  14.670 -0.6464 -0.2159  0.1564
    3TCq1    H114375   2.318   0.827  15.003 -0.6192  0.9466 -0.7221
    3TCq1    H214376   2.104   0.929  14.800 -0.5501  0.5336 -2.2812
    3TCq1    H314377   1.683   0.949  14.810 -0.0791  0.1464  0.8031
    3TCq1    H414378   1.879   0.748  15.130 -0.4077  1.6893  0.7733
    4MPD2     C14379   1.496   0.467  14.946 -0.0442  0.1219 -1.2473
    4MPD2    C114380   1.634   0.479  14.964  0.0109  0.2991 -0.2721
    4MPD2    C214381   1.715   0.363  14.961 -0.6069 -0.0373 -0.4608
    4MPD2    C314382   1.660   0.240  14.932  1.1802  0.3056  0.2156
    4MPD2    C414383   1.527   0.231  14.920 -0.1420 -0.3609 -0.0868
    4MPD2    C514384   1.443   0.345  14.923 -1.2527 -0.2367 -0.1027
    4MPD2     H14385   1.822   0.371  14.976 -0.8891  0.4197  1.2950
    4MPD2    H114386   1.488   0.134  14.890  0.9703 -1.5813  2.4621
    4MPD2    H214387   1.421   0.544  14.931  0.8630  1.1079 -0.7145
    4MPD2    H314388   1.340   0.329  14.895 -1.2703  0.4524 -0.4531
    4MPD2     N14389   1.748   0.129  14.910 -0.7028 -0.3592  0.5710
    4MPD2    H514390   1.842   0.162  14.930 -0.6797 -0.7600  1.1520
    4MPD2    N114391   1.702   0.602  14.982  0.2373  0.1168  0.1495
    4MPD2    H714392   1.804   0.605  14.987  0.0957  2.3093  1.6537
    5TMC2    C114393   2.623   4.152  14.896 -0.0941  0.3672 -0.1199
    5TMC2    C214394   2.713   4.119  15.000 -0.3225 -0.3111  0.4147
    5TMC2    C314395   2.832   4.183  14.998 -0.5044  1.1974  0.5047
    5TMC2    C414396   2.658   4.242  14.802  0.0970 -0.0661  0.1134
    5TMC2    C514397   2.767   4.322  14.830  0.0701 -0.1824  0.2649
    5TMC2    C614398   2.861   4.290  14.921 -0.3040  0.8451 -0.2360
    5TMC2     C14399   2.489   4.186  14.941 -0.0663 -0.0762  0.8751
    5TMC2     O14400   2.434   4.277  14.886  0.2273 -0.0747  0.7949
    5TMC2     H14401   2.680   4.066  15.089  2.3424  1.5865  2.5177
    5TMC2    H114402   2.587   4.269  14.725 -0.2231 -1.7418 -0.1717
    5TMC2    H214403   2.942   4.361  14.936  1.4698 -1.0027 -1.0941
    5TMC2    C714404   2.752   4.459  14.788 -0.2100  0.0071  0.2925
    5TMC2    C814405   2.907   4.163  15.116 -0.6818 -0.2085  0.0280
    5TMC2    O114406   2.848   4.534  14.782  0.3825 -0.4472 -0.2029
    5TMC2    O214407   2.850   4.111  15.211  0.0270 -0.1742 -0.0532
    5TMC2    O514408   3.027   4.132  15.066  0.0081  0.5870 -0.2825
    5TMC2    H514409   3.049   4.178  14.982 -1.5044  2.6399  0.4571
    6MPD2     C14410   2.065   4.114  15.214 -0.4003  0.3485 -0.4068
    6MPD2    C114411   2.110   4.224  15.142  0.0968 -0.0351 -0.0237
    6MPD2    C214412   2.234   4.218  15.081 -0.1116 -0.1199  0.4364
    6MPD2    C314413   2.309   4.098  15.088 -0.1010 -0.5579  0.2524
    6MPD2    C414414   2.261   3.995  15.163  1.2028  0.2492  0.2035
    6MPD2    C514415   2.142   4.004  15.237  0.0749 -0.0631 -0.3762
    6MPD2     H14416   2.271   4.312  15.042  0.4707  0.1778  1.7064
    6MPD2    H114417   2.333   3.914  15.176 -0.0481 -1.1095 -1.2423
    6MPD2    H214418   1.967   4.118  15.260  0.8452  2.2908  2.0728
    6MPD2    H314419   2.120   3.925  15.308  0.3346 -1.8293 -2.2419
    6MPD2     N14420   2.434   4.088  15.023 -0.3797 -0.2056 -0.8409
    6MPD2    H514421   2.485   4.000  15.025 -0.0553 -0.0040 -0.3904
    6MPD2    N114422   2.052   4.348  15.125 -0.5240  0.5861  0.3736
    6MPD2    H714423   2.116   4.422  15.096  1.1817 -0.4318  1.5277
  945NH4     N114424   3.326   2.025  11.290 -0.0886 -0.3652  0.5846
  945NH4     H214425   3.301   2.088  11.369 -1.2746  2.9750 -2.4464
  945NH4     H314426   3.313   1.927  11.324  0.2034 -0.5081  0.2849
  945NH4     H414427   3.425   2.029  11.258  0.2504 -0.7974  1.6030
  945NH4     H514428   3.272   2.045  11.203 -0.7383 -1.3114  0.7677
  946SOD     NA14429   3.407   2.748   0.362 -0.4344  0.5892 -0.3531
  947SOD     NA14430   1.083   4.115  13.380 -0.2314  0.5218  0.0079
  948SOD     NA14431   2.984   2.742  11.203  0.8646  0.1184  0.1360
  949SOD     NA14432   3.462   1.083  17.649  0.0353 -0.2200 -0.3797
  950SOD     NA14433   2.662   1.419   1.660  0.0298  0.6031  0.3327
  951SOD     NA14434   3.731   3.555  10.008  0.1878  0.0523 -0.1307
  952SOD     NA14435   3.711   0.303   7.279  0.0838 -0.0000  0.0871
  953SOD     NA14436   3.818   0.867  11.996 -0.5618 -0.0864 -0.1151
  954SOD     NA14437   3.351   4.083  13.774 -0.3640 -0.3613  0.3877
  955SOD     NA14438   1.571   2.876  11.126 -0.0548 -0.3219  0.2366
  956SOD     NA14439   1.660   4.211  15.324 -0.0320 -0.4522  0.1204
  957SOD     NA14440   3.734   0.495   3.141 -0.1013 -0.1136 -0.6359
  958SOD     NA14441   0.137   1.901  14.940  0.5924  0.1151  0.0037
  959SOD     NA14442   2.679   2.847  11.059 -0.3230 -0.3729 -0.3751
  960SOD     NA14443   4.609   4.357  13.812  0.0408  0.1633 -0.0394
  961SOD     NA14444   3.180   0.129   2.090 -0.4620  0.2045  0.0592
  962SOD     NA14445   0.932   1.638   4.517 -0.1315 -0.0967  0.1857
  963SOD     NA14446   2.730   2.455   7.045 -0.4590 -0.1856 -0.0752
  964SOD     NA14447   1.805   1.322  14.661 -0.1215  0.3134 -0.0001
  965SOD     NA14448   3.199   4.308  12.088 -0.4482  0.2464 -0.1654
  966SOD     NA14449   4.165   2.476   9.536  0.5137  0.0029  0.2156
  967SOD     NA14450   2.887   3.386   3.417  0.0855  0.1723  0.6652
  968SOD     NA14451   0.711   1.750   1.937  0.0517 -0.4180 -0.0833
  969SOD     NA14452   1.590   3.113  15.558  0.3469 -0.1610  0.2273
  970SOD     NA14453   1.843   2.536   3.231  0.1926 -0.1960  0.2766
  971SOD     NA14454   2.966   3.508  11.853  0.0767  0.2530  0.1936
  972SOD     NA14455   4.648   4.636  15.264 -0.3464 -0.2388 -0.0779
  973SOD     NA14456   0.251   3.388   4.442  0.2012  0.3094  0.2591
  974SOD     NA14457   1.961   3.370   9.733 -0.1744  0.4002  0.2133
  975SOD     NA14458   2.519   3.128  11.219 -0.0158  0.7726 -0.2742
  976SOD     NA14459   0.771   0.750  11.636 -0.0466 -0.3364  0.1460
  977SOD     NA14460   4.001   1.686  16.225 -0.3969  0.0190  0.0754
  978SOD     NA14461   0.085   4.497  17.558 -0.1879 -0.0054 -0.3592
  979SOD     NA14462   1.764   4.585  11.291  0.3802 -0.0201 -0.2857
  980SOD     NA14463   4.696   2.805  13.383  0.0475  0.1806  0.2361
  981SOD     NA14464   0.947   3.200   1.152  0.1022  0.4261  0.3029
  982SOD     NA14465   0.296   1.190   2.103  0.2626 -0.3747 -0.2082
  983SOD     NA14466   1.981   2.963  10.164 -0.0700 -0.0256  0.3071
  984SOD     NA14467   2.547   4.420   0.348 -0.4373  0.0473 -0.6973
  985SOD     NA14468   3.810   1.622  13.480  0.6011  0.1912  0.1623
  986SOD     NA14469   4.252   2.654  13.072  0.1772 -0.0512  0.1472
  987SOD     NA14470   3.649   2.343  16.839  0.0521 -0.3354  0.2192
  988SOD     NA14471   2.188   2.162  17.172  0.7131  0.4087  0.0758
  989SOD     NA14472   2.004   4.564  11.087  0.1309  0.6467 -0.0663
  990SOD     NA14473   0.024   3.432  10.196  0.2544 -0.5017  0.2480
  991SOD     NA14474   2.979   4.374  15.467  0.3266 -0.2111  0.7361
  992SOD     NA14475   1.100   2.461  15.323  0.3315  0.1170 -0.3932
  993SOD     NA14476   3.070   3.427  14.141 -0.7415  0.1618 -0.4260
  994SOD     NA14477   4.168   3.879  11.964  0.8473  0.1547  0.4392
  995SOD     NA14478   1.200   2.293   9.545  0.1310  0.5005  0.0676
  996SOD     NA14479   1.598   3.570  13.647 -0.0928  0.6422  0.1954
  997SOD     NA14480   1.036   3.539  13.239 -0.5115 -0.1946 -0.2285
  998SOD     NA14481   0.906   0.156  15.658  0.1708  0.5276  1.1016
  999SOD     NA14482   0.129   3.649  12.016 -0.0955 -0.0896 -0.2873
 1000SOD     NA14483   1.491   3.596   1.086 -0.0907  0.4299 -0.1141
 1001SOD     NA14484   3.667   3.373  15.207 -0.4186  0.0029  0.5685
 1002SOD     NA14485   3.858   3.740  10.230 -0.2303  0.3437  0.3565
 1003SOD     NA14486   0.257   0.700   8.691  0.0065 -0.1153  0.1908
 1004SOD     NA14487   1.127   4.707  13.662 -0.2872  0.2206 -0.2805
 1005SOD     NA14488   4.299   4.177  14.926 -0.3414 -0.2615  0.3417
 1006SOD     NA14489   2.656   1.211   9.312 -0.0753  0.7288 -0.3278
 1007SOD     NA14490   0.332   1.546   1.257 -0.5012 -0.1312 -0.1202
 1008SOD     NA14491   3.004   1.754   2.683  0.2326 -0.1241  0.1544
 1009SOD     NA14492   0.075   0.063  11.206  0.0834 -0.0651 -0.4538
 1010SOD     NA14493   0.031   2.542   0.511 -0.1485 -0.1972  0.4465
 1011SOL     OW14494   4.064   4.498   6.970 -0.1999  0.5471  0.6545
 1011SOL    HW114495   4.022   4.454   7.044 -0.9065 -1.2360 -0.8158
 1011SOL    HW214496   4.145   4.448   6.961 -1.3267 -1.2773  0.4910
 1012SOL     OW14497   3.080   2.789  12.605  0.1583 -0.4730  0.0700
 1012SOL    HW114498   3.172   2.813  12.596 -0.0810  0.9829  1.5061
 1012SOL    HW214499   3.068   2.792  12.700  2.3098  1.0991  0.2909
 1013SOL     OW14500   0.495   2.886   2.478 -0.6915 -0.5197  0.3362
 1013SOL    HW114501   0.507   2.819   2.546 -0.8954 -0.4712  0.4190
 1013SOL    HW214502   0.400   2.873   2.471 -0.8671  0.4324  0.9714
 1014SOL     OW14503   3.818   4.123   8.533  0.2698  0.0120  0.0655
 1014SOL    HW114504   3.789   4.071   8.457  2.7774  0.0995 -0.9403
 1014SOL    HW214505   3.903   4.080   8.540  0.4906  0.2754 -0.9571
 1015SOL     OW14506   4.018   1.489   1.756 -0.0308 -0.3080  0.1188
 1015SOL    HW114507   4.033   1.572   1.711  0.3751 -1.3488 -1.6579
 1015SOL    HW214508   3.937   1.474   1.709  0.2710 -2.5675  0.2844
 1016SOL     OW14509   0.648   0.335   3.835  0.0321 -0.1868 -0.3117
 1016SOL    HW114510   0.676   0.336   3.744  0.7372 -0.4274 -0.0938
 1016SOL    HW214511   0.738   0.325   3.865  0.1693 -1.1929 -1.0801
 1017SOL     OW14512   1.453   1.116  12.634 -0.7138  0.1590  0.3930
 1017SOL    HW114513   1.490   1.038  12.676  1.7896  1.5823  0.7990
 1017SOL    HW214514   1.376   1.068  12.603 -0.6509 -1.6062  2.9145
 1018SOL     OW14515   1.534   1.320   6.429 -0.0577 -0.0165  0.3746
 1018SOL    HW114516   1.577   1.348   6.348 -1.1363 -0.9421 -0.5118
 1018SOL    HW214517   1.597   1.270   6.481  0.6074  1.1420  0.7002
 1019SOL     OW14518   4.447   2.363   2.411  0.7034 -0.5940 -0.3021
 1019SOL    HW114519   4.458   2.331   2.501  0.5473 -1.9750 -0.7835
 1019SOL    HW214520   4.410   2.446   2.443  1.5582 -0.5312  0.5377
 1020SOL     OW14521   2.722   2.610   4.786  0.2768  0.2777  0.2251
 1020SOL    HW114522   2.665   2.582   4.858 -0.3738 -1.5549 -0.9977
 1020SOL    HW214523   2.747   2.527   4.745 -0.0764 -0.6651  1.8982
 1021SOL     OW14524   0.404   1.206   3.408 -0.1232  0.1655 -0.5674
 1021SOL    HW114525   0.414   1.130   3.466 -0.0374  1.3738  0.9963
 1021SOL    HW214526   0.494   1.238   3.401 -0.2762  0.5183 -0.9311
 1022SOL     OW14527   3.697   3.362   2.243  0.1149 -0.0212  0.0975
 1022SOL    HW114528   3.740   3.294   2.294  0.8144 -0.0678 -0.5500
 1022SOL    HW214529   3.626   3.394   2.299  1.3134 -1.7104  2.5868
 1023SOL     OW14530   2.723   3.095   1.269 -0.2036  0.3784 -0.0360
 1023SOL    HW114531   2.631   3.116   1.284 -0.8662 -2.7752  0.2217
 1023SOL    HW214532   2.723   3.001   1.286 -3.2583  0.2198 -0.8152
 1024SOL     OW14533   1.233   1.100   6.831 -0.3196  0.1831 -0.5563
 1024SOL    HW114534   1.254   1.007   6.825 -0.1849  0.0018  3.0841
 1024SOL    HW214535   1.153   1.099   6.883 -0.0613 -2.8735 -0.2613
 1025SOL     OW14536   0.003   1.639   8.463  0.2762  0.4028 -0.0936
 1025SOL    HW114537   4.668   1.619   8.390 -0.0761  1.7404 -0.1602
 1025SOL    HW214538   4.666   1.622   8.534 -0.0076 -0.4815 -0.5427
 1026SOL     OW14539   2.831   1.060   5.893 -0.2780 -0.1214 -0.1244
 1026SOL    HW114540   2.899   1.086   5.830 -0.5769 -2.5283 -1.4253
 1026SOL    HW214541   2.858   0.970   5.910 -1.4628 -0.3601  0.4736
 1027SOL     OW14542   2.313   2.471   3.263  0.1613  0.7439  0.4916
 1027SOL    HW114543   2.366   2.507   3.334  0.1438  2.2550 -0.2561
 1027SOL    HW214544   2.374   2.489   3.191 -0.4603 -1.0512 -0.4872
 1028SOL     OW14545   0.463   1.284  10.432 -0.2056  0.5754  0.5374
 1028SOL    HW114546   0.441   1.192  10.444  0.7198  0.0557 -1.6683
 1028SOL    HW214547   0.534   1.283  10.368 -1.5763 -0.7146 -0.9714
 1029SOL     OW14548   0.451   2.993   2.241 -0.6613  0.3106  0.2001
 1029SOL    HW114549   0.464   2.958   2.329  0.1343 -0.9236 -0.4080
 1029SOL    HW214550   0.539   3.020   2.216 -0.8824  0.9681  0.1247
 1030SOL     OW14551   0.267   2.963   6.655 -0.0637 -0.1178 -0.4743
 1030SOL    HW114552   0.317   2.994   6.579  1.5850 -0.1739  0.6045
 1030SOL    HW214553   0.204   3.032   6.674 -0.6434 -0.8654  0.2928
 1031SOL     OW14554   0.655   0.945   8.420 -0.1096 -0.2644 -0.5239
 1031SOL    HW114555   0.689   1.018   8.367  4.4297 -1.3633  0.9304
 1031SOL    HW214556   0.608   0.898   8.351  0.4749 -2.3326  0.5036
 1032SOL     OW14557   1.942   4.632   5.504 -0.2022  0.2182 -0.3269
 1032SOL    HW114558   1.849   4.608   5.505 -0.6173  1.8464  0.8795
 1032SOL    HW214559   1.987   4.552   5.532 -2.9685 -0.7531  1.3200
 1033SOL     OW14560   0.561   3.219   8.860  0.5193 -0.3709  0.7997
 1033SOL    HW114561   0.635   3.275   8.883  0.9771 -0.7560  0.2657
 1033SOL    HW214562   0.524   3.273   8.790  1.2029 -0.3312  0.4694
 1034SOL     OW14563   3.204   4.558   2.661 -0.4340  0.2080  0.2299
 1034SOL    HW114564   3.213   4.586   2.570  0.9733 -3.2749 -0.7209
 1034SOL    HW214565   3.291   4.519   2.671 -0.3419  1.1658  3.0121
 1035SOL     OW14566   1.246   1.087   0.172  0.2448 -0.1629 -0.0695
 1035SOL    HW114567   1.321   1.069   0.115  0.4374  1.3251 -0.3002
 1035SOL    HW214568   1.284   1.110   0.257  0.3023 -2.0337  0.4006
 1036SOL     OW14569   1.275   1.302   5.055 -0.0068  0.2766 -0.2516
 1036SOL    HW114570   1.232   1.370   5.106  0.2385 -0.5343  1.0404
 1036SOL    HW214571   1.345   1.277   5.115 -1.9166 -2.3721  0.8902
 1037SOL     OW14572   3.276   0.180  15.139  0.3370 -0.0640  0.0896
 1037SOL    HW114573   3.243   0.256  15.186 -1.6072  0.1207 -1.5489
 1037SOL    HW214574   3.247   0.115  15.203  0.3539 -0.2415 -0.0816
 1038SOL     OW14575   3.726   0.573   6.387  0.2631 -0.4157 -0.5139
 1038SOL    HW114576   3.637   0.539   6.400  0.9353 -1.6349  0.8817
 1038SOL    HW214577   3.722   0.648   6.446  2.3492  0.2739 -1.2689
 1039SOL     OW14578   3.011   2.973  10.403  0.3424  0.3464 -0.6351
 1039SOL    HW114579   3.070   2.899  10.397  1.7134  1.4811 -1.1794
 1039SOL    HW214580   2.936   2.930  10.364 -0.4859  1.7417 -0.6073
 1040SOL     OW14581   1.003   1.274   5.498  0.1027 -1.2722  0.1181
 1040SOL    HW114582   1.040   1.360   5.478  0.3932 -1.6771 -1.1054
 1040SOL    HW214583   0.953   1.264   5.418  1.0800  0.7095 -0.7404
 1041SOL     OW14584   0.248   3.730   9.297  0.1825  0.4325 -0.2847
 1041SOL    HW114585   0.244   3.643   9.258 -0.6550  0.9896 -1.4355
 1041SOL    HW214586   0.159   3.743   9.330  1.5102  1.3524  2.8989
 1042SOL     OW14587   2.767   4.006   6.052  0.2304 -0.1238  0.0463
 1042SOL    HW114588   2.748   4.003   6.146 -1.1353 -1.0120 -0.2557
 1042SOL    HW214589   2.730   4.092   6.030  1.6638  0.5840  0.3894
 1043SOL     OW14590   0.394   3.637   8.906 -0.1701 -0.0459 -0.6762
 1043SOL    HW114591   0.482   3.601   8.916 -1.7490 -3.3792  1.2631
 1043SOL    HW214592   0.400   3.731   8.921  0.6281 -0.0053 -1.2824
 1044SOL     OW14593   3.182   3.580   1.471  0.0188  0.1228  0.5150
 1044SOL    HW114594   3.276   3.601   1.478  0.0616  0.0270  0.2298
 1044SOL    HW214595   3.195   3.485   1.467  0.5700  0.1881  0.6645
 1045SOL     OW14596   4.129   0.428   2.849 -0.1421  0.1123 -0.3535
 1045SOL    HW114597   4.210   0.391   2.885 -1.5003 -0.0599  2.5782
 1045SOL    HW214598   4.163   0.436   2.760 -0.7880 -1.8366 -0.7683
 1046SOL     OW14599   2.437   0.850  13.673  0.3195 -0.4782 -0.2587
 1046SOL    HW114600   2.443   0.838  13.768 -0.2567  0.1614 -0.1370
 1046SOL    HW214601   2.389   0.933  13.673  0.1856 -0.5552 -0.1827
 1047SOL     OW14602   3.477   4.465   3.273  0.5163  0.0969 -0.6517
 1047SOL    HW114603   3.479   4.370   3.275  1.4655  0.1272 -0.1904
 1047SOL    HW214604   3.426   4.474   3.192  0.8983  1.6282 -0.7187
 1048SOL     OW14605   3.006   4.559   1.577 -0.1440  0.2090  0.1582
 1048SOL    HW114606   3.054   4.585   1.499  1.2730  0.2673  1.0438
 1048SOL    HW214607   3.080   4.564   1.639  1.1970 -0.3838 -1.3999
 1049SOL     OW14608   0.759   0.286   5.409 -0.3463 -0.0036  0.0582
 1049SOL    HW114609   0.774   0.207   5.358  0.0001  0.0596  0.0605
 1049SOL    HW214610   0.840   0.279   5.458 -0.3544  0.4084  0.1336
 1050SOL     OW14611   1.376   4.602   4.830  0.6743  0.4877 -0.1977
 1050SOL    HW114612   1.349   4.553   4.907  1.2413  0.3515 -0.0886
 1050SOL    HW214613   1.288   4.641   4.824  1.6193  2.4880 -0.9840
 1051SOL     OW14614   3.592   0.672  12.318 -0.6141  0.0448  0.5163
 1051SOL    HW114615   3.525   0.615  12.281  1.6033 -1.7299 -0.8060
 1051SOL    HW214616   3.640   0.693  12.238 -1.5702  1.4739  0.3107
 1052SOL     OW14617   4.031   4.317  10.668  0.4439 -0.2950 -0.3419
 1052SOL    HW114618   4.116   4.355  10.689 -0.8558  2.6273 -0.3439
 1052SOL    HW214619   4.016   4.338  10.576  0.6294  1.3677  0.0049
 1053SOL     OW14620   3.088   3.539   4.164 -0.1482  0.0206 -0.0850
 1053SOL    HW114621   3.035   3.542   4.243  1.2571 -1.6702  0.9266
 1053SOL    HW214622   3.078   3.632   4.142 -2.5117  0.3107  2.3290
 1054SOL     OW14623   2.351   3.364   3.565 -0.3507 -0.1877 -0.3055
 1054SOL    HW114624   2.270   3.393   3.523 -0.1419  2.2636  0.9628
 1054SOL    HW214625   2.389   3.308   3.498  0.0190  0.4427 -0.6288
 1055SOL     OW14626   3.469   0.043   9.973 -0.1424 -0.8605 -0.2467
 1055SOL    HW114627   3.467   4.696   9.910  0.3059 -1.2920  0.2325
 1055SOL    HW214628   3.488   0.121   9.919  0.1566 -0.4393  0.4696
 1056SOL     OW14629   2.931   3.580   5.334 -0.6747 -0.1987  0.8409
 1056SOL    HW114630   2.907   3.646   5.270  0.4432 -0.7735 -0.1787
 1056SOL    HW214631   2.910   3.632   5.412  0.5847  0.0416  1.0245
 1057SOL     OW14632   2.441   0.948   8.268  0.2993  0.0286  0.3162
 1057SOL    HW114633   2.418   0.856   8.252  1.3680 -0.2945  0.6636
 1057SOL    HW214634   2.534   0.928   8.275  0.5307  0.6541 -1.0332
 1058SOL     OW14635   1.959   0.104   9.917  0.3020 -0.5152 -0.3357
 1058SOL    HW114636   2.027   0.136   9.976  1.9514  0.1647 -2.5976
 1058SOL    HW214637   1.905   0.051   9.976 -1.5105 -1.1849 -2.6197
 1059SOL     OW14638   2.661   3.421   3.341  0.4766 -0.0467 -0.0095
 1059SOL    HW114639   2.615   3.505   3.342  0.4170 -0.1322  3.0790
 1059SOL    HW214640   2.626   3.373   3.266  0.3535 -1.4260  0.9431
 1060SOL     OW14641   3.370   0.749  15.218 -0.2992  0.5239  0.0146
 1060SOL    HW114642   3.285   0.792  15.212 -0.5675  0.2852  2.2260
 1060SOL    HW214643   3.428   0.825  15.212  1.0563 -0.6194 -1.4366
 1061SOL     OW14644   3.372   0.863   7.557 -1.1931  0.2220 -0.3187
 1061SOL    HW114645   3.343   0.919   7.629  0.2143 -1.1861  1.3382
 1061SOL    HW214646   3.405   0.936   7.505 -1.2102 -0.4611 -1.2805
 1062SOL     OW14647   0.879   0.615   4.185  0.6793 -0.0152 -0.2573
 1062SOL    HW114648   0.952   0.674   4.203  0.7573 -0.2858  0.2864
 1062SOL    HW214649   0.803   0.670   4.203  2.2152  1.6735  0.9190
 1063SOL     OW14650   3.196   3.134   7.245 -0.7087 -0.2713 -0.5336
 1063SOL    HW114651   3.267   3.135   7.308 -2.4688 -1.9454  1.4809
 1063SOL    HW214652   3.137   3.069   7.283  2.3826 -1.9254  1.3583
 1064SOL     OW14653   2.786   1.659   3.196 -0.2091  0.1624 -0.8324
 1064SOL    HW114654   2.738   1.690   3.119  0.1037  2.5156 -0.0889
 1064SOL    HW214655   2.754   1.572   3.216 -0.9649  0.7651  0.5827
 1065SOL     OW14656   1.137   2.873   7.642 -0.5639 -0.1775 -0.2272
 1065SOL    HW114657   1.084   2.798   7.617 -0.1754 -0.1054 -1.3051
 1065SOL    HW214658   1.222   2.830   7.655 -0.9571 -0.3041  1.8425
 1066SOL     OW14659   3.865   1.551   4.471  0.6832 -0.3169  0.4164
 1066SOL    HW114660   3.865   1.495   4.549  0.5709 -0.9039 -0.0014
 1066SOL    HW214661   3.820   1.628   4.505 -0.5074 -1.2280  0.9108
 1067SOL     OW14662   3.976   2.936   5.532  0.1040  0.5443  0.3822
 1067SOL    HW114663   3.996   2.842   5.528  1.1102  0.8808 -2.2100
 1067SOL    HW214664   3.968   2.950   5.438 -0.9150  0.3746  0.4409
 1068SOL     OW14665   1.409   1.472   4.781  0.0903 -0.2829  0.2534
 1068SOL    HW114666   1.464   1.465   4.859 -2.0528  2.1429  1.9815
 1068SOL    HW214667   1.323   1.436   4.802 -0.6004  1.4734  0.4745
 1069SOL     OW14668   4.140   3.371   2.247  0.4375 -0.0636  0.1688
 1069SOL    HW114669   4.219   3.328   2.280  1.3726  0.8001 -0.9348
 1069SOL    HW214670   4.165   3.461   2.267  1.9391 -1.0431  2.6753
 1070SOL     OW14671   3.984   2.046   4.139 -0.0076  0.1789 -0.2278
 1070SOL    HW114672   4.022   2.086   4.061  0.1876  2.3977  1.0212
 1070SOL    HW214673   4.052   1.979   4.151 -0.2258 -0.1212 -0.6275
 1071SOL     OW14674   1.420   3.075   5.940  0.4321 -0.4507  0.6570
 1071SOL    HW114675   1.491   3.041   5.886  1.3431  0.6896  1.1368
 1071SOL    HW214676   1.368   2.995   5.952  1.1702 -1.0098  0.0996
 1072SOL     OW14677   2.722   4.089   3.843 -0.3152  0.0400  0.3446
 1072SOL    HW114678   2.682   4.156   3.788 -1.5194 -0.8222  0.1489
 1072SOL    HW214679   2.640   4.039   3.837 -0.5505  0.4025  0.5349
 1073SOL     OW14680   3.494   0.452   6.447  0.0527  0.6223  0.8352
 1073SOL    HW114681   3.440   0.519   6.487 -0.4333  0.4566  0.4499
 1073SOL    HW214682   3.435   0.377   6.444  1.7332 -0.6510 -0.5628
 1074SOL     OW14683   0.743   4.210  16.094  0.1083 -0.0330  0.6937
 1074SOL    HW114684   0.653   4.181  16.109 -0.4162  2.4544  2.3053
 1074SOL    HW214685   0.744   4.278  16.162 -0.3899 -1.3138  1.9813
 1075SOL     OW14686   4.401   3.577   2.290  0.2989 -0.1645  0.2657
 1075SOL    HW114687   4.431   3.649   2.234 -1.5832  0.6487  0.3297
 1075SOL    HW214688   4.463   3.514   2.253 -2.8337 -3.4336  0.5889
 1076SOL     OW14689   1.707   3.759  13.714 -0.2896  0.1309 -0.3778
 1076SOL    HW114690   1.713   3.848  13.680  1.4142  0.0670 -0.2403
 1076SOL    HW214691   1.746   3.760  13.801  0.1808  1.4875 -0.6118
 1077SOL     OW14692   4.126   2.286  11.568 -0.5287  0.4557  0.4153
 1077SOL    HW114693   4.192   2.351  11.545  0.1716  0.6455  3.0144
 1077SOL    HW214694   4.191   2.216  11.579 -0.8991 -0.0491 -0.5818
 1078SOL     OW14695   2.844   2.231   6.240 -0.0731 -0.5685  0.2062
 1078SOL    HW114696   2.918   2.174   6.216  0.1927  0.0585 -0.4567
 1078SOL    HW214697   2.814   2.191   6.321  2.0699  1.2519  1.8934
 1079SOL     OW14698   2.182   1.107   9.743  0.2894  0.1572 -0.2241
 1079SOL    HW114699   2.214   1.186   9.700  1.2673  0.4190  1.0142
 1079SOL    HW214700   2.248   1.042   9.718 -1.2795 -1.4664 -0.2008
 1080SOL     OW14701   4.528   0.470  17.487 -0.5250  0.0718 -0.3617
 1080SOL    HW114702   4.509   0.495  17.397  1.6464 -0.4663 -0.9653
 1080SOL    HW214703   4.506   0.552  17.532 -0.4185 -0.4713  0.6841
 1081SOL     OW14704   1.906   2.634   8.258  0.0746 -0.2725 -0.0908
 1081SOL    HW114705   1.868   2.696   8.320  0.9758  0.4262 -0.2513
 1081SOL    HW214706   1.937   2.692   8.188  0.3926 -0.2982  0.0292
 1082SOL     OW14707   0.132   3.874  10.430  0.0795  0.7198  0.2739
 1082SOL    HW114708   0.054   3.926  10.448  0.0169  0.8294 -0.3405
 1082SOL    HW214709   0.164   3.901  10.344 -1.1917  0.2123 -0.3417
 1083SOL     OW14710   3.639   1.065   5.890 -0.8001 -0.1725 -0.4970
 1083SOL    HW114711   3.576   1.047   5.960  1.5578 -0.7592  1.4542
 1083SOL    HW214712   3.591   1.022   5.820 -0.2147 -1.3398 -0.1862
 1084SOL     OW14713   2.513   4.293   0.171  0.1547  0.2143  0.1445
 1084SOL    HW114714   2.516   4.200   0.194 -1.5467 -0.3752 -2.0310
 1084SOL    HW214715   2.486   4.278   0.080  0.5584 -0.9036  0.2029
 1085SOL     OW14716   1.250   3.951  13.287  0.0238 -0.3872 -0.2083
 1085SOL    HW114717   1.335   3.966  13.330  1.0321 -0.1906 -2.2999
 1085SOL    HW214718   1.280   3.902  13.210  1.1964 -0.6612  0.4101
 1086SOL     OW14719   4.106   1.434   6.174  0.4535 -0.4575  0.8724
 1086SOL    HW114720   4.076   1.345   6.155 -0.7712  0.2553 -0.5051
 1086SOL    HW214721   4.067   1.488   6.105  2.7964  1.8920  1.3862
 1087SOL     OW14722   1.166   0.420  10.892  0.4234 -0.2102 -0.3023
 1087SOL    HW114723   1.139   0.451  10.805  0.0386  1.4060  0.3933
 1087SOL    HW214724   1.083   0.383  10.920  1.6887 -1.9743  1.0959
 1088SOL     OW14725   0.846   4.512   9.409 -0.3259  0.1544  0.2033
 1088SOL    HW114726   0.832   4.604   9.434 -1.6938  0.2076 -0.7606
 1088SOL    HW214727   0.902   4.482   9.481 -0.6844  0.7931  0.7613
 1089SOL     OW14728   3.134   0.235   6.718 -0.6082 -0.2225 -0.0543
 1089SOL    HW114729   3.209   0.291   6.734  0.2300 -1.3499 -0.0107
 1089SOL    HW214730   3.071   0.280   6.773  0.7473  2.8368 -1.0473
 1090SOL     OW14731   3.001   1.360   9.722 -0.1012 -0.2153 -0.0196
 1090SOL    HW114732   3.010   1.267   9.740  0.1190  0.0104  1.0233
 1090SOL    HW214733   3.086   1.369   9.677  0.5923 -0.4611  1.2495
 1091SOL     OW14734   2.370   2.439   4.649 -0.0681  0.4545 -0.1532
 1091SOL    HW114735   2.392   2.385   4.724 -0.3124  2.4108  1.3259
 1091SOL    HW214736   2.311   2.378   4.606  1.2928 -0.2243 -1.0574
 1092SOL     OW14737   1.149   2.977   2.653  0.1138  0.3254  0.2415
 1092SOL    HW114738   1.096   2.926   2.591 -0.6633  1.7122 -0.2335
 1092SOL    HW214739   1.190   2.913   2.711  1.3200 -0.0914 -1.0883
 1093SOL     OW14740   3.439   1.020  15.472 -0.0411  0.2348 -0.0739
 1093SOL    HW114741   3.528   1.007  15.440  1.1608  1.8975  2.6221
 1093SOL    HW214742   3.409   1.095  15.420 -1.5392  0.3464  0.9569
 1094SOL     OW14743   3.030   2.066   1.223 -0.0288 -0.1263 -0.7788
 1094SOL    HW114744   3.027   2.160   1.241  2.0998  0.1777 -1.9598
 1094SOL    HW214745   3.120   2.048   1.251 -0.4478  0.6064  1.0223
 1095SOL     OW14746   0.999   0.569   0.846 -0.6150 -0.3526  0.2968
 1095SOL    HW114747   1.083   0.616   0.849 -0.9832  0.3676 -0.8379
 1095SOL    HW214748   1.010   0.531   0.759  0.4859 -1.3788  0.8732
 1096SOL     OW14749   3.253   3.881  10.077  0.4115 -0.2088  0.1407
 1096SOL    HW114750   3.197   3.954  10.104 -1.8943 -1.1606 -2.0773
 1096SOL    HW214751   3.197   3.804  10.085 -2.4834  1.8114 -0.6918
 1097SOL     OW14752   3.754   0.091  13.423 -0.6666  0.1708 -0.2279
 1097SOL    HW114753   3.804   0.016  13.455  0.2247  1.5859  1.7209
 1097SOL    HW214754   3.797   0.159  13.474 -1.7773  0.8843 -0.2351
 1098SOL     OW14755   0.446   3.273   2.093 -0.4273  0.3736 -0.8885
 1098SOL    HW114756   0.513   3.253   2.158 -1.6138 -0.7107  0.0140
 1098SOL    HW214757   0.492   3.325   2.027 -0.1757  2.1566  0.6820
 1099SOL     OW14758   4.096   4.439   8.605  0.3301 -0.5833  0.3432
 1099SOL    HW114759   4.080   4.416   8.513 -0.1127  0.0385  0.2668
 1099SOL    HW214760   4.088   4.351   8.643  0.8293 -1.2064 -0.9717
 1100SOL     OW14761   4.546   2.152   6.435 -0.2059 -0.4664 -0.2731
 1100SOL    HW114762   4.510   2.115   6.516 -1.8313  0.0636 -0.7426
 1100SOL    HW214763   4.580   2.236   6.467 -0.5727 -0.6150  0.5181
 1101SOL     OW14764   4.206   2.982   0.657 -0.0173  0.6739 -0.4268
 1101SOL    HW114765   4.257   2.993   0.577  1.1464 -2.6306 -0.1163
 1101SOL    HW214766   4.125   2.947   0.622 -0.6949  2.3918 -0.5630
 1102SOL     OW14767   2.569   4.213   8.446  0.5799 -0.2883 -0.6163
 1102SOL    HW114768   2.530   4.158   8.514  0.8199 -0.0416 -0.2728
 1102SOL    HW214769   2.561   4.294   8.498  0.5267  0.1247 -1.2705
 1103SOL     OW14770   0.953   3.909  16.241 -0.2057  0.6490 -0.4629
 1103SOL    HW114771   0.887   3.881  16.305  1.8486  0.6612  1.6643
 1103SOL    HW214772   0.970   3.999  16.270  0.6518  0.1419  0.5973
 1104SOL     OW14773   2.759   4.359   5.715  0.2402  0.1048 -0.3790
 1104SOL    HW114774   2.852   4.364   5.738  0.0165 -1.1081  0.7909
 1104SOL    HW214775   2.744   4.453   5.721 -2.9044 -0.3898 -0.4067
 1105SOL     OW14776   1.782   2.490   5.659  0.3905  0.3191 -0.3765
 1105SOL    HW114777   1.844   2.535   5.601  1.0356  0.6946  0.5973
 1105SOL    HW214778   1.703   2.527   5.619  0.8503 -0.1261 -1.6690
 1106SOL     OW14779   0.728   0.215  17.359 -0.6869  0.0426  0.1883
 1106SOL    HW114780   0.719   0.210  17.264 -0.1251  1.7399  0.0384
 1106SOL    HW214781   0.703   0.307  17.367 -1.7230  0.0701 -3.4234
 1107SOL     OW14782   4.244   1.401   4.703 -0.4832  0.2766 -0.1708
 1107SOL    HW114783   4.244   1.381   4.797 -0.5806  0.1529 -0.1972
 1107SOL    HW214784   4.169   1.460   4.705 -1.5789 -1.1148 -0.5448
 1108SOL     OW14785   1.723   0.096   2.209 -0.1489 -0.0639 -0.2144
 1108SOL    HW114786   1.688   0.159   2.146 -1.1169 -0.9679 -0.5938
 1108SOL    HW214787   1.649   0.082   2.268 -0.4375  1.3315 -0.2307
 1109SOL     OW14788   0.336   3.497   0.296 -0.2373 -0.2880 -0.1775
 1109SOL    HW114789   0.333   3.423   0.236  3.8647 -0.6181  0.0774
 1109SOL    HW214790   0.305   3.574   0.248  0.6987  0.2841  0.1368
 1110SOL     OW14791   4.170   4.542   3.490  0.4287  0.2756  0.2708
 1110SOL    HW114792   4.190   4.604   3.419 -2.5884 -0.2543 -1.0213
 1110SOL    HW214793   4.224   4.469   3.462 -1.1362 -0.3557 -1.0961
 1111SOL     OW14794   0.549   3.188   4.679  0.0911  0.3293  0.4349
 1111SOL    HW114795   0.601   3.217   4.754 -0.5938 -0.5571  1.2501
 1111SOL    HW214796   0.552   3.270   4.630 -0.5759 -0.8176 -1.5172
 1112SOL     OW14797   4.505   3.555   7.015  0.4393  0.2955  0.2628
 1112SOL    HW114798   4.595   3.530   6.994  0.7876  1.5952  0.2426
 1112SOL    HW214799   4.523   3.589   7.103  1.8886  2.2141 -0.7658
 1113SOL     OW14800   3.878   0.172   7.188 -0.1388  0.3581 -0.0346
 1113SOL    HW114801   3.915   0.092   7.225  0.8903  0.4325 -0.8941
 1113SOL    HW214802   3.956   0.224   7.169  0.6770 -1.0804 -0.6423
 1114SOL     OW14803   1.640   4.154   7.238  0.5153  0.1962  0.3170
 1114SOL    HW114804   1.660   4.070   7.280  2.7122 -0.9787 -3.0519
 1114SOL    HW214805   1.628   4.210   7.315 -0.1731  2.7637 -1.6663
 1115SOL     OW14806   2.500   1.093   5.394  0.2211 -0.1175 -0.0967
 1115SOL    HW114807   2.528   1.145   5.319 -0.2639  0.5326  0.1630
 1115SOL    HW214808   2.501   1.008   5.352  1.4859 -1.9558  3.6367
 1116SOL     OW14809   3.867   3.073   7.493 -0.9930 -0.6261  0.1714
 1116SOL    HW114810   3.810   3.142   7.460  2.9934  2.1972 -0.7292
 1116SOL    HW214811   3.842   3.006   7.429  1.7714 -0.6051 -0.9170
 1117SOL     OW14812   3.697   0.746   5.399  0.3515 -1.2231  0.3938
 1117SOL    HW114813   3.750   0.690   5.456  2.0105  0.0799  0.1146
 1117SOL    HW214814   3.737   0.742   5.313 -2.6343 -1.0612 -0.9993
 1118SOL     OW14815   0.601   1.039   6.872 -0.6408 -0.0970 -0.2337
 1118SOL    HW114816   0.619   1.132   6.864 -0.0328  0.1215  3.6101
 1118SOL    HW214817   0.506   1.040   6.884 -0.1754  0.1738  3.5747
 1119SOL     OW14818   1.860   0.612   8.727 -0.0935  0.3475 -0.1550
 1119SOL    HW114819   1.937   0.555   8.726  0.3873  1.0333 -1.6501
 1119SOL    HW214820   1.894   0.700   8.709  0.1777  0.0521 -1.0539
 1120SOL     OW14821   1.743   3.662   7.735 -0.5960  0.7126 -0.2042
 1120SOL    HW114822   1.787   3.647   7.818  1.6007 -0.3142 -1.5754
 1120SOL    HW214823   1.660   3.693   7.772 -0.9681  2.2619 -2.3215
 1121SOL     OW14824   2.171   2.373  14.944 -0.4356 -0.0404 -0.0113
 1121SOL    HW114825   2.174   2.281  14.967  2.2479 -0.0155 -0.2041
 1121SOL    HW214826   2.231   2.409  15.010  0.6044  1.1996 -1.6200
 1122SOL     OW14827   2.037   3.597   2.368 -0.2493  0.3100 -0.6797
 1122SOL    HW114828   2.055   3.529   2.303  1.3899 -0.7833  0.9024
 1122SOL    HW214829   2.112   3.656   2.355  0.4653  0.2083  2.9624
 1123SOL     OW14830   1.479   1.505   4.511 -0.1561  0.2103 -0.0065
 1123SOL    HW114831   1.564   1.463   4.520 -0.3380  0.0195  0.8314
 1123SOL    HW214832   1.450   1.495   4.602  0.7343 -2.3461  0.0009
 1124SOL     OW14833   0.054   4.578  16.667 -0.2660  0.1539 -0.5053
 1124SOL    HW114834   0.014   4.500  16.628 -0.6390 -0.3364  0.8500
 1124SOL    HW214835   0.009   4.650  16.624  0.8296  1.9528  1.3446
 1125SOL     OW14836   4.169   2.102   3.583 -0.1870 -0.1877  0.2593
 1125SOL    HW114837   4.173   2.006   3.576  1.1643 -0.1056  0.0326
 1125SOL    HW214838   4.091   2.121   3.531 -1.1911 -0.8058  1.5189
 1126SOL     OW14839   2.949   0.656   9.141 -0.0721  0.1142  0.3970
 1126SOL    HW114840   3.005   0.622   9.072  0.2287  0.7978  0.3132
 1126SOL    HW214841   2.926   0.579   9.193 -0.1466  0.3803  0.7546
 1127SOL     OW14842   4.416   1.122   2.380 -0.0088  0.3817 -0.1745
 1127SOL    HW114843   4.395   1.155   2.468  0.0712  1.7762 -0.6812
 1127SOL    HW214844   4.360   1.045   2.371 -1.1290  1.1433  0.3499
 1128SOL     OW14845   0.940   2.702   4.491  0.0541  0.6652  0.2027
 1128SOL    HW114846   0.857   2.729   4.452  1.1135 -0.4210 -2.7295
 1128SOL    HW214847   0.994   2.781   4.482  1.3323 -0.2679 -0.3896
 1129SOL     OW14848   2.302   2.663   5.628  0.7324  0.4009  0.6167
 1129SOL    HW114849   2.227   2.706   5.668  1.2653  0.4058  1.6140
 1129SOL    HW214850   2.378   2.708   5.664  0.2928 -0.7305  2.9216
 1130SOL     OW14851   2.632   2.283   2.145  0.5700 -0.4659 -0.0955
 1130SOL    HW114852   2.668   2.371   2.133 -0.4327 -0.0067  0.2543
 1130SOL    HW214853   2.657   2.278   2.237  1.0056 -0.3206 -0.2046
 1131SOL     OW14854   4.238   4.056   2.513 -0.1874  0.4471  0.3485
 1131SOL    HW114855   4.273   4.008   2.588  0.0687 -1.7958 -1.2121
 1131SOL    HW214856   4.312   4.029   2.459  0.9007  2.4837  0.8407
 1132SOL     OW14857   2.411   0.592   8.844  0.3281 -0.1306  0.1214
 1132SOL    HW114858   2.459   0.667   8.878  0.9696  0.1704 -1.4229
 1132SOL    HW214859   2.369   0.563   8.925 -1.0090  0.2336 -0.4367
 1133SOL     OW14860   1.344   4.511   7.451 -0.1136  0.1033  0.3950
 1133SOL    HW114861   1.378   4.562   7.377 -0.4091 -0.4000 -0.0819
 1133SOL    HW214862   1.352   4.582   7.515 -0.6369  0.8501 -0.3711
 1134SOL     OW14863   2.952   4.672   4.618 -0.6515  0.0096 -0.0609
 1134SOL    HW114864   2.950   0.007   4.693 -0.9525 -0.7706  0.5432
 1134SOL    HW214865   2.890   4.610   4.656  0.8321 -0.6046  1.3553
 1135SOL     OW14866   3.622   4.562  14.215 -0.2614  0.3399  0.0035
 1135SOL    HW114867   3.562   4.509  14.267  2.1991 -1.1565  1.3058
 1135SOL    HW214868   3.556   4.602  14.158  1.2919  1.2485 -1.1880
 1136SOL     OW14869   2.248   1.383  12.318 -0.4132  0.5479 -0.0193
 1136SOL    HW114870   2.278   1.308  12.268  2.7077  0.6259  1.7013
 1136SOL    HW214871   2.260   1.441  12.243 -1.8875  0.7612 -0.0886
 1137SOL     OW14872   3.532   4.679  11.707 -0.6607  0.2287 -0.3712
 1137SOL    HW114873   3.441   4.703  11.689 -0.0088  1.3976 -2.1767
 1137SOL    HW214874   3.569   0.043  11.713  0.4097 -0.4059  2.2169
 1138SOL     OW14875   1.845   3.436   4.513  0.6525 -0.0057 -0.4873
 1138SOL    HW114876   1.862   3.440   4.607 -0.3177  1.1674 -0.3572
 1138SOL    HW214877   1.929   3.408   4.478  1.8404 -0.7861  2.9720
 1139SOL     OW14878   4.671   3.540  13.872  0.0747  0.0117  0.4412
 1139SOL    HW114879   4.577   3.520  13.877  0.0766 -0.0065  0.4015
 1139SOL    HW214880   4.704   3.451  13.882 -1.4843 -0.6244 -0.0276
 1140SOL     OW14881   4.401   2.655   4.158  0.3289  0.2524  1.1906
 1140SOL    HW114882   4.344   2.616   4.225 -1.5399  2.7928  1.0862
 1140SOL    HW214883   4.467   2.709   4.202 -0.1753  0.4035  1.7556
 1141SOL     OW14884   1.954   2.448   6.614  0.8944  0.1493 -0.6623
 1141SOL    HW114885   2.048   2.434   6.600  1.1409 -1.5954  2.6794
 1141SOL    HW214886   1.949   2.518   6.549  1.9688  0.8683  0.0468
 1142SOL     OW14887   4.097   3.042  13.118  0.3126  0.4876  0.1632
 1142SOL    HW114888   4.045   3.118  13.093  0.1832  0.2282 -0.3613
 1142SOL    HW214889   4.181   3.079  13.145  0.2042  0.5950  0.3508
 1143SOL     OW14890   2.768   4.604  15.114  0.1234 -0.4338 -0.2190
 1143SOL    HW114891   2.743   4.693  15.088  1.7238 -0.2177 -1.0472
 1143SOL    HW214892   2.689   4.552  15.106  0.3348 -0.6637 -0.7864
 1144SOL     OW14893   0.700   0.867   5.744  0.3009  0.4865  0.0815
 1144SOL    HW114894   0.726   0.779   5.716 -0.8037 -0.4301  1.9276
 1144SOL    HW214895   0.604   0.865   5.737  0.4500  0.4185 -2.1272
 1145SOL     OW14896   2.337   0.823   6.199  0.2039  0.1078 -0.2912
 1145SOL    HW114897   2.418   0.858   6.236 -0.0442  0.2504  0.1167
 1145SOL    HW214898   2.305   0.762   6.266  1.7088  1.0207  1.2400
 1146SOL     OW14899   3.138   1.848   3.355 -0.1713  0.2506 -0.3846
 1146SOL    HW114900   3.153   1.786   3.284  0.3708 -0.5702  0.4576
 1146SOL    HW214901   3.232   1.870   3.352 -0.3201  1.1600  2.2008
 1147SOL     OW14902   1.517   2.319   8.163  0.3648 -0.2898 -0.0439
 1147SOL    HW114903   1.440   2.315   8.106  0.1328  2.0497  0.1205
 1147SOL    HW214904   1.528   2.409   8.195 -2.2256  0.4367 -1.1468
 1148SOL     OW14905   1.192   2.036   8.925  0.0572 -0.5502 -0.4131
 1148SOL    HW114906   1.229   1.958   8.968  0.4701  1.1277  2.2667
 1148SOL    HW214907   1.237   2.021   8.842  0.6405  0.3485 -0.2496
 1149SOL     OW14908   4.188   2.363   0.907  1.2216 -0.0909 -0.0029
 1149SOL    HW114909   4.223   2.375   0.818  0.0470 -0.4841 -0.5254
 1149SOL    HW214910   4.195   2.454   0.934  0.6741 -0.2470  0.6590
 1150SOL     OW14911   3.166   3.516   4.775  0.2120  0.2245  0.3017
 1150SOL    HW114912   3.194   3.605   4.799 -0.9362  0.5886  0.2870
 1150SOL    HW214913   3.238   3.503   4.713 -1.0374 -0.8869 -0.8979
 1151SOL     OW14914   2.927   2.413   6.980 -0.0060 -0.5744 -0.0369
 1151SOL    HW114915   3.005   2.442   7.027 -0.0786  1.4292 -1.1402
 1151SOL    HW214916   2.956   2.366   6.901 -1.4528 -2.4905  0.5766
 1152SOL     OW14917   3.768   1.431   4.103 -0.3984  0.0170 -0.1604
 1152SOL    HW114918   3.683   1.457   4.140  1.1535  2.4271  1.7134
 1152SOL    HW214919   3.821   1.511   4.109  1.6416 -1.2191 -1.8704
 1153SOL     OW14920   3.499   4.416   6.677 -0.1038 -0.1092 -0.2590
 1153SOL    HW114921   3.454   4.337   6.709  1.0068 -0.7659 -0.2885
 1153SOL    HW214922   3.524   4.392   6.587 -0.1704 -1.6758  0.1399
 1154SOL     OW14923   2.429   4.609   0.255  0.4140 -0.5905  0.2417
 1154SOL    HW114924   2.346   4.655   0.244  0.8073  0.5962  2.1993
 1154SOL    HW214925   2.490   4.682   0.263 -2.8219  2.0926  0.3952
 1155SOL     OW14926   4.110   0.461   8.985 -0.7266 -0.3453  0.0267
 1155SOL    HW114927   4.149   0.544   8.958 -0.7423 -0.6655 -0.9843
 1155SOL    HW214928   4.186   0.407   9.006 -1.4776 -1.4604 -0.1388
 1156SOL     OW14929   1.319   1.211  16.988  0.1697 -0.0212 -0.2629
 1156SOL    HW114930   1.408   1.245  16.979 -0.4181  2.1536  2.1562
 1156SOL    HW214931   1.339   1.125  17.025 -1.3846 -0.9593 -1.6154
 1157SOL     OW14932   2.897   2.716  14.124 -0.0163  0.2016 -0.5092
 1157SOL    HW114933   2.847   2.652  14.176  0.5556 -1.2890 -1.7956
 1157SOL    HW214934   2.905   2.658  14.048  2.0382 -1.5711  1.0835
 1158SOL     OW14935   3.601   3.948   2.405 -1.1439  0.0447 -0.3963
 1158SOL    HW114936   3.692   3.934   2.381 -0.7579  2.2899 -0.2165
 1158SOL    HW214937   3.607   4.042   2.424  0.7687 -0.2580  0.5131
 1159SOL     OW14938   4.052   2.924  17.128  0.1387  0.2693  0.2039
 1159SOL    HW114939   4.081   2.889  17.213  1.8367  0.3879 -0.3332
 1159SOL    HW214940   4.135   2.925  17.080 -0.6419  1.0297 -1.1175
 1160SOL     OW14941   4.346   0.619   3.110 -0.1399  0.0376 -0.1918
 1160SOL    HW114942   4.293   0.562   3.054  0.6577 -1.7484  0.8593
 1160SOL    HW214943   4.437   0.599   3.086  0.0010 -0.0441  0.4005
 1161SOL     OW14944   4.079   4.671  10.697  0.1226  0.0123 -0.9198
 1161SOL    HW114945   4.123   4.591  10.724 -2.1620 -1.3282 -1.1904
 1161SOL    HW214946   4.153   4.716  10.657  1.1091 -0.0581  0.8097
 1162SOL     OW14947   2.302   1.164  10.630  0.0945  0.4165  0.8600
 1162SOL    HW114948   2.315   1.120  10.714  1.5689  1.8059  1.3681
 1162SOL    HW214949   2.211   1.184  10.649 -0.5128 -1.1660 -0.4524
 1163SOL     OW14950   4.363   4.685   8.221  0.6505  0.4989 -0.2057
 1163SOL    HW114951   4.337   0.053   8.213  1.3166  0.9179  2.3644
 1163SOL    HW214952   4.327   4.659   8.306  0.5481 -0.0090 -0.4055
 1164SOL     OW14953   1.640   4.341   2.152 -0.6502  0.0672  0.2934
 1164SOL    HW114954   1.699   4.300   2.089  0.5318 -0.4579  1.7419
 1164SOL    HW214955   1.702   4.392   2.204  0.5081 -0.1858 -0.8497
 1165SOL     OW14956   2.693   3.876   4.555  0.2754 -0.4007  0.9934
 1165SOL    HW114957   2.716   3.825   4.633  0.6047  1.7584  2.3123
 1165SOL    HW214958   2.651   3.952   4.595  0.5896  0.5667 -0.4895
 1166SOL     OW14959   2.064   0.179  17.055 -0.0656 -0.1002 -0.1581
 1166SOL    HW114960   2.125   0.253  17.060  1.5907 -1.5175  0.5187
 1166SOL    HW214961   1.986   0.226  17.087 -1.4659 -2.5803  0.0724
 1167SOL     OW14962   0.225   2.670   3.671 -0.1619 -0.4296 -0.0095
 1167SOL    HW114963   0.250   2.598   3.614 -1.9761 -1.0516 -0.0361
 1167SOL    HW214964   0.161   2.720   3.620  0.7299 -0.1947 -0.8982
 1168SOL     OW14965   4.472   4.382   8.551  0.0999 -0.1645  0.4077
 1168SOL    HW114966   4.475   4.288   8.534  0.7347 -0.1792  0.5759
 1168SOL    HW214967   4.562   4.411   8.533 -0.3713 -0.0038 -1.6795
 1169SOL     OW14968   3.432   1.786  16.433  0.1176  0.0289  0.4275
 1169SOL    HW114969   3.435   1.697  16.398  1.7275  0.3155 -0.1440
 1169SOL    HW214970   3.343   1.816  16.411  1.5157  1.1956 -3.6998
 1170SOL     OW14971   4.463   4.463   5.002 -0.1020  0.7716 -0.0928
 1170SOL    HW114972   4.506   4.542   4.969  0.4740  0.6002  0.2467
 1170SOL    HW214973   4.468   4.477   5.096 -0.6115  1.1337 -0.1196
 1171SOL     OW14974   4.167   3.202   2.510 -0.2226  0.1960  0.3700
 1171SOL    HW114975   4.186   3.113   2.482 -1.1137 -0.0499  0.5289
 1171SOL    HW214976   4.231   3.258   2.468  0.9385  0.7936  2.9358
 1172SOL     OW14977   2.751   2.850   9.492 -0.2471 -0.4708  0.5668
 1172SOL    HW114978   2.712   2.901   9.421 -0.7661  0.8273  1.7877
 1172SOL    HW214979   2.844   2.838   9.473 -0.8462 -3.7936 -0.1618
 1173SOL     OW14980   0.672   0.897   4.539  0.4485 -0.1868  0.4284
 1173SOL    HW114981   0.598   0.848   4.502 -0.7693  2.0756 -0.1192
 1173SOL    HW214982   0.723   0.836   4.593  1.5439  0.3594  0.0101
 1174SOL     OW14983   1.948   0.127   6.955  0.1298 -0.0926 -0.3463
 1174SOL    HW114984   1.867   0.078   6.963  1.0830 -1.4175  1.3379
 1174SOL    HW214985   2.007   0.057   6.984 -2.2895 -1.6257  0.8202
 1175SOL     OW14986   1.457   2.497  16.754 -0.6612  0.1535  0.2904
 1175SOL    HW114987   1.379   2.468  16.801 -0.2000 -2.8580 -0.7627
 1175SOL    HW214988   1.502   2.417  16.784  1.3821  1.3768  0.5234
 1176SOL     OW14989   3.202   0.356  14.436  0.5188  0.0977 -0.1970
 1176SOL    HW114990   3.255   0.389  14.509  0.1600  0.7495 -0.2364
 1176SOL    HW214991   3.209   0.266  14.469 -2.2135 -0.1408 -0.2722
 1177SOL     OW14992   4.487   0.737   3.672 -0.7691  0.3286  0.3059
 1177SOL    HW114993   4.568   0.779   3.701 -0.6980  0.8209 -0.5705
 1177SOL    HW214994   4.514   0.692   3.591 -1.3112 -0.1068  0.3681
 1178SOL     OW14995   2.777   3.979   6.332 -0.4202 -0.0776 -0.2438
 1178SOL    HW114996   2.768   4.061   6.380  1.9737 -0.0682  0.1687
 1178SOL    HW214997   2.868   3.964   6.356 -0.9240 -0.1856  1.5489
 1179SOL     OW14998   3.350   3.040  14.784 -0.6233 -0.2846 -0.3750
 1179SOL    HW114999   3.446   3.036  14.780 -0.5616 -0.5518  1.2989
 1179SOL    HW215000   3.337   3.099  14.710  0.5746  1.8251  1.0878
 1180SOL     OW15001   0.862   4.058   7.066  0.1559 -0.5647  0.4201
 1180SOL    HW115002   0.834   4.119   6.998 -0.3135  1.5985  2.5451
 1180SOL    HW215003   0.821   4.097   7.144  2.3010 -2.6707  2.6037
 1181SOL     OW15004   3.829   2.940   6.218 -0.1562  0.1643 -0.2525
 1181SOL    HW115005   3.917   2.968   6.243 -1.8687  3.6293  1.8554
 1181SOL    HW215006   3.817   2.987   6.136 -0.8739  0.1901 -0.1388
 1182SOL     OW15007   3.529   3.243   3.082  0.0931 -0.2174 -0.5645
 1182SOL    HW115008   3.570   3.255   2.996 -0.5035  1.7141 -0.5727
 1182SOL    HW215009   3.521   3.331   3.119  0.4194 -0.6466  0.5308
 1183SOL     OW15010   4.128   4.195   6.791  0.5511  0.1999  0.0869
 1183SOL    HW115011   4.128   4.107   6.829 -0.7342  0.7328  1.2911
 1183SOL    HW215012   4.035   4.210   6.803  0.5963  1.0135 -0.5806
 1184SOL     OW15013   2.401   0.123   8.086  0.2441 -0.1321 -0.1101
 1184SOL    HW115014   2.323   0.094   8.134  0.2837  0.2481  0.1861
 1184SOL    HW215015   2.385   0.212   8.056  0.0812  0.3216  1.3403
 1185SOL     OW15016   2.445   1.330   7.481  0.1763  0.3412 -0.3032
 1185SOL    HW115017   2.398   1.266   7.534 -2.6521  2.2970 -0.4562
 1185SOL    HW215018   2.485   1.385   7.549  0.1994  1.8495 -1.5244
 1186SOL     OW15019   4.455   4.517   5.682  0.3889  0.1617  0.4175
 1186SOL    HW115020   4.542   4.551   5.662  1.0583 -0.6677  1.8936
 1186SOL    HW215021   4.466   4.484   5.772 -1.0811 -1.1371  0.1289
 1187SOL     OW15022   4.478   1.554   5.796 -0.3341 -0.4244  0.1716
 1187SOL    HW115023   4.492   1.621   5.729 -1.6258  0.9932  1.3257
 1187SOL    HW215024   4.388   1.532   5.776 -0.2433 -2.1609  1.6648
 1188SOL     OW15025   3.849   3.349   7.729  0.2609 -0.6226  0.2763
 1188SOL    HW115026   3.933   3.348   7.684  0.4552 -0.1314  0.6320
 1188SOL    HW215027   3.796   3.307   7.661  0.4265  0.5495 -0.5833
 1189SOL     OW15028   2.009   4.411   8.310 -0.6811 -0.2609 -0.8755
 1189SOL    HW115029   1.956   4.443   8.383  0.6998  1.7372 -0.7447
 1189SOL    HW215030   1.938   4.359   8.272  0.1962 -2.5534  0.6120
 1190SOL     OW15031   1.988   3.142   1.290 -0.5730  0.6148 -0.1151
 1190SOL    HW115032   1.942   3.209   1.241 -2.0328 -0.4953 -0.2732
 1190SOL    HW215033   2.021   3.073   1.232 -2.1910 -0.6985  0.5276
 1191SOL     OW15034   4.179   2.756  12.865 -0.1987 -0.4049  0.0130
 1191SOL    HW115035   4.101   2.743  12.811 -0.3452  1.0026 -0.1165
 1191SOL    HW215036   4.220   2.834  12.829 -2.5499  1.3814  1.2130
 1192SOL     OW15037   1.231   1.680   0.899 -0.3682 -0.1943  0.0277
 1192SOL    HW115038   1.243   1.718   0.812  3.3495 -0.2775  0.5389
 1192SOL    HW215039   1.305   1.620   0.904 -0.4722 -0.3824 -0.6311
 1193SOL     OW15040   2.150   1.638   6.505  0.2076  0.1151 -0.5510
 1193SOL    HW115041   2.161   1.606   6.416 -1.6102 -0.0926 -0.6981
 1193SOL    HW215042   2.101   1.570   6.552 -0.4265  0.4649 -0.7162
 1194SOL     OW15043   3.338   0.606  10.408  0.5982  0.2138  0.5060
 1194SOL    HW115044   3.328   0.521  10.451 -0.0305  1.2565  2.4633
 1194SOL    HW215045   3.400   0.650  10.467  1.1488  2.0958 -1.4903
 1195SOL     OW15046   2.117   0.773   8.428  0.4255  0.4292  0.6410
 1195SOL    HW115047   2.110   0.810   8.516 -1.9519  1.6354 -0.0553
 1195SOL    HW215048   2.212   0.770   8.414  0.2762 -1.4488  0.0442
 1196SOL     OW15049   4.640   4.346   3.632 -0.2139 -0.0517  0.3590
 1196SOL    HW115050   4.617   4.285   3.561  0.6649 -0.0165  0.0522
 1196SOL    HW215051   4.687   4.407   3.576 -0.6705 -1.0582 -1.1459
 1197SOL     OW15052   3.176   2.941   2.864 -0.2535  0.6680  0.5067
 1197SOL    HW115053   3.200   2.889   2.787 -0.5566 -1.9606  2.2185
 1197SOL    HW215054   3.260   2.974   2.896  1.3237 -1.3719 -1.5259
 1198SOL     OW15055   0.892   2.233  12.085  0.0049  0.3342  0.1984
 1198SOL    HW115056   0.970   2.264  12.039 -0.7232  3.2465  0.9158
 1198SOL    HW215057   0.928   2.197  12.166  0.8896  2.8563  0.9143
 1199SOL     OW15058   3.715   2.720  11.072 -0.0680 -0.0382  0.3966
 1199SOL    HW115059   3.673   2.758  11.149 -2.3738 -0.1233 -0.8077
 1199SOL    HW215060   3.656   2.745  11.001  0.5074  0.1188 -0.0238
 1200SOL     OW15061   2.229   4.653   9.631  0.4337  0.0191 -0.7441
 1200SOL    HW115062   2.144   4.657   9.588  0.3585 -0.4491 -0.6369
 1200SOL    HW215063   2.261   4.574   9.589  2.2836 -1.3686  3.2899
 1201SOL     OW15064   3.273   1.115   7.631  0.3056 -0.3652  0.1035
 1201SOL    HW115065   3.195   1.108   7.687 -0.0242 -1.7915 -0.5379
 1201SOL    HW215066   3.344   1.153   7.683 -0.8201  1.6795  0.1311
 1202SOL     OW15067   3.239   4.021  10.520 -0.0463 -0.3373 -0.3260
 1202SOL    HW115068   3.166   3.961  10.501 -0.2174 -0.1544 -0.2497
 1202SOL    HW215069   3.188   4.101  10.536 -0.9591 -0.6097 -1.8603
 1203SOL     OW15070   2.762   4.718   2.279 -0.6137  0.0031  0.3703
 1203SOL    HW115071   2.828   0.063   2.275 -1.6960  1.1743  2.3893
 1203SOL    HW215072   2.817   4.649   2.244 -1.2169 -0.1542 -0.2593
 1204SOL     OW15073   3.224   3.036   8.447 -0.3334  0.0496  0.2631
 1204SOL    HW115074   3.303   2.985   8.468  1.7026  2.8302 -0.7608
 1204SOL    HW215075   3.251   3.081   8.367 -0.3001  0.3404  0.4374
 1205SOL     OW15076   4.128   0.379  13.492  0.1270 -0.1554  0.7053
 1205SOL    HW115077   4.044   0.334  13.507  0.6303 -0.8541  1.4020
 1205SOL    HW215078   4.192   0.325  13.537 -0.0701  0.4681  1.7368
 1206SOL     OW15079   4.303   4.239  15.147 -0.0346  0.4487  0.2625
 1206SOL    HW115080   4.330   4.216  15.236 -2.2591 -2.4176  0.1835
 1206SOL    HW215081   4.281   4.332  15.146  0.8855  0.6581 -0.9881
 1207SOL     OW15082   2.603   2.640  11.646 -0.3258 -0.1923  0.7434
 1207SOL    HW115083   2.593   2.598  11.560 -1.6049  0.8923  0.3612
 1207SOL    HW215084   2.571   2.728  11.624  1.2593  1.0217  3.3133
 1208SOL     OW15085   4.300   0.168  10.142 -0.2849 -0.0640  0.0821
 1208SOL    HW115086   4.384   0.121  10.139  0.2090  0.7491  1.0179
 1208SOL    HW215087   4.316   0.215  10.224  1.6899  1.0571 -0.9482
 1209SOL     OW15088   1.997   1.146   3.075  0.0203 -0.9847  0.1015
 1209SOL    HW115089   1.938   1.078   3.107 -1.9993  0.8075  0.2074
 1209SOL    HW215090   1.977   1.221   3.131  0.6835  0.1659 -1.1731
 1210SOL     OW15091   3.374   1.483   8.677  0.3906 -0.5303  0.2594
 1210SOL    HW115092   3.424   1.555   8.639 -0.1959  0.6757  1.7854
 1210SOL    HW215093   3.299   1.475   8.619  0.6652  0.1788 -0.1900
 1211SOL     OW15094   0.567   3.975  14.090  0.1440  0.2693 -0.0616
 1211SOL    HW115095   0.505   3.924  14.040  1.2211 -0.4935 -0.6217
 1211SOL    HW215096   0.592   4.047  14.031  0.5428 -1.1428 -1.6050
 1212SOL     OW15097   4.407   1.061   3.213  0.2217  0.4797  0.8773
 1212SOL    HW115098   4.501   1.069   3.196  0.6548 -2.6996  1.9041
 1212SOL    HW215099   4.370   1.133   3.161  0.0072 -1.5498 -1.7741
 1213SOL     OW15100   1.384   2.191   6.924 -0.2910 -0.2663 -0.1495
 1213SOL    HW115101   1.449   2.221   6.861  0.4338 -1.7106 -0.0856
 1213SOL    HW215102   1.309   2.220   6.872  0.2861  3.1465  0.9073
 1214SOL     OW15103   2.135   2.305   6.420  0.3645 -0.2480 -0.3302
 1214SOL    HW115104   2.048   2.264   6.423  0.8666 -1.3709 -1.6540
 1214SOL    HW215105   2.188   2.253   6.480  0.6901  1.8527  1.2480
 1215SOL     OW15106   1.696   1.980   8.794  0.0719 -0.1953  0.2594
 1215SOL    HW115107   1.720   1.930   8.872 -0.9778 -0.4834  0.4079
 1215SOL    HW215108   1.735   2.064   8.816  0.1845 -0.1952  0.0608
 1216SOL     OW15109   3.236   4.339   6.815 -0.0787 -0.1416 -0.5521
 1216SOL    HW115110   3.239   4.324   6.909  1.5842 -0.2283 -0.6259
 1216SOL    HW215111   3.197   4.426   6.815 -0.3205 -0.2358 -2.6368
 1217SOL     OW15112   2.736   1.919   4.628 -0.1996  0.4796  0.3759
 1217SOL    HW115113   2.669   1.851   4.628  1.5037 -1.1955  0.2999
 1217SOL    HW215114   2.697   1.984   4.686 -0.3001 -0.4994  1.3992
 1218SOL     OW15115   4.404   2.565  12.304  0.7970 -0.0380 -0.4220
 1218SOL    HW115116   4.360   2.570  12.389  1.1245  1.8564 -0.3594
 1218SOL    HW215117   4.495   2.559  12.333  0.4373 -1.1346  0.4465
 1219SOL     OW15118   3.539   2.766  10.550 -0.6784 -0.2933 -0.6354
 1219SOL    HW115119   3.455   2.795  10.585 -2.2786  0.2624 -4.8271
 1219SOL    HW215120   3.605   2.826  10.583 -0.3845  0.2316 -2.1678
 1220SOL     OW15121   1.883   0.168   7.637  0.4551 -0.2714 -1.1608
 1220SOL    HW115122   1.929   0.112   7.700  0.9374  1.5274  0.0995
 1220SOL    HW215123   1.795   0.153   7.673 -0.7527  3.5806 -2.4985
 1221SOL     OW15124   1.854   3.488   2.141  0.1418  0.3077 -0.4440
 1221SOL    HW115125   1.876   3.501   2.233 -0.6609 -1.0936 -0.0414
 1221SOL    HW215126   1.926   3.440   2.100  1.6653  0.5912  1.8872
 1222SOL     OW15127   0.789   1.855   5.901  0.3767 -0.1196  0.2744
 1222SOL    HW115128   0.748   1.902   5.974 -1.3408  0.2317 -0.9035
 1222SOL    HW215129   0.794   1.762   5.924  1.5903  0.1252  0.9607
 1223SOL     OW15130   4.146   0.251   1.988 -0.0539  0.4074  0.3026
 1223SOL    HW115131   4.085   0.324   2.002  0.8181  0.8630  1.7889
 1223SOL    HW215132   4.224   0.299   2.014 -0.6855  2.1124 -0.9408
 1224SOL     OW15133   1.067   4.387   8.094 -0.2517 -0.7259 -0.0123
 1224SOL    HW115134   1.156   4.419   8.085 -1.0849  1.4224 -0.4426
 1224SOL    HW215135   1.075   4.302   8.049 -1.3896 -0.5164 -0.6221
 1225SOL     OW15136   1.603   4.039   4.087  0.3376  0.6297  0.6013
 1225SOL    HW115137   1.550   4.009   4.013  2.6649 -0.1106 -0.7653
 1225SOL    HW215138   1.556   3.998   4.159 -1.5618  2.0037  0.1365
 1226SOL     OW15139   0.227   4.474   5.282 -0.6310  1.2192  0.0639
 1226SOL    HW115140   0.221   4.424   5.363  0.7630  1.8964  0.5819
 1226SOL    HW215141   0.136   4.502   5.268 -0.2822  2.1977 -0.2270
 1227SOL     OW15142   0.677   0.836   6.700 -0.2622 -0.0874 -0.1972
 1227SOL    HW115143   0.619   0.782   6.754  0.2551 -1.3759 -0.9016
 1227SOL    HW215144   0.659   0.917   6.747  1.1722  0.1395 -0.0506
 1228SOL     OW15145   1.278   4.124   4.134 -0.2949  0.0753 -0.1455
 1228SOL    HW115146   1.301   4.046   4.184 -1.7317  0.9704  1.9172
 1228SOL    HW215147   1.198   4.149   4.180 -1.1365 -3.5476  0.3532
 1229SOL     OW15148   4.041   1.149   7.806  0.3772  0.2274 -0.8199
 1229SOL    HW115149   4.102   1.145   7.732 -0.4059 -1.8530 -1.3417
 1229SOL    HW215150   4.055   1.063   7.846 -1.3864  1.2312  1.9802
 1230SOL     OW15151   1.734   0.414  15.318  0.0708 -0.0560  0.1944
 1230SOL    HW115152   1.771   0.355  15.384  0.3360 -1.6338 -1.3732
 1230SOL    HW215153   1.805   0.425  15.254  0.6098  1.6708  1.0867
 1231SOL     OW15154   0.251   0.897   3.833 -0.1142 -0.4508 -0.4201
 1231SOL    HW115155   0.324   0.914   3.893  0.5172 -1.2092 -0.9729
 1231SOL    HW215156   0.298   0.845   3.768  1.0060  0.3377 -0.2456
 1232SOL     OW15157   0.245   4.413   8.617  0.2011 -0.0907  0.2921
 1232SOL    HW115158   0.269   4.326   8.651  0.0589 -0.0213  0.5746
 1232SOL    HW215159   0.316   4.466   8.653 -0.0880  1.6883 -1.7513
 1233SOL     OW15160   0.560   1.484   0.373 -0.1630 -0.4520 -0.9745
 1233SOL    HW115161   0.565   1.579   0.373  0.5410 -0.5017  1.4922
 1233SOL    HW215162   0.644   1.457   0.335  0.8375  1.2417  0.0520
 1234SOL     OW15163   3.735   1.225   9.217  0.2792 -0.3369  0.2182
 1234SOL    HW115164   3.783   1.276   9.283  2.2289  0.2383 -1.6314
 1234SOL    HW215165   3.652   1.215   9.262 -0.6401  1.6605 -1.0308
 1235SOL     OW15166   2.827   2.550  11.277  0.0207  0.6201 -0.2089
 1235SOL    HW115167   2.790   2.484  11.336 -2.4144  0.9812 -1.3440
 1235SOL    HW215168   2.747   2.583  11.236 -1.4393 -0.6322  1.5832
 1236SOL     OW15169   0.976   1.863   2.547  0.2900  0.3238  0.1214
 1236SOL    HW115170   1.033   1.785   2.550  0.6759  0.5939 -0.2508
 1236SOL    HW215171   0.953   1.872   2.455  0.8332 -3.0410 -0.3711
 1237SOL     OW15172   4.407   2.490   1.076 -0.7497  0.2523  0.2330
 1237SOL    HW115173   4.440   2.580   1.067 -0.8968  0.1723 -1.2138
 1237SOL    HW215174   4.312   2.502   1.078 -0.7806  0.4039 -1.5737
 1238SOL     OW15175   1.984   1.599   2.957 -0.3908  0.1565  0.3470
 1238SOL    HW115176   2.073   1.568   2.970 -0.7879 -1.0586  0.1957
 1238SOL    HW215177   1.988   1.653   2.878 -0.6815 -2.2597 -1.3032
 1239SOL     OW15178   0.775   3.528   2.916  0.0310 -0.1872  0.4628
 1239SOL    HW115179   0.742   3.500   2.831  3.4909  0.3345 -1.0518
 1239SOL    HW215180   0.866   3.550   2.897 -0.2881 -0.8919 -1.9369
 1240SOL     OW15181   0.856   4.155   9.221  0.1156 -0.2316  0.2489
 1240SOL    HW115182   0.836   4.180   9.311  3.2002  1.8594  0.3484
 1240SOL    HW215183   0.766   4.162   9.187 -1.0465 -0.5816  3.2084
 1241SOL     OW15184   3.722   4.317  17.436 -0.2210 -0.3678  0.6601
 1241SOL    HW115185   3.709   4.393  17.493  1.1693  0.5940 -0.3139
 1241SOL    HW215186   3.637   4.273  17.435 -1.6049  2.3077 -0.1660
 1242SOL     OW15187   1.027   2.221  15.762  0.5002 -0.4007  0.5797
 1242SOL    HW115188   1.065   2.248  15.846  1.3607 -1.5102  0.5535
 1242SOL    HW215189   1.065   2.134  15.750  1.6572  0.1675  0.1279
 1243SOL     OW15190   3.495   1.184  17.447 -0.0411  0.1822 -0.0242
 1243SOL    HW115191   3.471   1.277  17.448  0.2874  0.2532  1.2125
 1243SOL    HW215192   3.490   1.164  17.354  2.8730  2.9009 -0.7479
 1244SOL     OW15193   3.964   3.433   1.843 -0.0400  0.3504  0.2871
 1244SOL    HW115194   4.015   3.367   1.795 -2.3139 -0.4311 -1.0484
 1244SOL    HW215195   3.952   3.382   1.923 -0.6679 -0.1943 -0.1611
 1245SOL     OW15196   2.755   0.833   4.008  0.1794 -0.4208 -0.1813
 1245SOL    HW115197   2.823   0.767   4.023  0.9377  0.9249  2.2245
 1245SOL    HW215198   2.670   0.791   4.022  0.6384 -0.7927  1.4849
 1246SOL     OW15199   2.130   0.374  10.543 -1.1441 -0.2917  0.4231
 1246SOL    HW115200   2.190   0.327  10.484 -1.5519 -1.5468  0.9987
 1246SOL    HW215201   2.089   0.437  10.484  1.1744  1.2889  0.4672
 1247SOL     OW15202   4.193   1.343  13.494 -0.4590 -0.1861 -0.3675
 1247SOL    HW115203   4.271   1.355  13.548 -1.3767  0.1892  0.8698
 1247SOL    HW215204   4.162   1.432  13.508  0.4347  0.0490  0.1224
 1248SOL     OW15205   0.386   1.239   7.061 -0.2769 -0.2500  0.0814
 1248SOL    HW115206   0.364   1.166   7.004 -0.4032 -2.2109  2.6282
 1248SOL    HW215207   0.411   1.190   7.140 -2.8887 -0.9987  0.4276
 1249SOL     OW15208   0.687   0.870   7.697  0.5001  0.5872 -0.2329
 1249SOL    HW115209   0.767   0.823   7.719  1.0051  0.8021 -1.6579
 1249SOL    HW215210   0.712   0.959   7.720 -0.2367  0.2221  2.0437
 1250SOL     OW15211   2.536   1.806  15.237  0.7366 -0.7233  0.1469
 1250SOL    HW115212   2.462   1.825  15.296  1.1242 -0.5544  0.5743
 1250SOL    HW215213   2.605   1.838  15.295  2.1046  0.3125 -2.0658
 1251SOL     OW15214   3.130   4.693   9.341  0.1243 -0.3971  0.2407
 1251SOL    HW115215   3.184   4.683   9.263  1.8763 -2.0391  1.6664
 1251SOL    HW215216   3.198   4.658   9.399  0.9037 -0.1720 -0.5451
 1252SOL     OW15217   2.402   3.503  10.340  0.1737 -0.3757  0.0529
 1252SOL    HW115218   2.333   3.513  10.274 -0.0262 -0.2432  0.2819
 1252SOL    HW215219   2.400   3.591  10.377 -0.4384 -0.9401  1.3439
 1253SOL     OW15220   2.225   4.356   4.340  0.3042  0.3932  0.0711
 1253SOL    HW115221   2.248   4.435   4.390 -1.6613  1.2668 -0.4085
 1253SOL    HW215222   2.240   4.390   4.252  2.3540 -1.9282 -0.4656
 1254SOL     OW15223   4.348   0.267   3.238  0.4815 -0.6365  0.5020
 1254SOL    HW115224   4.339   0.329   3.310 -2.1588 -0.6033  0.1485
 1254SOL    HW215225   4.256   0.239   3.236 -0.0767  1.3869 -1.8500
 1255SOL     OW15226   4.711   0.181   7.240 -0.1303  0.2632  0.5473
 1255SOL    HW115227   0.006   0.088   7.234  2.8077  0.9687 -0.7106
 1255SOL    HW215228   4.722   0.191   7.335  0.7316 -0.5965  0.5340
 1256SOL     OW15229   3.426   3.063  13.015  0.0718 -0.0348 -0.4634
 1256SOL    HW115230   3.438   3.150  13.054 -0.3307 -1.8027  3.5934
 1256SOL    HW215231   3.517   3.041  12.993 -0.7523 -1.9220 -1.8846
 1257SOL     OW15232   2.895   4.508   3.443 -0.3141 -0.3000 -0.1435
 1257SOL    HW115233   2.980   4.481   3.407 -0.5405 -1.4724  0.2023
 1257SOL    HW215234   2.836   4.443   3.407 -2.4129  1.6805 -0.2490
 1258SOL     OW15235   2.978   4.179   2.358 -0.2407  0.4708 -0.9313
 1258SOL    HW115236   2.972   4.089   2.392  2.1965 -0.6827 -3.5327
 1258SOL    HW215237   2.892   4.195   2.321 -1.5478 -1.8818  1.0523
 1259SOL     OW15238   0.181   0.726   3.444  0.2387 -0.1616  0.0584
 1259SOL    HW115239   0.182   0.728   3.539  2.0177 -0.9521  0.0529
 1259SOL    HW215240   0.232   0.804   3.422  1.9148 -0.4527  2.9869
 1260SOL     OW15241   2.512   0.050   6.472 -0.5148 -0.1437  0.2518
 1260SOL    HW115242   2.422   0.020   6.485 -0.8976  0.0112 -1.9606
 1260SOL    HW215243   2.527   0.075   6.563  2.2558  1.1519 -0.5528
 1261SOL     OW15244   2.266   1.700   4.830  0.3345 -0.1025 -0.3497
 1261SOL    HW115245   2.309   1.689   4.915 -2.1030 -1.4180  0.7197
 1261SOL    HW215246   2.190   1.753   4.852  0.4984  0.7376 -1.7725
 1262SOL     OW15247   3.172   4.344  10.977 -0.3644 -0.0372  0.0022
 1262SOL    HW115248   3.085   4.308  10.960 -0.2841 -0.1789 -0.1085
 1262SOL    HW215249   3.214   4.315  10.897  1.6912  1.5954  0.4963
 1263SOL     OW15250   4.226   3.997  17.078  0.5239  0.2179 -0.0317
 1263SOL    HW115251   4.237   4.072  17.019 -0.3033  1.4683  1.4014
 1263SOL    HW215252   4.280   3.929  17.038  3.0597  0.8951  2.3179
 1264SOL     OW15253   3.469   0.967   1.883  0.2578  0.3930 -0.0736
 1264SOL    HW115254   3.534   0.897   1.889 -0.1988  0.1330  2.0230
 1264SOL    HW215255   3.452   0.970   1.789  2.8014 -4.0862 -0.6629
 1265SOL     OW15256   4.056   1.163   5.785  0.2078  0.1992  0.6405
 1265SOL    HW115257   4.034   1.098   5.718  0.2723  1.0005 -0.1517
 1265SOL    HW215258   4.020   1.123   5.864 -0.4962  0.3407  0.3931
 1266SOL     OW15259   1.029   2.528   0.571 -0.0103  0.6678  0.3562
 1266SOL    HW115260   1.062   2.525   0.660 -2.4002 -0.4823  1.2060
 1266SOL    HW215261   0.974   2.605   0.583 -2.1450 -0.5852 -1.3850
 1267SOL     OW15262   1.821   2.919  10.008 -0.2080  0.0053 -0.4998
 1267SOL    HW115263   1.848   2.934   9.918  0.1486 -1.8188 -0.6920
 1267SOL    HW215264   1.738   2.873   9.998 -0.5423  0.1082  1.6698
 1268SOL     OW15265   2.255   2.431   8.615 -0.1887  0.3985 -0.3390
 1268SOL    HW115266   2.237   2.520   8.643 -1.7069 -0.1661  0.4575
 1268SOL    HW215267   2.192   2.428   8.543  0.5694 -0.7868 -0.9616
 1269SOL     OW15268   3.534   0.088   4.575  0.3562 -0.3597  0.2757
 1269SOL    HW115269   3.500   0.077   4.487 -1.5756  4.0718  0.5089
 1269SOL    HW215270   3.454   0.074   4.627  0.9852 -1.7676  0.8681
 1270SOL     OW15271   1.239   0.132   8.629  0.1155 -0.2375 -0.4531
 1270SOL    HW115272   1.204   0.205   8.681  2.3796 -0.2797  1.1373
 1270SOL    HW215273   1.301   0.175   8.570  1.3966 -1.7972 -0.2201
 1271SOL     OW15274   0.711   2.746   9.613  0.0042  0.1869  0.1138
 1271SOL    HW115275   0.644   2.814   9.604  0.8238  1.0974  0.9788
 1271SOL    HW215276   0.661   2.671   9.580 -2.8881  2.4720 -0.7132
 1272SOL     OW15277   2.209   0.565   7.186  0.0669 -0.1740 -0.0094
 1272SOL    HW115278   2.167   0.479   7.192 -1.1084  0.4339  0.5424
 1272SOL    HW215279   2.255   0.553   7.102  0.5276 -0.9595  0.3555
 1273SOL     OW15280   1.165   4.617   8.831  0.0800 -0.0172  0.3272
 1273SOL    HW115281   1.256   4.622   8.802 -0.2719  1.6269 -0.5138
 1273SOL    HW215282   1.166   4.670   8.910  1.0137  2.5955 -1.4419
 1274SOL     OW15283   3.137   1.150   3.560 -0.6252  0.2085  0.3260
 1274SOL    HW115284   3.200   1.081   3.544 -1.8284 -0.7186 -0.4270
 1274SOL    HW215285   3.152   1.165   3.653 -0.0648 -0.1530  0.2944
 1275SOL     OW15286   2.496   4.030   0.236  0.0934 -0.1293  0.3035
 1275SOL    HW115287   2.538   3.950   0.204 -2.7822 -1.4594 -0.1292
 1275SOL    HW215288   2.484   4.009   0.329  0.7930 -1.6888  0.0494
 1276SOL     OW15289   4.516   4.125   8.493 -0.7159  1.1156  0.1658
 1276SOL    HW115290   4.504   4.036   8.525 -0.3954 -0.0729 -3.0046
 1276SOL    HW215291   4.437   4.131   8.439 -1.3086  2.2509  1.1715
 1277SOL     OW15292   1.663   2.048   5.546  0.3964 -0.0558 -0.4810
 1277SOL    HW115293   1.744   2.098   5.559  0.1362  0.8464 -2.2944
 1277SOL    HW215294   1.696   1.979   5.488  2.4520  0.3516  0.1965
 1278SOL     OW15295   3.723   2.927   3.159  0.5836  0.0590  0.6929
 1278SOL    HW115296   3.770   2.887   3.086 -0.2757 -1.0765  0.7790
 1278SOL    HW215297   3.789   2.988   3.193 -0.3218  1.8792 -0.8224
 1279SOL     OW15298   2.642   3.877   7.277  0.0732 -0.3739  0.4267
 1279SOL    HW115299   2.684   3.808   7.327  1.0596 -0.9846 -1.2563
 1279SOL    HW215300   2.553   3.847   7.295  0.2388  1.4438  4.2591
 1280SOL     OW15301   1.691   0.125  12.365  0.5409 -0.0847  0.2783
 1280SOL    HW115302   1.647   0.089  12.442 -1.2209  0.1306 -0.6224
 1280SOL    HW215303   1.782   0.132  12.394  0.0088  0.5070  1.8059
 1281SOL     OW15304   4.315   4.317   6.985  0.2453  0.0578 -0.4327
 1281SOL    HW115305   4.354   4.233   7.008 -1.2953 -0.2119  1.1844
 1281SOL    HW215306   4.276   4.284   6.903 -0.8401 -1.6522  0.7826
 1282SOL     OW15307   2.663   3.710   6.476 -0.5304  0.4050  0.2160
 1282SOL    HW115308   2.735   3.650   6.456  1.5192  1.9322  2.9742
 1282SOL    HW215309   2.705   3.781   6.525 -0.8539 -0.7649  2.1779
 1283SOL     OW15310   1.030   1.282   3.178 -0.0366  0.3549  0.1193
 1283SOL    HW115311   1.115   1.297   3.220 -0.9809  2.8213  1.1489
 1283SOL    HW215312   1.026   1.345   3.106  3.2583 -0.6522 -0.9663
 1284SOL     OW15313   2.558   0.401   9.076 -0.2236 -0.2479 -0.2237
 1284SOL    HW115314   2.619   0.467   9.045  1.4169 -1.3239  0.7395
 1284SOL    HW215315   2.588   0.316   9.045 -0.2565 -0.7993  1.2569
 1285SOL     OW15316   1.407   1.018   2.318  0.5533  0.2362  0.3473
 1285SOL    HW115317   1.498   1.045   2.328  1.0399 -0.8279 -1.2561
 1285SOL    HW215318   1.388   1.055   2.232  0.6233 -1.4954 -0.4123
 1286SOL     OW15319   1.071   0.764   2.522  0.2200  0.4794 -0.0402
 1286SOL    HW115320   1.162   0.755   2.492 -0.0069  1.6828 -1.0416
 1286SOL    HW215321   1.073   0.709   2.601 -1.5938  0.2134 -0.1968
 1287SOL     OW15322   3.531   0.225   1.897  0.4200 -0.0729  0.3105
 1287SOL    HW115323   3.596   0.258   1.959 -0.9613  1.3392  0.9863
 1287SOL    HW215324   3.455   0.238   1.954  0.3109 -2.8712  0.8071
 1288SOL     OW15325   0.828   4.091   5.778 -0.1514 -0.0166  0.1707
 1288SOL    HW115326   0.905   4.132   5.738 -0.5261 -0.1925 -0.7387
 1288SOL    HW215327   0.757   4.155   5.778  0.0205  0.1757  0.0054
 1289SOL     OW15328   2.347   3.821   4.893  0.5214  0.0827 -0.2210
 1289SOL    HW115329   2.296   3.873   4.955  0.3677 -0.5786  0.2040
 1289SOL    HW215330   2.282   3.809   4.824  3.0894  0.2822 -2.6870
 1290SOL     OW15331   1.576   1.861   3.844 -0.1897  0.3378 -0.1309
 1290SOL    HW115332   1.615   1.867   3.931  2.5340 -1.1286 -1.2707
 1290SOL    HW215333   1.490   1.829   3.873  0.2130  0.7561  1.5266
 1291SOL     OW15334   1.969   3.366   3.919  0.4103  0.2562 -0.5948
 1291SOL    HW115335   2.022   3.426   3.867 -0.0476 -0.0441 -1.4142
 1291SOL    HW215336   2.008   3.283   3.890  0.4937 -0.1223  0.6092
 1292SOL     OW15337   3.230   1.017  14.641 -0.2148  0.1126  0.5391
 1292SOL    HW115338   3.240   0.957  14.715  1.5403 -0.2674  0.0036
 1292SOL    HW215339   3.314   1.011  14.595 -1.1272  1.9419 -1.3701
 1293SOL     OW15340   1.195   3.720   5.484 -0.4076  0.2273 -0.3199
 1293SOL    HW115341   1.116   3.672   5.458  0.7120 -0.9357 -1.5585
 1293SOL    HW215342   1.165   3.811   5.489 -1.1872 -0.0789  0.5763
 1294SOL     OW15343   2.409   2.843   3.905 -0.0844  0.6467 -0.0389
 1294SOL    HW115344   2.455   2.775   3.855 -0.9624 -0.1807  0.2670
 1294SOL    HW215345   2.319   2.823   3.882 -0.4812  2.0709  0.3003
 1295SOL     OW15346   3.685   3.807   4.892 -0.0844  0.4764  0.3642
 1295SOL    HW115347   3.717   3.853   4.969  2.4843 -2.1290  0.8483
 1295SOL    HW215348   3.768   3.772   4.860 -0.4939 -0.8405  0.7733
 1296SOL     OW15349   2.731   2.881   9.774 -1.0305  0.3770  0.2195
 1296SOL    HW115350   2.818   2.853   9.803 -0.9403  0.6066  0.1640
 1296SOL    HW215351   2.726   2.861   9.681  2.7902  0.7409 -0.0761
 1297SOL     OW15352   2.323   1.737   9.856  0.3320  0.0495 -0.5774
 1297SOL    HW115353   2.414   1.764   9.871 -0.1528 -0.1018  2.7015
 1297SOL    HW215354   2.277   1.748   9.939  1.2043 -0.5917 -0.0038
 1298SOL     OW15355   3.770   1.292  12.525  0.0892 -0.2611  0.0682
 1298SOL    HW115356   3.855   1.250  12.521  1.6183  2.8680 -0.5801
 1298SOL    HW215357   3.760   1.299  12.620  0.6518  0.2076  0.0908
 1299SOL     OW15358   0.269   1.936  15.148  0.4194 -0.0048  0.7498
 1299SOL    HW115359   0.271   1.961  15.240 -0.4016 -0.2248  0.8334
 1299SOL    HW215360   0.235   1.848  15.160 -0.2327  0.1057 -0.1668
 1300SOL     OW15361   0.996   1.828  16.198  0.3662  0.8762 -0.6207
 1300SOL    HW115362   0.972   1.737  16.208  2.9091  0.4424  1.8782
 1300SOL    HW215363   0.971   1.871  16.280  0.8524  0.7899 -0.4262
 1301SOL     OW15364   2.979   1.601   2.291  0.0969  0.3044 -0.4800
 1301SOL    HW115365   2.955   1.598   2.198  0.8888 -0.4288 -0.6587
 1301SOL    HW215366   3.072   1.583   2.301 -0.3169 -1.2013  0.6850
 1302SOL     OW15367   0.666   1.536   2.310  0.4601 -0.7894 -0.5223
 1302SOL    HW115368   0.756   1.566   2.301  0.4355 -0.4257  0.4239
 1302SOL    HW215369   0.671   1.489   2.393 -0.8136  0.8957  0.5044
 1303SOL     OW15370   3.122   0.168   9.539 -0.5049  0.1123  0.2381
 1303SOL    HW115371   3.214   0.163   9.563 -0.4896 -0.4670  0.0484
 1303SOL    HW215372   3.120   0.108   9.465  1.3999  0.0933  0.2005
 1304SOL     OW15373   3.717   3.005  11.298 -0.1388 -0.3801 -0.2471
 1304SOL    HW115374   3.780   3.076  11.310  0.2700 -0.6972 -0.5273
 1304SOL    HW215375   3.778   2.932  11.293  1.0174  0.6127 -0.5048
 1305SOL     OW15376   0.326   1.031   6.870  0.1710  0.0722 -0.6729
 1305SOL    HW115377   0.263   1.095   6.838 -0.5766 -0.2071  0.2141
 1305SOL    HW215378   0.306   0.952   6.819  1.5699 -0.2428 -0.7139
 1306SOL     OW15379   1.480   4.679   7.208 -0.4306  0.0901 -0.1210
 1306SOL    HW115380   1.468   4.701   7.116 -0.5345  0.9749  0.0989
 1306SOL    HW215381   1.547   0.015   7.240 -0.2523  0.8704 -1.9527
 1307SOL     OW15382   0.544   4.442  14.575 -0.1834 -0.4402 -0.0758
 1307SOL    HW115383   0.550   4.373  14.641  0.2256  0.6949  1.0688
 1307SOL    HW215384   0.452   4.439  14.550  0.7523 -1.0430 -3.4237
 1308SOL     OW15385   2.834   0.028   3.723 -0.7810 -0.0646  0.0454
 1308SOL    HW115386   2.847   0.036   3.629  1.6872  1.4974  0.5210
 1308SOL    HW215387   2.914   0.068   3.756 -0.8024 -0.6215  0.7924
 1309SOL     OW15388   2.834   2.383   4.702  0.1974  0.3495 -0.2301
 1309SOL    HW115389   2.808   2.291   4.696  0.8923  0.1906 -0.7378
 1309SOL    HW215390   2.926   2.380   4.676  0.9072  1.1185  2.1659
 1310SOL     OW15391   1.413   2.310   5.397 -0.0188  0.1457  0.0302
 1310SOL    HW115392   1.467   2.348   5.327 -0.3320  0.5187 -0.0039
 1310SOL    HW215393   1.322   2.333   5.379  0.6107  1.6003 -1.2631
 1311SOL     OW15394   4.189   0.544  17.691  0.1761  0.0137  0.2645
 1311SOL    HW115395   4.128   0.592   0.047 -2.6004 -2.8995 -0.2662
 1311SOL    HW215396   4.261   0.526   0.052 -1.5208  0.7703  2.4867
 1312SOL     OW15397   4.679   0.316   5.704 -0.5796 -0.3140  0.2892
 1312SOL    HW115398   4.627   0.312   5.624  0.3309  0.0491 -0.3138
 1312SOL    HW215399   4.610   0.303   5.770 -1.1587  0.2390 -0.2097
 1313SOL     OW15400   0.782   0.727   5.349 -0.2094 -0.1967  0.2670
 1313SOL    HW115401   0.736   0.809   5.333  0.2920  0.0753  0.2146
 1313SOL    HW215402   0.870   0.749   5.320 -0.1535 -0.2120  0.4216
 1314SOL     OW15403   0.265   2.878   3.279  0.5719  0.1001 -0.2614
 1314SOL    HW115404   0.312   2.938   3.221  0.9287  0.3059  0.2408
 1314SOL    HW215405   0.199   2.837   3.222 -0.1231 -0.9178  1.2780
 1315SOL     OW15406   4.227   1.416   8.492 -0.1342  0.2489  0.0586
 1315SOL    HW115407   4.247   1.453   8.406  0.1280  0.4977  0.2271
 1315SOL    HW215408   4.204   1.327   8.465 -0.8207  1.1858 -2.4237
 1316SOL     OW15409   0.211   0.019  16.362 -0.0025  0.2847 -0.1396
 1316SOL    HW115410   0.149   0.086  16.333 -0.5774 -0.5592 -0.9013
 1316SOL    HW215411   0.230   4.702  16.277 -2.1086 -2.1266  0.5799
 1317SOL     OW15412   4.196   1.037   5.072 -0.1213 -0.0197 -0.3277
 1317SOL    HW115413   4.285   1.048   5.037  0.6294  1.3020  2.0142
 1317SOL    HW215414   4.135   1.086   5.017 -2.4731 -0.2360  2.1052
 1318SOL     OW15415   3.071   1.394   3.428  0.3474 -0.3314  0.0703
 1318SOL    HW115416   3.156   1.433   3.412  0.4141 -0.3947  0.2757
 1318SOL    HW215417   3.085   1.308   3.469  5.0376  0.8155  0.7845
 1319SOL     OW15418   2.579   4.220   2.975  0.2372  0.2840 -0.2569
 1319SOL    HW115419   2.597   4.135   2.935 -2.3878 -0.7315  0.7594
 1319SOL    HW215420   2.552   4.272   2.900 -0.0863 -0.6133 -0.7708
 1320SOL     OW15421   3.521   3.851   4.689 -0.3490 -0.1239  0.5750
 1320SOL    HW115422   3.521   3.756   4.686 -1.6149 -0.1945  2.4006
 1320SOL    HW215423   3.564   3.859   4.774  1.5787 -0.0967 -0.4065
 1321SOL     OW15424   4.275   2.136   9.236 -0.4135 -0.2640 -0.2949
 1321SOL    HW115425   4.256   2.102   9.149  3.0880 -1.5903 -0.5649
 1321SOL    HW215426   4.370   2.136   9.229 -0.4047  1.6148 -0.1235
 1322SOL     OW15427   2.806   4.351   1.753 -0.8346 -0.6231  0.4250
 1322SOL    HW115428   2.848   4.425   1.796 -0.4000  0.0604 -1.1792
 1322SOL    HW215429   2.787   4.381   1.664 -0.4621  1.0008  0.9052
 1323SOL     OW15430   2.116   1.822   5.236  0.0016 -0.1370 -0.0597
 1323SOL    HW115431   2.144   1.911   5.216 -1.0718 -0.1510 -1.5996
 1323SOL    HW215432   2.201   1.778   5.231  0.7021  1.2068  0.0115
 1324SOL     OW15433   2.567   2.439  10.063 -0.0261 -0.2845  0.0555
 1324SOL    HW115434   2.587   2.521  10.018  1.3058 -0.7664 -0.2179
 1324SOL    HW215435   2.513   2.407   9.991 -0.6291 -0.4750  0.5907
 1325SOL     OW15436   2.478   2.092   8.872 -0.2942  0.5006  0.2994
 1325SOL    HW115437   2.399   2.051   8.907  1.0664 -0.3843  2.3675
 1325SOL    HW215438   2.445   2.172   8.832  0.6347  0.6316 -0.2050
 1326SOL     OW15439   0.051   2.081   0.436  0.4000 -0.5949  0.4598
 1326SOL    HW115440   0.027   2.168   0.406 -0.6356  0.4444  4.2255
 1326SOL    HW215441   4.701   2.021   0.429 -1.0243  1.5561 -2.4896
 1327SOL     OW15442   2.843   0.834   3.602 -0.6074 -0.2652 -0.7852
 1327SOL    HW115443   2.818   0.781   3.677 -3.0155 -2.0467 -2.8316
 1327SOL    HW215444   2.755   0.859   3.575 -1.2993 -2.4102 -0.4862
 1328SOL     OW15445   2.361   0.361   5.948  0.3232  0.0180  0.1530
 1328SOL    HW115446   2.400   0.420   5.884  2.0800 -1.3243 -0.0329
 1328SOL    HW215447   2.389   0.401   6.031  1.6514 -3.0470  1.1722
 1329SOL     OW15448   3.111   3.293  17.512 -0.2763 -0.6404  0.4100
 1329SOL    HW115449   3.057   3.214  17.506 -0.5028 -0.5313  1.0409
 1329SOL    HW215450   3.114   3.312  17.418 -0.1843 -0.2665  0.4914
 1330SOL     OW15451   1.545   1.044   2.768  0.5970 -0.1144  0.6225
 1330SOL    HW115452   1.627   0.998   2.787  0.7585 -0.2192 -0.3437
 1330SOL    HW215453   1.521   1.080   2.853 -0.6700  2.3055 -0.7902
 1331SOL     OW15454   2.121   1.307   7.032  0.4201 -0.2733 -0.2212
 1331SOL    HW115455   2.083   1.394   7.039 -0.6279 -0.8868  1.7466
 1331SOL    HW215456   2.123   1.295   7.127  3.0536 -0.2776 -0.2855
 1332SOL     OW15457   0.413   4.700  16.550  0.5415  0.0939  0.3795
 1332SOL    HW115458   0.390   4.607  16.552  0.0071  0.2480  1.5580
 1332SOL    HW215459   0.351   4.717  16.478  0.4686  0.6600  0.5826
 1333SOL     OW15460   3.510   3.713   8.093  0.0375  0.2549  0.6809
 1333SOL    HW115461   3.581   3.747   8.148  0.2479  1.3881 -0.3088
 1333SOL    HW215462   3.513   3.619   8.110 -2.9021 -0.2801 -1.6883
 1334SOL     OW15463   3.836   2.373   5.292 -0.9165 -0.2990  0.4465
 1334SOL    HW115464   3.774   2.338   5.228 -2.2374 -0.7600  1.9485
 1334SOL    HW215465   3.783   2.447   5.321  1.0683  1.0991  0.4033
 1335SOL     OW15466   0.406   1.656   2.845  0.2450  0.2033  0.2896
 1335SOL    HW115467   0.321   1.618   2.825 -0.1563  1.3427 -0.2065
 1335SOL    HW215468   0.423   1.605   2.924  1.4803  0.7945  0.4122
 1336SOL     OW15469   4.233   4.654   6.740  0.2396 -0.3900  0.7164
 1336SOL    HW115470   4.200   4.679   6.827 -2.6775 -2.1672  0.1393
 1336SOL    HW215471   4.209   0.009   6.692  2.4119 -0.7370 -0.9114
 1337SOL     OW15472   0.793   0.641  14.345 -0.3815  0.5642  0.2125
 1337SOL    HW115473   0.757   0.697  14.413  0.2022  2.5003 -1.0666
 1337SOL    HW215474   0.887   0.658  14.354 -0.1149 -1.3535  1.1073
 1338SOL     OW15475   4.514   2.345  13.228 -0.0102 -0.2596  0.0132
 1338SOL    HW115476   4.540   2.289  13.156 -0.4244 -1.0610  0.4764
 1338SOL    HW215477   4.567   2.317  13.302  1.7460  0.2693 -1.0657
 1339SOL     OW15478   2.680   2.662   2.405 -0.0743  0.3476 -0.3528
 1339SOL    HW115479   2.650   2.624   2.322  0.7162 -0.6552 -0.1816
 1339SOL    HW215480   2.609   2.717   2.438  1.1289  1.1281  0.9172
 1340SOL     OW15481   1.677   3.454  16.705 -0.1610 -0.8501 -0.3087
 1340SOL    HW115482   1.708   3.521  16.766  0.9700 -1.1532 -0.5591
 1340SOL    HW215483   1.638   3.501  16.631  1.3182  0.9820  0.0687
 1341SOL     OW15484   0.490   3.433  12.151 -0.1098 -0.3480 -0.4889
 1341SOL    HW115485   0.570   3.381  12.146  0.4195  0.2971  1.2856
 1341SOL    HW215486   0.430   3.374  12.195  0.1553 -1.4267 -1.5852
 1342SOL     OW15487   3.274   3.367   5.033  0.5779 -0.4515 -0.1859
 1342SOL    HW115488   3.368   3.381   5.041  0.3720  0.8386 -0.0061
 1342SOL    HW215489   3.252   3.396   4.945 -2.5456 -0.6246  0.5548
 1343SOL     OW15490   4.206   2.037   2.782 -0.2957  0.3058  0.4588
 1343SOL    HW115491   4.199   2.108   2.845  0.9605  1.6137 -0.8530
 1343SOL    HW215492   4.300   2.044   2.768 -0.3648  1.3154  0.5155
 1344SOL     OW15493   3.515   0.286   2.776 -0.1396  0.7175 -0.1786
 1344SOL    HW115494   3.492   0.379   2.773 -1.1355  0.4368 -1.1386
 1344SOL    HW215495   3.487   0.264   2.864  1.7248 -1.6317 -0.1704
 1345SOL     OW15496   1.537   2.328   5.940  0.3647  0.1280  0.2436
 1345SOL    HW115497   1.566   2.293   5.856 -1.8946  0.8854 -0.8668
 1345SOL    HW215498   1.600   2.400   5.947  1.5610 -1.0550  1.5093
 1346SOL     OW15499   2.785   0.451   0.068 -0.0320 -0.3880 -0.1495
 1346SOL    HW115500   2.810   0.455  17.676  1.5323 -1.7938  0.2220
 1346SOL    HW215501   2.865   0.417   0.107  1.5548  2.7726 -0.6210
 1347SOL     OW15502   2.240   2.169   5.569 -0.1668 -0.5043 -0.0309
 1347SOL    HW115503   2.166   2.170   5.630  1.2349 -0.4368  1.6535
 1347SOL    HW215504   2.289   2.237   5.614 -0.0306 -0.7731  0.2257
 1348SOL     OW15505   0.512   0.605   6.716 -0.0976 -0.1121 -0.1544
 1348SOL    HW115506   0.515   0.562   6.631 -0.9148  0.8087 -0.6440
 1348SOL    HW215507   0.581   0.558   6.764 -0.5991 -1.2716 -0.5669
 1349SOL     OW15508   1.779   1.587  11.775 -0.2551  0.1406 -0.4220
 1349SOL    HW115509   1.794   1.526  11.703 -0.0094 -1.5371  1.0826
 1349SOL    HW215510   1.775   1.520  11.843 -1.6173  0.9277  0.2746
 1350SOL     OW15511   1.457   4.431   8.731  0.1264 -0.1690 -0.1020
 1350SOL    HW115512   1.437   4.525   8.736  1.0742  0.1173 -1.6024
 1350SOL    HW215513   1.383   4.383   8.767 -1.3331  0.8701 -1.7586
 1351SOL     OW15514   2.770   3.697   4.354 -0.1943 -0.1832 -0.6029
 1351SOL    HW115515   2.738   3.776   4.398  0.0440 -0.0431 -0.6845
 1351SOL    HW215516   2.854   3.687   4.398 -0.5704 -1.4065 -0.1553
 1352SOL     OW15517   3.105   3.738   7.887 -0.1485 -0.0530 -0.4234
 1352SOL    HW115518   3.019   3.720   7.924 -0.2312 -0.6910 -0.9200
 1352SOL    HW215519   3.083   3.812   7.831 -2.1906 -0.5860 -0.3472
 1353SOL     OW15520   0.502   1.773  14.876  0.6535 -0.3300 -0.2950
 1353SOL    HW115521   0.415   1.792  14.841  1.5479  1.4640 -1.4999
 1353SOL    HW215522   0.493   1.728  14.960  0.6732  0.6942  0.2560
 1354SOL     OW15523   2.553   4.454   2.157 -0.0520 -0.2260  0.2390
 1354SOL    HW115524   2.621   4.469   2.091 -2.6689  2.5564 -1.8281
 1354SOL    HW215525   2.471   4.457   2.107 -0.1109  1.1609  0.4373
 1355SOL     OW15526   0.084   0.643  12.183 -0.4591  0.5177 -0.0436
 1355SOL    HW115527   0.013   0.700  12.155 -1.0323 -0.4925 -0.6792
 1355SOL    HW215528   0.034   0.563  12.199 -0.1020  0.1615 -0.6635
 1356SOL     OW15529   2.513   1.905   3.209  0.3917 -0.0055  0.3323
 1356SOL    HW115530   2.445   1.933   3.269 -0.9383 -0.3154 -1.0278
 1356SOL    HW215531   2.480   1.828   3.162 -0.6097 -0.9882  2.6296
 1357SOL     OW15532   2.921   2.014  10.897  0.1450  0.6396 -0.4488
 1357SOL    HW115533   2.887   2.012  10.807  0.8488 -2.1450 -0.6680
 1357SOL    HW215534   2.863   1.948  10.936  1.4240  0.7078  1.5635
 1358SOL     OW15535   0.225   3.610   9.663  0.0102  0.4873 -0.0169
 1358SOL    HW115536   0.234   3.522   9.699  1.2327  1.7896  2.8537
 1358SOL    HW215537   0.316   3.636   9.647 -0.1161 -0.6254 -2.5166
 1359SOL     OW15538   2.809   3.296   7.140 -0.1242 -0.0706  0.0043
 1359SOL    HW115539   2.864   3.340   7.205 -0.4236  0.4534 -0.1009
 1359SOL    HW215540   2.727   3.344   7.150 -0.3490 -0.2220 -1.1216
 1360SOL     OW15541   3.615   3.271  10.962 -0.5087 -0.1552 -0.4059
 1360SOL    HW115542   3.560   3.325  10.906 -0.1612 -0.2181 -0.8064
 1360SOL    HW215543   3.694   3.264  10.908 -1.1741  0.9171 -1.5196
 1361SOL     OW15544   3.027   2.765  13.363  0.5894  0.4195 -0.2131
 1361SOL    HW115545   2.987   2.799  13.443 -1.1985  0.2594 -1.0319
 1361SOL    HW215546   2.957   2.769  13.298 -0.6279 -1.1622  0.9959
 1362SOL     OW15547   1.639   4.538   8.175  0.8340  0.3156 -0.4340
 1362SOL    HW115548   1.703   4.556   8.243  0.6637 -2.2612  0.3833
 1362SOL    HW215549   1.582   4.615   8.174 -0.0883 -0.3754 -1.4992
 1363SOL     OW15550   2.654   0.767  10.654 -0.2360 -0.1714 -0.5910
 1363SOL    HW115551   2.588   0.826  10.621 -0.2817 -0.2613 -0.6605
 1363SOL    HW215552   2.646   0.786  10.747 -1.9899  1.3842 -1.0824
 1364SOL     OW15553   4.549   2.150  10.636  0.3089  0.2311 -0.0578
 1364SOL    HW115554   4.629   2.196  10.662  0.1790  0.8238 -0.6978
 1364SOL    HW215555   4.510   2.129  10.720 -1.2781 -2.5686 -1.4740
 1365SOL     OW15556   0.830   2.172  15.074 -0.1584  0.1253  0.3968
 1365SOL    HW115557   0.743   2.195  15.104 -0.1958  0.6742 -0.1400
 1365SOL    HW215558   0.814   2.113  14.999 -1.8679  0.0356  0.8372
 1366SOL     OW15559   3.138   0.570  13.912 -0.4831  0.3702  0.3051
 1366SOL    HW115560   3.054   0.603  13.879  0.2650  1.3609 -0.5990
 1366SOL    HW215561   3.196   0.606  13.845  1.9591 -2.1797  1.0423
 1367SOL     OW15562   4.677   1.757   3.008 -0.1926  0.3511 -0.1739
 1367SOL    HW115563   4.674   1.704   3.088  1.5501  1.9739  0.9552
 1367SOL    HW215564   4.645   1.696   2.941 -2.5013  0.6384  0.6478
 1368SOL     OW15565   2.358   2.399   8.880  0.1838  0.4364 -0.2038
 1368SOL    HW115566   2.328   2.396   8.789  1.3945  0.9027 -0.6206
 1368SOL    HW215567   2.276   2.432   8.919  0.4071 -0.1851  0.7556
 1369SOL     OW15568   4.182   1.288   1.806 -0.2899 -0.2762  0.4955
 1369SOL    HW115569   4.116   1.356   1.811 -2.7063 -2.4508 -1.8707
 1369SOL    HW215570   4.198   1.297   1.712 -0.3562 -0.7493  0.4398
 1370SOL     OW15571   3.174   0.324   3.594  0.3645 -0.3357 -0.3041
 1370SOL    HW115572   3.191   0.253   3.532  1.3171 -0.1300 -0.2654
 1370SOL    HW215573   3.080   0.340   3.586  0.4906  0.9213  0.7473
 1371SOL     OW15574   1.840   0.918   4.292  0.0778  0.3010  0.2979
 1371SOL    HW115575   1.905   0.889   4.357  0.6072  2.7499  0.8690
 1371SOL    HW215576   1.775   0.849   4.305  0.3253  0.0205  0.0470
 1372SOL     OW15577   1.680   0.937  15.940 -0.3381 -0.2800 -0.8901
 1372SOL    HW115578   1.694   1.023  15.901  0.8761 -0.6183 -1.1854
 1372SOL    HW215579   1.753   0.937  16.002  1.6428 -1.9030 -3.2410
 1373SOL     OW15580   0.437   3.835   2.879  0.1432  0.3745 -0.4350
 1373SOL    HW115581   0.394   3.921   2.886 -1.9484 -0.7169  0.1656
 1373SOL    HW215582   0.404   3.798   2.960  1.7515  0.2348  0.1605
 1374SOL     OW15583   2.769   3.800   9.313 -0.3052  0.2630 -0.0544
 1374SOL    HW115584   2.864   3.789   9.321 -0.3690 -1.3128 -1.3880
 1374SOL    HW215585   2.742   3.708   9.305 -0.1778  0.1143  1.2301
 1375SOL     OW15586   1.864   2.385   0.324  0.4906 -0.2684  0.0239
 1375SOL    HW115587   1.795   2.371   0.260  0.4064  0.6372 -0.0791
 1375SOL    HW215588   1.868   2.298   0.366 -0.3606  0.0903  0.8696
 1376SOL     OW15589   3.935   2.625   6.765 -0.7161 -0.0036  0.1147
 1376SOL    HW115590   4.009   2.661   6.716  0.6290 -1.6343  0.9492
 1376SOL    HW215591   3.892   2.591   6.687 -0.3540  1.3552 -0.6791
 1377SOL     OW15592   0.403   3.749   0.464  0.7428 -0.2791  0.3939
 1377SOL    HW115593   0.475   3.798   0.427  0.7375 -0.3638  0.2728
 1377SOL    HW215594   0.380   3.704   0.383  0.5068  0.0912  0.2572
 1378SOL     OW15595   0.736   3.216  15.649 -0.7069  0.4711  0.0919
 1378SOL    HW115596   0.824   3.253  15.635 -1.0587  0.5636 -1.8394
 1378SOL    HW215597   0.711   3.213  15.557  3.7409 -0.1738 -1.0987
 1379SOL     OW15598   2.604   4.023  11.285  0.3409  0.2402 -0.1981
 1379SOL    HW115599   2.584   4.051  11.375 -0.5661  2.1209 -0.9873
 1379SOL    HW215600   2.677   4.079  11.257  1.0007 -0.4280  0.1742
 1380SOL     OW15601   3.546   4.249   5.863  0.1688  0.0252 -0.4863
 1380SOL    HW115602   3.558   4.156   5.884  0.6516  0.3818  0.8390
 1380SOL    HW215603   3.564   4.252   5.769 -0.6109  4.4098 -0.4904
 1381SOL     OW15604   1.695   3.556   9.001 -0.5036 -0.6827 -0.1875
 1381SOL    HW115605   1.611   3.548   9.046 -1.1816  1.1338 -1.0817
 1381SOL    HW215606   1.704   3.652   8.996 -2.5204 -0.4299  1.0086
 1382SOL     OW15607   0.686   3.759   2.516 -0.0200  0.0652 -0.0971
 1382SOL    HW115608   0.690   3.842   2.564  0.5730  0.1806 -0.3427
 1382SOL    HW215609   0.683   3.692   2.584  0.5750 -0.5156 -0.6525
 1383SOL     OW15610   3.319   3.230   9.734  0.5615  0.0001 -1.0027
 1383SOL    HW115611   3.392   3.293   9.734 -0.3923  1.1157 -0.7352
 1383SOL    HW215612   3.248   3.294   9.723 -1.0442 -1.7482 -0.8856
 1384SOL     OW15613   0.661   4.170   7.311 -0.2733  0.6634 -0.2728
 1384SOL    HW115614   0.719   4.111   7.360 -0.6029  1.4188  1.0151
 1384SOL    HW215615   0.620   4.230   7.373 -2.2332 -0.4877 -0.4653
 1385SOL     OW15616   3.520   2.439  17.000 -0.3326  0.4407 -0.0277
 1385SOL    HW115617   3.449   2.501  16.982  1.4541  1.5545 -3.0760
 1385SOL    HW215618   3.491   2.402  17.084  2.1237 -1.8046 -0.1682
 1386SOL     OW15619   2.395   0.039  10.571 -0.0925  0.2825 -0.0759
 1386SOL    HW115620   2.428   0.076  10.653  1.2163  2.1397 -1.4192
 1386SOL    HW215621   2.303   0.017  10.586  0.2563  0.2252  1.9438
 1387SOL     OW15622   1.001   2.795   9.927 -0.2620  0.2356  0.1068
 1387SOL    HW115623   1.015   2.802   9.832  1.2587 -1.0238  0.2384
 1387SOL    HW215624   1.057   2.719   9.942  1.3072  1.2748 -0.4995
 1388SOL     OW15625   0.296   1.870   8.788  0.9094  0.8318 -0.6606
 1388SOL    HW115626   0.252   1.882   8.704  0.1011 -0.1699 -0.3737
 1388SOL    HW215627   0.374   1.829   8.752  1.0550 -0.5727  1.2613
 1389SOL     OW15628   2.614   3.546   5.163  0.1481  0.2071  0.3874
 1389SOL    HW115629   2.600   3.615   5.097 -1.4801 -2.0403 -1.6006
 1389SOL    HW215630   2.705   3.520   5.148 -0.2577 -1.3321  0.6556
 1390SOL     OW15631   4.486   1.705   5.582  0.0581 -0.9630 -0.2350
 1390SOL    HW115632   4.463   1.653   5.505 -2.2018 -1.9564  1.1255
 1390SOL    HW215633   4.471   1.794   5.549 -2.2009 -0.7153  1.4978
 1391SOL     OW15634   0.397   4.368   1.173  0.3154 -0.1749  0.1869
 1391SOL    HW115635   0.407   4.283   1.130 -1.1272 -0.3187  0.1334
 1391SOL    HW215636   0.330   4.346   1.238 -0.1962 -0.7999 -0.5458
 1392SOL     OW15637   3.023   1.211  11.532  0.4233  0.1720 -0.3422
 1392SOL    HW115638   3.073   1.256  11.600  0.8000 -0.5070 -0.1711
 1392SOL    HW215639   2.940   1.260  11.532  0.5424  0.3754  0.7272
 1393SOL     OW15640   3.450   3.291  10.203 -0.5823  0.3015 -0.4994
 1393SOL    HW115641   3.407   3.206  10.197 -0.1900  0.0606  0.1531
 1393SOL    HW215642   3.508   3.269  10.276 -0.8963 -0.8807 -0.6073
 1394SOL     OW15643   0.255   2.967   7.097 -0.3510  0.1437 -0.4011
 1394SOL    HW115644   0.322   2.964   7.029 -0.5485 -1.4483 -0.5160
 1394SOL    HW215645   0.176   2.981   7.043 -0.5511  0.4769 -0.0229
 1395SOL     OW15646   2.825   4.060   5.390 -0.0916 -0.2233  0.4493
 1395SOL    HW115647   2.877   4.022   5.461  1.3214  2.6745  0.9533
 1395SOL    HW215648   2.815   3.983   5.333  0.0046 -1.1311  1.6662
 1396SOL     OW15649   1.942   3.655   5.881  0.2204 -0.3885 -0.0037
 1396SOL    HW115650   1.988   3.702   5.950  1.6247  2.5873 -2.9835
 1396SOL    HW215651   1.944   3.724   5.815  1.1417 -2.2202 -1.8718
 1397SOL     OW15652   1.894   3.510   9.901  0.1205  0.0947 -0.0369
 1397SOL    HW115653   1.967   3.567   9.924  0.4184 -0.9326  1.6473
 1397SOL    HW215654   1.824   3.574   9.895 -0.1044  0.0087  1.7421
 1398SOL     OW15655   0.912   3.382  13.814  0.4752  0.2155 -0.3082
 1398SOL    HW115656   0.838   3.334  13.777 -0.4645  0.1926  1.5689
 1398SOL    HW215657   0.926   3.325  13.889  1.6844 -0.9962 -1.4703
 1399SOL     OW15658   2.407   3.516   7.693  0.2936 -0.0338  0.5597
 1399SOL    HW115659   2.428   3.499   7.785 -0.3813 -0.5785  0.6134
 1399SOL    HW215660   2.435   3.432   7.657 -2.5302  0.1057 -1.9705
 1400SOL     OW15661   3.359   2.846  11.526 -0.5068 -0.5077  0.4393
 1400SOL    HW115662   3.389   2.807  11.608  0.0780 -3.1377 -1.0520
 1400SOL    HW215663   3.368   2.940  11.542 -3.2495 -0.8037  3.7012
 1401SOL     OW15664   2.078   3.151   3.166 -0.2431 -0.1442 -0.1351
 1401SOL    HW115665   2.034   3.103   3.095 -0.7682  0.4722 -0.2299
 1401SOL    HW215666   2.169   3.133   3.141 -0.2630  0.2593 -0.4893
 1402SOL     OW15667   3.227   0.375   2.876 -0.0741  0.0791 -0.2611
 1402SOL    HW115668   3.226   0.405   2.968  1.0277 -0.4541 -0.0792
 1402SOL    HW215669   3.283   0.444   2.841  1.0632  0.1727  1.7107
 1403SOL     OW15670   1.629   1.947  14.239  0.2272 -0.1047 -0.2645
 1403SOL    HW115671   1.580   1.905  14.309 -0.0048  0.4015 -0.1237
 1403SOL    HW215672   1.561   1.972  14.177 -0.9938  0.6090  1.3802
 1404SOL     OW15673   4.018   1.888   2.225  0.5635  0.0481 -0.3730
 1404SOL    HW115674   3.973   1.817   2.179  0.9991  0.5245 -1.5355
 1404SOL    HW215675   3.948   1.920   2.282  1.8824 -0.4519  1.5121
 1405SOL     OW15676   1.436   3.579   7.534  0.3048 -0.1720 -0.3507
 1405SOL    HW115677   1.342   3.585   7.519  0.3365 -0.7603 -0.7529
 1405SOL    HW215678   1.456   3.637   7.608 -3.2224 -1.0633  1.3236
 1406SOL     OW15679   1.454   2.616  12.616 -0.6872  0.0123 -0.4089
 1406SOL    HW115680   1.545   2.624  12.588 -0.5282 -0.0096  0.0967
 1406SOL    HW215681   1.406   2.623  12.533  0.1325 -0.6162 -0.9365
 1407SOL     OW15682   2.720   2.488   2.685 -0.6472  0.3278  0.4737
 1407SOL    HW115683   2.754   2.401   2.701  1.3308  0.5863 -2.3533
 1407SOL    HW215684   2.797   2.532   2.647 -2.3447  0.8683 -2.3869
 1408SOL     OW15685   1.327   0.697   8.808  0.0513 -0.3435  0.4685
 1408SOL    HW115686   1.334   0.792   8.816 -0.1408 -0.3206  0.3642
 1408SOL    HW215687   1.390   0.667   8.874  1.1514 -0.5591 -0.7006
 1409SOL     OW15688   3.803   1.873   3.670  0.0443 -0.1011  0.4488
 1409SOL    HW115689   3.839   1.948   3.718  1.1622 -0.4024  0.0756
 1409SOL    HW215690   3.862   1.805   3.702  3.2230  0.4404 -4.3021
 1410SOL     OW15691   2.453   4.662  12.911 -0.4451  0.0075 -0.1480
 1410SOL    HW115692   2.504   4.685  12.834 -0.9093 -2.6392 -1.2585
 1410SOL    HW215693   2.486   4.572  12.917  1.8220  0.8654  0.2744
 1411SOL     OW15694   2.071   4.422   4.808 -0.3829  0.2086  0.4786
 1411SOL    HW115695   2.141   4.482   4.833 -1.8993  2.0971  0.0846
 1411SOL    HW215696   2.054   4.463   4.723  1.2739 -1.2196 -0.5708
 1412SOL     OW15697   4.520   1.047   4.435  0.1633  0.8191  0.5529
 1412SOL    HW115698   4.446   1.083   4.387  0.0184 -1.7631 -1.1729
 1412SOL    HW215699   4.492   0.956   4.426 -3.4171  1.7554  2.1621
 1413SOL     OW15700   4.025   2.053   6.250  0.4793  0.7028 -0.0504
 1413SOL    HW115701   4.051   1.996   6.178  0.6197 -1.8466  2.0271
 1413SOL    HW215702   4.109   2.091   6.278 -0.0275  0.6674  1.5158
 1414SOL     OW15703   1.596   0.560   3.237  0.2085  0.2942 -0.3546
 1414SOL    HW115704   1.600   0.651   3.266  4.5093  0.1853 -0.5992
 1414SOL    HW215705   1.595   0.509   3.318  0.0232 -1.4498 -1.4582
 1415SOL     OW15706   1.500   1.547   2.984 -0.3920 -0.5478 -0.2373
 1415SOL    HW115707   1.437   1.488   3.025  0.4722 -0.3489  1.3966
 1415SOL    HW215708   1.498   1.519   2.892  0.5999 -1.8830  0.1294
 1416SOL     OW15709   4.238   0.919   2.243  0.0693  0.3938 -0.1460
 1416SOL    HW115710   4.276   0.984   2.184  0.5759  0.3648  0.1469
 1416SOL    HW215711   4.254   0.840   2.191  0.7402  0.4759 -0.0636
 1417SOL     OW15712   2.958   0.691   5.143 -0.6528 -0.0801 -0.0776
 1417SOL    HW115713   2.946   0.644   5.061 -1.1726  0.3506 -0.2466
 1417SOL    HW215714   2.910   0.642   5.210 -1.6964 -1.2666 -1.6925
 1418SOL     OW15715   0.244   4.195   9.312 -0.0683  0.0697  0.0535
 1418SOL    HW115716   0.220   4.115   9.265 -0.5723  0.6596 -0.6921
 1418SOL    HW215717   0.300   4.152   9.376  0.8687 -1.8933 -2.0327
 1419SOL     OW15718   0.689   4.653   6.911 -0.4381 -0.5596 -0.5262
 1419SOL    HW115719   0.744   0.007   6.910 -0.5885 -0.4698 -1.6727
 1419SOL    HW215720   0.720   4.610   6.831  2.0865 -0.2745  0.3203
 1420SOL     OW15721   3.043   3.222   5.876 -0.2995  0.1155 -0.4191
 1420SOL    HW115722   3.059   3.310   5.911  0.5277 -0.1078 -0.2288
 1420SOL    HW215723   3.040   3.235   5.782 -1.0985 -1.4405 -0.5969
 1421SOL     OW15724   0.952   0.884   3.005  0.4894 -0.2629  0.2077
 1421SOL    HW115725   0.980   0.957   2.951 -0.9777  1.0717  1.2667
 1421SOL    HW215726   0.922   0.944   3.073 -2.2016  1.0500 -2.1451
 1422SOL     OW15727   0.034   2.184   8.650  0.4500  0.1244  0.4539
 1422SOL    HW115728   0.005   2.100   8.616  0.4355  0.3605 -0.1200
 1422SOL    HW215729   0.082   2.170   8.732  0.4033 -1.4659  0.1925
 1423SOL     OW15730   3.090   1.405   7.675  0.1912  0.1084  0.1366
 1423SOL    HW115731   3.008   1.357   7.690  1.2128 -1.7772 -0.2902
 1423SOL    HW215732   3.159   1.353   7.716  0.9369  0.4196 -0.7353
 1424SOL     OW15733   0.867   1.066  16.327  0.7497  0.2049  0.4409
 1424SOL    HW115734   0.906   1.151  16.303 -0.4548  1.1662  1.9048
 1424SOL    HW215735   0.794   1.098  16.379  1.4082  1.6619  0.4846
 1425SOL     OW15736   0.357   2.669   4.276 -0.1545 -0.2840  0.7774
 1425SOL    HW115737   0.319   2.582   4.274 -1.5518  0.3177  1.0260
 1425SOL    HW215738   0.334   2.681   4.368 -0.5079 -0.8189  0.7596
 1426SOL     OW15739   3.095   2.773   4.561  0.4270  0.3341 -0.0411
 1426SOL    HW115740   3.132   2.738   4.642  1.2825  0.7400 -0.2501
 1426SOL    HW215741   3.068   2.696   4.512 -2.1712  0.5289  1.0629
 1427SOL     OW15742   3.352   0.602  15.841  0.1633  0.1216 -0.2028
 1427SOL    HW115743   3.325   0.675  15.785  1.8777 -0.6522 -2.0375
 1427SOL    HW215744   3.435   0.628  15.880 -0.5557  0.3409  1.1692
 1428SOL     OW15745   2.086   4.482   6.323  0.0793 -0.6173 -0.0002
 1428SOL    HW115746   2.072   4.388   6.309  2.1393 -0.8009 -0.7774
 1428SOL    HW215747   2.026   4.512   6.254 -0.6860  0.1490  0.9851
 1429SOL     OW15748   2.013   3.193   0.039  0.0309  0.5088 -0.2978
 1429SOL    HW115749   1.957   3.245   0.097  1.1375  0.8051  0.4913
 1429SOL    HW215750   2.066   3.157   0.110 -2.0244 -2.3810 -0.2177
 1430SOL     OW15751   0.034   1.199   4.438  0.3802  0.4402 -0.3387
 1430SOL    HW115752   4.674   1.155   4.436  0.1816  0.7277  1.6266
 1430SOL    HW215753   0.089   1.148   4.498  0.6344  1.2461  0.1130
 1431SOL     OW15754   1.825   4.212   3.155 -0.0264 -0.0081  0.2231
 1431SOL    HW115755   1.907   4.165   3.168 -1.0123 -1.3221  1.6635
 1431SOL    HW215756   1.771   4.142   3.119 -0.3488  0.8854 -1.0377
 1432SOL     OW15757   2.935   0.796   6.338  0.1463 -0.2972  0.3882
 1432SOL    HW115758   2.916   0.875   6.287 -0.8705 -0.7995 -0.0006
 1432SOL    HW215759   2.891   0.735   6.280  4.3655 -0.9530 -2.1408
 1433SOL     OW15760   4.208   0.558  10.114 -0.4019 -0.1449 -0.4251
 1433SOL    HW115761   4.156   0.525  10.187 -0.3685 -0.4676 -0.5452
 1433SOL    HW215762   4.144   0.605  10.060 -0.0816 -0.1011 -0.7707
 1434SOL     OW15763   2.714   3.701  10.039  0.3696  0.3614 -0.6465
 1434SOL    HW115764   2.670   3.781  10.011 -0.0196  0.7773  1.1654
 1434SOL    HW215765   2.707   3.708  10.134  2.0984 -0.4954 -0.4491
 1435SOL     OW15766   2.163   1.675   7.643 -0.3171 -0.1687  0.4973
 1435SOL    HW115767   2.210   1.664   7.726 -0.3917 -1.0827  0.4191
 1435SOL    HW215768   2.116   1.756   7.663  2.1818  1.4789 -0.3117
 1436SOL     OW15769   4.200   4.345   2.561 -0.3679  0.0924  0.9547
 1436SOL    HW115770   4.207   4.249   2.557  0.2161  0.1978 -0.8822
 1436SOL    HW215771   4.279   4.371   2.608 -0.8752  3.3271 -0.0007
 1437SOL     OW15772   1.289   2.352  17.093 -0.0280  0.0770 -0.6142
 1437SOL    HW115773   1.367   2.387  17.136  0.1903 -0.6167 -0.4389
 1437SOL    HW215774   1.225   2.344  17.164  2.6736  2.3468  2.0786
 1438SOL     OW15775   3.156   4.533  15.802  0.4654 -0.2122 -0.2088
 1438SOL    HW115776   3.088   4.600  15.813  1.0769  0.4516 -0.4285
 1438SOL    HW215777   3.209   4.579  15.736 -0.3769  1.0278 -0.0184
 1439SOL     OW15778   4.468   1.312   1.803  0.0155 -0.0036  0.3282
 1439SOL    HW115779   4.471   1.331   1.709 -2.0081 -1.5283 -0.0506
 1439SOL    HW215780   4.377   1.292   1.825  0.5603  0.4809  3.0731
 1440SOL     OW15781   2.752   4.343  11.429 -0.0207 -0.2066 -0.0513
 1440SOL    HW115782   2.842   4.371  11.410  1.3034 -2.3531  3.1844
 1440SOL    HW215783   2.770   4.272  11.490  0.4716 -0.0436 -0.0058
 1441SOL     OW15784   1.741   0.011   1.264 -0.1918 -0.0984  0.3370
 1441SOL    HW115785   1.671   0.015   1.198  0.6054  0.9434 -0.4445
 1441SOL    HW215786   1.741   4.641   1.275 -0.1214 -0.4078 -2.4331
 1442SOL     OW15787   0.267   1.402   2.620  0.0496  1.0734  0.2375
 1442SOL    HW115788   0.251   1.425   2.711  1.4678  0.2537  0.7030
 1442SOL    HW215789   0.178   1.391   2.588  0.1653 -0.0895  0.3136
 1443SOL     OW15790   4.257   0.428   8.592 -0.0306 -0.1461 -0.0247
 1443SOL    HW115791   4.285   0.456   8.505  3.5650 -2.0808  0.5350
 1443SOL    HW215792   4.307   0.348   8.601  0.1277 -0.3945 -3.2137
 1444SOL     OW15793   4.015   4.622   3.701  0.1156  0.4185 -0.2074
 1444SOL    HW115794   3.992   4.544   3.752 -0.6713  0.8073  0.0293
 1444SOL    HW215795   4.058   4.587   3.623  1.5482  2.3642 -0.2786
 1445SOL     OW15796   1.012   1.846   6.125  0.4067 -0.5498 -0.0543
 1445SOL    HW115797   1.105   1.847   6.145  0.4630 -0.7473 -0.3056
 1445SOL    HW215798   1.018   1.841   6.029 -0.3291 -0.4528 -0.1111
 1446SOL     OW15799   4.076   1.994   2.544  0.4891 -0.5395  0.0562
 1446SOL    HW115800   4.078   1.992   2.640 -0.2108 -0.4639  0.0746
 1446SOL    HW215801   4.157   1.949   2.519 -0.7671 -1.1580 -2.8503
 1447SOL     OW15802   4.714   4.280   1.420  0.1904 -0.5627 -0.4384
 1447SOL    HW115803   4.672   4.195   1.436  1.9119 -1.5569 -1.3104
 1447SOL    HW215804   4.648   4.337   1.460  1.0730  0.4445 -0.4095
 1448SOL     OW15805   3.340   2.549   5.173  0.0137 -0.0400  0.2168
 1448SOL    HW115806   3.375   2.518   5.256 -1.6655 -0.7428  0.6651
 1448SOL    HW215807   3.420   2.584   5.134 -0.1366 -1.1805 -1.1108
 1449SOL     OW15808   1.634   0.702   7.291  0.1888 -0.1870 -0.1347
 1449SOL    HW115809   1.700   0.741   7.348  0.3909 -2.0176  0.8650
 1449SOL    HW215810   1.630   0.611   7.319  0.2739  0.1882  1.0844
 1450SOL     OW15811   3.776   2.875   1.329 -0.6523  0.0304 -0.1970
 1450SOL    HW115812   3.685   2.847   1.333 -0.5868 -0.3948 -1.5631
 1450SOL    HW215813   3.795   2.867   1.235  0.6057 -1.7351  0.2075
 1451SOL     OW15814   2.603   3.277   8.306  0.1246 -0.1586 -0.2925
 1451SOL    HW115815   2.642   3.242   8.386  0.4332 -2.9914 -1.6821
 1451SOL    HW215816   2.511   3.260   8.325  0.0842 -0.9120 -1.1863
 1452SOL     OW15817   1.331   2.290   7.916 -0.5730  0.3938  0.1954
 1452SOL    HW115818   1.247   2.267   7.956  0.8473 -1.2992  2.1963
 1452SOL    HW215819   1.381   2.210   7.930 -0.1913  0.5058 -0.5598
 1453SOL     OW15820   0.730   2.249   6.384  0.3546 -0.1066 -0.0201
 1453SOL    HW115821   0.741   2.183   6.452  0.1921 -0.6257 -0.5006
 1453SOL    HW215822   0.794   2.217   6.321  0.5880  0.1050  0.1089
 1454SOL     OW15823   2.039   3.155  10.040  0.4387  0.2010 -0.6296
 1454SOL    HW115824   2.110   3.196   9.990  3.5568 -1.5418  2.3698
 1454SOL    HW215825   2.052   3.201  10.123  0.8976 -0.4432 -0.3464
 1455SOL     OW15826   4.580   1.105   7.200 -1.0074 -0.0396  0.6022
 1455SOL    HW115827   4.651   1.068   7.146 -2.1984 -0.3225 -0.7886
 1455SOL    HW215828   4.518   1.124   7.129  2.2303  0.1204 -2.1769
 1456SOL     OW15829   0.867   2.811   5.657 -0.3075  0.6238  0.4868
 1456SOL    HW115830   0.920   2.832   5.734  1.3254 -1.3705 -0.1044
 1456SOL    HW215831   0.797   2.760   5.697 -0.3247  0.6373  0.4740
 1457SOL     OW15832   1.790   3.833   2.558  0.2108  0.1700 -0.1387
 1457SOL    HW115833   1.862   3.887   2.591 -0.1791  1.2020 -0.9669
 1457SOL    HW215834   1.720   3.864   2.616 -0.2728 -0.3783 -0.4415
 1458SOL     OW15835   2.649   1.164   3.073  0.1574  0.1468  0.6389
 1458SOL    HW115836   2.637   1.073   3.046 -0.9378  0.0432  1.4680
 1458SOL    HW215837   2.699   1.199   2.999 -0.3268 -0.8817 -0.1748
 1459SOL     OW15838   2.385   4.517   3.574 -0.4360  0.1865  0.2985
 1459SOL    HW115839   2.466   4.568   3.583 -1.1463  1.0996  1.4679
 1459SOL    HW215840   2.358   4.541   3.485  0.0359 -0.2762  0.0267
 1460SOL     OW15841   1.059   0.121   1.920 -0.2473 -0.0150  0.4987
 1460SOL    HW115842   1.118   0.172   1.975  0.2056 -0.5364  0.4973
 1460SOL    HW215843   0.990   0.119   1.987  1.0285 -0.4680  1.8071
 1461SOL     OW15844   4.167   3.057   0.926  0.4488 -0.3278  0.3328
 1461SOL    HW115845   4.217   2.979   0.952  1.1607  0.6418  1.8554
 1461SOL    HW215846   4.167   3.049   0.831  1.4435  0.1346  0.2891
 1462SOL     OW15847   3.122   1.328  17.506 -0.2487 -0.0881 -0.4396
 1462SOL    HW115848   3.115   1.381  17.586 -4.1130  0.3233 -1.0194
 1462SOL    HW215849   3.171   1.261  17.553 -0.2348  1.0007  1.1173
 1463SOL     OW15850   1.319   3.078  13.226 -0.4106 -0.0631  0.1546
 1463SOL    HW115851   1.361   3.000  13.262  1.2099 -1.1498 -4.2271
 1463SOL    HW215852   1.243   3.033  13.188  0.7474 -1.5155 -0.4309
 1464SOL     OW15853   3.912   3.647   1.525 -0.3771  0.0289  0.5605
 1464SOL    HW115854   3.852   3.605   1.464 -0.0297  0.4921 -0.0983
 1464SOL    HW215855   3.949   3.711   1.465 -1.5083 -0.4615 -0.6537
 1465SOL     OW15856   4.432   0.762   8.604  0.3569 -0.4202 -0.0076
 1465SOL    HW115857   4.448   0.790   8.694 -0.3938  0.7290 -0.2255
 1465SOL    HW215858   4.345   0.723   8.612  0.6724 -1.2267 -0.4949
 1466SOL     OW15859   4.292   3.365  10.279 -0.4190  0.4543  0.4073
 1466SOL    HW115860   4.281   3.285  10.330  1.8681  0.6991  1.2735
 1466SOL    HW215861   4.206   3.396  10.253 -0.6017 -0.7812 -0.4839
 1467SOL     OW15862   1.620   0.471   2.398  0.3441 -0.3188  0.1413
 1467SOL    HW115863   1.564   0.549   2.395 -1.3607 -1.6033 -1.1677
 1467SOL    HW215864   1.615   0.463   2.493 -3.0265  0.5654  0.0249
 1468SOL     OW15865   1.504   4.446   6.467  0.9560  0.0701 -0.1423
 1468SOL    HW115866   1.565   4.448   6.393 -1.0412  1.9653 -1.7175
 1468SOL    HW215867   1.431   4.403   6.423  0.8935 -0.7233  0.7461
 1469SOL     OW15868   1.326   4.578   5.965  1.0569  0.2758 -0.2236
 1469SOL    HW115869   1.278   4.651   5.928 -0.1366 -0.6308 -0.4454
 1469SOL    HW215870   1.254   4.532   6.008  1.9290  1.8425  2.9721
 1470SOL     OW15871   1.152   0.385   8.744  0.1897  0.4250 -0.2440
 1470SOL    HW115872   1.236   0.419   8.712 -0.2990  1.2097 -0.7128
 1470SOL    HW215873   1.101   0.467   8.745 -1.1601 -0.4033 -0.9288
 1471SOL     OW15874   4.173   0.397  15.282  0.1469 -0.0066  0.0543
 1471SOL    HW115875   4.149   0.458  15.352 -0.3450  1.7391 -1.6437
 1471SOL    HW215876   4.216   0.325  15.328 -0.7769 -0.6284 -0.0767
 1472SOL     OW15877   2.871   4.483   3.943  0.3508 -0.0532  0.1855
 1472SOL    HW115878   2.912   4.453   3.862  2.5621  2.5778  0.3276
 1472SOL    HW215879   2.945   4.525   3.987  2.7686 -2.0104 -2.0379
 1473SOL     OW15880   1.233   4.559  13.813  0.2840  0.4111 -0.2018
 1473SOL    HW115881   1.248   4.589  13.902 -0.1283 -1.2519  0.4222
 1473SOL    HW215882   1.237   4.464  13.822 -0.9170  0.3610 -0.1251
 1474SOL     OW15883   0.298   3.970   3.656  0.8922 -0.6090  0.1393
 1474SOL    HW115884   0.318   3.998   3.745 -0.7652 -3.4212  1.4105
 1474SOL    HW215885   0.367   4.010   3.604  0.3817  0.9523  0.6639
 1475SOL     OW15886   3.262   4.467   5.690  0.5255 -1.0620 -0.4623
 1475SOL    HW115887   3.282   4.415   5.768  1.1838 -3.6457 -2.3706
 1475SOL    HW215888   3.236   4.403   5.625  1.7311 -0.5095 -1.4855
 1476SOL     OW15889   1.069   0.800   5.592 -0.0079  0.4187 -0.5121
 1476SOL    HW115890   1.147   0.815   5.539  0.1365  2.2850  0.2456
 1476SOL    HW215891   1.040   0.890   5.608 -1.0170 -0.2008  1.1554
 1477SOL     OW15892   1.733   1.500   8.881  0.0407 -0.3710  0.0280
 1477SOL    HW115893   1.747   1.512   8.787  1.6923 -0.2166  0.3049
 1477SOL    HW215894   1.639   1.518   8.878  0.1189  0.0925  0.4519
 1478SOL     OW15895   0.938   0.284  15.454  0.0803 -0.1223 -0.1082
 1478SOL    HW115896   1.021   0.257  15.415  0.4045 -0.9928  1.1852
 1478SOL    HW215897   0.908   0.348  15.389 -1.5266 -1.3018 -0.5330
 1479SOL     OW15898   0.445   2.161  14.354 -0.3621  0.2866 -0.0018
 1479SOL    HW115899   0.521   2.190  14.303  0.2117 -0.4068  0.4729
 1479SOL    HW215900   0.476   2.114  14.431 -0.8091 -0.5614 -0.3385
 1480SOL     OW15901   3.988   4.078   2.660  0.4291 -0.2308  0.3627
 1480SOL    HW115902   3.945   3.992   2.670  0.4543 -0.4204 -1.1511
 1480SOL    HW215903   4.065   4.052   2.610  0.0642  1.8041 -1.2190
 1481SOL     OW15904   0.199   3.950   0.438  0.4256  0.2309  0.7342
 1481SOL    HW115905   0.281   3.965   0.485 -0.0595  1.9768  1.0349
 1481SOL    HW215906   0.233   3.888   0.373 -2.9475  0.4960 -1.2822
 1482SOL     OW15907   1.621   3.533  14.221  0.6034  0.2944  0.0936
 1482SOL    HW115908   1.628   3.514  14.128 -0.3899  1.2471 -0.1786
 1482SOL    HW215909   1.586   3.454  14.261  1.4015 -1.3048 -2.4389
 1483SOL     OW15910   4.243   4.444   0.664 -0.5425 -0.4011  0.1530
 1483SOL    HW115911   4.199   4.398   0.735 -1.8020  1.4810  0.5776
 1483SOL    HW215912   4.248   4.380   0.593 -0.1804  0.3850 -0.5309
 1484SOL     OW15913   1.716   1.815   6.669 -0.2025  0.1685 -0.4180
 1484SOL    HW115914   1.758   1.736   6.703 -0.0725  0.6283  0.4847
 1484SOL    HW215915   1.648   1.827   6.736 -0.3387 -0.3780 -0.4614
 1485SOL     OW15916   4.371   1.392   6.246  0.6457 -0.3432 -0.2661
 1485SOL    HW115917   4.394   1.315   6.195  1.2741 -0.0727 -0.4031
 1485SOL    HW215918   4.278   1.394   6.226  0.5428 -1.5812  0.0807
 1486SOL     OW15919   4.103   0.241   8.741 -0.1046  0.6563  0.2654
 1486SOL    HW115920   4.174   0.193   8.784  0.4561  1.3947  0.1573
 1486SOL    HW215921   4.154   0.319   8.719  0.6075  0.9764  3.1411
 1487SOL     OW15922   2.296   3.938   8.195  0.5708  0.4013 -0.3576
 1487SOL    HW115923   2.363   3.920   8.261  0.2936 -2.3533 -0.8346
 1487SOL    HW215924   2.298   4.033   8.205 -0.9890  0.2101  1.7065
 1488SOL     OW15925   1.734   2.263   3.557 -0.4224  0.0104 -0.0821
 1488SOL    HW115926   1.782   2.185   3.584 -2.1179 -0.6975  0.8659
 1488SOL    HW215927   1.655   2.271   3.610  0.3102 -0.8941  1.1245
 1489SOL     OW15928   4.198   0.749  12.256  0.4670 -0.5168  0.0802
 1489SOL    HW115929   4.253   0.715  12.185  1.7952  1.5381  0.1150
 1489SOL    HW215930   4.251   0.760  12.335 -1.5314  0.6110  1.2434
 1490SOL     OW15931   4.207   4.249  16.910  0.4474 -1.1447 -0.1545
 1490SOL    HW115932   4.194   4.300  16.990  0.5075  0.2780 -1.0495
 1490SOL    HW215933   4.292   4.279  16.879  0.6144 -0.7079  0.7161
 1491SOL     OW15934   0.148   4.468   0.084  0.7855  0.2170  0.2442
 1491SOL    HW115935   0.217   4.505   0.139  1.1267 -1.4503  0.9503
 1491SOL    HW215936   0.140   4.386   0.134  1.2413  0.4337  0.6718
 1492SOL     OW15937   3.664   4.256  10.248 -0.2381  0.0884  0.0744
 1492SOL    HW115938   3.707   4.173  10.226  1.6578  0.9479  0.4812
 1492SOL    HW215939   3.594   4.222  10.303 -0.9912  0.3677 -0.7100
 1493SOL     OW15940   2.001   4.160   9.043 -0.3447 -0.0879 -0.2189
 1493SOL    HW115941   1.917   4.136   9.004 -0.8071 -1.3211  1.5133
 1493SOL    HW215942   2.037   4.224   8.982 -2.8666  0.8106 -0.7457
 1494SOL     OW15943   3.526   3.562   4.793  0.0818  0.4595 -0.5607
 1494SOL    HW115944   3.526   3.540   4.700  0.7129  1.1794 -0.7373
 1494SOL    HW215945   3.617   3.544   4.819 -0.6325  1.7267  2.8839
 1495SOL     OW15946   3.517   2.147   9.151 -0.2604 -0.1479  0.0005
 1495SOL    HW115947   3.480   2.079   9.207 -1.1644 -0.5285 -1.0726
 1495SOL    HW215948   3.590   2.175   9.206  0.1932  0.2989 -0.8329
 1496SOL     OW15949   0.973   0.920   3.512  0.4231 -0.0997  0.2425
 1496SOL    HW115950   1.053   0.940   3.463 -0.1523  2.2019  0.2356
 1496SOL    HW215951   0.954   0.827   3.497 -1.6892  0.3882 -0.1034
 1497SOL     OW15952   0.036   3.328   1.919  0.8426 -0.3337 -0.1127
 1497SOL    HW115953   0.093   3.339   1.843  1.0117  0.3067  0.1012
 1497SOL    HW215954   4.677   3.313   1.875  1.3989  2.1681 -2.0228
 1498SOL     OW15955   3.361   1.221   1.360  0.1742 -0.2321 -0.4496
 1498SOL    HW115956   3.388   1.156   1.424 -1.2222  0.5043  0.8995
 1498SOL    HW215957   3.319   1.165   1.295  0.4148 -1.9426  0.8842
 1499SOL     OW15958   3.660   2.005   8.502  0.0200 -0.5978 -0.0350
 1499SOL    HW115959   3.575   2.045   8.487  0.2067 -0.5336 -0.9367
 1499SOL    HW215960   3.644   1.965   8.588 -1.6428 -1.2064 -0.6427
 1500SOL     OW15961   2.792   1.701  10.048  0.0155 -0.3707 -0.2024
 1500SOL    HW115962   2.731   1.688  10.120  0.0369  2.5917  0.3463
 1500SOL    HW215963   2.872   1.653  10.072  0.2627 -0.2857 -0.8535
 1501SOL     OW15964   4.538   2.079   9.203 -0.2976  0.1881  0.0215
 1501SOL    HW115965   4.568   2.054   9.116  0.0106 -0.9403  0.4619
 1501SOL    HW215966   4.619   2.097   9.251  0.8815 -1.0677 -1.5031
 1502SOL     OW15967   3.967   0.768   3.439 -0.3798 -0.5250  0.1042
 1502SOL    HW115968   3.963   0.726   3.353 -0.4571 -0.1129 -0.0940
 1502SOL    HW215969   3.954   0.860   3.415  0.7066 -0.4855 -0.3479
 1503SOL     OW15970   0.259   1.467   5.396 -0.1938  0.3655  0.5092
 1503SOL    HW115971   0.251   1.392   5.337 -2.0068  1.2219 -0.3405
 1503SOL    HW215972   0.170   1.503   5.400  0.6856  2.8436 -1.7493
 1504SOL     OW15973   3.453   3.604   2.206  0.1098 -0.0736  0.0199
 1504SOL    HW115974   3.533   3.609   2.153  0.6891  1.1661  0.9976
 1504SOL    HW215975   3.379   3.577   2.152  0.9451 -0.9898 -0.6598
 1505SOL     OW15976   3.032   3.211   4.429 -0.4942  0.1506  0.1106
 1505SOL    HW115977   3.041   3.188   4.521  1.0834 -0.2194 -0.1419
 1505SOL    HW215978   2.984   3.136   4.393 -0.6546  0.8967 -1.2325
 1506SOL     OW15979   2.878   2.688  11.002 -0.5279 -0.5134 -0.2917
 1506SOL    HW115980   2.809   2.622  10.994 -1.4960  0.5206 -0.5190
 1506SOL    HW215981   2.868   2.739  10.922  1.0234  0.5808  0.2079
 1507SOL     OW15982   0.696   4.237   3.590  0.2777 -0.2706 -0.1025
 1507SOL    HW115983   0.638   4.246   3.666  1.5009 -0.7088  0.8947
 1507SOL    HW215984   0.769   4.295   3.611 -1.3541  1.8856 -0.4907
 1508SOL     OW15985   0.734   2.869   6.269  0.1747  0.2298  0.6028
 1508SOL    HW115986   0.771   2.934   6.328 -0.4057  0.2261  0.9760
 1508SOL    HW215987   0.670   2.922   6.222 -2.4106 -1.3791  2.3037
 1509SOL     OW15988   3.855   3.585  11.965  0.7863 -0.0587 -0.5097
 1509SOL    HW115989   3.843   3.529  12.041 -0.1909  0.4825 -0.2614
 1509SOL    HW215990   3.774   3.571  11.915  0.1666  1.3649  0.0740
 1510SOL     OW15991   0.846   4.134   3.862 -0.4627  0.4129  0.1988
 1510SOL    HW115992   0.842   4.209   3.804 -2.3194 -0.1780 -0.4373
 1510SOL    HW215993   0.768   4.084   3.841  0.3503 -0.0383 -1.6992
 1511SOL     OW15994   2.959   2.834   3.993 -0.4266 -0.1982  0.7185
 1511SOL    HW115995   2.957   2.924   4.027 -2.0939 -0.1751  0.5683
 1511SOL    HW215996   2.875   2.816   4.035 -0.5168 -1.0177  0.1776
 1512SOL     OW15997   4.091   1.522  13.664 -0.1340  0.5233  0.2492
 1512SOL    HW115998   4.028   1.594  13.668 -0.6573 -0.0667  2.9260
 1512SOL    HW215999   4.156   1.567  13.719  0.4928  0.5748 -0.5357
 1513SOL     OW16000   2.788   3.124   5.852  0.2746 -0.2477 -0.8671
 1513SOL    HW116001   2.871   3.171   5.864  0.5373 -0.8822 -0.2016
 1513SOL    HW216002   2.805   3.043   5.805  1.9278 -0.2650 -0.2569
 1514SOL     OW16003   3.087   0.867   7.108 -0.2593  0.1107  0.2690
 1514SOL    HW116004   3.079   0.922   7.030  0.8083 -1.5761 -1.0231
 1514SOL    HW216005   3.172   0.892   7.144 -0.2548  2.0398 -1.0564
 1515SOL     OW16006   3.188   4.403   4.679 -0.1258 -0.5216  0.0495
 1515SOL    HW116007   3.169   4.438   4.592  0.8558  1.5445  0.6574
 1515SOL    HW216008   3.278   4.382   4.657 -0.3603 -0.7865 -0.6431
 1516SOL     OW16009   3.129   1.123   3.829  0.0978 -0.5505 -0.1673
 1516SOL    HW116010   3.102   1.202   3.877  0.2734  0.5587 -1.9108
 1516SOL    HW216011   3.127   1.060   3.901 -1.6701 -0.3783 -0.0834
 1517SOL     OW16012   4.636   3.844   5.917 -0.0610  0.2284  0.6443
 1517SOL    HW116013   4.658   3.844   6.010 -3.7961 -0.0901  1.5495
 1517SOL    HW216014   4.666   3.932   5.895  2.9724 -0.7034  1.0222
 1518SOL     OW16015   2.325   1.267   9.576 -0.0233 -0.4664 -0.6392
 1518SOL    HW116016   2.311   1.351   9.618 -0.9487  0.7236 -3.3089
 1518SOL    HW216017   2.414   1.261   9.541 -0.5856  0.6837 -2.2544
 1519SOL     OW16018   2.189   0.977   3.421  0.0852  0.1213  0.4890
 1519SOL    HW116019   2.157   0.889   3.442  1.8009 -0.5154  0.4198
 1519SOL    HW216020   2.246   0.962   3.346 -1.1916 -0.9010 -0.2705
 1520SOL     OW16021   1.151   0.848  15.707 -0.4871 -1.0073  0.5615
 1520SOL    HW116022   1.112   0.858  15.794 -0.1369  1.1152  0.4905
 1520SOL    HW216023   1.231   0.897  15.724 -0.2734 -1.6267  1.3204
 1521SOL     OW16024   2.829   1.446   6.508  0.1057  0.0487 -0.4570
 1521SOL    HW116025   2.883   1.517   6.474  0.1905  0.3346  0.2692
 1521SOL    HW216026   2.748   1.495   6.523 -0.2533 -1.2604  1.8866
 1522SOL     OW16027   3.604   3.518   4.204 -0.5044 -0.6082 -0.4114
 1522SOL    HW116028   3.517   3.485   4.183 -0.5303 -1.5606  1.2279
 1522SOL    HW216029   3.648   3.513   4.119 -1.3005  0.1114 -0.8618
 1523SOL     OW16030   3.574   0.913   0.162 -0.0933 -0.4690  0.1289
 1523SOL    HW116031   3.595   0.824   0.135 -2.3858 -0.3045 -2.2335
 1523SOL    HW216032   3.478   0.911   0.164 -0.1311  0.0256 -1.7691
 1524SOL     OW16033   0.517   1.964   3.211  0.0134  0.1470 -0.3561
 1524SOL    HW116034   0.605   1.944   3.180 -0.4578 -1.9444 -0.3453
 1524SOL    HW216035   0.481   1.876   3.222 -0.9070  0.3592 -1.6821
 1525SOL     OW16036   0.432   1.205  13.395  0.2230 -0.4994  0.1115
 1525SOL    HW116037   0.507   1.190  13.453  0.3744  0.3221  0.1253
 1525SOL    HW216038   0.477   1.223  13.312 -0.3325  0.9286  0.1281
 1526SOL     OW16039   2.680   0.856  12.983 -0.1857 -0.0238 -0.1964
 1526SOL    HW116040   2.770   0.887  12.982 -0.3739  0.5110 -0.7771
 1526SOL    HW216041   2.671   0.807  13.064  1.5836  2.8665  1.7482
 1527SOL     OW16042   2.944   4.419  15.242  0.5261 -0.0111 -0.0117
 1527SOL    HW116043   3.023   4.444  15.193 -0.9958  1.7014 -1.5883
 1527SOL    HW216044   2.884   4.482  15.204  0.8838 -0.1431 -0.7892
 1528SOL     OW16045   0.472   0.826   3.983  0.1001 -0.4211  0.4163
 1528SOL    HW116046   0.533   0.766   3.940  1.0133  0.0513  1.0311
 1528SOL    HW216047   0.535   0.895   4.006  0.4948 -0.9376  0.9073
 1529SOL     OW16048   0.369   0.370   2.395  0.0432  0.0711  0.5685
 1529SOL    HW116049   0.369   0.391   2.301  2.4373 -1.2756  0.2672
 1529SOL    HW216050   0.353   0.276   2.396  0.6071 -0.0123  1.4066
 1530SOL     OW16051   2.626   4.582  14.252 -0.5301 -0.1375 -0.2136
 1530SOL    HW116052   2.553   4.621  14.300 -0.3671 -0.8718  0.6361
 1530SOL    HW216053   2.683   4.563  14.327  1.6959  0.5293 -1.7311
 1531SOL     OW16054   3.068   2.514  11.203  0.0477 -0.0550 -0.0942
 1531SOL    HW116055   2.980   2.517  11.242 -0.6938  1.5211 -1.9291
 1531SOL    HW216056   3.056   2.437  11.147 -2.2509  2.1208 -2.5355
 1532SOL     OW16057   3.588   2.461   7.560 -0.6723  0.1960 -0.5992
 1532SOL    HW116058   3.615   2.406   7.487 -1.3353 -2.2508  0.9913
 1532SOL    HW216059   3.674   2.489   7.590 -0.9303 -1.1961  1.5214
 1533SOL     OW16060   0.069   0.461  17.115  0.2259 -0.1706  0.4382
 1533SOL    HW116061   0.099   0.391  17.056 -1.2985  0.0984 -0.6750
 1533SOL    HW216062   4.703   0.430  17.126 -0.0193  0.4016  0.0106
 1534SOL     OW16063   1.034   2.396   8.990  0.1051 -0.4625  0.2298
 1534SOL    HW116064   0.959   2.358   9.037  1.2219 -2.8526  0.0391
 1534SOL    HW216065   1.077   2.452   9.055 -0.0435  0.3509 -0.3744
 1535SOL     OW16066   0.793   4.066   6.152  0.0678 -0.4359  0.2374
 1535SOL    HW116067   0.821   3.992   6.099 -2.5793 -1.0881 -0.2480
 1535SOL    HW216068   0.873   4.119   6.156  1.5151 -2.5771 -0.2552
 1536SOL     OW16069   2.598   0.224   3.193 -0.7020 -0.3443 -0.1781
 1536SOL    HW116070   2.657   0.159   3.154  0.3901  0.5210  0.0265
 1536SOL    HW216071   2.652   0.248   3.268  0.1024 -1.8879 -0.2621
 1537SOL     OW16072   2.187   3.670   5.295  0.4499  0.0340 -0.0536
 1537SOL    HW116073   2.247   3.611   5.341  1.9892  0.5788 -1.3510
 1537SOL    HW216074   2.171   3.620   5.215  0.5885 -1.0852  0.6238
 1538SOL     OW16075   1.723   1.571  12.289  0.0978  0.0288 -0.4135
 1538SOL    HW116076   1.762   1.484  12.299  0.9421 -0.3203 -6.9549
 1538SOL    HW216077   1.803   1.619  12.267  0.9100 -1.4719 -0.7361
 1539SOL     OW16078   2.439   0.067   7.468 -0.2645  0.0125 -0.0351
 1539SOL    HW116079   2.427   0.112   7.384  1.3285 -2.3435 -1.5285
 1539SOL    HW216080   2.499   4.718   7.454  0.8652  0.8325  0.5259
 1540SOL     OW16081   1.745   4.157  10.210  0.4991 -0.0978  0.0460
 1540SOL    HW116082   1.771   4.102  10.284  1.0108 -1.0843 -0.8740
 1540SOL    HW216083   1.752   4.101  10.134 -0.0976 -2.9769  2.1235
 1541SOL     OW16084   3.424   0.899  12.251  0.6422  0.7658  0.5808
 1541SOL    HW116085   3.340   0.883  12.208  0.5449  1.6330  0.4482
 1541SOL    HW216086   3.446   0.830  12.313  1.0797  0.6387  0.2905
 1542SOL     OW16087   1.032   2.451   1.610  0.7385  0.0626  0.0694
 1542SOL    HW116088   1.008   2.398   1.685  1.1832 -0.2885 -0.0394
 1542SOL    HW216089   1.101   2.391   1.581  0.8075  0.1220  0.1120
 1543SOL     OW16090   4.358   1.861   8.719  0.0390  0.0324 -0.1827
 1543SOL    HW116091   4.326   1.771   8.709 -1.7172  0.5865  0.5634
 1543SOL    HW216092   4.285   1.919   8.700 -1.0201 -0.9415  0.8808
 1544SOL     OW16093   2.156   1.669   1.822 -0.3189  0.1410  0.2829
 1544SOL    HW116094   2.090   1.620   1.774 -1.8712  3.9649 -1.5399
 1544SOL    HW216095   2.213   1.685   1.747  0.1884  0.9093  0.8276
 1545SOL     OW16096   4.486   3.238   2.649  0.2988  0.1775 -0.5861
 1545SOL    HW116097   4.545   3.166   2.626  2.2907  1.9019 -0.8145
 1545SOL    HW216098   4.546   3.312   2.660  1.0943 -0.2941 -1.7617
 1546SOL     OW16099   3.947   1.905   9.228  0.4938  0.0101 -0.5524
 1546SOL    HW116100   4.034   1.879   9.198 -0.3735 -2.0460 -1.2335
 1546SOL    HW216101   3.909   1.954   9.155  0.0704 -0.0987 -0.4051
 1547SOL     OW16102   1.021   1.663  10.844  0.2020  0.0237  0.4253
 1547SOL    HW116103   0.968   1.642  10.767 -1.4979  0.3939  1.4849
 1547SOL    HW216104   1.103   1.698  10.807  1.7023  1.3242  4.9377
 1548SOL     OW16105   4.174   3.754   5.252  0.1603 -0.2103  0.2643
 1548SOL    HW116106   4.120   3.811   5.198 -0.0425 -1.3756 -0.7496
 1548SOL    HW216107   4.106   3.705   5.298 -0.2093 -0.6879 -0.7909
 1549SOL     OW16108   3.003   0.036   6.586  0.0949  0.6535 -0.2509
 1549SOL    HW116109   3.034   0.041   6.496 -1.9592  0.4584 -0.9579
 1549SOL    HW216110   3.037   0.119   6.619  0.1071  0.6755 -0.3209
 1550SOL     OW16111   1.255   4.473   3.921  0.1139 -0.1390  0.0676
 1550SOL    HW116112   1.321   4.404   3.912  0.2190 -0.0777  0.3832
 1550SOL    HW216113   1.170   4.431   3.940 -0.5310 -0.5572 -3.7260
 1551SOL     OW16114   4.063   4.119  16.691  0.0928 -0.0649 -0.7848
 1551SOL    HW116115   4.124   4.174  16.740 -0.1279 -0.1850 -0.3703
 1551SOL    HW216116   3.994   4.114  16.758  2.3611  0.6057  1.6161
 1552SOL     OW16117   1.146   2.427   3.754 -0.8052  0.6311  0.1733
 1552SOL    HW116118   1.126   2.506   3.804  1.9639  1.9007 -0.6996
 1552SOL    HW216119   1.129   2.354   3.814  2.2400  0.2603  0.5957
 1553SOL     OW16120   3.198   0.996   6.029 -0.4679 -0.1122  0.4650
 1553SOL    HW116121   3.139   0.981   5.956  0.9606 -1.1823 -0.4746
 1553SOL    HW216122   3.210   0.910   6.071 -0.7517 -0.4791 -0.2077
 1554SOL     OW16123   3.343   0.230   2.476 -0.3739  0.5481 -0.0048
 1554SOL    HW116124   3.393   0.235   2.557 -1.8379  0.6535  0.8819
 1554SOL    HW216125   3.255   0.217   2.511 -1.5126  1.8656 -2.2926
 1555SOL     OW16126   0.034   4.549   5.072 -0.3318  0.5523 -0.1522
 1555SOL    HW116127   4.693   4.606   5.032 -1.1160 -0.8562 -0.9156
 1555SOL    HW216128   0.119   4.592   5.061 -0.3965  0.2671 -1.8504
 1556SOL     OW16129   2.143   2.052   5.059  0.2145  0.3147  0.1132
 1556SOL    HW116130   2.145   2.066   4.965 -2.2501 -0.5894 -0.0641
 1556SOL    HW216131   2.236   2.068   5.078  0.0891  2.0534 -0.7868
 1557SOL     OW16132   1.863   2.331   1.251  0.2347 -1.0269  0.1916
 1557SOL    HW116133   1.847   2.419   1.285  0.0197 -0.6411 -0.8972
 1557SOL    HW216134   1.775   2.297   1.239  0.5393 -2.2429  1.4197
 1558SOL     OW16135   4.458   1.402  10.029  0.5431  0.2986  0.2549
 1558SOL    HW116136   4.375   1.355  10.037  1.3205 -1.4694 -1.9189
 1558SOL    HW216137   4.431   1.476   9.974 -1.3166 -0.8533 -0.3721
 1559SOL     OW16138   1.882   3.744   3.311 -0.2408 -0.6309  0.0203
 1559SOL    HW116139   1.803   3.797   3.322 -0.3698 -0.5944 -1.0844
 1559SOL    HW216140   1.898   3.738   3.217  0.4798 -0.1496  0.1077
 1560SOL     OW16141   1.273   3.329  13.740 -0.3037 -0.0775  0.4504
 1560SOL    HW116142   1.301   3.261  13.802  0.3882  0.1093  0.3421
 1560SOL    HW216143   1.185   3.336  13.776 -1.4857  1.2407 -2.7181
 1561SOL     OW16144   3.785   1.800   8.169 -0.1208  0.4791 -0.3988
 1561SOL    HW116145   3.788   1.711   8.134  0.1903  0.0871  0.6270
 1561SOL    HW216146   3.735   1.842   8.099 -0.4942 -0.7562 -0.8709
 1562SOL     OW16147   1.705   0.952   7.497  0.2517 -0.2824 -0.3644
 1562SOL    HW116148   1.616   0.981   7.512 -0.1514 -1.4049 -0.5753
 1562SOL    HW216149   1.713   1.006   7.419  1.0052  0.4382  0.2128
 1563SOL     OW16150   0.163   2.272  17.320 -0.0245 -0.4010  0.3712
 1563SOL    HW116151   0.087   2.302  17.271 -0.3215 -1.2864  0.2912
 1563SOL    HW216152   0.197   2.362  17.319  0.8596 -0.7418 -0.5706
 1564SOL     OW16153   2.836   0.790  16.221 -0.3076 -0.0759 -0.2708
 1564SOL    HW116154   2.877   0.877  16.223 -0.7320  0.1338 -0.6207
 1564SOL    HW216155   2.764   0.801  16.159 -0.6887 -1.4724 -0.0644
 1565SOL     OW16156   3.665   1.295  13.473 -0.1327  0.2891 -0.2600
 1565SOL    HW116157   3.597   1.310  13.539  0.2831  0.2237  0.1841
 1565SOL    HW216158   3.734   1.349  13.512 -1.2665  2.9736 -1.9910
 1566SOL     OW16159   3.641   3.618   3.428  0.2291  0.8805 -0.2407
 1566SOL    HW116160   3.601   3.659   3.504 -0.2348  0.8728 -0.4786
 1566SOL    HW216161   3.655   3.692   3.369  2.6849  0.2863 -0.4105
 1567SOL     OW16162   1.077   4.107   9.071  0.2696  0.2429  0.0181
 1567SOL    HW116163   1.005   4.138   9.127  0.4771 -1.5101  1.2548
 1567SOL    HW216164   1.032   4.071   8.995  1.1521  1.3149 -1.0082
 1568SOL     OW16165   0.332   0.162   3.366 -0.0433 -0.9385 -0.0122
 1568SOL    HW116166   0.377   0.182   3.285  0.7228 -0.6157  0.4936
 1568SOL    HW216167   0.402   0.185   3.427 -0.7216  1.0600 -0.0171
 1569SOL     OW16168   4.168   0.443  10.364  0.5090 -0.1749  0.4112
 1569SOL    HW116169   4.106   0.437  10.437  1.5483  1.5504  1.4330
 1569SOL    HW216170   4.244   0.392  10.390  1.9873  0.8353 -1.9871
 1570SOL     OW16171   2.155   4.587   4.587  0.3198  0.1198  0.0050
 1570SOL    HW116172   2.064   4.610   4.567  0.0756  0.9244  2.0107
 1570SOL    HW216173   2.194   4.672   4.570 -0.1841  0.8766  2.7271
 1571SOL     OW16174   1.570   0.320   2.992  0.5004  0.5824  0.6636
 1571SOL    HW116175   1.588   0.261   3.065 -2.3167 -0.3782  0.5781
 1571SOL    HW216176   1.475   0.309   2.989  0.8357 -1.3174 -2.7482
 1572SOL     OW16177   0.249   3.551   8.659  0.1132 -0.3044 -0.3196
 1572SOL    HW116178   0.213   3.595   8.736  1.0194  0.8702 -0.5719
 1572SOL    HW216179   0.303   3.479   8.690 -1.8914 -1.5766  0.2438
 1573SOL     OW16180   0.617   3.909   5.844 -0.0873 -0.5780  0.5070
 1573SOL    HW116181   0.682   3.977   5.854  0.0564 -0.3648 -1.9898
 1573SOL    HW216182   0.629   3.854   5.922  1.5728  0.3633  0.9100
 1574SOL     OW16183   3.285   0.046  11.657 -0.7148  0.0945  0.3009
 1574SOL    HW116184   3.203   0.011  11.622 -1.4058  1.1478  0.8420
 1574SOL    HW216185   3.255   0.083  11.740  2.4087  1.9201  0.6223
 1575SOL     OW16186   3.670   2.985   5.107 -0.1341  0.1318 -0.2626
 1575SOL    HW116187   3.669   3.035   5.188 -0.9144 -0.4979  0.1229
 1575SOL    HW216188   3.726   2.912   5.135  1.1511  0.5382 -1.7921
 1576SOL     OW16189   4.060   3.452  13.845  0.1908 -0.3711  0.4749
 1576SOL    HW116190   4.083   3.379  13.788 -0.9053  1.6576 -2.5914
 1576SOL    HW216191   4.147   3.488  13.861  1.0191 -1.7195 -1.0777
 1577SOL     OW16192   3.786   3.711   5.366  0.3730  0.6366  0.1427
 1577SOL    HW116193   3.796   3.703   5.461 -0.4568 -0.8749  0.0944
 1577SOL    HW216194   3.795   3.807   5.363 -1.0220  0.7951  0.8286
 1578SOL     OW16195   2.879   4.158  13.778  0.1124  0.2058 -0.5397
 1578SOL    HW116196   2.785   4.152  13.764 -0.0798  1.6521  0.1391
 1578SOL    HW216197   2.902   4.216  13.705  0.9327  0.8992  0.2735
 1579SOL     OW16198   1.588   3.594   0.718  0.0591  0.9217  0.3664
 1579SOL    HW116199   1.523   3.582   0.786  0.3434 -0.5728  0.3622
 1579SOL    HW216200   1.618   3.685   0.724  2.2660  0.0853  2.0229
 1580SOL     OW16201   3.783   0.054   3.210 -0.2671  0.5685 -0.1434
 1580SOL    HW116202   3.787   4.721   3.134  0.6190 -0.5187  0.7126
 1580SOL    HW216203   3.714   0.007   3.256  0.5762 -1.1138 -0.5912
 1581SOL     OW16204   0.939   0.107  17.177  0.5638 -0.2904  0.4494
 1581SOL    HW116205   0.861   0.153  17.146  1.3622  0.6186 -0.2252
 1581SOL    HW216206   0.969   0.167  17.246 -0.1104  0.8025 -0.2268
 1582SOL     OW16207   0.809   1.588   5.336  0.1004  0.4145  0.3833
 1582SOL    HW116208   0.729   1.638   5.320  0.5978  1.2677  0.5770
 1582SOL    HW216209   0.830   1.578   5.243 -2.2327 -1.4607  0.0419
 1583SOL     OW16210   1.471   0.121   4.117 -0.5409 -0.4460  0.3442
 1583SOL    HW116211   1.499   0.073   4.040  0.0836  3.2274 -1.7100
 1583SOL    HW216212   1.503   0.055   4.179  1.2848  0.4536  0.3587
 1584SOL     OW16213   3.932   0.591   7.925  0.5517  0.0931  0.4508
 1584SOL    HW116214   3.848   0.636   7.920 -1.1266 -2.9428  0.8484
 1584SOL    HW216215   4.002   0.655   7.922 -0.5053  1.2900  1.4088
 1585SOL     OW16216   3.761   2.156   5.448  0.6282 -0.1898 -0.0256
 1585SOL    HW116217   3.798   2.215   5.383 -1.4090  0.6402 -0.4068
 1585SOL    HW216218   3.782   2.191   5.535  2.0778  0.2045 -0.5325
 1586SOL     OW16219   0.263   1.875   7.284 -0.2478  0.4151  0.0106
 1586SOL    HW116220   0.339   1.819   7.302 -1.0835 -0.8087 -0.2526
 1586SOL    HW216221   0.205   1.813   7.240  0.0114  0.5348 -0.5065
 1587SOL     OW16222   1.058   0.694  17.453 -0.1966 -0.3496 -0.2480
 1587SOL    HW116223   1.099   0.608  17.456  0.6580  0.0657  0.0613
 1587SOL    HW216224   1.061   0.711  17.359  1.0665  0.6135 -0.0274
 1588SOL     OW16225   3.091   3.385   9.723 -0.1397  0.1773  0.0390
 1588SOL    HW116226   3.036   3.407   9.798 -1.3684 -1.0534 -0.4920
 1588SOL    HW216227   3.065   3.449   9.657  0.3483  1.4238  1.0609
 1589SOL     OW16228   1.858   3.242   4.740 -0.6675  0.4055 -0.2686
 1589SOL    HW116229   1.815   3.228   4.655 -1.8262 -1.7869  0.6858
 1589SOL    HW216230   1.944   3.210   4.714 -1.2097 -0.2148 -1.3042
 1590SOL     OW16231   3.127   4.689   8.582 -0.1254  0.2154  0.4636
 1590SOL    HW116232   3.051   0.013   8.552  0.3934  0.3836 -0.5925
 1590SOL    HW216233   3.109   4.692   8.675  2.7119 -1.2236  1.0775
 1591SOL     OW16234   3.768   3.402   9.191  0.3412  0.5671 -0.1012
 1591SOL    HW116235   3.747   3.490   9.221 -1.4373 -1.0999  3.5171
 1591SOL    HW216236   3.685   3.358   9.207 -0.6674  2.3850 -0.3850
 1592SOL     OW16237   0.733   1.584   2.979  0.0025  0.1835 -0.4886
 1592SOL    HW116238   0.683   1.512   2.942  0.2083  0.5189 -1.4306
 1592SOL    HW216239   0.697   1.591   3.068 -1.0741 -0.5699 -0.8679
 1593SOL     OW16240   2.566   0.531  12.216  0.1063  0.0407 -0.3830
 1593SOL    HW116241   2.649   0.519  12.263  0.4366  0.1350 -0.9444
 1593SOL    HW216242   2.580   0.608  12.162 -1.2175  1.0561  0.7357
 1594SOL     OW16243   1.097   2.967  13.134 -0.0486 -0.0191  0.1729
 1594SOL    HW116244   1.071   2.900  13.198 -1.6309 -0.1766 -0.6139
 1594SOL    HW216245   1.073   2.929  13.049  0.3648 -3.9098  1.7606
 1595SOL     OW16246   3.389   2.529   8.823  0.0518  0.2335 -0.5120
 1595SOL    HW116247   3.335   2.482   8.887 -2.5028  1.7202 -1.6177
 1595SOL    HW216248   3.392   2.456   8.761 -1.1510 -1.0804  0.9445
 1596SOL     OW16249   3.940   0.166   7.647  0.0829  0.2384 -0.4817
 1596SOL    HW116250   3.916   0.218   7.724  0.7535  0.3528 -0.3557
 1596SOL    HW216251   4.034   0.179   7.650 -0.0964  1.4639 -0.4148
 1597SOL     OW16252   4.093   3.082   6.279  0.3016  0.2589  0.1192
 1597SOL    HW116253   4.121   3.016   6.342  0.7155  1.2435  0.9720
 1597SOL    HW216254   4.156   3.151   6.300  0.1909  0.8740 -1.6096
 1598SOL     OW16255   3.292   4.440   3.062  0.0000 -0.2098 -0.2317
 1598SOL    HW116256   3.225   4.508   3.049 -3.3991 -2.8786  3.0789
 1598SOL    HW216257   3.267   4.372   2.999 -1.6855 -0.2954  0.5039
 1599SOL     OW16258   0.829   0.983   8.628  0.2633  0.4553  0.1707
 1599SOL    HW116259   0.864   0.895   8.638  3.8631  1.8225 -0.1367
 1599SOL    HW216260   0.774   0.978   8.550  0.8238 -0.3687 -0.1780
 1600SOL     OW16261   3.297   1.901   4.230  0.1609 -0.1750 -0.5128
 1600SOL    HW116262   3.301   1.807   4.247  2.1204 -0.4315 -2.4029
 1600SOL    HW216263   3.273   1.930   4.318  0.2329 -0.5206 -0.3789
 1601SOL     OW16264   3.633   2.287   6.069  0.0438  0.0736 -0.4787
 1601SOL    HW116265   3.706   2.349   6.063 -0.8873  1.2509  0.3991
 1601SOL    HW216266   3.655   2.239   6.149  1.0119  0.9464 -0.2274
 1602SOL     OW16267   0.196   2.955   6.106 -0.4772 -0.3388 -0.4869
 1602SOL    HW116268   0.121   2.984   6.055 -1.5370 -0.1153  1.2107
 1602SOL    HW216269   0.270   2.981   6.050  0.1015 -0.0872  0.3862
 1603SOL     OW16270   1.746   2.845  15.893 -0.1555 -0.4219 -0.0765
 1603SOL    HW116271   1.681   2.778  15.872 -0.0292  0.1293 -2.1692
 1603SOL    HW216272   1.776   2.815  15.979  0.9345  0.4207 -0.1690
 1604SOL     OW16273   2.242   4.588   7.272  0.1113  0.0495 -0.3103
 1604SOL    HW116274   2.334   4.588   7.297  0.2909 -0.6869 -0.9905
 1604SOL    HW216275   2.199   4.563   7.354  2.6055 -0.3545  0.8655
 1605SOL     OW16276   2.603   4.262   8.157 -0.0030 -0.2617 -0.2178
 1605SOL    HW116277   2.674   4.208   8.121 -2.4013 -2.1025 -2.2379
 1605SOL    HW216278   2.586   4.217   8.240 -2.3663  0.8408 -0.1147
 1606SOL     OW16279   2.434   0.978   3.850 -0.8548 -0.2772 -0.4427
 1606SOL    HW116280   2.391   1.057   3.883 -0.9410  0.5040 -2.4645
 1606SOL    HW216281   2.474   0.948   3.932 -1.4753 -0.8330 -0.3344
 1607SOL     OW16282   0.317   2.244   5.325 -0.1392  0.2857 -0.0941
 1607SOL    HW116283   0.339   2.325   5.371  1.1684 -0.7526  1.1452
 1607SOL    HW216284   0.348   2.176   5.386 -0.9729 -0.5506 -0.6071
 1608SOL     OW16285   3.936   4.172  15.362 -0.7239 -0.1960  0.2930
 1608SOL    HW116286   3.919   4.087  15.403  2.5057 -1.4623 -0.9633
 1608SOL    HW216287   3.966   4.137  15.278 -2.2635  0.6505 -0.5885
 1609SOL     OW16288   2.570   3.692   4.927 -0.2980 -0.1766  0.2580
 1609SOL    HW116289   2.535   3.621   4.874 -0.4265  0.8427 -0.9958
 1609SOL    HW216290   2.491   3.746   4.930 -1.0299 -1.3853  3.0308
 1610SOL     OW16291   3.604   1.514   3.461  0.1414 -0.6918  0.5483
 1610SOL    HW116292   3.557   1.510   3.545 -0.3287  0.9487  0.3777
 1610SOL    HW216293   3.686   1.562   3.474 -0.2702 -0.1619  1.2033
 1611SOL     OW16294   0.886   2.126   3.361  0.2758 -0.3333 -0.8598
 1611SOL    HW116295   0.888   2.215   3.396  1.0060 -0.1646 -1.3354
 1611SOL    HW216296   0.979   2.112   3.346  0.2022  2.4208 -3.9201
 1612SOL     OW16297   1.427   1.487   5.234 -0.1067 -0.0669 -0.0993
 1612SOL    HW116298   1.360   1.547   5.266  1.1287  1.4631 -0.3963
 1612SOL    HW216299   1.432   1.436   5.315  0.0413  2.3440  1.4003
 1613SOL     OW16300   2.230   0.161   3.106 -0.4687 -0.0884  0.0542
 1613SOL    HW116301   2.224   0.122   3.019 -2.1143 -0.1893  0.2086
 1613SOL    HW216302   2.325   0.171   3.103 -0.4151 -0.8884 -0.7987
 1614SOL     OW16303   2.604   4.056  16.647 -0.4623  0.0544 -0.0399
 1614SOL    HW116304   2.601   4.151  16.657 -0.0763  0.2913 -2.2692
 1614SOL    HW216305   2.523   4.042  16.600  0.7786  0.6546 -2.3472
 1615SOL     OW16306   1.998   2.448  15.130 -0.2332 -0.5736  0.3633
 1615SOL    HW116307   1.918   2.404  15.103  0.2385 -1.2336  0.0527
 1615SOL    HW216308   2.058   2.431  15.057 -0.7878 -1.0906  0.0254
 1616SOL     OW16309   4.341   2.105   4.856  0.1276  0.0496 -0.1753
 1616SOL    HW116310   4.313   2.098   4.765  0.7660 -1.6900 -0.2343
 1616SOL    HW216311   4.402   2.031   4.856 -0.4071 -0.3986 -0.1217
 1617SOL     OW16312   1.940   3.119  12.656 -0.2183  0.5392 -0.0343
 1617SOL    HW116313   1.947   3.052  12.724  2.4060 -0.1641 -1.0060
 1617SOL    HW216314   1.857   3.158  12.683  0.4879  2.0701 -0.0625
 1618SOL     OW16315   3.203   0.172   3.351  0.1711 -0.1774 -0.9888
 1618SOL    HW116316   3.230   0.229   3.279  0.9333 -0.9296 -1.2992
 1618SOL    HW216317   3.205   0.087   3.307 -2.0926  0.1610 -1.7320
 1619SOL     OW16318   4.075   0.698   5.589 -0.0356  0.2281 -0.1359
 1619SOL    HW116319   4.056   0.661   5.675 -0.8416  1.0581  0.0381
 1619SOL    HW216320   4.046   0.788   5.604 -0.5763 -0.1734  1.2702
 1620SOL     OW16321   0.453   1.340  15.261 -0.3850  0.3713  0.0605
 1620SOL    HW116322   0.446   1.247  15.283 -1.5075 -0.0134 -1.8733
 1620SOL    HW216323   0.549   1.339  15.257 -0.4375 -1.1992 -1.0061
 1621SOL     OW16324   2.669   1.614   9.463 -0.3878  0.2345 -0.1564
 1621SOL    HW116325   2.738   1.589   9.524  0.1217  0.2782 -0.7207
 1621SOL    HW216326   2.714   1.682   9.414  2.5200 -1.8593 -0.3381
 1622SOL     OW16327   0.076   1.154  10.865  0.2820 -0.4145 -0.7005
 1622SOL    HW116328   0.107   1.219  10.801 -2.1985  0.9953 -0.4889
 1622SOL    HW216329   0.036   1.204  10.936  1.3869  0.5726 -0.7662
 1623SOL     OW16330   1.673   3.952  13.391 -0.1417  0.5240 -0.5337
 1623SOL    HW116331   1.744   4.010  13.416 -1.4927  2.3795 -1.0170
 1623SOL    HW216332   1.665   3.961  13.296  0.5036  1.7146 -0.4679
 1624SOL     OW16333   3.962   4.524   6.694 -0.0230  0.6589 -0.6246
 1624SOL    HW116334   3.994   4.529   6.784 -1.4165  2.0479 -0.1958
 1624SOL    HW216335   3.938   4.613   6.669 -1.5808  0.8083  1.3954
 1625SOL     OW16336   1.077   0.531   2.079  0.1079 -0.2668  0.3760
 1625SOL    HW116337   1.059   0.526   2.173  0.2835  0.0818  0.4284
 1625SOL    HW216338   1.073   0.625   2.062  1.3046 -0.4098 -0.6568
 1626SOL     OW16339   0.576   0.015   2.259 -0.1416  0.2636  0.2317
 1626SOL    HW116340   0.547   4.700   2.341  1.0002 -1.8275 -0.3494
 1626SOL    HW216341   0.586   0.108   2.279  2.8048  0.3334 -1.4957
 1627SOL     OW16342   2.855   2.547  16.405  0.2963 -0.0913 -0.4316
 1627SOL    HW116343   2.921   2.481  16.424  0.5616  0.0642 -0.8127
 1627SOL    HW216344   2.906   2.624  16.431 -2.4195  1.3016  0.8847
 1628SOL     OW16345   0.963   3.561   1.685  0.0792  0.0507  0.3743
 1628SOL    HW116346   0.906   3.507   1.739  0.3919 -0.4305  0.2324
 1628SOL    HW216347   1.019   3.489   1.653  0.7390  0.8685 -0.3313
 1629SOL     OW16348   2.480   2.494   8.066 -0.0891 -0.1691  0.0778
 1629SOL    HW116349   2.516   2.570   8.112 -3.6570  0.2910  2.0967
 1629SOL    HW216350   2.416   2.531   8.005  2.2221  1.1985 -1.5432
 1630SOL     OW16351   2.069   0.768   2.633 -0.3615 -0.9947  0.2312
 1630SOL    HW116352   2.154   0.805   2.657  0.0835 -1.2610 -0.9457
 1630SOL    HW216353   2.029   0.847   2.596  0.9199 -0.6732 -0.4694
 1631SOL     OW16354   4.523   4.228  13.984 -0.3960 -0.2048  0.9046
 1631SOL    HW116355   4.436   4.249  14.020 -1.0458  0.7178 -1.1790
 1631SOL    HW216356   4.554   4.176  14.058  0.2625 -0.8854  0.1418
 1632SOL     OW16357   1.071   0.549   5.434 -0.3669 -0.0118  0.6713
 1632SOL    HW116358   1.165   0.544   5.415 -0.2411 -0.7143  1.4965
 1632SOL    HW216359   1.062   0.640   5.462  1.1659  0.6655 -1.0282
 1633SOL     OW16360   2.215   3.813   3.590  0.1864 -0.2834 -0.3432
 1633SOL    HW116361   2.144   3.871   3.618  0.1812 -0.5741  0.2396
 1633SOL    HW216362   2.212   3.743   3.654  4.6396 -0.0837  0.0935
 1634SOL     OW16363   4.517   4.115  12.147 -0.5038  0.1507 -0.1151
 1634SOL    HW116364   4.607   4.086  12.164 -0.5641  0.1650  0.2238
 1634SOL    HW216365   4.472   4.032  12.166 -0.2879 -0.0103 -0.3012
 1635SOL     OW16366   3.927   4.106  11.440 -0.2083 -0.2482  0.0702
 1635SOL    HW116367   3.935   4.086  11.347  2.4459  2.1676 -0.2114
 1635SOL    HW216368   3.834   4.088  11.454 -0.3884  0.2027 -0.5412
 1636SOL     OW16369   0.724   3.795   3.383 -0.7073  0.9362  0.3256
 1636SOL    HW116370   0.641   3.843   3.382 -2.0668 -1.3825  0.5316
 1636SOL    HW216371   0.773   3.838   3.453  0.2854 -0.2645  0.3849
 1637SOL     OW16372   4.259   2.719   3.192 -0.1487  0.6108 -0.0956
 1637SOL    HW116373   4.219   2.632   3.196  0.9855  0.2050  2.1340
 1637SOL    HW216374   4.239   2.735   3.099  1.7888 -0.8848 -0.7754
 1638SOL     OW16375   2.863   3.557   6.364 -0.3269  0.6799  0.4695
 1638SOL    HW116376   2.958   3.549   6.371 -0.3649  0.5408  0.8028
 1638SOL    HW216377   2.846   3.502   6.287  0.9097  0.2290  0.5268
 1639SOL     OW16378   3.072   2.936   6.258 -0.4170  0.0282 -0.0969
 1639SOL    HW116379   3.154   2.935   6.209  0.7409 -2.5894  1.9581
 1639SOL    HW216380   3.099   2.982   6.337 -2.3590 -1.5433  1.4731
 1640SOL     OW16381   0.978   4.522  13.619  0.3454  0.4186  0.0656
 1640SOL    HW116382   0.984   4.449  13.680  2.2323  0.3609 -0.1918
 1640SOL    HW216383   0.899   4.505  13.567  1.2376  1.7915 -1.7488
 1641SOL     OW16384   1.646   3.055   3.553  0.5537  0.1279  0.0768
 1641SOL    HW116385   1.577   3.122   3.557  0.1852 -0.1481 -1.7277
 1641SOL    HW216386   1.663   3.034   3.461 -1.1510 -1.2326  0.0788
 1642SOL     OW16387   1.707   0.194   2.646  0.1147 -0.3207  0.4393
 1642SOL    HW116388   1.797   0.193   2.612 -0.0507 -2.5429  0.0904
 1642SOL    HW216389   1.679   0.103   2.651 -1.4752  0.0849 -1.0503
 1643SOL     OW16390   2.471   0.609  11.861 -0.3422  0.1173  0.0704
 1643SOL    HW116391   2.556   0.636  11.896 -0.4443  1.5716 -0.7771
 1643SOL    HW216392   2.427   0.694  11.867 -2.3161 -0.6653 -3.3362
 1644SOL     OW16393   3.549   0.340   8.534 -0.3949  0.0107 -0.4008
 1644SOL    HW116394   3.620   0.284   8.567 -0.2143 -0.3043 -1.3304
 1644SOL    HW216395   3.522   0.298   8.452 -0.1956  1.1475 -1.0484
 1645SOL     OW16396   0.502   1.023   8.172 -0.1723  0.2989  0.6717
 1645SOL    HW116397   0.497   1.048   8.079  0.6686 -0.0122  0.5421
 1645SOL    HW216398   0.515   1.110   8.210 -1.9298  0.7966  0.1692
 1646SOL     OW16399   3.938   0.923   3.703  0.1132 -0.0465  0.7338
 1646SOL    HW116400   3.946   0.864   3.628 -0.9494  0.5058  0.1930
 1646SOL    HW216401   4.024   0.919   3.746  1.2676  3.4057 -1.2128
 1647SOL     OW16402   2.151   1.965   3.084 -0.1125  0.4094 -0.2228
 1647SOL    HW116403   2.121   2.054   3.062  2.8600  1.2553 -0.8803
 1647SOL    HW216404   2.074   1.922   3.048  0.9065 -1.8636  0.3182
 1648SOL     OW16405   4.426   1.221  13.915 -0.2377 -0.8227  0.3117
 1648SOL    HW116406   4.442   1.131  13.887 -1.3516 -0.7992 -0.4102
 1648SOL    HW216407   4.341   1.213  13.958  0.0620 -1.4585  0.7922
 1649SOL     OW16408   1.466   0.380  15.262 -0.4699 -0.3354  0.2958
 1649SOL    HW116409   1.465   0.427  15.178  3.8452 -0.3044  0.2788
 1649SOL    HW216410   1.555   0.397  15.293 -1.9362  1.6283  3.4408
 1650SOL     OW16411   1.079   1.283   8.809  0.2410  0.0237 -0.7346
 1650SOL    HW116412   0.985   1.279   8.826  0.1419  1.0662 -1.0318
 1650SOL    HW216413   1.070   1.363   8.758  0.0200 -1.0908 -2.4682
 1651SOL     OW16414   3.198   1.774   4.954  0.4929  0.0448 -0.5994
 1651SOL    HW116415   3.119   1.816   4.918  0.6502  0.2445 -0.7086
 1651SOL    HW216416   3.178   1.681   4.962 -2.4816  0.6094 -1.5143
 1652SOL     OW16417   0.890   0.385   1.561  0.3136  0.3295  0.3593
 1652SOL    HW116418   0.798   0.363   1.572  0.3677 -0.5686 -0.9313
 1652SOL    HW216419   0.888   0.458   1.499 -0.1602 -0.9258 -1.1226
 1653SOL     OW16420   2.970   1.670   8.347  0.1820 -0.3728 -0.7704
 1653SOL    HW116421   2.883   1.657   8.384  0.7923  1.2320  1.2141
 1653SOL    HW216422   2.953   1.641   8.257  0.9414  0.3133 -1.1377
 1654SOL     OW16423   1.446   3.728   9.150  0.1511  0.1861  0.2401
 1654SOL    HW116424   1.431   3.657   9.212 -2.5427 -1.1501 -1.9182
 1654SOL    HW216425   1.399   3.802   9.188  0.9486  2.5016 -3.3088
 1655SOL     OW16426   0.937   0.344   4.254  0.1209 -0.0059 -0.0659
 1655SOL    HW116427   0.889   0.307   4.328  1.8404 -0.4932  0.8128
 1655SOL    HW216428   0.913   0.436   4.251  0.2359  0.0028 -0.7625
 1656SOL     OW16429   2.536   1.866   2.409  0.3219 -0.5948 -0.0575
 1656SOL    HW116430   2.574   1.841   2.493 -1.0073 -0.5678  0.5577
 1656SOL    HW216431   2.584   1.948   2.402 -0.8329 -0.1536 -2.7194
 1657SOL     OW16432   0.862   0.355   8.512  0.9796  0.0716 -1.0269
 1657SOL    HW116433   0.879   0.449   8.516  0.5155  0.1238 -0.2589
 1657SOL    HW216434   0.912   0.323   8.587 -1.8960  0.5434  1.1150
 1658SOL     OW16435   4.335   1.259   3.064 -0.1756 -0.3707  0.3689
 1658SOL    HW116436   4.251   1.304   3.056 -0.6502 -1.2006  0.8334
 1658SOL    HW216437   4.382   1.285   2.984  1.7528  0.8398  1.8814
 1659SOL     OW16438   3.550   4.653  17.330  0.1761 -0.3366  0.2660
 1659SOL    HW116439   3.481   4.711  17.299  1.4755  0.9062 -0.3291
 1659SOL    HW216440   3.619   4.673  17.266  0.3376  1.5725  1.0424
 1660SOL     OW16441   3.995   1.308   7.196 -0.4953 -0.3620  0.3110
 1660SOL    HW116442   3.956   1.291   7.282  1.9452 -0.2286  1.4599
 1660SOL    HW216443   3.968   1.399   7.185  2.2708  0.5331  0.7201
 1661SOL     OW16444   1.440   1.739  12.101 -0.0669 -0.0263 -0.7255
 1661SOL    HW116445   1.439   1.818  12.155  0.0144  0.5706 -1.6074
 1661SOL    HW216446   1.517   1.748  12.045  0.0859  0.9749 -0.3594
 1662SOL     OW16447   0.858   4.566   2.370  0.5573 -0.3058 -0.1273
 1662SOL    HW116448   0.924   4.504   2.340  0.7398  0.0039 -0.3650
 1662SOL    HW216449   0.787   4.566   2.306 -0.5622  0.2959  1.1272
 1663SOL     OW16450   1.424   1.221   8.935  0.7971 -0.2698 -0.5954
 1663SOL    HW116451   1.511   1.199   8.968  1.3677  1.8457 -0.6994
 1663SOL    HW216452   1.430   1.197   8.843 -0.1248  2.0309 -1.2466
 1664SOL     OW16453   0.987   3.829   0.014 -0.5416  0.1855 -0.0753
 1664SOL    HW116454   1.047   3.870   0.076  0.4864  0.3582 -1.1782
 1664SOL    HW216455   1.009   3.877  17.634 -1.7811  0.9682  0.0606
 1665SOL     OW16456   2.767   4.530  17.387 -0.9697  0.5791  0.2704
 1665SOL    HW116457   2.716   4.448  17.390  2.8367 -1.7946  0.5878
 1665SOL    HW216458   2.843   4.509  17.441 -0.4465 -0.4961 -0.8721
 1666SOL     OW16459   2.207   1.719   7.910 -0.1117  0.5800  0.0606
 1666SOL    HW116460   2.164   1.790   7.957 -1.6882 -0.2344 -0.1258
 1666SOL    HW216461   2.198   1.642   7.966  1.0150 -0.3323 -1.0242
 1667SOL     OW16462   4.641   2.967   3.863 -0.0634 -0.5086 -0.6032
 1667SOL    HW116463   4.698   2.988   3.789  1.7199 -0.2055  0.8578
 1667SOL    HW216464   4.637   2.872   3.861 -0.9788 -0.4570 -1.0979
 1668SOL     OW16465   4.238   1.400   2.351 -0.0644  0.7607 -0.4813
 1668SOL    HW116466   4.242   1.395   2.256 -0.7336  0.0297 -0.4722
 1668SOL    HW216467   4.205   1.488   2.370 -1.3709  0.0418  0.6433
 1669SOL     OW16468   2.596   1.795   9.870 -0.0002 -0.5082  0.4181
 1669SOL    HW116469   2.672   1.763   9.919  1.4342 -1.7642 -2.6647
 1669SOL    HW216470   2.633   1.862   9.813  1.2382 -1.6504 -0.1216
 1670SOL     OW16471   4.329   1.807  17.266 -0.9219  0.1808  0.3320
 1670SOL    HW116472   4.323   1.815  17.171  2.4776  2.3520  0.2754
 1670SOL    HW216473   4.369   1.892  17.286  0.5915 -0.1947 -1.0641
 1671SOL     OW16474   1.600   2.947   4.651 -0.2181  0.0758 -0.0819
 1671SOL    HW116475   1.680   2.981   4.610  0.1789 -0.2436  0.4304
 1671SOL    HW216476   1.572   3.027   4.696 -1.9884 -1.6307  1.8543
 1672SOL     OW16477   0.503   2.139   8.858 -0.4614 -0.0952 -0.6590
 1672SOL    HW116478   0.579   2.082   8.865 -0.1648  0.1661 -1.8171
 1672SOL    HW216479   0.469   2.121   8.945  2.5922 -0.5146  0.4466
 1673SOL     OW16480   1.372   3.799   8.238 -0.6356 -0.0599  0.4003
 1673SOL    HW116481   1.342   3.866   8.177  1.1421  0.4776  0.1282
 1673SOL    HW216482   1.397   3.858   8.309  0.1601 -0.3435  0.3550
 1674SOL     OW16483   1.547   2.202  15.940 -0.3843  0.3855 -0.0929
 1674SOL    HW116484   1.553   2.285  15.987  1.7197  0.5174 -0.6008
 1674SOL    HW216485   1.589   2.142  16.001 -0.0545  2.1450  1.4140
 1675SOL     OW16486   1.369   2.545   7.039  0.5608  0.4800 -0.6876
 1675SOL    HW116487   1.316   2.512   7.112  4.6777  2.1409  3.0677
 1675SOL    HW216488   1.454   2.504   7.057  0.2392  0.6011  1.1637
 1676SOL     OW16489   0.935   1.925   4.112  0.2210 -0.4075  0.2949
 1676SOL    HW116490   0.872   1.964   4.173 -1.4691 -0.9022 -1.1431
 1676SOL    HW216491   1.010   1.984   4.113 -0.2209  0.1858 -2.3434
 1677SOL     OW16492   2.519   2.135   3.755  0.3724 -0.3207  0.1064
 1677SOL    HW116493   2.611   2.158   3.742 -0.6433  1.6505 -4.0154
 1677SOL    HW216494   2.525   2.047   3.719  0.2818  1.3843 -4.1730
 1678SOL     OW16495   0.759   1.740   7.852  0.1517 -0.4395 -0.0420
 1678SOL    HW116496   0.785   1.814   7.798  2.6143 -2.2699 -1.3328
 1678SOL    HW216497   0.679   1.712   7.808 -0.3793  2.7696 -1.1272
 1679SOL     OW16498   2.020   1.608   8.869 -0.4284 -0.4696  0.7098
 1679SOL    HW116499   2.037   1.560   8.788 -1.5709 -1.6139  1.1510
 1679SOL    HW216500   1.927   1.591   8.888 -0.9689 -0.5884 -2.0673
 1680SOL     OW16501   0.789   2.212   7.424 -0.8066  0.4605 -0.3232
 1680SOL    HW116502   0.745   2.197   7.508 -0.0001  0.1494  0.0544
 1680SOL    HW216503   0.782   2.126   7.382  1.7153  0.2410 -0.3090
 1681SOL     OW16504   2.229   3.240   4.341  0.0016 -0.0704  0.0539
 1681SOL    HW116505   2.304   3.181   4.339 -1.3596 -1.8359  1.2646
 1681SOL    HW216506   2.230   3.263   4.248  1.4030 -2.1513 -0.4252
 1682SOL     OW16507   0.766   1.192  13.767  0.2244 -0.2880 -0.0377
 1682SOL    HW116508   0.710   1.196  13.845 -0.6850 -1.1478 -0.6350
 1682SOL    HW216509   0.809   1.277  13.763  0.9353 -0.6949 -0.9554
 1683SOL     OW16510   0.570   2.814   3.044  0.1069  0.0686 -0.3640
 1683SOL    HW116511   0.581   2.721   3.025 -0.8334 -0.1832  0.3010
 1683SOL    HW216512   0.526   2.848   2.966 -1.0181 -0.4509  0.0407
 1684SOL     OW16513   3.044   4.662  12.324 -0.1672 -0.0827  0.2295
 1684SOL    HW116514   3.013   4.678  12.235 -0.5046 -0.9552  0.1901
 1684SOL    HW216515   3.055   0.030  12.345  2.1583 -0.3453  0.1872
 1685SOL     OW16516   3.327   4.605   7.355  0.1682  0.0327  0.2120
 1685SOL    HW116517   3.370   4.638   7.434 -2.8230 -0.0495  1.8393
 1685SOL    HW216518   3.332   4.679   7.294  0.1778  0.6914  1.0041
 1686SOL     OW16519   0.788   2.202   8.188 -0.2761  0.5187 -0.4353
 1686SOL    HW116520   0.711   2.253   8.212  0.1500 -0.4299  2.8698
 1686SOL    HW216521   0.808   2.255   8.110 -1.1268 -0.7082 -1.4729
 1687SOL     OW16522   1.265   2.148  11.315 -0.4770 -0.7581  0.4482
 1687SOL    HW116523   1.347   2.118  11.356 -1.0777 -0.3191  1.9706
 1687SOL    HW216524   1.280   2.240  11.339 -1.6022 -0.4671  0.0461
 1688SOL     OW16525   3.154   2.902   1.277 -0.7536  0.4678 -0.1783
 1688SOL    HW116526   3.143   2.962   1.351 -0.8139  1.2395 -0.8112
 1688SOL    HW216527   3.100   2.825   1.293 -0.9354  0.5000 -0.6435
 1689SOL     OW16528   4.056   2.623   6.130  0.3484  0.6427 -0.5875
 1689SOL    HW116529   4.147   2.644   6.151 -0.0110  2.3585 -0.7576
 1689SOL    HW216530   4.025   2.700   6.083 -1.9036 -0.1658 -0.4081
 1690SOL     OW16531   0.469   1.712   2.554 -0.2897  0.1083  0.6192
 1690SOL    HW116532   0.563   1.710   2.567 -0.3082 -3.4660  0.2439
 1690SOL    HW216533   0.440   1.696   2.644  1.0514  1.5688  1.2981
 1691SOL     OW16534   2.657   2.523   5.367 -0.6087  0.0815  0.6556
 1691SOL    HW116535   2.672   2.446   5.422  2.7098 -0.1892 -0.6807
 1691SOL    HW216536   2.562   2.536   5.370 -0.6289  0.3892 -1.2573
 1692SOL     OW16537   2.738   2.183   7.143  0.0527 -0.3420 -0.5285
 1692SOL    HW116538   2.729   2.223   7.229  0.7389 -4.0625  1.2835
 1692SOL    HW216539   2.834   2.184   7.135  0.2281  1.3470  2.1528
 1693SOL     OW16540   0.199   3.202   3.331 -0.1539  0.6558 -0.2209
 1693SOL    HW116541   0.243   3.147   3.266  2.5194 -2.2193  4.0537
 1693SOL    HW216542   0.254   3.194   3.408 -1.6362 -0.4209  0.7312
 1694SOL     OW16543   2.404   2.941   6.180  0.1313  0.0611  0.7995
 1694SOL    HW116544   2.499   2.953   6.189  0.0022  3.6757 -2.5403
 1694SOL    HW216545   2.385   3.009   6.116  0.2061 -0.5283  0.1540
 1695SOL     OW16546   1.911   0.518   7.282 -0.2653  0.9294 -0.0490
 1695SOL    HW116547   1.946   0.435   7.316 -1.2208  1.4252  2.1765
 1695SOL    HW216548   1.838   0.482   7.231  1.0996  0.3932 -1.6284
 1696SOL     OW16549   0.567   2.446   7.762  0.0448  0.0525 -0.3196
 1696SOL    HW116550   0.520   2.526   7.736  1.9605  1.3162  0.1129
 1696SOL    HW216551   0.601   2.476   7.846  1.2547  0.6670 -1.0368
 1697SOL     OW16552   2.276   2.224   6.986  0.3454 -0.3977  0.5052
 1697SOL    HW116553   2.273   2.172   6.906 -0.3030 -0.7078  0.7297
 1697SOL    HW216554   2.362   2.208   7.025  1.1941 -0.1368 -1.2994
 1698SOL     OW16555   3.203   0.119  10.510  0.0922 -0.0359 -0.4729
 1698SOL    HW116556   3.280   0.122  10.453 -0.1096  0.8995 -0.7025
 1698SOL    HW216557   3.236   0.092  10.596  0.5044 -1.3418 -1.0359
 1699SOL     OW16558   3.153   4.600   6.782 -0.1782 -0.6026 -0.0051
 1699SOL    HW116559   3.097   4.646   6.720  1.7632  0.0934 -1.2325
 1699SOL    HW216560   3.126   4.650   6.859  0.2413  1.0641 -0.9434
 1700SOL     OW16561   4.640   0.039   2.056  0.4762 -0.3979  0.2303
 1700SOL    HW116562   4.608   0.128   2.067  1.4179 -0.1461  0.9506
 1700SOL    HW216563   0.009   0.058   2.050  0.2107  0.6856 -0.3804
 1701SOL     OW16564   3.451   2.238   6.359 -0.1534  0.1331  0.2745
 1701SOL    HW116565   3.392   2.173   6.397 -1.1744  1.7510  1.4507
 1701SOL    HW216566   3.523   2.177   6.341 -2.4613 -2.6317  0.4285
 1702SOL     OW16567   1.144   0.125  16.000  0.2659 -0.4756  0.1438
 1702SOL    HW116568   1.224   0.093  15.958 -0.3778  0.0584 -1.5341
 1702SOL    HW216569   1.169   0.125  16.092  0.0621 -0.4260  0.1984
 1703SOL     OW16570   0.609   3.160  10.320 -0.2934  0.2509 -0.2991
 1703SOL    HW116571   0.575   3.243  10.288  0.4618  0.6732  0.0158
 1703SOL    HW216572   0.570   3.152  10.407  2.2386 -0.5061  0.7732
 1704SOL     OW16573   0.199   3.257  17.407  0.1734 -0.1685  0.5378
 1704SOL    HW116574   0.124   3.220  17.359  1.4819 -0.2706 -1.4431
 1704SOL    HW216575   0.177   3.242  17.499 -2.4695  4.0334  0.5969
 1705SOL     OW16576   2.626   0.708   6.510 -0.5924  0.1274  0.2840
 1705SOL    HW116577   2.688   0.701   6.437  1.0259  0.2415  1.6566
 1705SOL    HW216578   2.557   0.649   6.481  0.9510 -0.7017 -1.7365
 1706SOL     OW16579   1.617   4.668   3.597 -0.2863 -0.5097  0.4831
 1706SOL    HW116580   1.597   4.587   3.549  2.3319 -0.7926 -0.1161
 1706SOL    HW216581   1.680   4.625   3.654  0.6693  0.7928  0.3926
 1707SOL     OW16582   3.206   3.705   0.761 -0.2273  0.2097 -0.4911
 1707SOL    HW116583   3.165   3.773   0.708  0.4609 -0.2266 -1.5887
 1707SOL    HW216584   3.137   3.643   0.783  1.0271 -0.0942  2.5972
 1708SOL     OW16585   3.502   0.628   7.016  0.0066 -0.4998  0.2246
 1708SOL    HW116586   3.560   0.559   7.049  1.3943  1.3970  1.7097
 1708SOL    HW216587   3.422   0.575   7.023  0.0995 -0.8496 -1.2694
 1709SOL     OW16588   0.882   3.266  16.914 -0.0519  0.1919  0.4210
 1709SOL    HW116589   0.804   3.278  16.968  1.0666  1.9710  1.6474
 1709SOL    HW216590   0.869   3.328  16.841 -0.2520  0.0285  0.3190
 1710SOL     OW16591   4.276   3.107   7.212 -0.2602  0.3043 -0.0177
 1710SOL    HW116592   4.294   3.198   7.234 -1.4153  0.4921  0.1511
 1710SOL    HW216593   4.366   3.084   7.189 -0.5545  2.3187 -3.1235
 1711SOL     OW16594   1.516   2.605  13.530  0.4989  0.2245  0.2166
 1711SOL    HW116595   1.447   2.565  13.477  0.0647 -0.4863  1.3110
 1711SOL    HW216596   1.560   2.641  13.453 -0.2235  1.8893  0.5806
 1712SOL     OW16597   2.434   2.797  12.385  0.5827  0.5286  0.4969
 1712SOL    HW116598   2.439   2.832  12.296 -1.8876  1.3944  0.6983
 1712SOL    HW216599   2.495   2.853  12.433  1.8468  0.4843 -1.1011
 1713SOL     OW16600   1.964   2.426   4.407 -0.2287 -0.6713 -0.1085
 1713SOL    HW116601   1.930   2.397   4.492 -0.2167  0.9411  0.4657
 1713SOL    HW216602   1.881   2.436   4.360  0.4604  1.2123 -0.9169
 1714SOL     OW16603   2.476   0.325  11.901 -0.1984  0.2327 -0.1053
 1714SOL    HW116604   2.553   0.301  11.851  0.6275  0.9997  0.7998
 1714SOL    HW216605   2.470   0.417  11.876  1.4082  1.0685  2.6462
 1715SOL     OW16606   2.021   1.502   9.261  0.3044  0.2060 -0.3920
 1715SOL    HW116607   1.929   1.480   9.276  0.2610  1.1163  0.7140
 1715SOL    HW216608   2.046   1.506   9.353 -2.9409 -1.8866  0.5814
 1716SOL     OW16609   3.468   0.502  12.112 -0.2154  0.0246  0.4156
 1716SOL    HW116610   3.424   0.502  12.028  1.4918 -2.4255 -0.4861
 1716SOL    HW216611   3.509   0.416  12.103 -1.0807 -0.2530 -0.7952
 1717SOL     OW16612   1.270   3.045   6.931  0.1780  0.3888 -0.9938
 1717SOL    HW116613   1.314   2.960   6.941 -0.7621 -0.0086 -0.3359
 1717SOL    HW216614   1.182   3.020   6.906  0.6523 -2.2909  0.0085
 1718SOL     OW16615   2.234   0.639   3.203  0.3788 -0.0818 -0.1959
 1718SOL    HW116616   2.265   0.601   3.121 -0.9058 -1.6240  0.0306
 1718SOL    HW216617   2.234   0.572   3.271 -1.4682  1.3580  1.2382
 1719SOL     OW16618   3.942   2.304   6.324  0.1387 -0.5370 -1.1410
 1719SOL    HW116619   3.963   2.214   6.299  0.3971 -0.6929 -0.3510
 1719SOL    HW216620   4.007   2.363   6.285 -1.2719  2.5641  1.2139
 1720SOL     OW16621   2.548   2.724   5.800 -0.4396 -0.2050 -0.3745
 1720SOL    HW116622   2.475   2.729   5.862 -0.4396  2.6144 -0.5962
 1720SOL    HW216623   2.621   2.736   5.860 -0.0925 -2.0174 -0.4370
 1721SOL     OW16624   1.290   3.689  11.537 -0.7262  0.4467 -0.0552
 1721SOL    HW116625   1.266   3.597  11.527  3.8448 -0.7300 -0.3600
 1721SOL    HW216626   1.380   3.693  11.505 -1.0121 -2.8710 -1.3349
 1722SOL     OW16627   0.933   4.545  17.170 -0.4738 -0.6382  0.1149
 1722SOL    HW116628   0.998   4.543  17.241 -0.9064  1.7356  0.5737
 1722SOL    HW216629   0.924   4.638  17.151 -1.7769 -1.0412 -1.1384
 1723SOL     OW16630   2.973   0.827   3.105 -0.0497  0.2431 -0.3826
 1723SOL    HW116631   2.942   0.795   3.190 -1.7582 -0.9032 -1.4415
 1723SOL    HW216632   2.963   0.921   3.115  0.6047  0.6914 -4.0145
 1724SOL     OW16633   0.824   4.623   8.442 -0.2930  0.4160 -0.3063
 1724SOL    HW116634   0.795   4.551   8.498  0.3416 -0.3329 -0.9388
 1724SOL    HW216635   0.866   4.681   8.505 -2.1123  0.9863  0.4020
 1725SOL     OW16636   0.712   2.767   0.836 -0.2839  0.2835 -0.1392
 1725SOL    HW116637   0.749   2.823   0.768 -0.4393  1.6396  0.9101
 1725SOL    HW216638   0.730   2.678   0.804  2.7586  0.1216  2.0628
 1726SOL     OW16639   3.217   0.381   9.318 -0.3588  0.4744 -0.1696
 1726SOL    HW116640   3.266   0.299   9.322 -3.8518 -1.6629 -0.7814
 1726SOL    HW216641   3.174   0.382   9.403  0.2901 -0.1561  0.1562
 1727SOL     OW16642   0.936   4.634   0.210  0.3007 -0.6283  0.6198
 1727SOL    HW116643   0.918   4.540   0.211  0.8917 -0.7703 -1.6933
 1727SOL    HW216644   0.963   4.647   0.119  1.0992 -1.2478  0.7669
 1728SOL     OW16645   2.472   3.574  14.140 -0.1712 -0.4309  0.2131
 1728SOL    HW116646   2.427   3.620  14.211  0.5788  1.1916 -0.3599
 1728SOL    HW216647   2.460   3.635  14.067 -0.0967  0.1085  0.6484
 1729SOL     OW16648   0.375   1.312   4.556 -0.0751  0.5084  0.5954
 1729SOL    HW116649   0.468   1.322   4.536 -0.4180 -1.6883 -2.0949
 1729SOL    HW216650   0.387   1.330   4.649 -1.5526 -1.6203  1.1994
 1730SOL     OW16651   1.367   2.496   3.124 -0.3382  1.0005  0.1983
 1730SOL    HW116652   1.357   2.502   3.219  2.1965  0.1236  0.5091
 1730SOL    HW216653   1.414   2.413   3.125  0.4149  1.4269 -0.3607
 1731SOL     OW16654   1.552   0.238  13.877 -0.2641 -0.2017  0.8882
 1731SOL    HW116655   1.517   0.278  13.957  0.7799 -0.8272  1.6549
 1731SOL    HW216656   1.644   0.240  13.902  0.4671 -1.9236 -1.7171
 1732SOL     OW16657   0.497   1.148  16.715 -0.3322  0.0201  0.2287
 1732SOL    HW116658   0.546   1.066  16.726 -1.7507 -0.9545 -0.9155
 1732SOL    HW216659   0.420   1.135  16.770  0.1552 -1.6801  0.5263
 1733SOL     OW16660   0.875   3.575  13.405  0.2446 -0.4558 -0.1822
 1733SOL    HW116661   0.783   3.564  13.429 -0.2552  4.7525  0.1406
 1733SOL    HW216662   0.906   3.589  13.494  0.2424 -0.8816 -0.1110
 1734SOL     OW16663   4.301   0.643   2.014  0.4255 -0.1351  0.3946
 1734SOL    HW116664   4.231   0.657   1.951 -0.2872  0.9957  1.4492
 1734SOL    HW216665   4.301   0.548   2.021  3.1960 -0.1461  0.3988
 1735SOL     OW16666   1.847   1.978   3.388  0.5521 -0.4797  0.1661
 1735SOL    HW116667   1.832   2.039   3.315 -0.6841 -1.1501 -0.1521
 1735SOL    HW216668   1.907   1.917   3.346  0.0663 -0.3931 -0.6735
 1736SOL     OW16669   3.442   3.779   3.596 -0.4927  0.2715  0.4863
 1736SOL    HW116670   3.533   3.785   3.624 -0.1463 -1.1818 -0.3791
 1736SOL    HW216671   3.409   3.840   3.662  0.9740  0.3731  1.1123
 1737SOL     OW16672   2.670   3.137  15.173 -0.0801  0.0710  0.4451
 1737SOL    HW116673   2.691   3.050  15.140 -2.9479 -0.6382  0.5022
 1737SOL    HW216674   2.617   3.177  15.103  0.2895 -2.9434 -1.5664
 1738SOL     OW16675   0.750   0.301  16.815  0.2618  0.0826 -0.5773
 1738SOL    HW116676   0.783   0.269  16.732 -0.9062  0.5995 -1.2452
 1738SOL    HW216677   0.806   0.378  16.824  0.4553 -0.0108 -0.9973
 1739SOL     OW16678   0.886   4.585   2.667 -0.8171  0.2404 -0.3393
 1739SOL    HW116679   0.868   4.574   2.573 -2.6262 -2.5109  0.3348
 1739SOL    HW216680   0.800   4.618   2.693 -1.2065 -1.5912  0.6871
 1740SOL     OW16681   3.400   1.388   5.256  0.5957 -0.2706  0.5143
 1740SOL    HW116682   3.399   1.311   5.200  0.1636  1.6837 -2.1525
 1740SOL    HW216683   3.491   1.416   5.254  0.0913  1.2534 -0.8094
 1741SOL     OW16684   0.394   1.927   2.396 -0.4189 -0.2301 -0.1702
 1741SOL    HW116685   0.386   1.963   2.484 -0.3606 -0.1879 -0.1817
 1741SOL    HW216686   0.386   1.834   2.416  1.6509  0.4032  3.5607
 1742SOL     OW16687   2.656   3.913   2.072  0.0082 -0.4773 -0.3557
 1742SOL    HW116688   2.707   3.943   2.147 -1.2519  1.4246 -0.2549
 1742SOL    HW216689   2.581   3.879   2.121  1.8428 -0.6831  2.3406
 1743SOL     OW16690   1.772   3.044   7.124  0.6005 -0.5970  0.3761
 1743SOL    HW116691   1.711   2.986   7.169  1.2119 -1.0768  0.5939
 1743SOL    HW216692   1.758   3.038   7.029  0.3873  1.4157  0.2900
 1744SOL     OW16693   0.087   4.069   3.870 -0.3982  0.2215  0.3888
 1744SOL    HW116694   0.072   4.092   3.778 -0.3496  1.3034  0.6544
 1744SOL    HW216695   0.001   4.082   3.909 -0.6966  0.5261 -0.3601
 1745SOL     OW16696   3.357   3.823  11.108 -0.0100 -0.3517 -0.2473
 1745SOL    HW116697   3.283   3.779  11.149 -0.3175 -0.0651 -0.4972
 1745SOL    HW216698   3.426   3.785  11.162  1.4960  1.2219 -1.0525
 1746SOL     OW16699   3.576   3.017   8.975 -0.0113 -0.5025  0.4081
 1746SOL    HW116700   3.659   3.040   8.932  0.5797  1.7035  2.7249
 1746SOL    HW216701   3.548   2.933   8.941  1.0177 -0.2775 -1.0102
 1747SOL     OW16702   3.709   3.332   7.484  0.2541  0.3845 -0.3648
 1747SOL    HW116703   3.622   3.298   7.507  0.0553  1.6947  0.8632
 1747SOL    HW216704   3.699   3.363   7.394  0.4736  1.5711  0.0172
 1748SOL     OW16705   2.981   4.517   2.031  0.1058 -0.5109 -0.4223
 1748SOL    HW116706   3.057   4.567   2.001  2.5283 -2.4375  2.4206
 1748SOL    HW216707   3.011   4.504   2.121 -0.2494  1.6501  0.0064
 1749SOL     OW16708   2.098   0.740   3.535  0.3355  0.0196  0.4002
 1749SOL    HW116709   2.073   0.648   3.526  1.6193 -0.2112 -0.7528
 1749SOL    HW216710   2.162   0.737   3.605  0.2150  0.3032  0.5220
 1750SOL     OW16711   0.319   2.455  14.486  0.0904  0.3681 -0.2354
 1750SOL    HW116712   0.265   2.426  14.414 -1.9885 -0.3374  1.6082
 1750SOL    HW216713   0.338   2.543  14.454  0.1690  0.5489  0.3023
 1751SOL     OW16714   1.709   3.103   9.023 -0.5378  0.0424  1.2426
 1751SOL    HW116715   1.794   3.060   9.031 -0.5116 -0.0936  0.1616
 1751SOL    HW216716   1.656   3.032   8.985  1.3744  0.0699 -1.4182
 1752SOL     OW16717   3.921   3.448   5.967 -0.2166 -0.5774 -0.2624
 1752SOL    HW116718   3.936   3.410   6.054  0.9560  0.4259 -0.0197
 1752SOL    HW216719   3.825   3.444   5.965 -0.3480  2.2772 -0.2955
 1753SOL     OW16720   1.357   2.496   9.087  0.0201  0.1437  0.2863
 1753SOL    HW116721   1.333   2.404   9.091  0.2823  0.1079  0.9871
 1753SOL    HW216722   1.275   2.538   9.113  0.0713 -1.3313  2.8353
 1754SOL     OW16723   0.049   3.875  17.255 -0.6958 -0.5144  0.0512
 1754SOL    HW116724   0.011   3.787  17.255 -2.7987  0.4115  0.5984
 1754SOL    HW216725   0.101   3.875  17.175 -1.2629 -2.0534 -0.3117
 1755SOL     OW16726   0.717   0.575   4.462 -0.1012 -0.0276  0.0648
 1755SOL    HW116727   0.805   0.593   4.496  0.6518  1.1726 -2.5393
 1755SOL    HW216728   0.704   0.644   4.398  0.9951 -0.1128 -0.2619
 1756SOL     OW16729   0.510   0.829   1.918 -0.6454 -0.5564 -0.7914
 1756SOL    HW116730   0.496   0.776   1.997  1.0606  0.4712  0.1999
 1756SOL    HW216731   0.524   0.758   1.856  1.4166 -0.2927 -0.6354
 1757SOL     OW16732   2.075   1.574  15.963 -0.8304 -0.4006 -0.2234
 1757SOL    HW116733   2.106   1.575  16.053 -0.1583  0.9848 -0.4716
 1757SOL    HW216734   2.146   1.524  15.922 -0.3424  0.4707 -0.4518
 1758SOL     OW16735   3.844   0.062   1.073 -0.4838 -0.3077 -0.0614
 1758SOL    HW116736   3.886   0.065   1.160  0.7737  1.5281 -0.7348
 1758SOL    HW216737   3.842   0.155   1.050 -0.8100 -0.2949  0.0169
 1759SOL     OW16738   0.841   3.405   8.370 -0.1186  0.1973  0.2430
 1759SOL    HW116739   0.791   3.324   8.360 -0.0347 -0.0409  1.6998
 1759SOL    HW216740   0.853   3.447   8.285 -0.4698 -2.5998 -1.1682
 1760SOL     OW16741   1.462   1.530   0.452 -0.0246 -0.5266 -0.0937
 1760SOL    HW116742   1.471   1.496   0.541 -0.3587 -0.0555  0.1199
 1760SOL    HW216743   1.373   1.498   0.435  0.4770 -1.9269 -0.0810
 1761SOL     OW16744   2.457   4.191   1.741  0.3957 -0.2558 -0.5299
 1761SOL    HW116745   2.443   4.281   1.772  0.0175 -0.4852 -0.0407
 1761SOL    HW216746   2.484   4.162   1.828  0.1858  1.0452 -0.0245
 1762SOL     OW16747   0.630   1.016  12.280 -0.6620 -0.0049 -0.0530
 1762SOL    HW116748   0.541   0.992  12.254 -0.8837  0.4466  0.3015
 1762SOL    HW216749   0.659   0.928  12.305 -0.6816 -0.4832 -1.7221
 1763SOL     OW16750   0.249   0.126  13.824 -0.1234  0.3633  0.1520
 1763SOL    HW116751   0.156   0.142  13.842 -0.1744 -0.0618  0.2586
 1763SOL    HW216752   0.240   0.077  13.743 -0.5738 -1.8460  1.5274
 1764SOL     OW16753   3.760   1.725   4.149  0.1584 -0.1443  0.0780
 1764SOL    HW116754   3.787   1.764   4.233 -2.4410  2.2528 -0.2036
 1764SOL    HW216755   3.689   1.786   4.131  1.7931  1.2412 -1.7063
 1765SOL     OW16756   3.019   1.137   5.730 -0.4365 -0.2666  0.0501
 1765SOL    HW116757   2.978   1.188   5.661 -0.6377 -0.7560 -0.1897
 1765SOL    HW216758   3.097   1.189   5.750 -1.0662  1.1603 -1.2911
 1766SOL     OW16759   4.662   2.014   1.966 -0.0466 -0.4294 -0.0492
 1766SOL    HW116760   4.701   2.100   1.949 -0.9657 -0.1805 -0.9220
 1766SOL    HW216761   4.569   2.026   1.943  0.4618 -0.7456 -2.2883
 1767SOL     OW16762   4.000   3.214   2.879  0.3363 -0.2725 -0.4073
 1767SOL    HW116763   4.082   3.190   2.922 -0.3978  0.0849  1.1850
 1767SOL    HW216764   3.957   3.277   2.937 -2.1067 -1.2162 -1.1759
 1768SOL     OW16765   4.648   2.643   3.637  0.3659 -0.0629 -0.1239
 1768SOL    HW116766   4.596   2.661   3.558  0.5771  0.1665 -0.2128
 1768SOL    HW216767   4.716   2.586   3.600  1.3556  1.5159 -0.7402
 1769SOL     OW16768   3.273   4.608   1.688 -0.4022  0.7041 -0.6872
 1769SOL    HW116769   3.312   4.528   1.652  0.1646  1.5145 -1.8859
 1769SOL    HW216770   3.307   4.668   1.621 -0.8219  2.6807  0.8751
 1770SOL     OW16771   1.630   0.920   2.006  0.0684  0.5270 -0.1558
 1770SOL    HW116772   1.717   0.883   2.021  0.2343  2.4484  3.6470
 1770SOL    HW216773   1.594   0.864   1.938 -0.6708 -1.4697  1.8909
 1771SOL     OW16774   3.603   3.018  16.762  0.3567 -0.1930  0.0873
 1771SOL    HW116775   3.587   3.004  16.669 -3.0088  2.4344  0.2465
 1771SOL    HW216776   3.658   3.096  16.766  1.0193 -0.5027 -3.1319
 1772SOL     OW16777   3.535   0.548   5.148  0.2811 -0.1810 -0.0124
 1772SOL    HW116778   3.603   0.599   5.105 -0.1468  0.0954 -0.3616
 1772SOL    HW216779   3.575   0.464   5.169 -0.5964 -1.1378 -2.1741
 1773SOL     OW16780   1.088   3.329   5.105  0.0205  0.7070  0.4113
 1773SOL    HW116781   1.130   3.323   5.191 -1.4549 -1.0535  1.0160
 1773SOL    HW216782   1.154   3.294   5.045 -1.4700 -1.5364  0.0872
 1774SOL     OW16783   1.800   2.264   8.151  0.7492  0.5573 -0.2084
 1774SOL    HW116784   1.711   2.300   8.148 -0.1691 -1.8846 -2.4937
 1774SOL    HW216785   1.828   2.293   8.237 -1.4337  5.0260 -1.0042
 1775SOL     OW16786   1.075   4.501   4.294 -0.3823 -0.1161  0.7507
 1775SOL    HW116787   1.015   4.567   4.330 -2.6479 -2.0323  0.4474
 1775SOL    HW216788   1.062   4.493   4.200  0.1771 -1.1861  0.7712
 1776SOL     OW16789   4.459   2.442   9.696 -0.5865 -0.8053 -0.2442
 1776SOL    HW116790   4.481   2.370   9.638  2.6118  1.2371 -1.5581
 1776SOL    HW216791   4.444   2.515   9.635  1.3210  0.1383  0.4167
 1777SOL     OW16792   3.320   3.961   4.549  0.2129 -0.2031  0.1727
 1777SOL    HW116793   3.254   3.932   4.612  0.8597  1.0074  1.4241
 1777SOL    HW216794   3.396   3.924   4.592  0.3537  1.1415  1.0816
 1778SOL     OW16795   0.100   1.685   2.390 -0.1765 -0.4759  0.2917
 1778SOL    HW116796   0.188   1.660   2.361  0.1308 -1.9983  2.4312
 1778SOL    HW216797   0.077   1.756   2.331  3.8257 -0.2372 -0.9594
 1779SOL     OW16798   4.116   4.545   1.740 -0.4886  0.0944 -0.1669
 1779SOL    HW116799   4.161   4.617   1.784 -2.7128  2.5460 -1.9023
 1779SOL    HW216800   4.144   4.566   1.650  0.4228 -2.7241 -0.5332
 1780SOL     OW16801   2.061   0.108   5.372 -0.4108  0.2756 -0.1060
 1780SOL    HW116802   2.139   0.084   5.322 -1.9013 -1.1371 -1.7685
 1780SOL    HW216803   2.023   0.031   5.412  1.7525 -1.0307 -0.5470
 1781SOL     OW16804   4.411   1.368  13.673  0.1640  0.1244  0.0195
 1781SOL    HW116805   4.417   1.300  13.740 -0.0988  0.9663  0.9008
 1781SOL    HW216806   4.492   1.350  13.625 -0.4808  0.6404 -1.2866
 1782SOL     OW16807   0.634   2.658   6.036 -0.0918 -0.3449 -0.8344
 1782SOL    HW116808   0.683   2.624   5.961 -0.3191 -0.4712 -0.9266
 1782SOL    HW216809   0.709   2.678   6.093  0.0738  0.1845 -1.2386
 1783SOL     OW16810   1.364   2.517  13.271  0.0465 -0.4664  0.4222
 1783SOL    HW116811   1.437   2.519  13.209  0.0225  1.5975  0.4546
 1783SOL    HW216812   1.345   2.423  13.273  1.3350 -0.7506 -1.1235
 1784SOL     OW16813   3.813   0.495   8.441 -0.7674 -0.1160 -0.5839
 1784SOL    HW116814   3.850   0.431   8.381 -1.7055 -1.3489  0.1314
 1784SOL    HW216815   3.808   0.457   8.529 -1.9149  2.6468  0.5513
 1785SOL     OW16816   1.124   1.994   2.762 -0.8650  0.2038  0.6522
 1785SOL    HW116817   1.212   2.016   2.732 -0.4314 -2.0504  0.3202
 1785SOL    HW216818   1.088   1.967   2.678  1.1006  0.8291 -0.3995
 1786SOL     OW16819   0.375   3.986   8.167 -0.4770 -0.1325 -0.3645
 1786SOL    HW116820   0.349   4.047   8.236  1.4573 -1.0523  1.1829
 1786SOL    HW216821   0.448   4.034   8.127 -1.3744  1.0477 -0.5516
 1787SOL     OW16822   4.150   2.752  12.479  0.3464  0.3849  0.0912
 1787SOL    HW116823   4.206   2.821  12.515  1.7276 -0.4657 -0.4106
 1787SOL    HW216824   4.198   2.673  12.503  0.9361  1.1076  1.3113
 1788SOL     OW16825   3.046   0.164  15.406 -0.2055 -0.1732 -0.2879
 1788SOL    HW116826   3.093   0.177  15.489 -0.2256  0.5146 -0.3861
 1788SOL    HW216827   3.097   0.088  15.377 -0.1747 -0.7101  1.1430
 1789SOL     OW16828   1.027   0.297   2.957 -0.3184 -0.6987 -0.0100
 1789SOL    HW116829   0.999   0.388   2.946 -3.5451 -2.0226 -2.7508
 1789SOL    HW216830   0.979   0.259   2.884 -0.6598 -1.6551  0.7159
 1790SOL     OW16831   3.577   0.588   4.735  0.4791 -0.2327 -0.2128
 1790SOL    HW116832   3.620   0.592   4.820  0.6669 -2.0494 -0.2245
 1790SOL    HW216833   3.516   0.516   4.748 -0.0075  0.2117 -0.0167
 1791SOL     OW16834   0.212   3.413   2.115  0.4454 -0.2258  0.5852
 1791SOL    HW116835   0.143   3.382   2.057  0.6168 -0.3661  0.4567
 1791SOL    HW216836   0.288   3.370   2.076  0.7447  0.7721  0.0503
 1792SOL     OW16837   0.847   3.102   4.661  0.1804 -0.0434 -0.3243
 1792SOL    HW116838   0.867   3.053   4.740  2.2790  2.5614  0.7832
 1792SOL    HW216839   0.752   3.096   4.675  0.5453 -2.3469  1.0170
 1793SOL     OW16840   3.114   2.017   9.649  0.6154  0.2259  0.0507
 1793SOL    HW116841   3.160   2.093   9.684 -1.6393  1.0781  1.1997
 1793SOL    HW216842   3.038   2.025   9.707 -1.0016 -1.8447 -1.8070
 1794SOL     OW16843   2.306   1.227   3.942  0.0656  0.4633 -0.6698
 1794SOL    HW116844   2.288   1.319   3.925  1.7605  0.7383 -1.0089
 1794SOL    HW216845   2.216   1.195   3.931  0.4380 -1.2030  1.1552
 1795SOL     OW16846   3.755   3.495  15.047  0.3269  0.8822 -0.2059
 1795SOL    HW116847   3.725   3.586  15.044  0.2906  0.9030  1.0919
 1795SOL    HW216848   3.807   3.510  14.967  0.5127 -2.8006 -0.7762
 1796SOL     OW16849   2.751   2.105   5.503  0.1417  0.1802 -0.1674
 1796SOL    HW116850   2.801   2.185   5.487  1.9388 -0.2719  3.1212
 1796SOL    HW216851   2.664   2.145   5.509 -0.3908 -0.9166 -0.5924
 1797SOL     OW16852   4.424   1.855   3.006  0.6421  0.0965  0.0106
 1797SOL    HW116853   4.518   1.835   3.007  0.4042 -1.0155 -0.1720
 1797SOL    HW216854   4.399   1.881   3.095 -0.7718  2.1551 -0.9838
 1798SOL     OW16855   2.201   0.530   5.202 -0.2297 -0.1894  0.6891
 1798SOL    HW116856   2.253   0.526   5.282 -0.4658  0.4671  0.8742
 1798SOL    HW216857   2.118   0.489   5.227  0.8942 -3.2355 -0.6053
 1799SOL     OW16858   4.017   2.437   8.103  0.2384  0.2060 -0.4100
 1799SOL    HW116859   4.038   2.492   8.027  1.5083 -0.4201 -0.5083
 1799SOL    HW216860   3.990   2.499   8.170 -0.0748 -0.5845  0.1964
 1800SOL     OW16861   0.871   2.173   5.760  0.2799  0.6714 -0.0717
 1800SOL    HW116862   0.814   2.168   5.836  0.8185  0.8904  0.3512
 1800SOL    HW216863   0.804   2.164   5.692  1.2271 -0.6391 -0.8280
 1801SOL     OW16864   1.029   3.235   9.023 -0.7383  0.3617  0.3170
 1801SOL    HW116865   1.123   3.218   9.034 -0.7984  0.1116  0.4377
 1801SOL    HW216866   1.021   3.311   9.081  1.7334  2.5231 -2.1783
 1802SOL     OW16867   4.506   2.689   4.545  0.1641  0.2927 -0.3062
 1802SOL    HW116868   4.490   2.618   4.607  1.5672 -0.2437 -0.5665
 1802SOL    HW216869   4.467   2.652   4.466  0.2213  1.1659 -0.7310
 1803SOL     OW16870   4.644   3.515   3.664  0.0340  0.2816  0.2533
 1803SOL    HW116871   4.720   3.495   3.718  1.7256  2.0253 -1.4817
 1803SOL    HW216872   4.642   3.429   3.623 -0.6125  0.4747 -0.1108
 1804SOL     OW16873   3.293   2.215   7.240 -0.0681  0.7257 -0.1913
 1804SOL    HW116874   3.349   2.154   7.287 -0.3800  1.5978  1.3146
 1804SOL    HW216875   3.264   2.161   7.167 -1.5250  1.5585 -0.2316
 1805SOL     OW16876   2.852   1.551   5.019  0.4312 -0.4675  0.4187
 1805SOL    HW116877   2.892   1.469   4.990  2.2630 -0.3475  2.6115
 1805SOL    HW216878   2.881   1.611   4.949 -1.5976 -1.7580 -1.5516
 1806SOL     OW16879   0.688   0.896  13.146  0.5111 -0.4996  0.0608
 1806SOL    HW116880   0.630   0.962  13.110 -0.1990 -2.3443 -2.1768
 1806SOL    HW216881   0.664   0.904  13.238  0.6019  2.1015 -0.1554
 1807SOL     OW16882   0.782   3.657   5.079  0.6854 -0.5644  0.0844
 1807SOL    HW116883   0.716   3.714   5.037  2.0835  1.4640  0.6202
 1807SOL    HW216884   0.752   3.567   5.065  0.5079 -0.0310 -2.9995
 1808SOL     OW16885   4.651   2.026  15.357  0.4122  0.1707 -0.4024
 1808SOL    HW116886   4.621   2.116  15.346  0.0158 -0.0622 -1.2207
 1808SOL    HW216887   4.687   2.033  15.446 -2.2520  0.8229  0.6527
 1809SOL     OW16888   0.224   2.050   2.183  0.0809 -0.8175  0.1519
 1809SOL    HW116889   0.149   1.991   2.174 -0.2930  0.0127 -2.3300
 1809SOL    HW216890   0.284   1.999   2.237 -0.4037 -2.0255 -0.4379
 1810SOL     OW16891   0.551   0.370   8.158  0.3662  0.0377  0.3421
 1810SOL    HW116892   0.532   0.336   8.246  0.5965 -1.2958 -0.1220
 1810SOL    HW216893   0.625   0.429   8.176 -0.3806  0.4850  1.9770
 1811SOL     OW16894   2.947   4.103  10.421 -0.0441 -0.1747  0.2035
 1811SOL    HW116895   2.968   4.010  10.410 -0.2238 -0.3985  1.8400
 1811SOL    HW216896   2.862   4.092  10.463 -1.0951 -1.1228 -2.1684
 1812SOL     OW16897   1.276   4.614  11.171 -0.3117  0.5850  0.3675
 1812SOL    HW116898   1.329   4.598  11.092  0.5784  0.0829  1.0671
 1812SOL    HW216899   1.240   4.527  11.190  1.2298  0.2150  1.5500
 1813SOL     OW16900   2.460   3.165   1.158  0.3990  0.5684  0.2780
 1813SOL    HW116901   2.437   3.081   1.119  2.1256  0.1217  0.1847
 1813SOL    HW216902   2.373   3.204   1.162 -0.2746 -1.0143  0.9562
 1814SOL     OW16903   2.409   0.524  16.394 -0.0095 -0.3154  0.3043
 1814SOL    HW116904   2.492   0.518  16.347 -0.3552  2.5466 -0.6857
 1814SOL    HW216905   2.434   0.532  16.486  1.1922 -0.0309 -0.0534
 1815SOL     OW16906   3.001   3.885   5.533  0.4569  0.0825 -0.2383
 1815SOL    HW116907   3.070   3.903   5.469  0.7665  2.3678  0.7356
 1815SOL    HW216908   3.044   3.935   5.603  0.6701  0.7363 -0.8315
 1816SOL     OW16909   1.415   4.460   9.368 -0.7446 -0.0342  0.1867
 1816SOL    HW116910   1.483   4.449   9.302 -1.3843 -1.0496 -0.2938
 1816SOL    HW216911   1.351   4.402   9.327 -2.4937  0.8185  1.7287
 1817SOL     OW16912   4.615   1.997   5.977 -0.4175  0.1100 -0.0374
 1817SOL    HW116913   4.629   1.906   5.950  1.0195  0.1534  0.5623
 1817SOL    HW216914   4.534   2.000   6.027  0.9486 -2.3880  2.3135
 1818SOL     OW16915   0.754   0.097  10.832  0.3587 -0.3594 -0.5452
 1818SOL    HW116916   0.691   0.036  10.794  1.8132 -1.2445 -1.5169
 1818SOL    HW216917   0.795   0.048  10.904  2.7379  3.2197  0.5248
 1819SOL     OW16918   3.558   1.650   8.576  0.8366 -0.1744  0.7748
 1819SOL    HW116919   3.552   1.602   8.493  0.9370 -2.2445  1.9836
 1819SOL    HW216920   3.650   1.677   8.574  0.5436  0.6872 -1.4136
 1820SOL     OW16921   1.861   3.136   8.473 -0.0207  0.2641 -0.2173
 1820SOL    HW116922   1.918   3.123   8.397  0.5661  0.5969  0.1696
 1820SOL    HW216923   1.778   3.164   8.434 -0.3956  0.3567  0.6544
 1821SOL     OW16924   3.959   3.626   6.778 -0.3638 -0.0526 -0.0959
 1821SOL    HW116925   3.914   3.711   6.772  0.8609  0.6840  1.0348
 1821SOL    HW216926   3.972   3.626   6.872  1.9143  1.5704 -0.4110
 1822SOL     OW16927   1.454   0.006   8.155  0.6826 -0.0206 -0.0238
 1822SOL    HW116928   1.379   4.700   8.103  0.2734  1.2151 -0.1521
 1822SOL    HW216929   1.470   0.094   8.121  1.5470  0.6005  2.0479
 1823SOL     OW16930   4.247   1.860   9.311 -0.2938 -0.1386  0.3838
 1823SOL    HW116931   4.320   1.833   9.366  0.0215 -0.9892 -0.4512
 1823SOL    HW216932   4.264   1.953   9.294  1.8590 -0.6923 -0.5068
 1824SOL     OW16933   3.923   0.566   9.152  0.5110 -0.3323  0.6784
 1824SOL    HW116934   3.872   0.614   9.086 -0.5051 -1.8240  0.3975
 1824SOL    HW216935   3.984   0.509   9.106 -1.0172 -1.0472 -0.4436
 1825SOL     OW16936   3.931   0.824  12.232  0.1542  0.5991  0.5277
 1825SOL    HW116937   3.933   0.752  12.294  1.5202  0.4480  0.2977
 1825SOL    HW216938   4.025   0.831  12.217  0.4665 -0.2835  2.0909
 1826SOL     OW16939   4.130   2.484   9.762 -0.3712 -0.1497  0.1103
 1826SOL    HW116940   4.071   2.423   9.806  1.0534 -1.4113  0.2420
 1826SOL    HW216941   4.207   2.472   9.818 -0.8565  0.1120  0.8335
 1827SOL     OW16942   1.869   4.691   2.998 -0.0621 -0.7035  0.0177
 1827SOL    HW116943   1.932   4.621   2.981 -0.4474 -1.2769  0.9441
 1827SOL    HW216944   1.797   4.647   2.952 -0.8353  0.1396  0.4192
 1828SOL     OW16945   3.991   2.647  15.355  0.8698  0.2334 -0.1140
 1828SOL    HW116946   3.977   2.596  15.275 -0.1991  2.7684 -1.5536
 1828SOL    HW216947   4.061   2.601  15.401  2.6398  2.1404 -0.9190
 1829SOL     OW16948   4.003   0.434   2.146 -0.3843 -0.2667  0.4860
 1829SOL    HW116949   3.945   0.370   2.188 -2.2161  1.8837  1.2461
 1829SOL    HW216950   4.007   0.510   2.204 -2.6031  0.3497 -0.1352
 1830SOL     OW16951   2.367   0.263  10.383 -0.0956 -0.2229 -0.1313
 1830SOL    HW116952   2.431   0.294  10.447 -1.8373 -1.1102  2.0724
 1830SOL    HW216953   2.362   0.167  10.391  1.3550 -0.1301  2.0130
 1831SOL     OW16954   1.775   3.120   3.048  0.2110  0.0606 -0.1262
 1831SOL    HW116955   1.853   3.093   2.999  0.2443  0.2439 -0.1714
 1831SOL    HW216956   1.721   3.141   2.973  0.0538 -4.2894 -1.2462
 1832SOL     OW16957   3.016   1.824   5.824  0.6056 -0.0918 -0.0368
 1832SOL    HW116958   2.949   1.822   5.755 -1.0386 -2.4990  1.6326
 1832SOL    HW216959   3.040   1.731   5.824  0.4458 -0.1336  0.2104
 1833SOL     OW16960   3.580   2.418   7.915 -0.1795 -0.3989  0.5023
 1833SOL    HW116961   3.539   2.494   7.875  1.2322 -0.1680 -0.4876
 1833SOL    HW216962   3.674   2.423   7.897 -0.2048 -1.3966  0.0672
 1834SOL     OW16963   0.449   0.652   6.146  0.0714 -0.0529 -0.3358
 1834SOL    HW116964   0.358   0.660   6.119  0.2962 -0.6870 -1.2862
 1834SOL    HW216965   0.492   0.735   6.125 -0.6090  0.0814 -1.1554
 1835SOL     OW16966   4.227   1.687   2.931  0.3105  0.2321 -0.5378
 1835SOL    HW116967   4.285   1.763   2.924 -1.3453  1.3816 -1.7867
 1835SOL    HW216968   4.199   1.703   3.021 -0.8153 -0.3101 -0.7853
 1836SOL     OW16969   4.007   0.592   7.073  0.0634 -0.2680 -0.0592
 1836SOL    HW116970   4.030   0.580   6.981  2.0058 -0.5595  0.4528
 1836SOL    HW216971   4.001   0.688   7.081  0.6782 -0.3570  1.4769
 1837SOL     OW16972   1.106   2.777   7.107  0.4526  0.2585  0.0097
 1837SOL    HW116973   1.197   2.787   7.135  0.8405  0.7152 -1.4216
 1837SOL    HW216974   1.085   2.862   7.068  1.4216  0.1856 -0.6868
 1838SOL     OW16975   2.867   3.941  16.696 -0.1875 -0.0419 -0.5369
 1838SOL    HW116976   2.799   3.873  16.695  0.8050 -1.0991  3.5610
 1838SOL    HW216977   2.827   4.025  16.714  1.2725  0.0508  2.3088
 1839SOL     OW16978   0.606   3.947   1.950  0.5944  0.1810 -0.0026
 1839SOL    HW116979   0.562   3.901   1.879  0.8036  0.5992 -0.3976
 1839SOL    HW216980   0.691   3.905   1.953  0.0932 -0.8779 -0.5175
 1840SOL     OW16981   1.168   3.406   1.587  0.0062 -0.1410 -0.7646
 1840SOL    HW116982   1.248   3.401   1.535  0.3571 -0.3922 -0.1902
 1840SOL    HW216983   1.191   3.355   1.665 -3.3464  2.1709  1.7359
 1841SOL     OW16984   0.258   4.139   4.831  0.1732  0.1329 -0.0313
 1841SOL    HW116985   0.229   4.224   4.799  0.2066  0.8846  1.8926
 1841SOL    HW216986   0.216   4.143   4.917 -4.0291  1.8291 -2.1534
 1842SOL     OW16987   1.590   1.550   3.906  0.0841 -0.0132 -0.0741
 1842SOL    HW116988   1.522   1.546   3.973  1.2733  2.3846  1.2869
 1842SOL    HW216989   1.636   1.624   3.946  1.4214 -1.3650  0.8679
 1843SOL     OW16990   4.038   1.232  12.688 -0.4239  0.2156  0.6909
 1843SOL    HW116991   4.100   1.203  12.755  0.8622  1.5267  0.0916
 1843SOL    HW216992   3.965   1.263  12.741 -1.1448  1.2883 -0.9236
 1844SOL     OW16993   3.627   4.593  11.935 -0.3984 -0.1086 -0.4482
 1844SOL    HW116994   3.635   4.504  11.899  0.0836 -0.4914  0.6225
 1844SOL    HW216995   3.590   4.628  11.854 -0.7551  0.4335 -0.0518
 1845SOL     OW16996   1.825   2.091  15.477  0.1147  0.0914 -0.0937
 1845SOL    HW116997   1.786   2.125  15.557 -2.2990 -0.3416 -1.0691
 1845SOL    HW216998   1.790   2.143  15.405  0.6595 -1.6648 -1.6189
 1846SOL     OW16999   4.265   2.267   9.481  0.0701  0.0692  0.0486
 1846SOL    HW117000   4.347   2.221   9.464  1.0982  1.6689  0.5689
 1846SOL    HW217001   4.245   2.285   9.389 -2.3719 -2.3644  0.1200
 1847SOL     OW17002   1.543   3.540   6.944  0.0243 -0.1616 -0.2725
 1847SOL    HW117003   1.477   3.529   6.875 -0.4044 -0.2041  0.1451
 1847SOL    HW217004   1.496   3.538   7.028  0.4724  3.2421  0.0582
 1848SOL     OW17005   4.528   3.737  15.229 -0.1868  0.3593  0.3382
 1848SOL    HW117006   4.557   3.746  15.319  0.6490 -0.0883  0.1075
 1848SOL    HW217007   4.464   3.808  15.226  0.3948  0.9128  1.2065
 1849SOL     OW17008   1.401   0.372   8.985 -0.1481 -0.1608  0.4056
 1849SOL    HW117009   1.406   0.347   9.077  1.1718 -3.0127 -0.4376
 1849SOL    HW217010   1.432   0.463   8.982 -3.1725  0.7945 -2.2484
 1850SOL     OW17011   2.687   1.591  13.950 -0.2090  0.0057  0.2627
 1850SOL    HW117012   2.652   1.678  13.969  0.2660  0.2380  0.0796
 1850SOL    HW217013   2.690   1.553  14.037  0.2156 -1.6336 -0.4690
 1851SOL     OW17014   4.684   1.154   5.175 -0.5187  0.5341 -0.1481
 1851SOL    HW117015   4.694   1.175   5.268 -3.2770  0.8488  0.0957
 1851SOL    HW217016   4.635   1.225   5.134 -1.3151 -0.4110 -0.8457
 1852SOL     OW17017   4.583   2.608   1.809  0.1709 -0.1936  0.0383
 1852SOL    HW117018   4.540   2.528   1.780 -0.3671 -0.2002  0.8762
 1852SOL    HW217019   4.549   2.668   1.742 -1.3656  0.2172  1.2143
 1853SOL     OW17020   2.580   1.265   6.819  0.4412  0.2685  0.0670
 1853SOL    HW117021   2.671   1.291   6.808  0.3881 -0.7900 -2.7696
 1853SOL    HW217022   2.565   1.280   6.912  1.4227  0.7196  0.1530
 1854SOL     OW17023   4.516   0.816   6.378  0.2592  0.3275 -0.0675
 1854SOL    HW117024   4.589   0.823   6.317  0.9277  1.6043  0.8885
 1854SOL    HW217025   4.559   0.847   6.458  2.8327  2.1570 -2.1701
 1855SOL     OW17026   4.254   1.153   6.678 -0.2876 -0.5333  0.1227
 1855SOL    HW117027   4.168   1.171   6.640  0.9251  1.4506 -1.7174
 1855SOL    HW217028   4.276   1.064   6.648  0.9532 -0.6811  1.4643
 1856SOL     OW17029   3.178   0.180   4.926  0.2021 -0.0588 -0.6732
 1856SOL    HW117030   3.114   0.126   4.971  0.9797  0.3503  0.9357
 1856SOL    HW217031   3.207   0.120   4.857  0.5665 -1.5914  0.8076
 1857SOL     OW17032   2.490   0.068   9.073 -0.3400 -0.4939  0.1198
 1857SOL    HW117033   2.395   0.069   9.065 -0.1838  0.3333 -1.6199
 1857SOL    HW217034   2.515   0.093   9.161 -0.4511  1.0467 -0.2916
 1858SOL     OW17035   2.578   1.934   7.746 -0.9372  0.2414 -0.0307
 1858SOL    HW117036   2.583   2.030   7.745 -0.6216  0.2301  0.5664
 1858SOL    HW217037   2.598   1.920   7.838  0.1353 -0.2151 -0.3348
 1859SOL     OW17038   0.238   2.312   3.309 -0.4264 -0.3905 -0.6039
 1859SOL    HW117039   0.198   2.396   3.332  2.0530  1.2104 -2.0609
 1859SOL    HW217040   0.251   2.334   3.216 -0.1815 -0.1829 -0.5201
 1860SOL     OW17041   3.079   4.167  15.444  0.5842  0.1160 -0.4513
 1860SOL    HW117042   3.129   4.134  15.370  2.0946 -2.8321  1.8558
 1860SOL    HW217043   3.109   4.106  15.513  0.8626 -0.3999 -1.0272
 1861SOL     OW17044   3.638   2.295   7.353 -0.1896  0.0857 -0.0343
 1861SOL    HW117045   3.609   2.210   7.386  1.5172 -0.6287 -0.3716
 1861SOL    HW217046   3.720   2.264   7.316 -0.4395 -0.0417 -0.4741
 1862SOL     OW17047   0.996   3.255   8.695 -0.3511 -0.0574 -0.6025
 1862SOL    HW117048   1.041   3.278   8.776 -0.8965 -0.1481 -0.2715
 1862SOL    HW217049   0.936   3.329   8.690 -0.7145 -0.4293 -1.9431
 1863SOL     OW17050   3.678   0.814   7.624 -0.4475 -0.3912  0.8938
 1863SOL    HW117051   3.616   0.740   7.620 -1.0867  0.2486 -1.1371
 1863SOL    HW217052   3.630   0.891   7.656  2.0034  0.9805  1.2312
 1864SOL     OW17053   2.485   0.338   2.495  0.8158 -0.0210  1.1265
 1864SOL    HW117054   2.435   0.361   2.416  1.3659  2.7321  1.5787
 1864SOL    HW217055   2.458   0.250   2.522 -0.7379 -0.0779 -0.6204
 1865SOL     OW17056   2.342   2.059   4.177  0.0199  0.0052  0.1549
 1865SOL    HW117057   2.260   2.103   4.201  0.5041  0.9121  0.1779
 1865SOL    HW217058   2.406   2.127   4.198 -1.4733  1.6446 -0.4837
 1866SOL     OW17059   3.785   0.755   6.042 -0.2310  0.7680 -0.4521
 1866SOL    HW117060   3.694   0.784   6.051 -0.2509  0.1482  1.3807
 1866SOL    HW217061   3.781   0.719   5.954  0.7384 -0.0396 -0.1715
 1867SOL     OW17062   4.267   0.789   5.402 -0.4773 -0.1999  0.2815
 1867SOL    HW117063   4.210   0.730   5.451 -0.0202 -1.0112 -0.1604
 1867SOL    HW217064   4.354   0.770   5.436  1.0739  1.1132 -2.9929
 1868SOL     OW17065   4.213   4.655  10.322 -0.2907  0.4793 -0.6921
 1868SOL    HW117066   4.309   4.654  10.325 -0.4140 -1.8713  3.2024
 1868SOL    HW217067   4.186   4.598  10.251  0.5145 -0.6846 -0.0723
 1869SOL     OW17068   0.416   0.649   3.097 -0.3594 -0.5792 -0.0561
 1869SOL    HW117069   0.463   0.716   3.146  1.7932 -2.4738  0.4306
 1869SOL    HW217070   0.371   0.598   3.164  0.0788 -0.2101  0.5140
 1870SOL     OW17071   0.340   4.123   1.025  0.5128 -0.3140  0.5814
 1870SOL    HW117072   0.281   4.111   0.952  1.5697 -0.6155 -0.2237
 1870SOL    HW217073   0.272   4.102   1.089 -0.0663  1.6088  0.5671
 1871SOL     OW17074   2.268   2.632   5.181 -0.2563 -0.0022 -0.3494
 1871SOL    HW117075   2.230   2.574   5.115  2.1306 -2.4510  0.3967
 1871SOL    HW217076   2.343   2.675   5.140  1.3502 -2.7731 -0.3255
 1872SOL     OW17077   1.489   0.695   5.569 -0.2350  0.0699 -0.1121
 1872SOL    HW117078   1.584   0.696   5.575 -0.1864  0.6389 -0.9301
 1872SOL    HW217079   1.459   0.667   5.655  0.2870 -0.1926 -0.0221
 1873SOL     OW17080   3.821   3.389  12.212  0.1801  0.6232  0.2328
 1873SOL    HW117081   3.746   3.406  12.270 -1.5971 -0.2682 -1.8171
 1873SOL    HW217082   3.815   3.294  12.203  1.0140  0.5447  0.5055
 1874SOL     OW17083   4.307   0.723   6.888  0.3723 -0.0463  0.1172
 1874SOL    HW117084   4.337   0.662   6.955 -1.1001  0.3850  1.1655
 1874SOL    HW217085   4.214   0.700   6.882  0.0215  0.9579  1.6755
 1875SOL     OW17086   2.586   0.113   4.883 -0.3660 -0.4289 -0.3986
 1875SOL    HW117087   2.599   0.070   4.968  0.6914  1.1204  0.2340
 1875SOL    HW217088   2.648   0.185   4.896  0.8628 -1.7707  1.2071
 1876SOL     OW17089   2.825   4.352   0.691 -0.6837 -0.3662 -0.3394
 1876SOL    HW117090   2.856   4.317   0.608 -2.6002 -2.4084 -0.1772
 1876SOL    HW217091   2.848   4.443   0.674 -0.7821 -0.5294 -1.3467
 1877SOL     OW17092   1.999   1.003   2.496 -0.0342  0.3722 -0.3518
 1877SOL    HW117093   1.937   1.062   2.540 -0.5375 -1.0993  0.8796
 1877SOL    HW217094   2.066   1.066   2.469  1.8760 -1.0548  1.0892
 1878SOL     OW17095   0.728   1.641  14.778 -0.1156 -0.5321 -0.2144
 1878SOL    HW117096   0.685   1.587  14.712  0.1465 -1.0889  0.0636
 1878SOL    HW217097   0.655   1.697  14.806 -0.9198 -1.5909 -0.1914
 1879SOL     OW17098   2.261   1.021   0.062  0.2548  0.0059  0.4808
 1879SOL    HW117099   2.295   0.979  17.683 -0.6994 -1.2770  0.7473
 1879SOL    HW217100   2.259   1.113   0.036 -0.7509  0.1439  1.0248
 1880SOL     OW17101   0.814   0.749   0.895 -0.1596  0.4155 -0.1502
 1880SOL    HW117102   0.888   0.690   0.886 -0.5394 -0.1086  0.1352
 1880SOL    HW217103   0.855   0.834   0.910  0.4514  0.0864  0.0421
 1881SOL     OW17104   2.891   0.192   5.070 -0.5754  0.2359 -0.1664
 1881SOL    HW117105   2.855   0.160   5.153 -1.4068  0.6366 -0.3709
 1881SOL    HW217106   2.833   0.266   5.054  0.2912  1.5894  3.0099
 1882SOL     OW17107   4.334   3.043   2.761 -0.2606  0.0540  0.2653
 1882SOL    HW117108   4.413   2.991   2.750 -0.0125  0.3879  0.4751
 1882SOL    HW217109   4.362   3.124   2.718  0.0622 -0.6438 -0.8507
 1883SOL     OW17110   0.945   1.810  13.286  0.4492  0.5095 -0.1005
 1883SOL    HW117111   0.982   1.723  13.273  1.4542  0.9500 -0.1511
 1883SOL    HW217112   0.874   1.799  13.350  1.0661 -2.6664  0.0139
 1884SOL     OW17113   1.967   1.950   8.328  0.2571  0.3381 -0.2286
 1884SOL    HW117114   1.931   2.020   8.274  0.8612  0.3913 -0.5633
 1884SOL    HW217115   1.998   2.003   8.402  1.0520  2.3837 -2.0317
 1885SOL     OW17116   2.295   3.793   1.301 -0.1462  0.6910 -0.3556
 1885SOL    HW117117   2.242   3.852   1.354  1.4434 -0.0741  2.0637
 1885SOL    HW217118   2.366   3.768   1.360  0.5118  0.1147 -1.3908
 1886SOL     OW17119   3.571   0.283   4.986 -0.3525 -0.2775 -0.1013
 1886SOL    HW117120   3.665   0.287   5.002 -0.1965  0.8648 -1.3151
 1886SOL    HW217121   3.544   0.191   4.981  1.0367 -0.5977 -2.0281
 1887SOL     OW17122   1.488   2.514   6.280 -0.4075  0.3011  0.0878
 1887SOL    HW117123   1.435   2.591   6.298 -1.7885 -0.4245 -0.8679
 1887SOL    HW217124   1.551   2.550   6.217  1.5077 -1.0873  1.2150
 1888SOL     OW17125   3.068   2.053   6.690 -0.1546 -0.2620 -0.0989
 1888SOL    HW117126   3.158   2.019   6.700 -0.0696  0.6626  2.0948
 1888SOL    HW217127   3.072   2.146   6.711 -2.3327 -0.4002  0.8232
 1889SOL     OW17128   4.382   0.677   5.161  0.0812  0.0295  0.0741
 1889SOL    HW117129   4.403   0.756   5.211  1.1821  1.6298 -2.9418
 1889SOL    HW217130   4.424   0.697   5.077 -1.3769 -0.0755 -0.6668
 1890SOL     OW17131   0.784   4.421  13.893 -0.7759 -0.5238  0.4567
 1890SOL    HW117132   0.715   4.415  13.959 -2.8697 -2.5901 -1.9519
 1890SOL    HW217133   0.742   4.457  13.815  0.1674 -0.5615 -0.0698
 1891SOL     OW17134   2.631   0.054  17.419 -0.1900 -0.3616  0.5715
 1891SOL    HW117135   2.672   4.692  17.416  0.9875  0.3003 -1.9690
 1891SOL    HW217136   2.606   0.053  17.512 -1.5897  2.7744  0.2150
 1892SOL     OW17137   0.539   0.135   0.851 -0.2285  0.7836 -0.0667
 1892SOL    HW117138   0.578   0.070   0.909 -1.0262  1.0233  0.7468
 1892SOL    HW217139   0.615   0.184   0.821 -1.1174  1.8895 -0.5503
 1893SOL     OW17140   0.582   4.447   9.264  0.5035  0.0566  0.0811
 1893SOL    HW117141   0.635   4.374   9.296 -0.2346 -1.2321 -1.6408
 1893SOL    HW217142   0.589   4.503   9.341 -1.7825 -0.8513  0.9443
 1894SOL     OW17143   2.293   1.283   5.586 -0.0699  0.1076 -0.0408
 1894SOL    HW117144   2.219   1.225   5.603 -0.2230  0.4819  0.5879
 1894SOL    HW217145   2.308   1.325   5.671  0.0047 -1.9344  0.9483
 1895SOL     OW17146   0.671   2.826   8.642  0.0502 -0.1026 -0.1071
 1895SOL    HW117147   0.746   2.882   8.622 -0.1792 -0.1513 -1.1074
 1895SOL    HW217148   0.642   2.861   8.726 -1.2524 -3.4276  0.8545
 1896SOL     OW17149   2.391   2.058   1.421  0.6070  0.3378  0.1477
 1896SOL    HW117150   2.397   2.145   1.459  0.0062  0.4559 -0.0319
 1896SOL    HW217151   2.300   2.038   1.443 -0.0661  0.8871 -2.0789
 1897SOL     OW17152   3.264   4.252  13.659  0.4898  0.1999  0.3227
 1897SOL    HW117153   3.240   4.270  13.569  1.9028 -0.4206 -0.1835
 1897SOL    HW217154   3.246   4.334  13.707 -1.8575  0.0316 -0.2672
 1898SOL     OW17155   1.248   2.014   5.295  0.0630  0.1344  0.0744
 1898SOL    HW117156   1.299   1.967   5.229 -0.6044  0.4707 -0.6912
 1898SOL    HW217157   1.168   2.034   5.247 -0.0671 -0.0254  0.2235
 1899SOL     OW17158   4.466   2.757  12.577 -0.0275  0.1551 -0.2769
 1899SOL    HW117159   4.507   2.732  12.659 -0.4015  3.7348  0.9977
 1899SOL    HW217160   4.405   2.684  12.573 -2.0054  1.8349 -0.6712
 1900SOL     OW17161   0.316   3.964   6.612  0.3473 -0.0198 -0.4937
 1900SOL    HW117162   0.360   3.915   6.542  0.6913  0.0671 -0.3396
 1900SOL    HW217163   0.327   3.903   6.684 -1.2917 -0.5837 -0.7378
 1901SOL     OW17164   4.399   3.246   5.538  0.0049  0.1664  0.3035
 1901SOL    HW117165   4.449   3.218   5.615 -1.8899 -1.8333  0.8136
 1901SOL    HW217166   4.390   3.340   5.552 -2.3050 -0.1218  0.7738
 1902SOL     OW17167   2.178   3.612   6.629  0.3951 -0.0406  0.2131
 1902SOL    HW117168   2.140   3.598   6.716  0.8793  0.0408  0.4365
 1902SOL    HW217169   2.265   3.575   6.644  0.5081  0.7558  1.4717
 1903SOL     OW17170   2.393   2.816   6.972  0.1995 -0.3570  0.0566
 1903SOL    HW117171   2.367   2.752   7.039 -0.8447  0.2404  0.2073
 1903SOL    HW217172   2.380   2.894   7.024  0.5921 -0.8212  0.8500
 1904SOL     OW17173   4.013   0.814  15.040  0.3831  0.3055  0.4374
 1904SOL    HW117174   4.042   0.723  15.031  1.0037  0.6319 -0.8310
 1904SOL    HW217175   4.006   0.839  14.948 -1.8625  2.4189  1.1884
 1905SOL     OW17176   2.615   4.019   5.745  0.1571 -0.6016 -0.2289
 1905SOL    HW117177   2.544   4.075   5.713  2.3237  1.9239 -0.5877
 1905SOL    HW217178   2.578   3.932   5.727  1.2692 -0.1947 -4.4821
 1906SOL     OW17179   0.833   3.050   6.494  0.6958  0.5780  1.0329
 1906SOL    HW117180   0.821   3.125   6.553 -1.9595  0.6590  0.3831
 1906SOL    HW217181   0.826   2.978   6.556 -0.7526  0.4643  0.7426
 1907SOL     OW17182   2.556   1.275   4.632  0.0915 -0.0557 -0.2798
 1907SOL    HW117183   2.631   1.234   4.588  0.9314  0.7268  0.3984
 1907SOL    HW217184   2.545   1.359   4.588 -1.5322  0.7726  1.6737
 1908SOL     OW17185   3.412   3.902   8.993 -0.2484  0.0136 -0.2035
 1908SOL    HW117186   3.403   3.947   8.909 -2.3850  0.4258  0.2516
 1908SOL    HW217187   3.366   3.960   9.054 -0.7793  1.0266 -1.5695
 1909SOL     OW17188   0.432   2.916  10.338  0.5496 -0.0286 -0.4347
 1909SOL    HW117189   0.487   2.982  10.381  1.2473 -1.4158  0.7969
 1909SOL    HW217190   0.393   2.887  10.420  0.0378  1.7294 -0.0480
 1910SOL     OW17191   1.050   1.411   6.244 -0.3134 -0.4197 -0.0161
 1910SOL    HW117192   1.099   1.331   6.228 -0.2620 -0.6890  1.5006
 1910SOL    HW217193   1.086   1.472   6.178 -1.0058  0.9819  0.8977
 1911SOL     OW17194   0.842   2.285   4.642 -0.1913  0.2933 -0.1297
 1911SOL    HW117195   0.884   2.259   4.724  2.8132 -0.8208 -2.0569
 1911SOL    HW217196   0.874   2.375   4.639 -2.0133  0.9330 -0.6614
 1912SOL     OW17197   0.323   1.535   3.429  0.2942  0.4672 -0.0122
 1912SOL    HW117198   0.416   1.512   3.431  0.3153  0.7123  2.5316
 1912SOL    HW217199   0.285   1.460   3.385 -0.1278 -0.6012  2.1807
 1913SOL     OW17200   3.854   2.839   6.972 -0.2066  0.0995 -0.2040
 1913SOL    HW117201   3.868   2.752   6.934  1.1997 -0.0557  0.6458
 1913SOL    HW217202   3.921   2.848   7.040 -2.5553 -1.7797  2.3569
 1914SOL     OW17203   0.626   1.428   4.393 -0.4667  0.0736  0.0519
 1914SOL    HW117204   0.711   1.392   4.367 -0.7852  0.0145 -0.8998
 1914SOL    HW217205   0.654   1.484   4.466  1.1396 -1.1339  0.3715
 1915SOL     OW17206   3.706   1.380   3.820 -0.1023  0.0175  0.4450
 1915SOL    HW117207   3.733   1.288   3.820  1.7408  0.5453  1.4170
 1915SOL    HW217208   3.757   1.414   3.894  1.1193  0.1127 -0.4365
 1916SOL     OW17209   1.306   0.579   3.039  0.0701 -0.5971 -0.2960
 1916SOL    HW117210   1.308   0.551   2.948  0.3195 -0.0975 -0.4465
 1916SOL    HW217211   1.385   0.545   3.079 -1.5787 -2.9347  0.9723
 1917SOL     OW17212   3.329   2.193  11.495  0.3301 -0.2876 -0.0897
 1917SOL    HW117213   3.294   2.156  11.577 -1.7766 -0.0596 -0.8866
 1917SOL    HW217214   3.393   2.251  11.535 -1.0159  0.4728  0.9843
 1918SOL     OW17215   4.158   0.354   1.641  0.0824 -0.0790 -0.5080
 1918SOL    HW117216   4.109   0.396   1.711 -1.2672 -1.8712 -0.3710
 1918SOL    HW217217   4.195   0.433   1.600 -0.8710  1.5388  1.7551
 1919SOL     OW17218   2.336   1.193   4.731  0.1240  0.3276  0.4501
 1919SOL    HW117219   2.288   1.273   4.710  0.6064  0.5399  0.1531
 1919SOL    HW217220   2.421   1.222   4.698 -0.1844  2.4806  1.5775
 1920SOL     OW17221   1.120   3.122   4.855 -0.3617  0.4759 -0.0577
 1920SOL    HW117222   1.197   3.145   4.906  0.9781 -0.8198 -1.4738
 1920SOL    HW217223   1.056   3.125   4.926  3.1272  3.1277  2.9688
 1921SOL     OW17224   0.957   1.786   0.985  0.9676 -0.3448  0.2807
 1921SOL    HW117225   0.933   1.846   0.914  1.3957 -0.8837 -0.3165
 1921SOL    HW217226   1.031   1.745   0.940  1.8079  3.0090 -1.3898
 1922SOL     OW17227   3.853   2.148   7.160 -0.9773 -0.4109 -0.0139
 1922SOL    HW117228   3.925   2.212   7.161  0.2493 -1.7532 -3.9365
 1922SOL    HW217229   3.885   2.080   7.218 -1.1523 -0.1778  0.3538
 1923SOL     OW17230   2.530   3.433   4.387  0.1013 -0.0297  0.0163
 1923SOL    HW117231   2.555   3.341   4.383  1.8180  0.4207  0.5058
 1923SOL    HW217232   2.609   3.480   4.412 -1.9353  4.2478 -1.6541
 1924SOL     OW17233   3.863   1.001  16.322 -0.1394 -0.0790  0.5092
 1924SOL    HW117234   3.860   0.946  16.243  0.7317  0.8624 -0.1725
 1924SOL    HW217235   3.779   0.974  16.360 -0.5909  0.4763 -0.0969
 1925SOL     OW17236   1.957   3.549  13.745  0.3261 -0.3836  0.0940
 1925SOL    HW117237   1.872   3.513  13.771  1.2241 -2.2646  0.3884
 1925SOL    HW217238   1.923   3.599  13.670 -0.8421 -2.8681 -1.0173
 1926SOL     OW17239   3.052   3.575   9.508  0.2141  0.1259 -0.2259
 1926SOL    HW117240   3.116   3.544   9.444  1.5089 -0.3320  1.2988
 1926SOL    HW217241   3.032   3.663   9.476 -2.7148 -0.2595  0.4956
 1927SOL     OW17242   4.490   3.708   9.464  0.5801 -0.1561 -0.1240
 1927SOL    HW117243   4.428   3.641   9.433 -0.2653 -1.1369  3.6792
 1927SOL    HW217244   4.572   3.669   9.436  0.8176 -0.4314  0.9650
 1928SOL     OW17245   3.568   1.703   7.098 -0.1863  0.0978 -0.2815
 1928SOL    HW117246   3.550   1.614   7.130  0.2413 -1.1298 -3.3808
 1928SOL    HW217247   3.646   1.686   7.044  0.1755 -0.5394  0.4438
 1929SOL     OW17248   4.435   0.749   2.476  0.8794  0.4940  0.0606
 1929SOL    HW117249   4.448   0.789   2.390  0.1020 -1.6435 -1.0699
 1929SOL    HW217250   4.400   0.664   2.449  2.0284  0.1798 -0.4378
 1930SOL     OW17251   3.652   0.985  12.116  0.6396 -0.1983  0.1655
 1930SOL    HW117252   3.567   0.982  12.160 -0.1761  1.2895 -1.3165
 1930SOL    HW217253   3.715   1.006  12.185  2.1913  0.2358 -1.3915
 1931SOL     OW17254   2.218   2.178   9.105 -0.3535 -0.0518  0.4580
 1931SOL    HW117255   2.306   2.198   9.136 -1.0952  1.0151  1.8561
 1931SOL    HW217256   2.244   2.098   9.058 -1.3249  0.5134 -1.0403
 1932SOL     OW17257   0.285   2.097  14.761  0.0814 -0.5903 -0.1535
 1932SOL    HW117258   0.210   2.120  14.705  0.9286 -1.4783 -1.6436
 1932SOL    HW217259   0.283   2.002  14.769  2.8957 -0.6159  0.3948
 1933SOL     OW17260   4.538   0.848   6.858  0.2521 -0.1007 -0.1790
 1933SOL    HW117261   4.507   0.922   6.910 -1.0948 -0.0059 -1.1017
 1933SOL    HW217262   4.464   0.788   6.867  0.7331 -0.7579 -0.6368
 1934SOL     OW17263   2.584   0.095   1.985 -0.4613  0.8144  0.7335
 1934SOL    HW117264   2.651   0.164   1.984 -2.9785  3.2751 -0.2909
 1934SOL    HW217265   2.533   0.126   1.910  1.3618  0.8138 -0.4798
 1935SOL     OW17266   3.733   0.927  10.540 -0.6472 -0.7449 -0.8245
 1935SOL    HW117267   3.652   0.878  10.554 -0.6063 -0.0822  1.8999
 1935SOL    HW217268   3.791   0.855  10.562 -0.2769 -0.1853  0.0668
 1936SOL     OW17269   0.484   4.417   8.822 -0.0954  0.3393  0.0612
 1936SOL    HW117270   0.465   4.357   8.894  1.5672 -1.2953 -0.8466
 1936SOL    HW217271   0.444   4.499   8.849 -0.6212  0.3913 -0.8975
 1937SOL     OW17272   0.026   0.081   5.296  0.3860 -0.3467 -0.0575
 1937SOL    HW117273   0.104   0.116   5.340 -2.2111  3.9270  1.1877
 1937SOL    HW217274   0.039   0.113   5.207  1.7199  0.8733  0.5640
 1938SOL     OW17275   1.247   2.304   2.073 -0.6910 -0.1235  0.3597
 1938SOL    HW117276   1.326   2.340   2.113  0.8387 -2.8506 -0.2348
 1938SOL    HW217277   1.277   2.322   1.984 -1.7566 -4.4648 -0.8486
 1939SOL     OW17278   4.610   3.515   6.101  0.2377 -0.0473  0.1336
 1939SOL    HW117279   4.603   3.511   6.006 -0.3177  1.0572  0.1263
 1939SOL    HW217280   4.634   3.424   6.118 -1.4938 -0.4518  0.4305
 1940SOL     OW17281   3.161   2.936   0.006  0.1666  0.1244  0.1681
 1940SOL    HW117282   3.124   2.979   0.083 -0.7203  0.7824 -0.6177
 1940SOL    HW217283   3.119   2.986  17.634  0.6000 -0.1418 -0.2699
 1941SOL     OW17284   0.355   1.958   8.256 -0.1390  0.4432  0.0636
 1941SOL    HW117285   0.398   1.927   8.335 -1.9307 -1.4521  0.3201
 1941SOL    HW217286   0.430   1.959   8.197  1.5385  0.8556  2.2391
 1942SOL     OW17287   2.445   3.602  16.064 -0.1132 -0.6300 -0.7257
 1942SOL    HW117288   2.472   3.655  16.139  0.2310  1.2853 -2.2076
 1942SOL    HW217289   2.506   3.528  16.072 -1.1968 -1.5926 -1.5543
 1943SOL     OW17290   1.013   4.002  14.447 -0.2443  0.0805  0.7215
 1943SOL    HW117291   1.091   3.951  14.427  0.1094  1.5552 -1.6281
 1943SOL    HW217292   0.960   4.018  14.369 -0.2858  0.0967  0.7527
 1944SOL     OW17293   4.434   3.169  10.990  0.1233  0.5023  0.0946
 1944SOL    HW117294   4.455   3.094  11.045 -0.4278  2.0144  2.3524
 1944SOL    HW217295   4.485   3.158  10.910 -0.5341  0.1217 -0.2653
 1945SOL     OW17296   2.363   3.671   4.111 -0.3402 -0.2284 -0.2085
 1945SOL    HW117297   2.424   3.739   4.138 -0.5813  0.1000 -0.4846
 1945SOL    HW217298   2.333   3.644   4.198 -0.6257 -2.2719 -0.9288
 1946SOL     OW17299   1.605   3.339   9.651 -0.1164 -0.1984 -0.2594
 1946SOL    HW117300   1.689   3.362   9.610  0.1587 -0.6683  0.0409
 1946SOL    HW217301   1.625   3.246   9.661 -2.3420 -0.6264  0.0886
 1947SOL     OW17302   3.330   1.407   3.378  0.0838  0.3807  0.3411
 1947SOL    HW117303   3.400   1.380   3.438  0.1199 -1.1275 -0.3974
 1947SOL    HW217304   3.370   1.476   3.325 -1.5722  0.2874 -1.0325
 1948SOL     OW17305   1.455   2.116   2.959 -0.7470  0.5060 -0.1903
 1948SOL    HW117306   1.450   2.140   2.866 -2.8998 -0.1745 -0.2567
 1948SOL    HW217307   1.508   2.037   2.948 -1.6513 -0.0896 -0.2563
 1949SOL     OW17308   3.273   0.490   7.029 -0.0443 -0.4932  0.4924
 1949SOL    HW117309   3.186   0.522   7.005 -0.2884  0.2064  2.3266
 1949SOL    HW217310   3.256   0.465   7.120  0.6561  0.1713  0.8077
 1950SOL     OW17311   1.445   3.528  13.795 -0.6320 -0.3117  0.3327
 1950SOL    HW117312   1.428   3.554  13.886 -0.2921  1.9792 -0.2646
 1950SOL    HW217313   1.379   3.459  13.782 -0.1694 -0.8847  1.0394
 1951SOL     OW17314   0.109   3.356   2.884 -0.1801 -0.2300 -0.0655
 1951SOL    HW117315   0.100   3.262   2.865  1.5579 -0.4070  0.0299
 1951SOL    HW217316   0.173   3.388   2.820 -4.1544  1.3875 -3.2766
 1952SOL     OW17317   3.346   0.781   0.239  0.3112 -0.2225 -0.3077
 1952SOL    HW117318   3.343   0.855   0.179 -0.8282 -0.9840 -1.1834
 1952SOL    HW217319   3.261   0.739   0.250  1.1891 -1.2657  2.7764
 1953SOL     OW17320   2.565   0.027  13.189  0.0337  0.1119 -0.0034
 1953SOL    HW117321   2.643   0.056  13.142  2.0139 -1.5932  2.3019
 1953SOL    HW217322   2.520   4.711  13.115 -0.1666  0.9438 -0.3383
 1954SOL     OW17323   3.524   2.076   5.336 -0.6601 -0.1691 -0.0128
 1954SOL    HW117324   3.592   2.078   5.403 -1.1551  0.0525  0.4756
 1954SOL    HW217325   3.546   2.150   5.280  1.1459  0.0895  1.0400
 1955SOL     OW17326   0.956   3.108   7.339 -0.6824  0.9667 -0.3427
 1955SOL    HW117327   0.989   3.123   7.427 -1.4947  0.5068  0.0478
 1955SOL    HW217328   0.972   3.013   7.337 -0.4990  0.8942  3.7570
 1956SOL     OW17329   2.340   4.177   7.062  0.3353 -0.8754 -0.7620
 1956SOL    HW117330   2.279   4.113   7.098  1.2460 -0.9439  0.6973
 1956SOL    HW217331   2.289   4.243   7.016 -0.3017 -1.1010 -0.3751
 1957SOL     OW17332   4.214   4.595   2.250  0.0837 -0.4638  0.0011
 1957SOL    HW117333   4.284   4.597   2.185 -1.0137 -0.1968 -1.1851
 1957SOL    HW217334   4.194   4.502   2.255  2.1434 -1.1083 -3.3148
 1958SOL     OW17335   0.663   3.275   4.890  0.6279 -0.5026  0.0693
 1958SOL    HW117336   0.608   3.350   4.914 -0.0940 -0.8345 -0.5347
 1958SOL    HW217337   0.735   3.291   4.951  0.1045 -1.8670  1.0842
 1959SOL     OW17338   4.542   3.596   4.963 -0.1347 -0.0169 -0.3636
 1959SOL    HW117339   4.542   3.688   4.939 -0.7915  0.6318  2.1301
 1959SOL    HW217340   4.478   3.570   4.897 -0.1164  1.4355 -0.9497
 1960SOL     OW17341   1.085   4.110   4.888 -0.5067 -0.1509  0.5422
 1960SOL    HW117342   1.080   4.125   4.794 -2.0335 -0.4778  0.5762
 1960SOL    HW217343   1.053   4.020   4.886 -1.0231  0.0881 -1.8076
 1961SOL     OW17344   2.868   3.816   4.861 -0.5211 -0.4322 -0.0104
 1961SOL    HW117345   2.803   3.884   4.879 -0.9040 -1.4619  2.4483
 1961SOL    HW217346   2.854   3.756   4.933  0.3293 -2.1288 -1.2519
 1962SOL     OW17347   0.803   2.069   6.622  0.0317 -0.2479  0.0837
 1962SOL    HW117348   0.783   1.999   6.684 -1.2790  0.9748  1.0146
 1962SOL    HW217349   0.868   2.038   6.558  0.1056 -1.1434  0.5910
 1963SOL     OW17350   1.822   1.600   6.793  0.3361 -0.3440 -0.1038
 1963SOL    HW117351   1.840   1.575   6.702  0.3614  0.2312 -0.2559
 1963SOL    HW217352   1.835   1.511   6.828 -0.6141  0.3587  2.0468
 1964SOL     OW17353   2.397   4.499   5.538  0.5429 -0.6556 -1.0010
 1964SOL    HW117354   2.345   4.473   5.614  3.2450 -0.2995  0.9393
 1964SOL    HW217355   2.405   4.594   5.543  0.2061 -0.6129 -1.2663
 1965SOL     OW17356   2.045   2.439   2.846  0.1215  0.1111  0.3109
 1965SOL    HW117357   2.099   2.512   2.814  0.2326  0.5044  1.3844
 1965SOL    HW217358   2.113   2.376   2.869  0.8172  0.9021  0.4224
 1966SOL     OW17359   4.229   2.245   2.079 -0.5475 -0.4557 -0.1071
 1966SOL    HW117360   4.217   2.216   2.170  0.9023  0.1094  0.2618
 1966SOL    HW217361   4.140   2.231   2.046 -0.5027  2.4893 -1.4886
 1967SOL     OW17362   0.468   0.538   0.377  0.3739  0.0933  0.2818
 1967SOL    HW117363   0.442   0.574   0.462  1.7201  0.9146  0.3360
 1967SOL    HW217364   0.484   0.444   0.392 -0.1899 -0.2935 -1.4813
 1968SOL     OW17365   4.724   4.146   6.822  0.1417  0.0674 -0.5230
 1968SOL    HW117366   0.016   4.078   6.757  2.3424 -1.0490  1.2321
 1968SOL    HW217367   0.083   4.136   6.868 -1.7740  0.4651  3.0554
 1969SOL     OW17368   3.884   0.764   2.697 -0.5562  0.3091 -0.4842
 1969SOL    HW117369   3.882   0.844   2.749 -4.1259 -0.8770  1.2008
 1969SOL    HW217370   3.945   0.791   2.629 -0.4895  0.0309 -0.5338
 1970SOL     OW17371   2.550   2.914  11.463  0.4075 -0.0248  0.0755
 1970SOL    HW117372   2.607   2.988  11.443  0.2154 -0.4947 -2.2587
 1970SOL    HW217373   2.466   2.938  11.423  0.2640  0.1824  0.5006
 1971SOL     OW17374   4.322   3.419   4.187 -0.4731  0.0092 -0.3878
 1971SOL    HW117375   4.247   3.473   4.212 -0.8777 -0.6175 -0.2662
 1971SOL    HW217376   4.272   3.338   4.184 -2.6315  1.3040  0.7707
 1972SOL     OW17377   0.953   2.005  10.902  0.5253  0.3337  0.3976
 1972SOL    HW117378   0.964   2.091  10.943  0.8179  1.0664 -1.2565
 1972SOL    HW217379   1.022   1.964  10.954 -0.1055  1.2552  1.9666
 1973SOL     OW17380   0.833   4.237   6.807  0.0591  0.7301  0.0555
 1973SOL    HW117381   0.840   4.332   6.820  0.0579  0.5719  1.1631
 1973SOL    HW217382   0.904   4.225   6.743 -1.2922 -1.8398 -0.9344
 1974SOL     OW17383   4.566   3.313   6.572  0.4784 -0.1260 -0.3890
 1974SOL    HW117384   4.522   3.375   6.513 -2.5918 -0.9270  1.0479
 1974SOL    HW217385   4.618   3.279   6.499 -0.6896 -0.9512 -0.8426
 1975SOL     OW17386   3.001   2.967  16.139  0.0574 -0.0092 -0.4274
 1975SOL    HW117387   3.018   3.025  16.214 -0.5658 -1.5918  0.9395
 1975SOL    HW217388   2.929   2.917  16.178  0.3863 -0.8260 -0.8872
 1976SOL     OW17389   3.728   3.395   4.423  0.4542 -0.2386 -0.4701
 1976SOL    HW117390   3.649   3.388   4.476 -0.8494 -0.7879 -2.4786
 1976SOL    HW217391   3.689   3.424   4.341 -1.7302  1.0369  1.0367
 1977SOL     OW17392   2.676   0.004   6.000  0.4531 -0.1715  0.3472
 1977SOL    HW117393   2.695   4.703   6.090 -2.9631 -0.6815  0.9395
 1977SOL    HW217394   2.581   0.013   6.007  0.4593  0.6709 -0.6056
 1978SOL     OW17395   1.084   3.233   4.155  0.2380 -0.4009 -0.2191
 1978SOL    HW117396   1.132   3.316   4.159 -0.8292  0.2653 -1.2729
 1978SOL    HW217397   1.058   3.230   4.247 -0.7980 -0.3693 -0.5175
 1979SOL     OW17398   0.901   3.148   3.699  0.5196  0.2566 -0.1609
 1979SOL    HW117399   0.918   3.214   3.767  0.7862  0.9884 -0.9263
 1979SOL    HW217400   0.919   3.081   3.764  0.0647  0.2638 -0.0268
 1980SOL     OW17401   0.478   0.720   7.911 -0.0394 -0.3237  0.1408
 1980SOL    HW117402   0.510   0.794   7.859 -0.0174  1.2534  2.4188
 1980SOL    HW217403   0.384   0.725   7.892 -0.2532  0.1036  1.2954
 1981SOL     OW17404   1.159   3.455  15.258 -0.0526 -0.1011  0.4606
 1981SOL    HW117405   1.175   3.539  15.301 -0.1722 -0.8723  2.0438
 1981SOL    HW217406   1.203   3.391  15.314 -0.1889  1.2846  2.1443
 1982SOL     OW17407   4.397   2.810  14.689  0.6617 -0.2217  0.0073
 1982SOL    HW117408   4.341   2.878  14.725 -0.6947 -2.8454  2.8603
 1982SOL    HW217409   4.413   2.851  14.604  0.7978 -0.8577 -0.2763
 1983SOL     OW17410   4.575   1.531   2.788  0.7814  0.5371  0.3279
 1983SOL    HW117411   4.498   1.504   2.736  0.7173  0.6399  0.3693
 1983SOL    HW217412   4.597   1.603   2.729  0.2040  0.0551 -0.4838
 1984SOL     OW17413   2.428   2.957   0.285  0.3159 -0.2814 -0.2080
 1984SOL    HW117414   2.450   2.980   0.375 -2.7509  2.6533 -0.2289
 1984SOL    HW217415   2.475   2.874   0.280  0.3725 -0.2668  0.0914
 1985SOL     OW17416   2.885   0.375   2.396  0.2969 -0.9731 -0.1285
 1985SOL    HW117417   2.807   0.427   2.382 -0.4861 -1.7916  1.1239
 1985SOL    HW217418   2.955   0.440   2.400 -0.3661 -0.2798 -0.0313
 1986SOL     OW17419   4.125   2.226   5.006 -0.2699 -0.8547  0.2757
 1986SOL    HW117420   4.191   2.203   4.941  1.6392  0.0960  1.8883
 1986SOL    HW217421   4.045   2.216   4.953  0.7800 -1.7624 -1.1581
 1987SOL     OW17422   2.233   4.139   5.823 -0.2927  0.2885  0.0164
 1987SOL    HW117423   2.310   4.151   5.768  0.5005 -0.7815  0.8940
 1987SOL    HW217424   2.274   4.080   5.886 -1.2554 -1.2796 -0.8089
 1988SOL     OW17425   2.195   0.997   3.713  0.1317 -0.6123 -0.0306
 1988SOL    HW117426   2.206   1.067   3.649  2.5252 -1.1309 -0.1991
 1988SOL    HW217427   2.287   0.977   3.733  0.9000  1.3623 -1.5177
 1989SOL     OW17428   3.352   1.008   2.930 -0.1478  0.1790 -0.0839
 1989SOL    HW117429   3.311   1.054   2.857 -1.9827  1.5248  1.7744
 1989SOL    HW217430   3.292   1.038   2.999 -1.4529 -1.5178 -0.4725
 1990SOL     OW17431   2.419   4.234   7.713  0.5249  0.3819 -0.4953
 1990SOL    HW117432   2.374   4.299   7.768 -0.2689 -1.6281  1.2447
 1990SOL    HW217433   2.347   4.173   7.699 -1.7371  3.3701 -2.0472
 1991SOL     OW17434   0.864   3.686   6.470 -0.2723 -0.5169 -0.5505
 1991SOL    HW117435   0.856   3.778   6.445 -1.0081 -0.4499 -0.0732
 1991SOL    HW217436   0.783   3.671   6.518  0.3584  3.1709  1.7590
 1992SOL     OW17437   2.282   3.402   6.295  0.1952  0.2695  0.1697
 1992SOL    HW117438   2.360   3.449   6.265 -0.0601  0.9647  0.5958
 1992SOL    HW217439   2.211   3.452   6.255  0.7107  0.2417 -0.7868
 1993SOL     OW17440   4.384   1.686   0.890 -0.2735 -0.1472  0.1391
 1993SOL    HW117441   4.479   1.685   0.880 -0.3441 -1.9048 -0.1867
 1993SOL    HW217442   4.350   1.613   0.838  1.5498 -0.1484 -1.0367
 1994SOL     OW17443   0.965   3.349   3.931 -0.3990  0.0982  0.2064
 1994SOL    HW117444   1.015   3.315   4.005  2.4144 -1.6770 -2.5136
 1994SOL    HW217445   1.010   3.432   3.914 -0.1200  0.0223  0.5812
 1995SOL     OW17446   1.633   2.251  15.677  0.4682  0.2598  0.1124
 1995SOL    HW117447   1.687   2.323  15.709  0.2139  0.7795 -0.6130
 1995SOL    HW217448   1.604   2.221  15.763  1.4231  0.1459  0.3968
 1996SOL     OW17449   3.792   3.627   2.203  0.4797 -0.2960  0.5989
 1996SOL    HW117450   3.839   3.631   2.286  1.4806  0.0170  0.0097
 1996SOL    HW217451   3.768   3.535   2.212 -1.4012  0.0080 -1.1040
 1997SOL     OW17452   2.866   0.823   1.688  0.2259  0.2123  0.0584
 1997SOL    HW117453   2.813   0.901   1.673  1.1983  0.7999 -0.3191
 1997SOL    HW217454   2.924   0.850   1.760 -1.8304 -0.0016  1.7952
 1998SOL     OW17455   0.073   3.081   7.526 -0.0598 -0.1762 -0.0483
 1998SOL    HW117456   0.082   3.084   7.622  1.8004 -0.6526 -0.2147
 1998SOL    HW217457   0.149   3.031   7.496  0.6449  0.4968  0.6136
 1999SOL     OW17458   3.439   1.248  11.359  0.2137 -0.6730 -0.1182
 1999SOL    HW117459   3.398   1.334  11.351 -1.1370 -1.4077 -1.1137
 1999SOL    HW217460   3.364   1.197  11.390 -0.1211 -0.0967  0.0317
 2000SOL     OW17461   2.568   2.455   5.892  0.4455 -0.7263  0.6668
 2000SOL    HW117462   2.624   2.489   5.822  0.3612 -0.7995  0.5638
 2000SOL    HW217463   2.515   2.534   5.900  1.1322 -0.1053 -0.7105
 2001SOL     OW17464   0.020   0.121  12.799  0.0828  0.0065  0.1827
 2001SOL    HW117465   0.109   0.157  12.800 -0.4212  1.2221  0.7963
 2001SOL    HW217466   0.010   0.094  12.890 -2.7511  1.8569  0.4186
 2002SOL     OW17467   2.838   2.889   5.724  0.2887  0.6692  0.4559
 2002SOL    HW117468   2.891   2.932   5.657 -0.9619  1.9144  0.2668
 2002SOL    HW217469   2.824   2.804   5.682  1.4827  0.6517  0.0783
 2003SOL     OW17470   3.909   4.063   4.775  0.5828 -0.1910  0.7779
 2003SOL    HW117471   3.839   4.099   4.721  0.9210 -0.8039 -0.0680
 2003SOL    HW217472   3.865   4.090   4.856  0.2945 -1.7226  1.1232
 2004SOL     OW17473   4.037   2.977   3.156 -0.1042 -0.7134 -0.0082
 2004SOL    HW117474   4.113   3.011   3.107 -0.8231 -0.8004 -1.1769
 2004SOL    HW217475   3.988   2.936   3.085 -0.6079 -2.1427  1.1814
 2005SOL     OW17476   0.565   3.597   2.286 -0.5471 -0.0449  0.1611
 2005SOL    HW117477   0.503   3.633   2.349 -1.9992 -0.9235 -0.7544
 2005SOL    HW217478   0.592   3.523   2.341 -1.3039  0.5821  1.3544
 2006SOL     OW17479   0.363   1.587  13.472 -0.3231  0.4475  0.0753
 2006SOL    HW117480   0.297   1.555  13.533  1.5923 -3.0388  0.3023
 2006SOL    HW217481   0.414   1.507  13.457 -1.7724 -0.4021 -0.2471
 2007SOL     OW17482   0.626   4.161  13.911  0.1221 -0.0207 -0.3196
 2007SOL    HW117483   0.588   4.211  13.839 -0.2180  0.5245  0.2348
 2007SOL    HW217484   0.680   4.229  13.950  0.0607 -0.3576  0.3530
 2008SOL     OW17485   4.431   0.504   5.966 -0.1115 -0.3166 -0.3725
 2008SOL    HW117486   4.485   0.493   6.044 -0.4264  1.3806  0.0754
 2008SOL    HW217487   4.458   0.426   5.917 -1.6695 -1.2885  0.3062
 2009SOL     OW17488   2.516   0.803  15.011 -0.0120  0.1285 -0.6778
 2009SOL    HW117489   2.509   0.834  15.101  1.8686 -0.0224 -0.4927
 2009SOL    HW217490   2.529   0.887  14.967 -0.6269 -0.0223 -1.1478
 2010SOL     OW17491   1.939   3.604   3.519  0.4732  0.0585  0.2457
 2010SOL    HW117492   1.921   3.649   3.436 -1.2697  0.3555  0.7824
 2010SOL    HW217493   1.954   3.682   3.572  2.5872 -0.0468 -0.2221
 2011SOL     OW17494   4.253   0.029   1.867 -0.3239  0.6753 -0.3042
 2011SOL    HW117495   4.327   0.009   1.924 -0.9835  1.5094  0.8439
 2011SOL    HW217496   4.199   0.089   1.918 -0.8111 -0.8844  1.0062
 2012SOL     OW17497   3.557   0.566   9.438  0.5097  0.6835  0.5219
 2012SOL    HW117498   3.613   0.489   9.439  1.2659  1.2389  0.5419
 2012SOL    HW217499   3.617   0.630   9.401 -1.1403  2.9541  1.7890
 2013SOL     OW17500   4.266   1.320  12.049  0.0388 -0.2857 -0.5949
 2013SOL    HW117501   4.200   1.267  12.093 -0.5516 -0.7865 -2.0905
 2013SOL    HW217502   4.207   1.391  12.022 -1.4169 -0.7499  1.3371
 2014SOL     OW17503   2.109   4.283   3.506 -0.2274 -0.4976 -0.8229
 2014SOL    HW117504   2.106   4.285   3.602  1.1618 -0.8420 -0.7783
 2014SOL    HW217505   2.132   4.191   3.497 -0.0596 -0.6717  1.4571
 2015SOL     OW17506   0.562   0.865  13.900 -0.5048 -0.6425  0.0252
 2015SOL    HW117507   0.626   0.810  13.944  0.4483  0.9666  0.6497
 2015SOL    HW217508   0.501   0.897  13.968 -1.5017  0.1682 -1.2415
 2016SOL     OW17509   2.634   0.497  16.561 -0.6392  0.5033  0.4525
 2016SOL    HW117510   2.684   0.427  16.520 -1.5486  1.4513 -2.2684
 2016SOL    HW217511   2.694   0.535  16.626 -1.0212 -1.6607  2.0794
 2017SOL     OW17512   4.203   1.434  17.165 -0.3993 -0.3462  0.5455
 2017SOL    HW117513   4.200   1.344  17.199  1.4832 -1.4081 -2.1037
 2017SOL    HW217514   4.298   1.439  17.174 -0.0591 -1.1335 -2.5975
 2018SOL     OW17515   3.664   0.331   8.165 -0.4207  0.1775  0.0109
 2018SOL    HW117516   3.663   0.414   8.117  1.6685  0.5112  0.5378
 2018SOL    HW217517   3.570   0.318   8.174 -0.3389 -1.1888 -1.2481
 2019SOL     OW17518   3.741   2.774   4.085  0.3384 -0.4950 -0.0392
 2019SOL    HW117519   3.654   2.762   4.046 -0.3436  0.2684  1.2541
 2019SOL    HW217520   3.731   2.743   4.175 -1.5004 -0.2625 -0.1567
 2020SOL     OW17521   0.633   0.278   2.261  0.2259  0.0589  0.0061
 2020SOL    HW117522   0.621   0.295   2.168  0.6902  2.0940  0.3210
 2020SOL    HW217523   0.629   0.367   2.296 -0.6811  0.3314 -0.7826
 2021SOL     OW17524   2.238   0.068   9.003  0.4323 -0.5688  0.2681
 2021SOL    HW117525   2.251   0.124   8.926 -0.4891 -1.1857 -0.3428
 2021SOL    HW217526   2.148   0.089   9.028 -0.2103 -1.6352 -1.1078
 2022SOL     OW17527   0.598   4.611   0.091 -0.2872 -0.0883 -0.0474
 2022SOL    HW117528   0.596   4.663   0.011  1.3372 -1.3843 -0.9227
 2022SOL    HW217529   0.641   4.532   0.060  0.6031  0.7762 -0.9921
 2023SOL     OW17530   4.615   2.557  16.979  0.0474  0.1523  0.1406
 2023SOL    HW117531   4.684   2.538  16.916 -0.5412  0.3443 -0.5624
 2023SOL    HW217532   4.547   2.561  16.912 -0.6406 -1.4421  0.7340
 2024SOL     OW17533   3.388   0.491  15.140 -0.0962  0.4152  0.1758
 2024SOL    HW117534   3.407   0.580  15.170 -0.3316  0.3472  0.5189
 2024SOL    HW217535   3.341   0.457  15.216  0.0149  0.3197  0.2003
 2025SOL     OW17536   1.850   3.308  14.742  0.4984  0.0446 -0.3322
 2025SOL    HW117537   1.760   3.275  14.752  0.8331 -0.8157 -0.1457
 2025SOL    HW217538   1.891   3.284  14.825 -0.9477 -0.4639  0.2309
 2026SOL     OW17539   2.974   3.327   7.872 -0.2720  0.1210 -0.1863
 2026SOL    HW117540   2.994   3.325   7.965 -0.7501  0.7796 -0.0762
 2026SOL    HW217541   2.879   3.337   7.876 -0.1712  0.2590  1.5148
 2027SOL     OW17542   1.269   1.374   7.417  0.4429 -0.2432  0.2585
 2027SOL    HW117543   1.239   1.285   7.400  1.8884 -0.4871 -0.9271
 2027SOL    HW217544   1.196   1.425   7.452  0.2019 -1.2171  1.1841
 2028SOL     OW17545   3.529   1.228   6.509  0.3140  0.3673 -0.2610
 2028SOL    HW117546   3.489   1.254   6.426  1.6122  2.3453 -0.2554
 2028SOL    HW217547   3.462   1.255   6.571  1.1123 -1.7250  1.5116
 2029SOL     OW17548   2.066   3.184   0.910 -0.3034  0.5045 -0.2691
 2029SOL    HW117549   1.979   3.214   0.884 -0.9229 -0.8461  0.2461
 2029SOL    HW217550   2.060   3.091   0.889  2.2106  0.3515 -0.2953
 2030SOL     OW17551   3.705   3.960  10.980  0.5692 -0.2339 -0.1524
 2030SOL    HW117552   3.700   4.055  10.994  1.0925  0.1461 -2.4764
 2030SOL    HW217553   3.776   3.934  11.039  1.1867  0.4247 -0.6020
 2031SOL     OW17554   2.981   3.786   4.208  0.2531  0.2463 -0.0751
 2031SOL    HW117555   3.007   3.763   4.297  0.9573 -1.8731 -0.8346
 2031SOL    HW217556   2.921   3.854   4.239 -0.2518 -0.3031  0.1472
 2032SOL     OW17557   1.321   3.580   6.437 -0.3548  0.0644 -0.4745
 2032SOL    HW117558   1.353   3.551   6.352 -1.0780  1.1643 -1.1202
 2032SOL    HW217559   1.226   3.568   6.430 -0.5402  1.8592 -0.8972
 2033SOL     OW17560   0.806   2.771   5.222  0.4624  0.7263 -0.1609
 2033SOL    HW117561   0.782   2.730   5.305 -1.2421  0.4914 -0.7621
 2033SOL    HW217562   0.779   2.862   5.234  2.5615  1.4184 -0.7376
 2034SOL     OW17563   0.249   3.710   0.684  0.2041  0.3173 -0.2047
 2034SOL    HW117564   0.316   3.670   0.740 -1.1604 -3.0380 -0.9466
 2034SOL    HW217565   0.302   3.741   0.610 -2.7480  0.7121 -2.1565
 2035SOL     OW17566   4.265   1.600   8.684  0.3850  0.2250 -0.0756
 2035SOL    HW117567   4.192   1.579   8.741  0.4699 -2.6717 -1.0245
 2035SOL    HW217568   4.231   1.545   8.613 -0.3691  1.5502 -0.7410
 2036SOL     OW17569   4.611   4.123  15.080 -0.4529  0.4916  0.2913
 2036SOL    HW117570   4.637   4.081  15.162 -0.8200 -1.1771 -0.4499
 2036SOL    HW217571   4.532   4.072  15.062 -1.0985  1.3610  0.5939
 2037SOL     OW17572   3.860   2.591   9.221  0.7044 -0.1976 -0.1111
 2037SOL    HW117573   3.817   2.603   9.306  0.4979 -0.9208 -0.1172
 2037SOL    HW217574   3.848   2.497   9.209 -1.4877 -0.1143  1.3107
 2038SOL     OW17575   3.051   1.972   6.432 -0.4095 -0.1330 -0.0669
 2038SOL    HW117576   3.065   1.884   6.467  0.4677  0.1283  0.2548
 2038SOL    HW217577   3.024   2.016   6.513 -0.1605  1.4414 -0.8317
 2039SOL     OW17578   0.448   0.432   3.327  0.1587 -0.4622 -0.6017
 2039SOL    HW117579   0.358   0.460   3.338  0.1038 -1.1484  0.7528
 2039SOL    HW217580   0.497   0.513   3.340  0.3225 -0.8639  1.4393
 2040SOL     OW17581   4.383   0.736  13.370  0.1891  0.3964  0.3775
 2040SOL    HW117582   4.388   0.737  13.465  0.4723 -0.2699  0.3734
 2040SOL    HW217583   4.301   0.690  13.350  0.4168  0.6473 -1.1678
 2041SOL     OW17584   0.717   2.766   6.874 -0.0341 -0.7738  0.3702
 2041SOL    HW117585   0.758   2.691   6.831  2.5276  0.5052  0.6249
 2041SOL    HW217586   0.699   2.733   6.963  0.9460 -1.3287  0.3600
 2042SOL     OW17587   3.767   1.273  16.048  0.3167  0.0511 -0.0056
 2042SOL    HW117588   3.712   1.321  15.986  2.4117 -0.5411 -2.3577
 2042SOL    HW217589   3.747   1.181  16.031  0.9746  0.1531 -1.3699
 2043SOL     OW17590   4.226   4.064  13.940 -0.8437  0.3950 -0.5001
 2043SOL    HW117591   4.252   4.133  14.000  0.8033 -0.4510 -0.2288
 2043SOL    HW217592   4.294   4.082  13.875 -0.8025 -0.6584 -0.7592
 2044SOL     OW17593   1.422   2.418   9.641  0.4355 -0.4133  0.2928
 2044SOL    HW117594   1.468   2.441   9.560 -0.3356 -0.9948 -0.3093
 2044SOL    HW217595   1.397   2.507   9.667 -0.3703 -0.9711  1.4394
 2045SOL     OW17596   0.124   4.646   6.838 -0.4037  0.0581 -0.1659
 2045SOL    HW117597   0.187   4.620   6.905  0.8184  1.2819 -0.8245
 2045SOL    HW217598   0.165   0.000   6.802  1.7036 -0.0299  2.0280
 2046SOL     OW17599   3.233   0.803   3.433 -0.6055 -0.0421  0.0315
 2046SOL    HW117600   3.167   0.749   3.475  0.0784 -0.7916  0.1293
 2046SOL    HW217601   3.282   0.840   3.506  0.3865  0.5910 -0.9511
 2047SOL     OW17602   2.973   2.901   8.471 -0.2902 -0.0198 -0.3388
 2047SOL    HW117603   2.991   2.807   8.465  1.3841  0.4244 -2.3268
 2047SOL    HW217604   3.046   2.949   8.431  0.8629  0.9268  2.8933
 2048SOL     OW17605   3.277   3.147  15.040  0.9404  0.0682 -0.0535
 2048SOL    HW117606   3.286   3.091  14.963 -3.5564 -0.0267 -0.5151
 2048SOL    HW217607   3.317   3.220  14.992 -0.2109 -0.3245 -1.6143
 2049SOL     OW17608   1.165   3.777   4.565 -0.2646  0.4143  1.3756
 2049SOL    HW117609   1.244   3.723   4.566  0.9507  2.1825  3.1581
 2049SOL    HW217610   1.110   3.714   4.612  1.0180 -0.4783  1.6725
 2050SOL     OW17611   0.707   1.911   1.736  1.0111  0.1583 -0.0289
 2050SOL    HW117612   0.671   1.874   1.655  0.7670 -0.4903  0.3774
 2050SOL    HW217613   0.713   2.005   1.717 -1.5299  0.5720  1.1527
 2051SOL     OW17614   0.919   0.624   8.511 -0.1658  0.0815 -0.1032
 2051SOL    HW117615   0.981   0.629   8.583 -0.4466 -2.1605  0.3136
 2051SOL    HW217616   0.958   0.694   8.458 -0.2049  0.7112  0.7031
 2052SOL     OW17617   2.915   0.353  14.404 -0.1435  0.3628 -0.4579
 2052SOL    HW117618   3.010   0.369  14.401  0.1392 -1.3234 -0.2037
 2052SOL    HW217619   2.913   0.261  14.431 -0.2498  0.2426 -0.8709
 2053SOL     OW17620   4.606   4.368  16.405 -0.5596  0.1258 -0.1550
 2053SOL    HW117621   4.525   4.410  16.434 -0.0631  0.5527  0.5948
 2053SOL    HW217622   4.595   4.391  16.313 -1.7541  0.3739  0.0533
 2054SOL     OW17623   0.410   3.775  15.060  0.2712  0.3515  0.2915
 2054SOL    HW117624   0.420   3.843  14.994 -3.0885 -0.1549 -0.7402
 2054SOL    HW217625   0.400   3.698  15.003  2.6283 -0.4505  0.9553
 2055SOL     OW17626   1.485   1.128   8.201  0.8318  0.4433  0.5043
 2055SOL    HW117627   1.495   1.223   8.195  0.3934  0.4000 -0.8255
 2055SOL    HW217628   1.425   1.109   8.130  0.2099 -1.5054  1.5316
 2056SOL     OW17629   3.830   0.092   1.932 -0.2186 -0.0496 -0.2763
 2056SOL    HW117630   3.773   0.038   1.878 -2.4960  1.0245  1.0439
 2056SOL    HW217631   3.898   0.118   1.869  0.8194  0.4602  1.0358
 2057SOL     OW17632   0.773   4.695   4.610 -0.5409 -0.1992 -0.1811
 2057SOL    HW117633   0.728   0.054   4.622 -0.3241  0.0282 -0.9428
 2057SOL    HW217634   0.751   4.648   4.690 -2.3837  1.2912  0.1714
 2058SOL     OW17635   1.911   2.017   3.656 -0.3622 -0.2397  0.0584
 2058SOL    HW117636   1.891   1.932   3.695  0.0340 -1.1488 -1.7365
 2058SOL    HW217637   1.867   2.006   3.572  0.9040  0.1169 -0.6427
 2059SOL     OW17638   3.087   2.712  15.759  0.4941 -0.4865 -0.1853
 2059SOL    HW117639   3.124   2.678  15.677 -4.2725 -1.2030 -2.0426
 2059SOL    HW217640   3.021   2.643  15.766 -1.3411  1.3109  0.1550
 2060SOL     OW17641   3.651   3.891   3.919  0.1626 -0.8009  0.5261
 2060SOL    HW117642   3.695   3.808   3.937  0.6316 -0.9282 -1.1804
 2060SOL    HW217643   3.568   3.855   3.886  0.2770 -0.0034 -0.6413
 2061SOL     OW17644   3.677   4.547   7.731 -0.4604 -0.2978  0.2509
 2061SOL    HW117645   3.715   4.578   7.813  0.3291 -0.2660 -0.1244
 2061SOL    HW217646   3.745   4.586   7.675  0.2805  0.1879  1.4791
 2062SOL     OW17647   1.508   2.475   9.388  0.1153  0.2013  0.5053
 2062SOL    HW117648   1.419   2.452   9.362  0.3260  0.7392 -0.7169
 2062SOL    HW217649   1.538   2.520   9.309 -3.7734  2.7766  0.4728
 2063SOL     OW17650   1.232   3.311  15.480  0.2834  0.4237 -0.2056
 2063SOL    HW117651   1.257   3.220  15.494  0.9968  0.2983 -2.2323
 2063SOL    HW217652   1.288   3.368  15.533  0.7037 -1.3816  1.2733
 2064SOL     OW17653   0.258   2.038  13.645 -0.4994 -0.2165  0.1052
 2064SOL    HW117654   0.301   2.115  13.608 -1.0285  0.3428  0.6349
 2064SOL    HW217655   0.259   1.976  13.572 -1.3182 -0.3866  0.2381
 2065SOL     OW17656   3.693   1.964   3.971 -0.5271  0.3098 -0.5316
 2065SOL    HW117657   3.625   2.031   3.964 -0.0658  0.8743  0.5009
 2065SOL    HW217658   3.765   2.006   3.924  0.0720 -1.1364 -0.9198
 2066SOL     OW17659   1.951   0.799   5.415  0.5321 -0.3539  0.1798
 2066SOL    HW117660   2.038   0.785   5.452  0.1768  1.1957  1.6086
 2066SOL    HW217661   1.903   0.830   5.492 -0.7095 -2.2302  0.1556
 2067SOL     OW17662   2.238   0.659   6.704 -0.2960 -0.6696 -0.4787
 2067SOL    HW117663   2.155   0.691   6.741  0.4725  3.4449 -2.3142
 2067SOL    HW217664   2.305   0.693   6.763  0.2191  0.2392 -1.5820
 2068SOL     OW17665   3.374   2.626   2.501 -0.5617  0.1197 -0.1606
 2068SOL    HW117666   3.446   2.624   2.438 -0.9001  2.9397 -0.6187
 2068SOL    HW217667   3.397   2.543   2.543 -0.5796  0.9897  1.5384
 2069SOL     OW17668   1.196   3.080   9.856 -0.4113  0.2951  0.8657
 2069SOL    HW117669   1.116   3.046   9.816 -0.4242  0.9201  0.3682
 2069SOL    HW217670   1.179   3.174   9.858  0.5001  0.4922 -1.1601
 2070SOL     OW17671   1.032   3.387   5.635 -0.3398 -0.9832 -0.3098
 2070SOL    HW117672   0.988   3.325   5.693  0.1236 -1.1087 -0.0900
 2070SOL    HW217673   0.952   3.433   5.611  1.1279  2.5030  1.4284
 2071SOL     OW17674   0.337   4.112  10.086  0.0430 -0.4513 -0.3833
 2071SOL    HW117675   0.270   4.051  10.116 -0.5160  0.2697 -0.1739
 2071SOL    HW217676   0.373   4.063  10.013  0.1762  1.0507 -1.3233
 2072SOL     OW17677   0.034   4.600   5.755 -0.2176  0.7738 -0.1684
 2072SOL    HW117678   4.705   4.639   5.824  0.7797  2.1660 -0.1744
 2072SOL    HW217679   0.082   4.676   5.721  0.8674  0.1934  0.0534
 2073SOL     OW17680   1.980   2.213   8.375  0.6552 -0.1600  0.2758
 2073SOL    HW117681   2.008   2.182   8.461  1.6983 -1.2450 -0.4737
 2073SOL    HW217682   2.003   2.306   8.370  0.2908 -0.1758 -1.6992
 2074SOL     OW17683   3.322   2.373   7.574  0.5109 -0.6842 -0.0047
 2074SOL    HW117684   3.298   2.321   7.651 -1.4781 -1.4697 -1.1466
 2074SOL    HW217685   3.417   2.365   7.577  0.6701  0.7639 -0.9098
 2075SOL     OW17686   1.005   3.556   1.362 -0.4928  0.9556  0.4032
 2075SOL    HW117687   1.045   3.501   1.429  0.2652 -0.8215 -1.4928
 2075SOL    HW217688   0.913   3.538   1.383 -0.8212  0.5193 -1.3721
 2076SOL     OW17689   3.716   4.131  17.127  0.1628  0.0648 -0.1900
 2076SOL    HW117690   3.791   4.119  17.185  0.7652 -0.7646 -1.1379
 2076SOL    HW217691   3.639   4.115  17.181  0.7242  2.5221  1.3488
 2077SOL     OW17692   1.467   4.206  10.422 -0.4562 -0.2442  0.2973
 2077SOL    HW117693   1.431   4.280  10.373  1.2958  0.6576  0.3783
 2077SOL    HW217694   1.466   4.140  10.353  0.8877 -1.0589  1.0758
 2078SOL     OW17695   1.479   0.061   2.878  0.0851  0.1378  0.0230
 2078SOL    HW117696   1.484   0.073   2.783  0.6041  0.9407  0.1530
 2078SOL    HW217697   1.522   0.141   2.906 -2.4954  1.8727 -0.9050
 2079SOL     OW17698   0.585   4.142   8.113  0.0284 -0.0152  0.5099
 2079SOL    HW117699   0.627   4.187   8.040 -0.6183  0.1967  0.2684
 2079SOL    HW217700   0.630   4.186   8.185  0.8451  3.6491 -2.2408
 2080SOL     OW17701   1.265   0.347   3.874 -0.1995 -0.5238  0.2961
 2080SOL    HW117702   1.215   0.269   3.897 -0.5827 -0.2272  0.4649
 2080SOL    HW217703   1.269   0.334   3.779  0.1738 -0.6304  0.3266
 2081SOL     OW17704   1.620   3.384   3.263  0.3432 -0.4531  0.0716
 2081SOL    HW117705   1.712   3.358   3.255 -0.3556 -2.7254 -0.6248
 2081SOL    HW217706   1.593   3.388   3.171  2.0386  1.3889 -0.3479
 2082SOL     OW17707   2.233   3.664   3.275 -0.2345 -0.3246  0.0059
 2082SOL    HW117708   2.152   3.692   3.232 -0.0497 -0.4793 -0.4387
 2082SOL    HW217709   2.215   3.681   3.368  0.9555  1.7967 -0.1718
 2083SOL     OW17710   3.710   4.263  15.213  0.2086 -0.2725 -0.5890
 2083SOL    HW117711   3.644   4.276  15.281  1.4982  0.6009  0.4879
 2083SOL    HW217712   3.787   4.249  15.269 -0.1644 -1.0779 -0.2721
 2084SOL     OW17713   1.885   3.335   3.246 -0.3648 -0.6019 -0.3943
 2084SOL    HW117714   1.935   3.263   3.207  0.1782  1.0476 -2.7748
 2084SOL    HW217715   1.885   3.402   3.177  0.3206 -1.9532 -1.7227
 2085SOL     OW17716   4.591   1.814   3.452 -0.2776 -0.1593  0.1303
 2085SOL    HW117717   4.604   1.817   3.547  1.2996  0.1659 -0.1021
 2085SOL    HW217718   4.506   1.773   3.435  0.7458 -0.7814 -3.5023
 2086SOL     OW17719   3.662   3.485   6.040  0.2376  0.1028  0.0665
 2086SOL    HW117720   3.658   3.443   6.125  2.1717  1.3120  0.7371
 2086SOL    HW217721   3.678   3.575   6.069  2.9171  0.2688 -1.9304
 2087SOL     OW17722   2.338   2.332   1.492 -0.0448  0.5985  0.7719
 2087SOL    HW117723   2.252   2.298   1.468  0.1669  1.8662 -1.8948
 2087SOL    HW217724   2.327   2.408   1.550 -1.6400  1.2209 -0.3360
 2088SOL     OW17725   4.265   1.215  10.079  0.0774 -0.7609 -0.3959
 2088SOL    HW117726   4.200   1.213  10.150 -0.1359 -0.4030 -0.5779
 2088SOL    HW217727   4.338   1.177  10.127  0.3066  0.2431  0.0475
 2089SOL     OW17728   1.320   0.177   2.017 -0.2883 -0.6109 -0.2480
 2089SOL    HW117729   1.327   0.088   1.982  1.0351 -1.3945  2.0120
 2089SOL    HW217730   1.398   0.182   2.072 -1.3666  0.6131  1.1487
 2090SOL     OW17731   4.108   4.690   5.664  0.1102  0.0171  0.2480
 2090SOL    HW117732   4.033   0.023   5.652 -0.1323 -0.5424 -0.9344
 2090SOL    HW217733   4.069   4.603   5.665  0.1690  0.0059  1.5619
 2091SOL     OW17734   3.134   0.505   8.322 -0.1093  0.1103 -0.3676
 2091SOL    HW117735   3.144   0.575   8.386 -1.5343  1.0863 -1.2091
 2091SOL    HW217736   3.224   0.476   8.306  0.5459  1.5727  0.6566
 2092SOL     OW17737   4.297   3.354  10.654 -0.4291  0.8163  0.2338
 2092SOL    HW117738   4.382   3.320  10.627  0.0271  0.9841  1.4323
 2092SOL    HW217739   4.245   3.278  10.681  1.6692 -0.6113  0.3462
 2093SOL     OW17740   0.535   2.394  14.633 -0.1389 -0.1802  0.7138
 2093SOL    HW117741   0.471   2.402  14.562 -0.3650  0.3225  0.9713
 2093SOL    HW217742   0.534   2.484  14.665 -0.0013 -0.5744  1.8095
 2094SOL     OW17743   0.198   4.345   7.475  0.4597  0.5738  0.3931
 2094SOL    HW117744   0.223   4.295   7.398 -1.2467  0.5717 -0.1575
 2094SOL    HW217745   0.256   4.312   7.543  0.8277  1.4835  0.5210
 2095SOL     OW17746   4.719   0.715   5.327  0.0973  0.1453 -0.1806
 2095SOL    HW117747   4.631   0.719   5.365 -0.2130 -2.0498 -0.6405
 2095SOL    HW217748   4.713   0.653   5.254  2.5366 -1.4882  1.0231
 2096SOL     OW17749   1.746   1.444  12.007  0.4053  0.5891 -0.1809
 2096SOL    HW117750   1.708   1.523  12.045 -0.1140  0.4372 -0.3873
 2096SOL    HW217751   1.697   1.377  12.053 -0.9430  1.0221 -0.9950
 2097SOL     OW17752   0.324   1.449   9.600  0.9346  0.6040 -0.0963
 2097SOL    HW117753   0.398   1.413   9.649  0.6140  0.5633  0.3580
 2097SOL    HW217754   0.363   1.523   9.552  3.4364 -0.4287  0.3086
 2098SOL     OW17755   2.859   1.120   2.620  0.3291  0.0789  0.2433
 2098SOL    HW117756   2.905   1.044   2.656 -0.5159  0.9531  3.1049
 2098SOL    HW217757   2.898   1.108   2.533  0.5749 -0.9378  0.4921
 2099SOL     OW17758   4.045   1.956   3.235  0.2775 -0.0446 -0.1743
 2099SOL    HW117759   4.014   2.011   3.307  2.0072  2.0453 -1.0103
 2099SOL    HW217760   4.072   2.015   3.165 -0.2578 -1.0951 -1.2533
 2100SOL     OW17761   2.098   2.497   0.178  0.0375  0.0319 -1.1172
 2100SOL    HW117762   2.064   2.474   0.092 -0.7713  0.1127 -0.8110
 2100SOL    HW217763   2.060   2.425   0.227 -0.6721  0.0159 -1.6978
 2101SOL     OW17764   2.881   3.198  16.043 -0.5933  0.0450  0.2569
 2101SOL    HW117765   2.918   3.160  16.123 -0.6935 -1.4084 -0.3785
 2101SOL    HW217766   2.963   3.218  15.997 -1.5073  0.3448 -1.2375
 2102SOL     OW17767   1.758   1.841   2.659  0.3158 -0.4939 -0.4097
 2102SOL    HW117768   1.707   1.894   2.598  0.0793  1.7789  1.7691
 2102SOL    HW217769   1.828   1.903   2.680  0.2757  0.0938 -2.0037
 2103SOL     OW17770   3.670   1.556   3.001 -0.0056  0.1433  0.6555
 2103SOL    HW117771   3.630   1.488   2.948  1.5567  0.8531 -1.4548
 2103SOL    HW217772   3.696   1.508   3.080  1.7360  0.5987  0.3749
 2104SOL     OW17773   3.226   1.345   9.209 -0.6319 -0.2583  0.0073
 2104SOL    HW117774   3.225   1.410   9.279 -0.5920 -1.5348  1.2060
 2104SOL    HW217775   3.220   1.396   9.128  3.3752  1.1545  0.5936
 2105SOL     OW17776   2.400   2.485   7.588 -0.1733  0.1353 -0.2335
 2105SOL    HW117777   2.469   2.462   7.649 -1.3057  1.6342  1.6037
 2105SOL    HW217778   2.455   2.531   7.524 -2.1593  3.2636  0.3169
 2106SOL     OW17779   2.449   3.267  12.665 -0.3069 -0.3997 -0.7200
 2106SOL    HW117780   2.524   3.235  12.715 -0.4720  1.4935  0.7467
 2106SOL    HW217781   2.459   3.362  12.667  2.6044 -0.6820 -1.9761
 2107SOL     OW17782   0.377   0.636   8.881 -0.4865  0.3799 -0.3719
 2107SOL    HW117783   0.471   0.657   8.885  0.3561 -3.5557  0.5562
 2107SOL    HW217784   0.376   0.540   8.879  0.5886  0.3729 -0.5285
 2108SOL     OW17785   0.706   4.487  14.357 -0.1931  0.2217  0.0944
 2108SOL    HW117786   0.782   4.445  14.397 -1.0943 -0.9111  0.6139
 2108SOL    HW217787   0.643   4.479  14.428  0.8595  1.8067  1.1734
 2109SOL     OW17788   2.009   1.932  16.296 -0.8046 -0.2373 -0.1146
 2109SOL    HW117789   1.950   1.860  16.272  1.1414 -1.6818 -0.5794
 2109SOL    HW217790   2.068   1.933  16.221  0.2236  0.4620  0.7016
 2110SOL     OW17791   3.582   1.765   5.302 -0.0491 -0.1880 -0.2744
 2110SOL    HW117792   3.573   1.858   5.320  0.5388  0.6388 -4.2939
 2110SOL    HW217793   3.498   1.736   5.267  0.2619 -2.2673  0.7000
 2111SOL     OW17794   4.686   2.868   6.773 -0.4543 -0.1715  0.6431
 2111SOL    HW117795   4.698   2.963   6.781 -0.0478 -0.0794 -1.0436
 2111SOL    HW217796   0.048   2.836   6.801  0.4362 -0.6593 -2.5587
 2112SOL     OW17797   3.099   1.575   5.808  0.2986  0.0661 -0.3900
 2112SOL    HW117798   3.166   1.511   5.784  0.8161 -0.5886  2.8391
 2112SOL    HW217799   3.029   1.517   5.835  0.7709  0.0983  0.9003
 2113SOL     OW17800   1.627   2.849  15.602  0.1220  0.1616 -0.5667
 2113SOL    HW117801   1.687   2.822  15.533  0.5839  1.9694 -0.8662
 2113SOL    HW217802   1.617   2.772  15.658 -1.1672 -0.1459 -1.2400
 2114SOL     OW17803   4.093   0.912   1.657  0.2382  0.3425  0.5943
 2114SOL    HW117804   4.019   0.882   1.605  1.3756  1.5495 -1.7133
 2114SOL    HW217805   4.154   0.914   1.583  0.3860 -2.8197  0.6299
 2115SOL     OW17806   2.385   0.721   3.745 -0.2953 -0.5201  0.1196
 2115SOL    HW117807   2.436   0.798   3.721 -0.0556 -0.4398  0.8844
 2115SOL    HW217808   2.388   0.717   3.841  0.6279 -1.1442  0.0683
 2116SOL     OW17809   1.743   3.487   5.978  0.6200  0.6406  0.0904
 2116SOL    HW117810   1.810   3.535   5.930  0.1272  1.4238  0.1769
 2116SOL    HW217811   1.759   3.513   6.069 -0.9930 -1.9407  1.1121
 2117SOL     OW17812   0.183   1.066  15.878  0.3138 -0.2531  0.2257
 2117SOL    HW117813   0.157   1.150  15.915  1.7939  0.2914  0.0240
 2117SOL    HW217814   0.235   1.101  15.806  1.2906  1.0211  1.5528
 2118SOL     OW17815   1.011   1.520   7.504 -0.0179 -0.3552  0.1580
 2118SOL    HW117816   1.054   1.484   7.582 -0.3403 -1.6231 -0.2564
 2118SOL    HW217817   0.978   1.604   7.536  2.3986 -0.7875  3.7676
 2119SOL     OW17818   0.239   4.356   8.091  0.1469  0.3047 -0.0911
 2119SOL    HW117819   0.169   4.404   8.136  1.6080  1.9226  0.4509
 2119SOL    HW217820   0.294   4.424   8.052  1.1477  0.4397  1.5266
 2120SOL     OW17821   3.136   3.790   8.690  0.2089 -0.0055  0.2171
 2120SOL    HW117822   3.194   3.864   8.673 -2.1421  1.6618 -0.4822
 2120SOL    HW217823   3.153   3.768   8.782 -1.5078  1.3875  0.8552
 2121SOL     OW17824   4.224   4.004   3.092  0.6061  0.1982 -0.4586
 2121SOL    HW117825   4.255   3.978   3.179  0.4050  0.5541 -0.2833
 2121SOL    HW217826   4.198   3.918   3.058 -2.7597  1.8259 -2.0347
 2122SOL     OW17827   2.250   1.169   7.272 -0.6623  0.0013  0.5436
 2122SOL    HW117828   2.308   1.098   7.245 -0.8308 -0.7740  2.2152
 2122SOL    HW217829   2.231   1.135   7.359  2.4447 -1.2452  0.7402
 2123SOL     OW17830   4.289   4.304   3.424 -0.4961  1.0225  0.0633
 2123SOL    HW117831   4.343   4.234   3.459  0.0416  2.0808  1.3531
 2123SOL    HW217832   4.304   4.277   3.334 -0.6851  0.3476  0.2372
 2124SOL     OW17833   2.488   3.301  11.075  0.4233  0.0516  0.3012
 2124SOL    HW117834   2.508   3.395  11.075 -2.2442  0.6170 -0.3681
 2124SOL    HW217835   2.517   3.271  10.989  0.1602 -1.4359  0.7333
 2125SOL     OW17836   3.318   3.823   9.602  0.1916 -0.1801  0.1813
 2125SOL    HW117837   3.223   3.829   9.613 -0.2587 -0.5827 -3.6198
 2125SOL    HW217838   3.335   3.746   9.548  1.4993  0.7150 -0.6787
 2126SOL     OW17839   0.886   0.094   5.205 -0.0989 -0.2505  0.2840
 2126SOL    HW117840   0.808   0.092   5.149  0.2267  2.0507 -0.2473
 2126SOL    HW217841   0.939   0.022   5.171  2.2380  2.5113 -1.9461
 2127SOL     OW17842   4.521   1.402   0.403  0.9563  0.2748 -0.0069
 2127SOL    HW117843   4.483   1.424   0.318  1.7381 -0.6278 -0.5911
 2127SOL    HW217844   4.588   1.335   0.387 -0.2770 -1.0555  0.3657
 2128SOL     OW17845   0.739   0.058   5.989  0.2479 -0.1698  0.4552
 2128SOL    HW117846   0.805   4.714   6.000 -0.4897 -1.0464 -0.6502
 2128SOL    HW217847   0.764   0.123   6.055  4.4438 -0.8248 -0.4855
 2129SOL     OW17848   1.379   2.758   7.715 -0.3393  0.3708  0.3368
 2129SOL    HW117849   1.391   2.666   7.738  1.1962  0.0876 -1.5841
 2129SOL    HW217850   1.460   2.800   7.746 -1.3417  3.2237 -0.8707
 2130SOL     OW17851   0.555   2.350   2.360  0.0523 -0.2538 -0.8846
 2130SOL    HW117852   0.552   2.323   2.269  1.3906 -0.6228 -0.8126
 2130SOL    HW217853   0.643   2.322   2.385  0.1740  0.0300 -1.0047
 2131SOL     OW17854   1.407   0.367   9.283 -0.4489 -0.0328 -0.4125
 2131SOL    HW117855   1.498   0.399   9.282  0.2654 -2.1448 -2.4250
 2131SOL    HW217856   1.422   0.273   9.293  2.7149  0.5779  0.6619
 2132SOL     OW17857   3.398   0.304   8.221  0.7490  0.0704  0.1923
 2132SOL    HW117858   3.353   0.286   8.138  1.8190  0.8837 -0.5781
 2132SOL    HW217859   3.371   0.233   8.278  1.4515 -0.3362  0.0296
 2133SOL     OW17860   0.342   0.009   8.625 -0.1623 -0.3789  0.0004
 2133SOL    HW117861   0.302   0.090   8.657  3.5920  1.0842  1.0863
 2133SOL    HW217862   0.434   0.025   8.650  0.6007 -1.5100 -2.0979
 2134SOL     OW17863   1.679   0.062   7.399 -0.5368 -0.3627 -0.5632
 2134SOL    HW117864   1.767   0.039   7.370  1.0375  0.9740  3.0351
 2134SOL    HW217865   1.684   0.049   7.494 -4.0322 -0.3338 -0.3782
 2135SOL     OW17866   0.007   3.075  14.430 -0.6945 -0.1482 -1.0823
 2135SOL    HW117867   4.637   3.095  14.426 -0.5573  0.2952 -2.2619
 2135SOL    HW217868   0.000   2.994  14.480 -1.3999  0.6049  0.0497
 2136SOL     OW17869   3.518   4.715  12.143 -0.7785  0.1350  0.4305
 2136SOL    HW117870   3.510   4.656  12.217  0.4940 -1.1226 -0.4365
 2136SOL    HW217871   3.559   4.659  12.078  0.0191  0.5706  0.5530
 2137SOL     OW17872   2.605   4.149   0.687 -0.0488  0.1668 -0.3272
 2137SOL    HW117873   2.534   4.173   0.747  0.9229 -1.9954  1.6523
 2137SOL    HW217874   2.651   4.233   0.684  0.6486 -0.1962  0.3090
 2138SOL     OW17875   1.130   0.946   0.742  0.4584 -0.6954 -0.6439
 2138SOL    HW117876   1.074   0.959   0.818  2.0960  1.3065  0.1990
 2138SOL    HW217877   1.161   0.857   0.760 -0.4576 -0.9196 -0.1589
 2139SOL     OW17878   0.411   3.051   5.954  0.2460  0.0133 -0.3895
 2139SOL    HW117879   0.358   3.119   5.912 -0.2302 -0.4820 -0.5991
 2139SOL    HW217880   0.495   3.096   5.957  0.4097 -0.3715  0.8833
 2140SOL     OW17881   3.259   2.714  17.593 -0.0016 -0.3236 -0.3680
 2140SOL    HW117882   3.260   2.655  17.668  0.5650  0.0622 -0.0708
 2140SOL    HW217883   3.224   2.794  17.631 -1.5637 -0.7307 -0.9481
 2141SOL     OW17884   2.230   1.844   8.522  0.3248  0.3080 -0.0811
 2141SOL    HW117885   2.284   1.770   8.551 -1.6932 -2.1092 -2.4047
 2141SOL    HW217886   2.257   1.852   8.430  0.3617  0.0484 -0.0929
 2142SOL     OW17887   4.602   3.445   5.813  0.0056  0.4763 -0.1551
 2142SOL    HW117888   4.625   3.353   5.812  1.2008  0.7750  0.3233
 2142SOL    HW217889   4.579   3.467   5.722 -0.4976  1.3670  0.1838
 2143SOL     OW17890   3.566   0.466  14.889 -0.4400 -0.2498  0.0436
 2143SOL    HW117891   3.516   0.466  14.971  1.2670 -0.2414  1.0707
 2143SOL    HW217892   3.596   0.556  14.890 -0.1503 -0.3295 -0.9172
 2144SOL     OW17893   2.009   2.293   2.104  0.5942  0.2701 -0.2421
 2144SOL    HW117894   1.968   2.379   2.110 -0.1366 -0.2901  2.4335
 2144SOL    HW217895   1.939   2.239   2.068 -0.4855  0.7657  1.1270
 2145SOL     OW17896   4.577   0.411   7.640  0.4306  0.1611  0.4706
 2145SOL    HW117897   4.616   0.330   7.673 -0.5574 -0.1973  0.7696
 2145SOL    HW217898   4.661   0.455   7.647  1.5612 -2.1268  1.2541
 2146SOL     OW17899   3.134   0.978   8.023  0.4358 -0.4359  0.1551
 2146SOL    HW117900   3.074   0.918   8.067 -0.0589  0.6763  0.9944
 2146SOL    HW217901   3.096   0.990   7.937  2.5297  0.8732 -0.5846
 2147SOL     OW17902   1.370   2.368   3.987  0.3009  0.1010 -0.7198
 2147SOL    HW117903   1.346   2.386   4.077  2.4397  0.7534 -0.2826
 2147SOL    HW217904   1.300   2.308   3.961 -0.6487  1.7790 -2.0247
 2148SOL     OW17905   4.505   0.311  11.380 -0.3366  0.9226 -0.1156
 2148SOL    HW117906   4.580   0.255  11.399 -0.2418  1.1733  0.2414
 2148SOL    HW217907   4.531   0.403  11.376  2.7298 -0.0058 -1.1864
 2149SOL     OW17908   1.152   3.306   8.097  0.4013 -0.1302  0.2367
 2149SOL    HW117909   1.216   3.376   8.105 -1.0768  1.3363 -0.8387
 2149SOL    HW217910   1.178   3.243   8.164  1.3344 -0.0927 -0.0785
 2150SOL     OW17911   3.986   2.493   4.231 -0.4229 -0.3141 -0.1965
 2150SOL    HW117912   4.043   2.527   4.163  0.3111 -3.0265 -0.9436
 2150SOL    HW217913   4.018   2.555   4.296 -0.3591 -1.8576  1.2693
 2151SOL     OW17914   4.340   3.159   6.581 -0.4019  0.2398 -0.2259
 2151SOL    HW117915   4.429   3.192   6.587  0.1740 -1.4880  0.6717
 2151SOL    HW217916   4.355   3.073   6.619 -0.3876 -0.0062 -0.7900
 2152SOL     OW17917   3.939   4.437   6.259 -0.2236  0.1383  0.4621
 2152SOL    HW117918   3.929   4.363   6.319  1.4298  1.4400  2.3818
 2152SOL    HW217919   4.033   4.447   6.272  0.2632 -2.0909 -1.3614
 2153SOL     OW17920   4.349   4.398   5.468 -0.4293 -0.0906 -0.6145
 2153SOL    HW117921   4.343   4.309   5.502 -0.4694  0.4962  0.8828
 2153SOL    HW217922   4.395   4.446   5.537 -1.3455 -0.0822 -0.0204
 2154SOL     OW17923   1.495   2.032   7.634 -0.7647  0.4993  0.3422
 2154SOL    HW117924   1.430   2.097   7.606 -1.0342 -0.2659 -0.7982
 2154SOL    HW217925   1.506   1.988   7.550 -1.6244  0.1167  0.4290
 2155SOL     OW17926   0.967   0.074  15.209 -0.1958 -0.2373  0.4154
 2155SOL    HW117927   0.982   4.719  15.158  1.0888  1.6034 -2.0866
 2155SOL    HW217928   0.990   0.143  15.146 -0.6800 -0.7298 -0.3001
 2156SOL     OW17929   4.678   3.882   6.207  0.1582  0.1854 -0.2258
 2156SOL    HW117930   4.596   3.910   6.247  0.8648 -1.2239  2.1982
 2156SOL    HW217931   0.022   3.910   6.267 -0.5070 -0.7565  0.9643
 2157SOL     OW17932   0.592   4.110   5.004 -0.0638  0.1103  0.0628
 2157SOL    HW117933   0.505   4.122   5.044 -0.7991 -1.8933 -0.9060
 2157SOL    HW217934   0.577   4.142   4.915 -0.5134 -1.8628 -0.5789
 2158SOL     OW17935   0.812   1.634   7.231 -0.9922  0.2771  0.1344
 2158SOL    HW117936   0.754   1.702   7.267  0.0864  0.5605  1.3360
 2158SOL    HW217937   0.743   1.607   7.170  2.8361 -3.4278 -2.5396
 2159SOL     OW17938   2.761   3.146  13.551 -0.4596 -0.6211  0.1246
 2159SOL    HW117939   2.856   3.144  13.536 -0.5098  3.6311 -0.5516
 2159SOL    HW217940   2.740   3.232  13.516  0.4725 -0.2688  0.4447
 2160SOL     OW17941   3.729   0.300   6.492  0.0414  0.3023 -0.8309
 2160SOL    HW117942   3.655   0.357   6.470 -0.3739 -0.1779 -0.6918
 2160SOL    HW217943   3.746   0.260   6.407  0.1945  0.7658 -1.0174
 2161SOL     OW17944   3.063   0.527   7.862 -0.3086  0.0910  0.0855
 2161SOL    HW117945   3.070   0.491   7.950  0.0956  0.3128  0.1439
 2161SOL    HW217946   3.147   0.498   7.826  0.0498  0.2269  0.8249
 2162SOL     OW17947   0.765   2.709   7.165  0.7737 -0.2982  0.3126
 2162SOL    HW117948   0.825   2.635   7.176  1.0986  0.3510  2.7844
 2162SOL    HW217949   0.831   2.777   7.175 -0.0123  0.0666  2.9204
 2163SOL     OW17950   1.825   0.038   6.563  0.4597 -0.0719 -0.1028
 2163SOL    HW117951   1.850   4.670   6.552  0.0493 -0.2654  0.5861
 2163SOL    HW217952   1.746   0.057   6.512 -0.1774  1.0676  1.3121
 2164SOL     OW17953   0.242   3.816   7.613  0.3482 -0.4555  0.1438
 2164SOL    HW117954   0.315   3.770   7.654  1.3024  0.7498 -0.1854
 2164SOL    HW217955   0.173   3.799   7.676  0.4263 -0.2769  0.2765
 2165SOL     OW17956   4.067   4.271   4.306  0.7806 -0.5164  0.3458
 2165SOL    HW117957   4.130   4.291   4.376  2.0968 -1.1901 -0.6461
 2165SOL    HW217958   4.071   4.175   4.310  1.6270 -0.5586 -1.6893
 2166SOL     OW17959   2.656   2.823   3.226  0.0268 -0.3924  0.1802
 2166SOL    HW117960   2.654   2.901   3.282  3.1637  0.2723 -0.6458
 2166SOL    HW217961   2.573   2.827   3.179 -0.8650 -2.0522  1.5841
 2167SOL     OW17962   2.382   0.589   1.349 -1.0000 -0.0430  0.2078
 2167SOL    HW117963   2.335   0.655   1.400 -0.7886  0.4827 -0.2774
 2167SOL    HW217964   2.461   0.633   1.318 -0.7918  0.6489  1.7137
 2168SOL     OW17965   3.113   1.081  12.197 -0.1950  0.0222 -0.3797
 2168SOL    HW117966   3.205   1.105  12.184 -0.4884  0.7516 -1.1408
 2168SOL    HW217967   3.071   1.138  12.132  1.5400  2.1597  0.3781
 2169SOL     OW17968   1.525   2.924   8.529  0.0767  0.0242  0.2009
 2169SOL    HW117969   1.542   2.831   8.544  0.4071  0.2476  1.1890
 2169SOL    HW217970   1.517   2.929   8.434 -0.4125  0.3820  0.2582
 2170SOL     OW17971   2.049   3.172   9.650  0.0477 -0.3276  0.3156
 2170SOL    HW117972   2.144   3.163   9.657  0.0554  1.5873  2.7257
 2170SOL    HW217973   2.037   3.179   9.555 -0.3633  1.1894  0.4738
 2171SOL     OW17974   4.410   2.722   6.421  0.4154 -0.2179 -0.1321
 2171SOL    HW117975   4.468   2.695   6.492 -0.3927 -1.3931  0.0854
 2171SOL    HW217976   4.455   2.802   6.395  1.4671  0.0605  2.5165
 2172SOL     OW17977   0.959   4.535  11.920 -0.1961 -0.1625  0.2921
 2172SOL    HW117978   1.039   4.521  11.972  0.7700  0.9579 -0.8987
 2172SOL    HW217979   0.911   4.456  11.945  1.3881 -1.5121 -0.9805
 2173SOL     OW17980   4.100   0.962   4.041  0.2028  0.1655  0.5502
 2173SOL    HW117981   4.112   1.050   4.005 -2.2217 -0.1692 -1.0662
 2173SOL    HW217982   4.117   0.990   4.131  0.3109 -0.0414  0.5953
 2174SOL     OW17983   3.783   4.244   2.740  0.3814  0.1822  0.6923
 2174SOL    HW117984   3.870   4.206   2.727 -1.0801 -2.7277 -0.3963
 2174SOL    HW217985   3.783   4.308   2.669 -2.0118  1.3885  1.7785
 2175SOL     OW17986   0.980   4.106   8.555 -0.2787 -0.0690 -0.3098
 2175SOL    HW117987   1.027   4.046   8.498 -0.6579  2.5990 -3.4252
 2175SOL    HW217988   1.042   4.110   8.628 -0.9610 -1.9475  0.3677
 2176SOL     OW17989   0.099   0.557   3.930  0.3782  0.3944 -0.0952
 2176SOL    HW117990   0.059   0.509   3.858 -0.7821  0.7521  0.3044
 2176SOL    HW217991   0.152   0.621   3.884 -0.5948  2.1446  1.1825
 2177SOL     OW17992   3.073   3.436   3.301  0.1841 -0.2958  0.2261
 2177SOL    HW117993   3.105   3.519   3.337  1.7345 -1.7695  2.2295
 2177SOL    HW217994   3.156   3.395   3.275  1.5004  2.7610 -0.4320
 2178SOL     OW17995   1.299   1.289   6.629 -0.3994  0.1300 -0.0843
 2178SOL    HW117996   1.291   1.236   6.709  0.8287 -0.5718 -0.4245
 2178SOL    HW217997   1.387   1.280   6.591 -0.0625 -1.5971  1.0894
 2179SOL     OW17998   2.743   0.510   4.253 -0.4665  0.6805  0.0424
 2179SOL    HW117999   2.715   0.547   4.336 -1.1409 -5.3345  2.4698
 2179SOL    HW218000   2.832   0.544   4.253  0.5707 -1.9851 -0.1807
 2180SOL     OW18001   3.548   4.710   2.601  0.0923 -0.2963 -0.6119
 2180SOL    HW118002   3.500   0.060   2.637 -0.2617 -0.8583  0.1031
 2180SOL    HW218003   3.628   0.021   2.562 -0.7027  1.3596 -0.7336
 2181SOL     OW18004   3.867   3.595   4.230  0.3994 -0.1908 -0.4068
 2181SOL    HW118005   3.861   3.557   4.318  1.0107 -1.1712 -0.7933
 2181SOL    HW218006   3.865   3.686   4.259  0.4995 -0.1916 -0.3983
 2182SOL     OW18007   4.404   0.760  13.635 -0.7605 -0.2923 -0.4426
 2182SOL    HW118008   4.428   0.806  13.715 -0.9291  1.9671 -1.7023
 2182SOL    HW218009   4.447   0.675  13.649 -1.1843 -0.2684  0.9780
 2183SOL     OW18010   1.492   1.593   2.267  0.4140  0.2211 -0.5477
 2183SOL    HW118011   1.574   1.556   2.301  1.7376  2.3682 -1.4623
 2183SOL    HW218012   1.439   1.514   2.281  0.5356  0.1125 -0.7013
 2184SOL     OW18013   0.559   2.844  13.774 -0.0341 -0.3935 -0.2929
 2184SOL    HW118014   0.497   2.905  13.733 -0.2046 -2.1085 -2.5620
 2184SOL    HW218015   0.589   2.801  13.694 -2.3948 -0.6219 -1.0657
 2185SOL     OW18016   1.538   0.909   0.978  0.1646 -0.0476 -0.0254
 2185SOL    HW118017   1.507   0.877   1.063 -1.4052 -0.1776 -0.6606
 2185SOL    HW218018   1.623   0.869   0.960  1.3868  2.1026  0.9894
 2186SOL     OW18019   0.401   2.501   0.604 -0.0184  0.2878  0.4221
 2186SOL    HW118020   0.445   2.453   0.674 -1.7573  0.1996  1.4584
 2186SOL    HW218021   0.474   2.503   0.542 -1.5276 -0.6127 -1.3985
 2187SOL     OW18022   1.074   3.129   7.580  0.1269 -0.4429 -0.0717
 2187SOL    HW118023   1.113   3.164   7.660 -0.0389 -1.4204  0.4419
 2187SOL    HW218024   1.102   3.038   7.593 -1.0543 -0.6707  0.9147
 2188SOL     OW18025   2.911   3.681   8.615  0.3469  0.3900 -0.5934
 2188SOL    HW118026   2.983   3.743   8.628  1.0979 -0.1395 -2.1630
 2188SOL    HW218027   2.940   3.608   8.670  0.0388  0.1268 -0.7845
 2189SOL     OW18028   1.952   2.510   8.698 -0.5076 -0.9808 -0.2903
 2189SOL    HW118029   2.023   2.506   8.762 -0.9676  2.6964  0.4567
 2189SOL    HW218030   1.873   2.515   8.752  0.3985  0.7214  0.8843
 2190SOL     OW18031   3.623   3.180   3.429 -0.5545 -0.0798 -0.3782
 2190SOL    HW118032   3.702   3.163   3.377 -0.7335  2.2105 -1.3917
 2190SOL    HW218033   3.558   3.134   3.376  1.8348 -2.0088 -1.6440
 2191SOL     OW18034   4.334   3.692   9.067  0.1828 -0.2171 -0.1994
 2191SOL    HW118035   4.393   3.618   9.081 -1.0872 -1.6589 -2.5814
 2191SOL    HW218036   4.311   3.691   9.160  1.1793  1.7994  0.0700
 2192SOL     OW18037   2.117   2.945   1.120  0.6302 -0.4291 -0.5760
 2192SOL    HW118038   2.198   2.989   1.094 -0.1791 -0.2509 -2.7576
 2192SOL    HW218039   2.156   2.891   1.189 -1.2977 -1.9700 -0.6986
 2193SOL     OW18040   2.005   2.800   4.983 -0.1394 -0.1299 -0.1668
 2193SOL    HW118041   1.960   2.797   4.899  1.3884 -0.8172 -0.9392
 2193SOL    HW218042   2.097   2.803   4.957  0.1259  2.8533  1.0332
 2194SOL     OW18043   0.791   2.570   5.820 -0.3888 -0.3689 -0.0981
 2194SOL    HW118044   0.879   2.546   5.792  0.1299 -0.6724  1.7773
 2194SOL    HW218045   0.742   2.509   5.764  0.3324 -1.9592  0.9996
 2195SOL     OW18046   0.070   2.060   8.232 -0.1461 -0.4079  0.3882
 2195SOL    HW118047   0.152   2.037   8.275 -1.4125 -1.1224  2.4372
 2195SOL    HW218048   0.051   2.150   8.261 -1.7359 -0.7997  0.5853
 2196SOL     OW18049   3.692   0.699   8.275  0.3805 -0.2476  0.1117
 2196SOL    HW118050   3.747   0.642   8.330  3.5747  0.4896 -2.3642
 2196SOL    HW218051   3.642   0.747   8.341 -0.3988 -0.1900 -0.5260
 2197SOL     OW18052   0.194   3.801   3.905 -0.2631  0.6324 -0.7805
 2197SOL    HW118053   0.288   3.794   3.885 -0.0682  1.3410 -0.1518
 2197SOL    HW218054   0.181   3.890   3.872 -2.8322 -0.2682 -2.1504
 2198SOL     OW18055   1.421   4.685   8.731 -0.1076 -0.5064  0.1655
 2198SOL    HW118056   1.467   0.038   8.762 -1.4432 -0.0627  1.0195
 2198SOL    HW218057   1.355   0.001   8.674  0.2877  0.3536  0.3287
 2199SOL     OW18058   4.650   2.779   4.270 -0.8153  0.0442  0.3732
 2199SOL    HW118059   4.682   2.863   4.236 -1.1919  0.0831  0.1162
 2199SOL    HW218060   4.697   2.767   4.352 -1.0414  3.6053  1.0554
 2200SOL     OW18061   4.590   1.660   8.933 -0.3269 -0.4170 -0.0785
 2200SOL    HW118062   4.684   1.671   8.948  0.1814 -1.0876 -2.7597
 2200SOL    HW218063   4.600   1.566   8.946  0.6464 -0.3149 -0.0621
 2201SOL     OW18064   3.223   0.605   5.977  0.3280 -0.1173 -0.3512
 2201SOL    HW118065   3.144   0.591   6.030 -0.0370  2.9139 -0.0929
 2201SOL    HW218066   3.289   0.545   6.012 -0.1898 -0.9861 -0.8819
 2202SOL     OW18067   1.090   3.733  14.888 -0.1298 -0.7654  0.5413
 2202SOL    HW118068   1.095   3.796  14.817 -3.7979 -1.8721 -0.6903
 2202SOL    HW218069   0.995   3.718  14.885 -0.2436 -0.2346  1.5418
 2203SOL     OW18070   1.667   1.697   3.628  0.0720  0.2994 -0.0326
 2203SOL    HW118071   1.631   1.753   3.696 -0.0548 -1.0365  0.9941
 2203SOL    HW218072   1.753   1.670   3.660  0.1513  1.0997  0.4170
 2204SOL     OW18073   1.932   1.227   5.906  0.5141  0.0075 -0.1246
 2204SOL    HW118074   1.858   1.168   5.924  0.9914 -0.0160  1.8244
 2204SOL    HW218075   1.880   1.307   5.915 -0.9744 -1.0066  0.4031
 2205SOL     OW18076   4.143   3.642   5.559 -0.3253 -0.4319  0.0311
 2205SOL    HW118077   4.109   3.598   5.481 -0.0818  0.1554 -0.3987
 2205SOL    HW218078   4.124   3.576   5.626 -1.5366  2.4123  2.5119
 2206SOL     OW18079   0.618   3.088   6.160 -0.5067 -0.0571 -0.0224
 2206SOL    HW118080   0.589   3.174   6.191  0.6351 -0.2942  1.6818
 2206SOL    HW218081   0.685   3.116   6.097 -0.1414  0.2649  0.5099
 2207SOL     OW18082   0.259   1.366   6.729 -0.2461 -0.2168  0.5250
 2207SOL    HW118083   0.197   1.431   6.696  1.6369  0.9811 -0.6631
 2207SOL    HW218084   0.280   1.325   6.645  0.8582  1.0240  0.1936
 2208SOL     OW18085   2.478   1.458   3.758 -0.5294 -0.4626  0.2694
 2208SOL    HW118086   2.494   1.364   3.754 -0.6065 -0.4343 -0.7258
 2208SOL    HW218087   2.569   1.483   3.771 -0.5403  0.3279 -1.0925
 2209SOL     OW18088   2.175   2.991   8.413 -0.0045  0.0456  0.3849
 2209SOL    HW118089   2.150   2.994   8.506  1.2344 -1.3394  0.7565
 2209SOL    HW218090   2.257   2.944   8.427  0.3910  0.8922  0.8478
 2210SOL     OW18091   3.308   1.271   9.962 -0.5095  0.3234 -0.6457
 2210SOL    HW118092   3.393   1.239   9.993 -1.2319  0.1895  1.2346
 2210SOL    HW218093   3.326   1.365   9.958 -1.0202  0.4695  0.4558
 2211SOL     OW18094   4.523   1.434   9.093 -0.0306  0.6767  0.2188
 2211SOL    HW118095   4.516   1.486   9.173 -0.0780 -0.8257  1.2026
 2211SOL    HW218096   4.586   1.363   9.104 -2.0671 -0.4377  4.8413
 2212SOL     OW18097   0.344   3.316   7.124 -0.2005  0.3609 -0.4503
 2212SOL    HW118098   0.258   3.311   7.083  0.3396 -0.4474 -1.4803
 2212SOL    HW218099   0.317   3.286   7.211  1.3142 -0.1686 -0.1632
 2213SOL     OW18100   2.689   1.610   8.779  0.2775 -0.0688  0.2413
 2213SOL    HW118101   2.651   1.696   8.764  0.1588 -0.2324 -0.3919
 2213SOL    HW218102   2.768   1.612   8.726 -1.1507 -3.6773 -2.0276
 2214SOL     OW18103   3.884   4.355   5.961  0.7318 -0.5393  0.2360
 2214SOL    HW118104   3.873   4.264   5.931  0.9802 -1.1346  1.9770
 2214SOL    HW218105   3.844   4.348   6.048 -2.4062  0.2574 -1.1179
 2215SOL     OW18106   3.776   4.235   4.301  0.1265 -0.1849 -0.4009
 2215SOL    HW118107   3.778   4.152   4.253  1.7653 -1.6619  2.1523
 2215SOL    HW218108   3.861   4.278   4.288  0.1539 -0.0973  0.0597
 2216SOL     OW18109   3.046   0.830   5.359 -0.6267  0.1287 -0.2053
 2216SOL    HW118110   2.985   0.821   5.285 -1.4775  3.5299  0.0939
 2216SOL    HW218111   3.019   0.753   5.409  1.1849 -0.7242 -0.5231
 2217SOL     OW18112   1.278   0.840   9.465  0.7047 -0.2527  0.1666
 2217SOL    HW118113   1.349   0.864   9.525  2.8415 -2.5300 -1.4224
 2217SOL    HW218114   1.332   0.839   9.386 -0.9535  2.1730 -0.9790
 2218SOL     OW18115   3.725   1.114   4.851 -0.1968  0.0670  0.1082
 2218SOL    HW118116   3.695   1.028   4.822  1.9857 -1.0444  1.1807
 2218SOL    HW218117   3.718   1.092   4.944  0.6515  2.7445  0.8156
 2219SOL     OW18118   4.252   0.325  15.948 -0.4643 -0.4642  0.3450
 2219SOL    HW118119   4.234   0.245  15.900 -0.6749 -0.7354  0.8697
 2219SOL    HW218120   4.294   0.382  15.884  1.2950 -0.4960  1.4553
 2220SOL     OW18121   2.320   2.948   3.283  0.0672 -0.0048  0.2187
 2220SOL    HW118122   2.353   3.035   3.306  1.1126 -0.1216 -0.8392
 2220SOL    HW218123   2.334   2.896   3.362 -0.6510 -2.4850 -1.2664
 2221SOL     OW18124   4.371   2.573  13.282 -0.1112 -0.4731 -0.0925
 2221SOL    HW118125   4.435   2.505  13.261  1.2327  1.0653 -0.9838
 2221SOL    HW218126   4.427   2.636  13.325 -0.2824 -0.3555 -0.0419
 2222SOL     OW18127   3.346   3.159   5.286 -0.0409 -0.8679  0.1679
 2222SOL    HW118128   3.291   3.230   5.251 -2.2947 -3.8130 -2.2321
 2222SOL    HW218129   3.300   3.108   5.352  0.3581 -2.0657 -0.4804
 2223SOL     OW18130   3.051   2.492  13.303  0.4029  0.7663 -0.5786
 2223SOL    HW118131   2.957   2.478  13.318  1.3456 -1.9146  2.7215
 2223SOL    HW218132   3.048   2.587  13.315  0.0336  0.8575 -1.3909
 2224SOL     OW18133   0.518   1.479   7.832 -0.0616  0.5560  0.2467
 2224SOL    HW118134   0.610   1.486   7.806 -0.8907  0.9656 -2.5234
 2224SOL    HW218135   0.513   1.532   7.912  0.4936  2.3412 -0.9115
 2225SOL     OW18136   1.853   0.385   8.171 -0.3976  0.4981  0.0764
 2225SOL    HW118137   1.839   0.322   8.101 -0.3251  2.6698 -1.9120
 2225SOL    HW218138   1.941   0.362   8.199 -0.3986  0.0735 -0.2820
 2226SOL     OW18139   1.715   3.371  15.834  0.3560  0.3549  0.1713
 2226SOL    HW118140   1.656   3.420  15.777 -0.6356  0.0888  0.9678
 2226SOL    HW218141   1.749   3.303  15.777  0.2451  0.1510  0.3503
 2227SOL     OW18142   1.807   3.222   2.345 -0.0044  0.3789  0.0415
 2227SOL    HW118143   1.803   3.179   2.431 -0.3584  1.1502  0.4126
 2227SOL    HW218144   1.754   3.155   2.302 -1.9766  2.1153 -0.2385
 2228SOL     OW18145   3.766   2.081   2.155 -0.2513  0.1005  0.2164
 2228SOL    HW118146   3.783   2.041   2.240 -1.1825  0.5703  0.6187
 2228SOL    HW218147   3.672   2.065   2.151 -0.6725  1.3894  4.9701
 2229SOL     OW18148   3.214   0.634   3.775 -0.0599 -0.0590 -0.4282
 2229SOL    HW118149   3.266   0.713   3.761 -1.8742  1.0089 -1.0207
 2229SOL    HW218150   3.166   0.658   3.854  1.0382 -3.2242  1.2092
 2230SOL     OW18151   0.718   3.421   7.075 -0.0196 -0.4040 -0.1813
 2230SOL    HW118152   0.806   3.456   7.094 -0.1391  0.7283 -1.7636
 2230SOL    HW218153   0.722   3.411   6.980 -0.5182 -2.0535 -0.0334
 2231SOL     OW18154   3.546   3.302   9.003  0.0767  0.1943 -0.1773
 2231SOL    HW118155   3.528   3.297   9.097  1.0774 -1.1079 -0.0539
 2231SOL    HW218156   3.517   3.213   8.983  0.6642 -0.0414  0.0285
 2232SOL     OW18157   1.042   3.725   8.681  0.4051  0.6646 -0.2075
 2232SOL    HW118158   1.123   3.726   8.630 -0.1295  2.5575 -1.0520
 2232SOL    HW218159   1.074   3.669   8.751  0.7976  0.6662 -0.3868
 2233SOL     OW18160   4.498   3.782   5.654 -0.1608 -0.0451  0.0515
 2233SOL    HW118161   4.528   3.814   5.739 -0.8957 -1.2421  0.7571
 2233SOL    HW218162   4.408   3.785   5.686 -0.5824  0.4430 -1.1795
 2234SOL     OW18163   4.507   3.988  13.637  0.1118 -0.2570 -0.3384
 2234SOL    HW118164   4.547   4.068  13.670 -0.8531  0.2452 -0.3624
 2234SOL    HW218165   4.417   4.017  13.619 -0.0048  0.9921  2.2841
 2235SOL     OW18166   3.454   4.118  10.378 -0.2553  0.4406 -0.1153
 2235SOL    HW118167   3.404   4.067  10.442 -0.3021  2.2649  1.2966
 2235SOL    HW218168   3.431   4.203  10.415  0.0321  0.5341 -0.1517
 2236SOL     OW18169   4.446   0.140   6.816 -0.2132  0.2903  0.2056
 2236SOL    HW118170   4.489   0.067   6.861 -0.6874  1.2529  2.1881
 2236SOL    HW218171   4.490   0.209   6.866  0.2821 -0.8671  1.3704
 2237SOL     OW18172   0.249   4.116   8.873  0.1494 -0.1124 -0.1042
 2237SOL    HW118173   0.157   4.140   8.863  0.4589  1.5691  0.9576
 2237SOL    HW218174   0.268   4.117   8.779 -0.8597  1.2087 -0.2993
 2238SOL     OW18175   3.685   0.426   6.753  0.3597 -0.0944  0.2295
 2238SOL    HW118176   3.695   0.346   6.701  1.9966 -0.7606  1.5971
 2238SOL    HW218177   3.756   0.480   6.718  0.9544 -1.1761 -0.2288
 2239SOL     OW18178   0.904   3.308  12.414 -0.0993 -0.6172 -0.1613
 2239SOL    HW118179   0.884   3.302  12.508 -3.9879  0.3872 -0.9499
 2239SOL    HW218180   0.857   3.235  12.374  1.3691 -0.3156 -2.4117
 2240SOL     OW18181   3.480   4.300   3.609  0.1063  0.9671 -0.1795
 2240SOL    HW118182   3.509   4.293   3.518  0.6841  1.4840 -0.0342
 2240SOL    HW218183   3.552   4.270   3.665  0.2791  1.1186 -0.3199
 2241SOL     OW18184   0.898   0.071   6.233  0.1917  0.9089 -0.1354
 2241SOL    HW118185   0.974   0.013   6.233 -0.6218 -0.1651 -1.7516
 2241SOL    HW218186   0.946   0.153   6.245  2.6030 -0.5470  0.0594
 2242SOL     OW18187   3.306   1.392   0.954  0.1254  0.0777 -0.5448
 2242SOL    HW118188   3.382   1.355   0.999 -0.4939  1.4490  1.6017
 2242SOL    HW218189   3.340   1.389   0.864  3.7742  0.7717  0.8085
 2243SOL     OW18190   0.234   1.745   2.107 -0.7528  0.5633 -0.2741
 2243SOL    HW118191   0.277   1.681   2.163 -1.0714 -0.2727 -0.9873
 2243SOL    HW218192   0.149   1.700   2.104 -0.5789  0.2130  0.1099
 2244SOL     OW18193   0.586   3.267  16.130  1.3263 -1.0678 -0.0727
 2244SOL    HW118194   0.545   3.324  16.195  0.5888  0.0143 -1.4744
 2244SOL    HW218195   0.619   3.192  16.180 -1.1499 -1.4707  0.9456
 2245SOL     OW18196   0.471   4.608  13.537  0.1779 -0.2397  0.2407
 2245SOL    HW118197   0.536   4.675  13.557 -1.0930  1.0760 -0.0746
 2245SOL    HW218198   0.474   4.605  13.442 -2.2595  0.5311  0.1332
 2246SOL     OW18199   2.973   3.259  10.384 -0.7066 -0.2370  0.0236
 2246SOL    HW118200   2.993   3.171  10.350  0.5870 -0.2720  0.8523
 2246SOL    HW218201   2.880   3.253  10.405 -0.2345  0.3157  2.2941
 2247SOL     OW18202   1.130   1.331   5.827 -0.1619 -0.0544  0.4812
 2247SOL    HW118203   1.042   1.323   5.790 -1.0518 -0.8749  2.8038
 2247SOL    HW218204   1.119   1.271   5.901  0.0350 -1.7013 -0.8085
 2248SOL     OW18205   1.437   3.562   3.940  0.5000  0.3409 -0.1081
 2248SOL    HW118206   1.442   3.562   3.845 -1.5512 -0.5291 -0.2085
 2248SOL    HW218207   1.460   3.654   3.953 -0.0635  0.2844  1.3642
 2249SOL     OW18208   2.471   2.618   3.775 -0.0357 -0.5731 -0.2197
 2249SOL    HW118209   2.523   2.566   3.714 -2.5795 -4.8263  1.2371
 2249SOL    HW218210   2.493   2.561   3.848  0.5572  0.9483  0.8027
 2250SOL     OW18211   2.878   0.157   3.158  0.1879 -0.2488 -0.3318
 2250SOL    HW118212   2.885   0.250   3.139 -1.9784  0.1557  0.8382
 2250SOL    HW218213   2.934   0.126   3.087  0.2227 -1.1656  0.0905
 2251SOL     OW18214   1.382   3.448   6.734  0.0298 -0.2879  0.4526
 2251SOL    HW118215   1.433   3.393   6.674  1.8384 -1.6990  3.2740
 2251SOL    HW218216   1.383   3.533   6.690 -0.7436 -0.1552  0.6952
 2252SOL     OW18217   2.998   2.265   9.702  0.1314 -0.1992 -0.1511
 2252SOL    HW118218   2.927   2.325   9.727 -0.8080 -1.6267  0.5789
 2252SOL    HW218219   3.070   2.328   9.705  0.7299 -0.9453  1.3840
 2253SOL     OW18220   0.085   3.442   8.439  0.0049  0.0083  0.4709
 2253SOL    HW118221   0.121   3.484   8.361  0.2786  0.0286  0.6075
 2253SOL    HW218222   0.152   3.466   8.504  0.4323 -1.7343  0.6844
 2254SOL     OW18223   4.182   2.894   6.448  0.6067  0.4090 -0.8527
 2254SOL    HW118224   4.263   2.847   6.470  0.0781  0.7138  1.7597
 2254SOL    HW218225   4.135   2.897   6.531 -0.4068 -0.0057 -1.4204
 2255SOL     OW18226   4.203   0.223  14.027 -0.3631  0.3798 -0.1616
 2255SOL    HW118227   4.252   0.250  14.105  2.0495  3.4254 -2.7530
 2255SOL    HW218228   4.114   0.201  14.054 -0.5545  0.6446 -0.5992
 2256SOL     OW18229   2.527   0.273  12.166  0.3248 -0.2247  0.3738
 2256SOL    HW118230   2.521   0.366  12.187 -2.7574 -0.6840  1.5159
 2256SOL    HW218231   2.504   0.268  12.073 -0.6806  1.6903  0.5261
 2257SOL     OW18232   0.170   3.996   3.204  0.0772  0.3581  0.1059
 2257SOL    HW118233   0.104   4.010   3.136 -0.5573  1.4693  0.9536
 2257SOL    HW218234   0.239   4.055   3.175  1.3232 -1.8768 -1.4413
 2258SOL     OW18235   3.933   4.339  10.170 -0.4801  0.0122 -0.4560
 2258SOL    HW118236   3.862   4.293  10.214 -0.4880  1.1658  0.7335
 2258SOL    HW218237   3.891   4.375  10.091 -5.1733  0.0812  2.0812
 2259SOL     OW18238   3.004   1.599   4.127 -0.6989 -0.1839 -0.1103
 2259SOL    HW118239   3.098   1.620   4.133 -0.7551 -0.4682  1.7009
 2259SOL    HW218240   2.966   1.679   4.093  0.7706  0.9263  0.8535
 2260SOL     OW18241   0.877   2.858   4.823  0.4762 -0.7417 -0.2436
 2260SOL    HW118242   0.797   2.901   4.853  0.0309 -0.0872 -2.3813
 2260SOL    HW218243   0.878   2.782   4.881 -1.4415 -1.4811 -1.1969
 2261SOL     OW18244   1.640   1.777  15.656 -0.1593  0.0408  0.8479
 2261SOL    HW118245   1.720   1.791  15.706 -0.3025  1.8537  0.5686
 2261SOL    HW218246   1.669   1.706  15.597 -1.9121 -0.3176  0.4205
 2262SOL     OW18247   4.667   0.509   6.890  0.1687  0.3884 -0.6092
 2262SOL    HW118248   4.594   0.552   6.934 -0.1445 -0.0928 -0.6604
 2262SOL    HW218249   4.648   0.418   6.912  0.8786  0.9125  2.1226
 2263SOL     OW18250   1.498   3.444  11.400 -0.0558 -0.4405 -0.8130
 2263SOL    HW118251   1.513   3.411  11.488 -2.7242 -0.1694 -0.2479
 2263SOL    HW218252   1.502   3.539  11.413  1.0974 -0.5982  0.0251
 2264SOL     OW18253   0.998   4.542   5.201 -0.4477  0.0837 -0.1548
 2264SOL    HW118254   0.920   4.487   5.209 -0.1966 -0.0427  1.4094
 2264SOL    HW218255   1.048   4.497   5.133 -0.7634  2.4840 -1.9702
 2265SOL     OW18256   1.554   0.125   5.524  0.0368  0.4100 -0.2498
 2265SOL    HW118257   1.612   0.105   5.451 -0.4371  0.8046 -0.7309
 2265SOL    HW218258   1.471   0.095   5.489 -0.3559 -0.0478  1.0628
 2266SOL     OW18259   3.820   1.013   2.013 -0.4010 -0.2143 -0.2034
 2266SOL    HW118260   3.912   1.009   1.985 -0.6623  0.4976 -1.1586
 2266SOL    HW218261   3.820   1.103   2.046  1.5682  0.1408 -1.1375
 2267SOL     OW18262   3.490   2.131   7.912  0.0523  0.1968  0.0348
 2267SOL    HW118263   3.404   2.148   7.874  0.4829  0.0023 -0.9991
 2267SOL    HW218264   3.528   2.219   7.914  1.8244 -0.5751  0.3782
 2268SOL     OW18265   1.100   3.834   7.303  0.9356 -0.0786 -0.3094
 2268SOL    HW118266   1.106   3.795   7.216  2.6513 -2.6284  0.9781
 2268SOL    HW218267   1.133   3.922   7.287  1.3464 -0.0619  0.6579
 2269SOL     OW18268   4.337   4.647   9.059  0.2771 -0.1491 -0.0474
 2269SOL    HW118269   4.426   4.639   9.094 -0.0170  0.3745  0.8066
 2269SOL    HW218270   4.301   4.561   9.078  1.1482 -0.4845  0.1019
 2270SOL     OW18271   1.499   0.735   2.735  0.1207 -0.3104  0.4342
 2270SOL    HW118272   1.580   0.771   2.699  1.0847 -0.1681  2.7632
 2270SOL    HW218273   1.536   0.680   2.803 -0.1989 -2.2475 -0.9483
 2271SOL     OW18274   3.912   2.083   3.799  0.0936 -0.0626  0.1358
 2271SOL    HW118275   3.975   2.113   3.865 -1.2471  2.6638  0.2108
 2271SOL    HW218276   3.916   2.151   3.732  0.0756 -0.4853 -0.2929
 2272SOL     OW18277   2.091   2.014   4.723  0.3412 -0.4058 -0.6982
 2272SOL    HW118278   2.172   2.047   4.685  0.3851  1.2446  0.8471
 2272SOL    HW218279   2.093   1.920   4.706  0.1459 -0.6186  0.4604
 2273SOL     OW18280   1.923   1.433   5.395  0.1019 -0.2489 -0.3973
 2273SOL    HW118281   1.837   1.460   5.429  0.2682 -1.9984  1.4274
 2273SOL    HW218282   1.980   1.492   5.445  0.5668  0.0429 -1.2710
 2274SOL     OW18283   3.970   3.728   1.798  0.3596  0.1721  0.5435
 2274SOL    HW118284   3.991   3.644   1.839  0.9748 -0.1901 -0.5170
 2274SOL    HW218285   3.920   3.696   1.723 -0.1393  0.4960  0.7390
 2275SOL     OW18286   4.330   3.931  15.237 -0.1791 -0.0080 -0.4097
 2275SOL    HW118287   4.360   3.964  15.152  2.2885 -1.0526  0.0528
 2275SOL    HW218288   4.369   3.994  15.298 -0.2581  0.3902 -0.7721
 2276SOL     OW18289   0.629   4.579   8.267 -0.2653 -0.3057  0.0291
 2276SOL    HW118290   0.697   4.578   8.334  1.9020  2.6030 -2.1505
 2276SOL    HW218291   0.683   4.564   8.189  0.8999  0.1621  0.7568
 2277SOL     OW18292   3.678   3.562  10.243 -0.2007 -0.0879 -0.7080
 2277SOL    HW118293   3.590   3.528  10.228 -1.4802  2.6513  0.6132
 2277SOL    HW218294   3.674   3.582  10.337  0.1303 -1.6327 -0.3530
 2278SOL     OW18295   2.226   2.101   1.876 -0.3908  0.3506 -0.7673
 2278SOL    HW118296   2.309   2.126   1.915 -0.1196 -0.0283 -1.0897
 2278SOL    HW218297   2.196   2.041   1.944  0.3292  1.2789  0.3572
 2279SOL     OW18298   0.383   3.828  12.340 -0.4431 -0.1006 -0.1348
 2279SOL    HW118299   0.397   3.860  12.429  0.6774  3.5030 -1.6064
 2279SOL    HW218300   0.454   3.870  12.292  0.7832 -1.0816  0.8043
 2280SOL     OW18301   1.881   0.898   6.615  0.1460  0.8677  0.0329
 2280SOL    HW118302   1.877   0.866   6.705 -1.9408  1.4394  0.1265
 2280SOL    HW218303   1.938   0.827   6.583 -0.3097  0.9004 -0.8531
 2281SOL     OW18304   1.026   1.978   3.041 -0.1664 -0.6023 -0.0328
 2281SOL    HW118305   1.067   2.049   3.090 -0.4587 -2.1379  2.4341
 2281SOL    HW218306   1.053   2.003   2.953 -2.1671 -1.3839 -0.8853
 2282SOL     OW18307   3.941   0.925   2.235  0.2678 -0.1214 -0.4918
 2282SOL    HW118308   3.901   0.952   2.153  2.4140 -1.5019 -1.9986
 2282SOL    HW218309   4.035   0.939   2.226  0.2170  1.4786  1.4963
 2283SOL     OW18310   3.610   0.891   4.778  0.3312 -0.0681  0.1733
 2283SOL    HW118311   3.593   0.830   4.706  1.0763  0.3363 -0.3452
 2283SOL    HW218312   3.620   0.836   4.855  0.9389 -0.9389 -0.5256
 2284SOL     OW18313   3.220   3.346   7.094 -0.5159  0.1818  0.1275
 2284SOL    HW118314   3.235   3.397   7.174  0.4503  0.3622 -0.1713
 2284SOL    HW218315   3.164   3.281   7.136 -0.2597 -0.3543 -0.3563
 2285SOL     OW18316   4.576   2.288  15.434  0.1786  0.1512  0.0307
 2285SOL    HW118317   4.600   2.369  15.478  0.2524  0.2878 -0.2612
 2285SOL    HW218318   4.523   2.324  15.363  0.5001  1.2481  0.3474
 2286SOL     OW18319   0.917   3.197  14.064  0.2417 -0.2325 -0.0062
 2286SOL    HW118320   0.988   3.237  14.115  0.3595 -0.2808 -0.1327
 2286SOL    HW218321   0.934   3.105  14.086  1.5795  0.2206  0.8950
 2287SOL     OW18322   0.126   2.073  13.035 -0.0090  0.1833  0.7201
 2287SOL    HW118323   0.221   2.083  13.047  0.2467 -1.7909  0.3441
 2287SOL    HW218324   0.094   2.154  12.996 -1.1543  0.4833  2.2735
 2288SOL     OW18325   2.536   4.525  10.555 -0.0885  0.2118  0.2953
 2288SOL    HW118326   2.564   4.616  10.567  1.4397 -0.4860  2.1010
 2288SOL    HW218327   2.441   4.532  10.551 -0.0986  1.4488  2.7532
 2289SOL     OW18328   0.383   1.471  12.068 -0.3603  0.4284  0.4747
 2289SOL    HW118329   0.310   1.532  12.078  0.1262  0.8572  1.3695
 2289SOL    HW218330   0.406   1.463  12.160  0.0667 -0.8443  0.2587
 2290SOL     OW18331   0.999   1.381  13.901  0.7140  0.0807  0.4817
 2290SOL    HW118332   1.060   1.308  13.887 -1.0721 -0.5918 -3.7095
 2290SOL    HW218333   1.050   1.430  13.965  3.0570 -1.6505 -0.0550
 2291SOL     OW18334   2.846   0.618  16.742 -0.4153  0.1253  0.3688
 2291SOL    HW118335   2.877   0.693  16.793 -3.1800  0.9665  0.7694
 2291SOL    HW218336   2.879   0.551  16.803  1.6902 -0.1643 -1.0931
 2292SOL     OW18337   2.601   3.316  17.171  0.1190 -0.3935  0.2731
 2292SOL    HW118338   2.579   3.401  17.209 -1.0313  0.4362 -2.2165
 2292SOL    HW218339   2.582   3.254  17.241  1.7887  0.4149  1.4279
 2293SOL     OW18340   4.264   3.035   1.244  0.3229  0.4852  0.0406
 2293SOL    HW118341   4.267   3.065   1.153  0.3204 -1.0416 -0.4726
 2293SOL    HW218342   4.356   3.049   1.266  0.6889  0.9494 -1.7405
 2294SOL     OW18343   2.421   3.073   4.364 -0.6242 -0.0716  0.1170
 2294SOL    HW118344   2.449   3.019   4.291 -0.6227 -0.1902  0.2057
 2294SOL    HW218345   2.426   3.013   4.438 -1.5106 -1.1246 -0.6844
 2295SOL     OW18346   4.458   2.524  10.288  0.0923  0.7773 -0.7076
 2295SOL    HW118347   4.405   2.450  10.315  0.8007  0.9511  1.1882
 2295SOL    HW218348   4.538   2.473  10.277 -1.4601 -1.8426  0.2234
 2296SOL     OW18349   0.637   0.448   8.640 -0.3218  0.6600  0.2936
 2296SOL    HW118350   0.708   0.410   8.588 -0.3922  2.2362 -0.9811
 2296SOL    HW218351   0.654   0.423   8.731  0.0694  1.5046  0.4576
 2297SOL     OW18352   2.934   3.692   0.052  0.3117  0.4706  0.1805
 2297SOL    HW118353   2.949   3.616   0.109 -3.4479  0.2314  0.8807
 2297SOL    HW218354   3.024   3.724   0.053 -0.7318  3.3345 -0.1085
 2298SOL     OW18355   0.970   3.521   8.144  0.3406 -0.3654 -0.0222
 2298SOL    HW118356   0.995   3.562   8.227  3.0213  0.0727 -1.0542
 2298SOL    HW218357   1.017   3.438   8.148 -0.1854 -0.6783 -0.3600
 2299SOL     OW18358   0.280   2.890   2.749 -0.0124 -0.0737  0.4058
 2299SOL    HW118359   0.375   2.898   2.736  0.0905 -0.3685  0.9788
 2299SOL    HW218360   0.256   2.889   2.656 -3.2080 -1.1198  1.2453
 2300SOL     OW18361   0.192   2.641   5.794  0.0313  0.1090  0.7492
 2300SOL    HW118362   0.176   2.567   5.852  1.8260  0.1323  1.2853
 2300SOL    HW218363   0.268   2.682   5.835 -0.6961  3.1337 -0.9411
 2301SOL     OW18364   2.913   3.471   8.800  0.1514 -0.3229  0.1873
 2301SOL    HW118365   2.832   3.423   8.781 -1.5050  2.4905  0.0519
 2301SOL    HW218366   2.970   3.394   8.798  0.0731 -0.3852  0.3974
 2302SOL     OW18367   4.199   3.255  10.929  0.0080  0.3305  0.2855
 2302SOL    HW118368   4.293   3.252  10.948  0.2194 -0.2191 -0.8444
 2302SOL    HW218369   4.177   3.347  10.945  2.7987  1.3424 -1.6197
 2303SOL     OW18370   0.517   1.044   4.751  0.2813  0.3673  0.6324
 2303SOL    HW118371   0.571   1.022   4.675 -1.3823 -1.4161 -0.0387
 2303SOL    HW218372   0.574   1.017   4.824  0.8673  1.9756  0.7722
 2304SOL     OW18373   4.716   3.259  13.860  0.0253  0.1852  0.7774
 2304SOL    HW118374   4.637   3.226  13.903 -1.5419  0.3149 -1.9870
 2304SOL    HW218375   0.012   3.191  13.796 -0.7696  1.6174 -1.0050
 2305SOL     OW18376   1.679   0.964   7.950 -0.3689 -0.4387 -0.5810
 2305SOL    HW118377   1.585   0.983   7.945 -0.6792 -2.2252 -1.3234
 2305SOL    HW218378   1.713   1.053   7.960  0.6306 -1.0262  1.2664
 2306SOL     OW18379   1.182   2.838   8.869 -0.3505  0.0208 -0.1943
 2306SOL    HW118380   1.229   2.754   8.868  0.2848  0.3714  0.5944
 2306SOL    HW218381   1.192   2.858   8.962 -1.8062 -3.0846  0.6638
 2307SOL     OW18382   2.716   2.807   1.801  0.4730 -0.0452 -0.5278
 2307SOL    HW118383   2.778   2.861   1.848 -0.5612  0.8837 -0.2164
 2307SOL    HW218384   2.758   2.829   1.718  0.8463  1.9308  0.1803
 2308SOL     OW18385   3.976   0.201   2.816  0.0421  0.4285 -0.1929
 2308SOL    HW118386   4.033   0.155   2.755  0.0392 -1.5564  1.2866
 2308SOL    HW218387   4.004   0.292   2.807 -0.7514  0.5756 -1.1304
 2309SOL     OW18388   2.827   4.685  10.214  0.3071  0.6150 -0.1342
 2309SOL    HW118389   2.808   0.054  10.218 -0.0825  0.7140 -4.1510
 2309SOL    HW218390   2.919   4.681  10.239  0.3225 -3.8802 -0.8643
 2310SOL     OW18391   2.488   1.587   7.060 -0.3389  0.2492 -0.2582
 2310SOL    HW118392   2.472   1.668   7.109 -2.7366  0.0271 -0.6877
 2310SOL    HW218393   2.431   1.534   7.117  0.5509  0.4378  0.8108
 2311SOL     OW18394   4.598   3.548   7.273  0.1040  0.1760 -0.1318
 2311SOL    HW118395   4.589   3.487   7.346 -1.1982 -0.4678 -0.8222
 2311SOL    HW218396   4.670   3.604   7.301 -1.3938  0.7462  2.5579
 2312SOL     OW18397   3.152   1.174   4.874 -0.6226 -0.0810 -0.2827
 2312SOL    HW118398   3.247   1.180   4.883 -0.8949  3.6252  0.2143
 2312SOL    HW218399   3.135   1.080   4.878 -2.4841  0.3190  1.2226
 2313SOL     OW18400   1.505   1.656   8.035 -0.1535 -0.1904 -0.0514
 2313SOL    HW118401   1.463   1.691   7.956  0.1314  2.0501  0.7901
 2313SOL    HW218402   1.540   1.727   8.089  1.8762 -0.1336 -1.4229
 2314SOL     OW18403   1.344   1.207  13.371 -0.6746  0.4617 -0.0399
 2314SOL    HW118404   1.377   1.277  13.427  0.8609  0.3078 -0.7765
 2314SOL    HW218405   1.419   1.182  13.318 -0.1509  1.4133  0.2595
 2315SOL     OW18406   3.682   3.288   1.994 -0.1560  0.3340  0.3280
 2315SOL    HW118407   3.746   3.233   1.949  2.0727  1.0938  2.5966
 2315SOL    HW218408   3.705   3.286   2.086  1.6124  0.7039 -0.1068
 2316SOL     OW18409   3.442   0.618  14.579 -0.3765  0.1046 -0.1017
 2316SOL    HW118410   3.447   0.546  14.516  0.9788 -1.2548  1.5475
 2316SOL    HW218411   3.398   0.567  14.647 -0.7219  0.4500 -0.0679
 2317SOL     OW18412   3.734   0.045  11.496 -0.2600  0.4483 -0.2135
 2317SOL    HW118413   3.720   0.031  11.403 -0.9843 -1.9413  0.2515
 2317SOL    HW218414   3.648   0.019  11.528  0.0634 -0.0907  0.2316
 2318SOL     OW18415   2.412   2.546   1.675 -0.3114 -0.2708  0.4767
 2318SOL    HW118416   2.409   2.638   1.700 -1.8876 -0.8894  2.6378
 2318SOL    HW218417   2.335   2.520   1.725 -0.6892 -2.1409 -1.0635
 2319SOL     OW18418   3.190   4.097   5.987 -0.7448  0.0135 -0.0486
 2319SOL    HW118419   3.097   4.084   5.969 -0.7184 -0.8064  0.3955
 2319SOL    HW218420   3.220   4.018   5.942 -0.3515  0.3217 -0.3247
 2320SOL     OW18421   0.949   1.678   6.973  0.2425  0.5413  0.3401
 2320SOL    HW118422   0.912   1.690   7.061 -1.6403 -1.3480 -0.1932
 2320SOL    HW218423   0.904   1.601   6.939 -1.8815  0.2127  3.9059
 2321SOL     OW18424   0.699   0.200   1.972 -0.2126  0.6225  0.0222
 2321SOL    HW118425   0.768   0.258   1.942 -0.2324  0.9872  0.6856
 2321SOL    HW218426   0.744   0.148   2.038 -1.2897 -0.1524  0.1560
 2322SOL     OW18427   1.585   1.012  17.188  0.4295 -0.5850 -0.5169
 2322SOL    HW118428   1.490   1.003  17.188  0.3331  0.4309  0.7336
 2322SOL    HW218429   1.616   0.935  17.237  1.2653  0.2203  0.2180
 2323SOL     OW18430   1.426   3.650  13.489  0.3054  0.1342 -0.3823
 2323SOL    HW118431   1.394   3.649  13.399 -0.9102  2.1237 -0.0026
 2323SOL    HW218432   1.342   3.624  13.528 -0.0638  0.1966 -1.1275
 2324SOL     OW18433   3.217   1.032  17.411  0.0788  0.1870  0.0474
 2324SOL    HW118434   3.280   1.053  17.342 -0.5839 -0.5867 -0.7928
 2324SOL    HW218435   3.233   1.097  17.480 -2.2434  0.3577  0.4324
 2325SOL     OW18436   4.203   4.651  14.713  0.4607 -0.1802  0.3971
 2325SOL    HW118437   4.295   4.656  14.740  0.3200 -1.5148  1.1418
 2325SOL    HW218438   4.206   4.696  14.629  0.3623  0.7785  0.9118
 2326SOL     OW18439   2.280   0.034   2.098 -0.2332  0.4583  0.4818
 2326SOL    HW118440   2.264   4.664   2.098  2.8903 -0.0561  0.1398
 2326SOL    HW218441   2.226   0.050   2.175  0.6568  3.2498  0.4950
 2327SOL     OW18442   0.525   3.544   4.991 -0.2425  0.0637  0.0300
 2327SOL    HW118443   0.527   3.630   4.949  1.7850 -0.0347 -0.1040
 2327SOL    HW218444   0.441   3.513   4.958  0.5535 -0.0603 -1.8947
 2328SOL     OW18445   0.202   3.401   2.545 -0.3142  0.4835  0.5897
 2328SOL    HW118446   0.214   3.309   2.521  1.3990  1.4988 -2.4669
 2328SOL    HW218447   0.286   3.431   2.578  0.8856 -3.1284  0.7874
 2329SOL     OW18448   1.131   3.147   1.035  0.3832  0.2373  0.1070
 2329SOL    HW118449   1.225   3.147   1.020  1.0657  2.2460  4.5312
 2329SOL    HW218450   1.108   3.078   0.973  1.1508  0.5665 -0.5408
 2330SOL     OW18451   0.393   0.068   2.729 -0.0663  0.3425 -0.4333
 2330SOL    HW118452   0.333   0.136   2.698 -2.0992 -0.7884  1.0082
 2330SOL    HW218453   0.369   0.054   2.821 -0.1087  0.7463 -0.3847
 2331SOL     OW18454   2.226   0.868  10.992  0.4055  0.0500  0.0823
 2331SOL    HW118455   2.204   0.859  11.085 -0.3946  1.6071  0.0430
 2331SOL    HW218456   2.141   0.848  10.952 -0.4898  1.6723  1.1491
 2332SOL     OW18457   0.661   0.556   9.796 -0.3770 -0.1779  0.5289
 2332SOL    HW118458   0.655   0.550   9.701  1.8901  1.9727  0.2427
 2332SOL    HW218459   0.722   0.629   9.806  1.2592 -1.3431 -0.9349
 2333SOL     OW18460   3.137   1.590   2.788  0.1683 -0.4233  0.7500
 2333SOL    HW118461   3.101   1.512   2.745 -1.7211  1.2555 -0.6889
 2333SOL    HW218462   3.199   1.548   2.847  1.2965 -1.2772 -1.0514
 2334SOL     OW18463   2.281   0.476   8.489 -0.6039 -0.1260 -0.2114
 2334SOL    HW118464   2.318   0.394   8.455  1.1794  0.3325  0.5914
 2334SOL    HW218465   2.213   0.482   8.422 -0.2137 -0.1823 -0.6170
 2335SOL     OW18466   3.159   0.534  16.790  0.2717 -0.1673 -0.1983
 2335SOL    HW118467   3.160   0.602  16.723  1.0989 -0.3191 -0.3453
 2335SOL    HW218468   3.241   0.493  16.763  0.4394 -0.1634  0.2930
 2336SOL     OW18469   2.467   2.666   8.713 -0.2295 -0.4948  0.0363
 2336SOL    HW118470   2.372   2.656   8.710 -0.3261 -0.4811  2.7566
 2336SOL    HW218471   2.494   2.679   8.804  0.5310  2.4821 -0.6155
 2337SOL     OW18472   1.591   3.710   3.388 -0.1831  0.4415  0.5208
 2337SOL    HW118473   1.626   3.654   3.456 -0.4313 -1.1187 -0.6463
 2337SOL    HW218474   1.606   3.653   3.313 -1.5283 -1.0601  1.4125
 2338SOL     OW18475   1.113   4.029   0.170  0.1363  0.3948 -0.2446
 2338SOL    HW118476   1.192   4.054   0.121  0.4348 -0.1098 -0.0294
 2338SOL    HW218477   1.064   4.106   0.144 -1.5349  0.1500  2.2507
 2339SOL     OW18478   2.645   0.066  11.308  0.2144  0.5046  0.1768
 2339SOL    HW118479   2.645   0.086  11.401 -0.1650 -1.7878  0.6611
 2339SOL    HW218480   2.570   0.112  11.272  2.2492  4.8233  1.4352
 2340SOL     OW18481   3.938   3.541  12.406 -0.4135 -0.0917 -0.0142
 2340SOL    HW118482   3.870   3.603  12.380 -0.2561 -0.2424 -0.7752
 2340SOL    HW218483   3.944   3.484  12.330  1.2934  0.0930 -0.0167
 2341SOL     OW18484   3.189   3.453   8.686  0.1347 -0.3229  0.5220
 2341SOL    HW118485   3.163   3.529   8.739 -1.9631 -1.3311  0.9456
 2341SOL    HW218486   3.277   3.483   8.664 -1.5227  3.1455 -1.4324
 2342SOL     OW18487   2.545   4.398  11.271  0.0836 -0.7644 -0.0978
 2342SOL    HW118488   2.606   4.368  11.338 -0.3535 -1.5760 -0.0590
 2342SOL    HW218489   2.465   4.425  11.316  0.6612 -0.2818  0.6531
 2343SOL     OW18490   2.900   0.085   8.520  0.8175  0.0830 -0.0970
 2343SOL    HW118491   2.939   0.172   8.520  0.5951  0.1731  2.3788
 2343SOL    HW218492   2.829   0.104   8.581  1.3064 -0.1811  0.5466
 2344SOL     OW18493   1.615   3.949  13.086 -0.7757  0.3157 -0.5488
 2344SOL    HW118494   1.705   3.960  13.057  0.0859 -0.5456  1.7842
 2344SOL    HW218495   1.568   3.906  13.015 -1.0460  1.9792 -1.3834
 2345SOL     OW18496   0.411   2.213  17.435 -0.3462  0.3761 -0.0099
 2345SOL    HW118497   0.389   2.192  17.526  2.2016 -3.5877 -0.2944
 2345SOL    HW218498   0.334   2.231  17.383 -1.3991 -0.1746  1.3612
 2346SOL     OW18499   3.044   3.196   8.100 -0.1864 -0.2934  0.2706
 2346SOL    HW118500   2.982   3.129   8.128 -2.6013  2.2531  1.0392
 2346SOL    HW218501   3.115   3.134   8.084 -1.3439 -2.2159  2.6649
 2347SOL     OW18502   4.200   2.248  13.610 -0.4485  0.3364  0.5403
 2347SOL    HW118503   4.193   2.331  13.564  0.4953 -0.9727 -1.9314
 2347SOL    HW218504   4.293   2.232  13.625 -0.5013 -0.4504  0.0413
 2348SOL     OW18505   2.238   3.853   6.502  0.0116 -0.6090 -0.9781
 2348SOL    HW118506   2.207   3.763   6.514 -1.6991 -0.2824 -3.1258
 2348SOL    HW218507   2.323   3.852   6.546 -2.1970 -0.8822  3.3248
 2349SOL     OW18508   1.874   4.407   6.088 -0.1849  0.3948  0.2878
 2349SOL    HW118509   1.883   4.354   6.008 -1.4756  1.4043 -0.5383
 2349SOL    HW218510   1.852   4.334   6.146 -3.0312 -0.2347 -1.5525
 2350SOL     OW18511   1.578   0.715  10.947 -0.1499 -0.6013 -0.0425
 2350SOL    HW118512   1.642   0.645  10.938  1.3752  0.6142  1.4518
 2350SOL    HW218513   1.614   0.771  11.016  1.2166  0.9139 -2.0190
 2351SOL     OW18514   2.764   0.494   5.621  0.2228  0.1567 -0.4177
 2351SOL    HW118515   2.775   0.493   5.716  1.1125  0.0298 -0.5217
 2351SOL    HW218516   2.729   0.583   5.617 -1.2441 -0.2983  2.6736
 2352SOL     OW18517   1.825   2.422   6.306 -0.3867  0.1062  0.1851
 2352SOL    HW118518   1.749   2.428   6.363  1.5249  0.8354  2.6359
 2352SOL    HW218519   1.861   2.339   6.337  0.6285  0.0590 -1.0835
 2353SOL     OW18520   2.975   3.108   0.346  0.2417 -0.6512  0.0747
 2353SOL    HW118521   2.887   3.075   0.329 -0.8254  1.2090  1.9633
 2353SOL    HW218522   2.986   3.144   0.258 -0.5986  0.0213  0.2487
 2354SOL     OW18523   0.963   3.068   0.289 -0.6658 -0.0234 -0.2471
 2354SOL    HW118524   1.045   3.107   0.320 -1.4195  0.4868  1.1253
 2354SOL    HW218525   0.915   3.141   0.249  2.8703  1.6992 -1.4423
 2355SOL     OW18526   3.657   2.318   2.288 -0.2175 -0.2275 -0.1981
 2355SOL    HW118527   3.654   2.295   2.195  0.0375  1.8245 -0.7145
 2355SOL    HW218528   3.751   2.306   2.302 -0.7909 -3.1506  1.2163
 2356SOL     OW18529   1.699   4.062   0.602 -0.2037  0.0940  0.2468
 2356SOL    HW118530   1.676   4.150   0.572  1.0342  0.3791  0.1282
 2356SOL    HW218531   1.794   4.070   0.616  0.0722 -1.7195 -0.5976
 2357SOL     OW18532   3.918   4.248   7.924  0.2295  0.0316 -0.3005
 2357SOL    HW118533   3.987   4.199   7.879 -1.4934 -2.1747 -0.5103
 2357SOL    HW218534   3.911   4.198   8.005  1.7944 -0.2040 -0.3160
 2358SOL     OW18535   0.832   4.050  14.217  0.4943  0.1170 -0.1326
 2358SOL    HW118536   0.746   4.011  14.206 -1.2601  4.3241 -1.4102
 2358SOL    HW218537   0.873   4.019  14.136 -1.0716 -2.2384 -0.0010
 2359SOL     OW18538   3.522   2.148   5.749 -0.4993  0.6416 -0.4323
 2359SOL    HW118539   3.502   2.155   5.843 -1.5982 -1.1121 -0.5245
 2359SOL    HW218540   3.433   2.177   5.726 -0.9736 -0.2001  0.3297
 2360SOL     OW18541   2.784   1.378   9.217 -0.1913 -0.5517 -0.3884
 2360SOL    HW118542   2.870   1.406   9.246 -1.2787  2.3403 -0.0095
 2360SOL    HW218543   2.752   1.438   9.150 -0.6203 -1.0282 -0.6176
 2361SOL     OW18544   2.283   0.133   4.910 -0.5812 -0.4721 -0.5083
 2361SOL    HW118545   2.362   0.140   4.857  0.4168  1.7615  1.2263
 2361SOL    HW218546   2.269   0.227   4.922  1.2118 -0.1311 -1.1254
 2362SOL     OW18547   3.009   2.508   3.418  0.2145  0.1092 -0.5548
 2362SOL    HW118548   3.078   2.538   3.359  1.5433  0.7616  1.3252
 2362SOL    HW218549   2.975   2.425   3.383 -0.7169  0.2165  0.0974
 2363SOL     OW18550   0.800   2.420  10.852 -0.0063  0.0054 -0.3768
 2363SOL    HW118551   0.874   2.374  10.891 -0.8731 -0.9377  0.1532
 2363SOL    HW218552   0.730   2.355  10.862  1.3824 -1.2352  1.1556
 2364SOL     OW18553   3.180   4.632   1.387 -0.2740 -0.0814 -0.1509
 2364SOL    HW118554   3.180   0.004   1.392  2.1347 -0.2567  2.8376
 2364SOL    HW218555   3.254   4.616   1.330 -2.0066 -1.0213 -2.1391
 2365SOL     OW18556   2.218   0.667   9.271  0.3741 -0.2132  0.8645
 2365SOL    HW118557   2.179   0.613   9.340 -1.8065 -1.9654 -1.7474
 2365SOL    HW218558   2.304   0.625   9.267  0.9134  1.0833 -1.3858
 2366SOL     OW18559   2.673   3.465  16.237 -0.0124 -0.2084  0.7174
 2366SOL    HW118560   2.603   3.403  16.258  1.0896 -1.1847  1.5023
 2366SOL    HW218561   2.642   3.542  16.284 -0.0578  0.0258  0.3018
 2367SOL     OW18562   3.654   2.081   0.185  0.6004 -0.2046 -0.4291
 2367SOL    HW118563   3.743   2.050   0.204  0.6587  0.4356  0.3123
 2367SOL    HW218564   3.603   2.044   0.256  0.0970 -2.3831 -1.9194
 2368SOL     OW18565   4.376   1.094   4.670 -0.0426  0.5738  0.2130
 2368SOL    HW118566   4.326   1.175   4.664  1.3996  1.2105 -3.2864
 2368SOL    HW218567   4.446   1.111   4.607 -0.0909 -0.6046 -0.1629
 2369SOL     OW18568   4.667   2.842   3.047  0.5921 -0.3372  0.3309
 2369SOL    HW118569   4.598   2.796   2.998  0.0290 -0.1441  0.9348
 2369SOL    HW218570   4.672   2.788   3.126 -1.2838  1.8286  1.9423
 2370SOL     OW18571   1.483   0.882   4.877 -0.4420 -0.5969  0.5458
 2370SOL    HW118572   1.510   0.834   4.799 -0.0496  1.6044 -0.6878
 2370SOL    HW218573   1.491   0.972   4.845 -0.6366 -1.7398 -2.6433
 2371SOL     OW18574   2.994   2.865   7.749  0.7332 -0.9113  0.5114
 2371SOL    HW118575   2.994   2.770   7.740 -1.2183 -0.8005 -0.6672
 2371SOL    HW218576   3.084   2.882   7.779  0.5154  0.1087  0.5827
 2372SOL     OW18577   3.067   0.556   8.916 -0.5562  0.1445 -0.1756
 2372SOL    HW118578   3.109   0.481   8.957 -0.8488  0.8440  1.4016
 2372SOL    HW218579   3.119   0.566   8.836 -0.7503  0.1350 -0.3032
 2373SOL     OW18580   4.135   2.458  15.128 -0.0098  0.7566  0.8286
 2373SOL    HW118581   4.040   2.470  15.132  0.1782  1.7676  2.1313
 2373SOL    HW218582   4.146   2.363  15.132 -1.5178  0.5823  0.9536
 2374SOL     OW18583   1.548   0.028   5.985 -0.1932 -0.3539  0.3255
 2374SOL    HW118584   1.501   0.110   5.969 -0.2907 -0.2751  1.0002
 2374SOL    HW218585   1.612   0.014   5.916 -0.8361 -0.1365 -0.3099
 2375SOL     OW18586   1.587   3.130   9.959 -0.2653  0.1110  0.3955
 2375SOL    HW118587   1.548   3.183  10.028  0.1101  1.4935 -0.4467
 2375SOL    HW218588   1.574   3.039   9.986 -3.2421  1.0120  1.9147
 2376SOL     OW18589   2.547   2.540  13.876  0.2376 -0.0185  0.0418
 2376SOL    HW118590   2.498   2.482  13.818 -1.5810  0.5690  1.0132
 2376SOL    HW218591   2.594   2.472  13.924  0.8337 -0.5369 -1.2616
 2377SOL     OW18592   2.823   0.113  15.257 -0.1536 -0.6963  0.2209
 2377SOL    HW118593   2.907   0.137  15.295  1.3300 -1.2226 -2.7125
 2377SOL    HW218594   2.777   0.058  15.319 -1.1827 -1.3617 -1.1220
 2378SOL     OW18595   4.134   3.998   4.235  0.2446 -0.4236  0.0974
 2378SOL    HW118596   4.147   3.944   4.158  0.0653 -1.1580  0.5849
 2378SOL    HW218597   4.204   4.060   4.213 -1.0679  1.2217  0.5322
 2379SOL     OW18598   1.146   1.126   7.443  0.1766 -0.2998  0.2655
 2379SOL    HW118599   1.169   1.057   7.504 -1.0327 -0.6923  0.2753
 2379SOL    HW218600   1.052   1.112   7.437 -0.1964  1.2790  2.3063
 2380SOL     OW18601   3.181   2.925  11.944 -0.5929 -0.4808 -0.2582
 2380SOL    HW118602   3.159   2.979  12.019  0.5499 -1.9780  1.1723
 2380SOL    HW218603   3.100   2.919  11.893 -0.1222  3.7393 -1.5129
 2381SOL     OW18604   0.139   0.811   6.475 -0.3327 -0.2459  0.2687
 2381SOL    HW118605   0.056   0.855   6.494 -0.9422 -0.1539 -2.4973
 2381SOL    HW218606   0.183   0.814   6.559  0.4121 -0.0765 -0.1316
 2382SOL     OW18607   3.159   3.575   3.769  0.3805 -0.3362  0.4909
 2382SOL    HW118608   3.112   3.653   3.740  0.1916 -0.1319  1.3463
 2382SOL    HW218609   3.083   3.544   3.819 -0.3993 -0.9903 -1.0753
 2383SOL     OW18610   1.095   4.718   4.804  0.4974  0.2004 -0.8380
 2383SOL    HW118611   1.101   0.010   4.710 -0.0333 -1.0863 -1.1009
 2383SOL    HW218612   1.013   0.039   4.823  1.3131  1.0725  0.5978
 2384SOL     OW18613   0.488   4.706   4.093  0.1841 -0.6185  0.0588
 2384SOL    HW118614   0.572   4.676   4.129  1.8940  3.7545 -0.2411
 2384SOL    HW218615   0.437   4.625   4.085 -0.7283 -0.3122  2.7889
 2385SOL     OW18616   4.090   1.325   9.628 -0.3474  0.1494 -0.5769
 2385SOL    HW118617   4.131   1.272   9.696 -0.2856  2.6435  1.3296
 2385SOL    HW218618   4.014   1.366   9.669 -1.3722 -1.3650 -0.9606
 2386SOL     OW18619   0.645   1.362   5.337 -0.0440  0.6919  0.4063
 2386SOL    HW118620   0.583   1.410   5.282 -1.4357 -0.6847  0.7679
 2386SOL    HW218621   0.678   1.431   5.395  2.0465  0.7850 -0.9199
 2387SOL     OW18622   0.328   0.582   5.015  0.5281  0.3709  0.3439
 2387SOL    HW118623   0.424   0.584   5.010  0.4046 -0.0247 -2.1773
 2387SOL    HW218624   0.317   0.677   5.024 -0.4770  0.2765  0.1009
 2388SOL     OW18625   0.988   3.445   1.980 -0.1670 -0.2291  1.1420
 2388SOL    HW118626   0.907   3.424   1.932  0.0787 -1.7449  1.4047
 2388SOL    HW218627   1.055   3.392   1.936  0.8207  2.5421 -0.7019
 2389SOL     OW18628   1.063   0.197   5.921  0.0897 -0.3199  0.1521
 2389SOL    HW118629   1.133   0.251   5.956 -0.1070  1.3985 -2.0871
 2389SOL    HW218630   1.033   0.229   5.836  0.8555 -0.6904 -0.2546
 2390SOL     OW18631   0.287   1.149   8.984 -0.1764 -0.1770  0.7162
 2390SOL    HW118632   0.214   1.104   9.025 -2.0719 -0.6102 -3.1609
 2390SOL    HW218633   0.352   1.093   9.027 -0.3773  1.4743  3.1395
 2391SOL     OW18634   3.308   2.729  11.811  0.2624 -0.4490 -0.0398
 2391SOL    HW118635   3.288   2.810  11.859 -0.2566  0.2397 -1.4395
 2391SOL    HW218636   3.223   2.695  11.785 -0.8239  2.2082  0.0206
 2392SOL     OW18637   2.097   2.475  16.987 -0.5473  0.6953  0.1152
 2392SOL    HW118638   2.092   2.517  16.901 -0.1329 -1.2759 -0.8722
 2392SOL    HW218639   2.122   2.384  16.969 -0.3507  0.8878 -0.5849
 2393SOL     OW18640   1.555   0.395   5.257 -0.0543  0.1775 -0.0478
 2393SOL    HW118641   1.573   0.323   5.318 -0.3871  2.1079  2.3262
 2393SOL    HW218642   1.626   0.376   5.195  0.1032 -0.7886  0.4305
 2394SOL     OW18643   2.807   1.896   6.077 -0.2614  0.1727  0.3571
 2394SOL    HW118644   2.823   1.861   5.989  2.5486  2.3873  0.0055
 2394SOL    HW218645   2.889   1.934   6.106 -1.4023  1.4743  1.8974
 2395SOL     OW18646   4.633   4.635   6.205  0.0447 -0.1771  0.7620
 2395SOL    HW118647   4.570   4.664   6.270 -1.6138  1.0357 -1.4091
 2395SOL    HW218648   4.682   4.577   6.264 -1.1901 -0.8814  1.0894
 2396SOL     OW18649   1.266   0.063  13.475 -0.0258  0.2546 -0.4832
 2396SOL    HW118650   1.283   0.155  13.453  0.8571 -0.5441 -3.0524
 2396SOL    HW218651   1.282   0.032  13.386 -0.7638  1.7270 -1.1331
 2397SOL     OW18652   3.766   0.412   5.211 -0.5317  0.2125 -0.4886
 2397SOL    HW118653   3.842   0.454   5.251 -0.4719  2.9278 -3.3736
 2397SOL    HW218654   3.797   0.391   5.123  0.4443 -2.8674  0.5927
 2398SOL     OW18655   2.034   0.177   3.739  0.2463 -0.1859 -0.5094
 2398SOL    HW118656   1.996   0.245   3.794  0.8122 -1.0616  0.9755
 2398SOL    HW218657   1.970   0.107   3.753  1.5262 -0.9168  1.7684
 2399SOL     OW18658   2.934   0.495  15.531 -0.6056 -0.9136 -0.1163
 2399SOL    HW118659   2.977   0.415  15.562 -1.1343 -1.7328 -1.5212
 2399SOL    HW218660   2.881   0.523  15.606 -0.4498 -1.3484  0.1565
 2400SOL     OW18661   2.161   2.303   1.231  0.1221 -0.1774  0.4872
 2400SOL    HW118662   2.089   2.267   1.284  0.7679 -1.0202  0.7885
 2400SOL    HW218663   2.123   2.387   1.204  0.1457 -0.0412  0.8761
 2401SOL     OW18664   2.685   0.843   5.517  0.5198  0.3344  0.5987
 2401SOL    HW118665   2.707   0.834   5.609  3.6235  1.5375 -0.0330
 2401SOL    HW218666   2.711   0.934   5.499  0.5041 -0.2051 -2.2119
 2402SOL     OW18667   1.957   4.011   4.316  0.0280 -0.2792 -0.4210
 2402SOL    HW118668   2.007   3.934   4.343  0.7957  0.4356  0.1706
 2402SOL    HW218669   1.995   4.075   4.377 -2.7832  1.2760 -0.2978
 2403SOL     OW18670   3.113   1.649   7.782 -0.3618  0.0197  0.0837
 2403SOL    HW118671   3.049   1.692   7.727  2.3039  3.7033 -0.1028
 2403SOL    HW218672   3.109   1.556   7.757  2.0365  0.1457 -0.7778
 2404SOL     OW18673   1.007   2.614   6.901  0.0923  0.5823 -0.6458
 2404SOL    HW118674   1.047   2.674   6.965 -3.0802  0.8640  1.0582
 2404SOL    HW218675   0.954   2.551   6.949  0.9302  1.3810  1.3500
 2405SOL     OW18676   0.741   3.914   9.173  1.1222 -0.0866  0.4958
 2405SOL    HW118677   0.816   3.959   9.211  0.5583  0.5093  0.8971
 2405SOL    HW218678   0.679   3.986   9.161  0.2500 -1.1308 -1.3104
 2406SOL     OW18679   2.465   4.540  17.661 -0.8946 -0.2726  0.1990
 2406SOL    HW118680   2.453   4.450  17.632  0.4826 -0.6703  0.8585
 2406SOL    HW218681   2.400   4.543   0.031 -1.2605 -1.5985 -0.0852
 2407SOL     OW18682   1.225   2.376  16.068 -0.0506 -0.2889 -0.1851
 2407SOL    HW118683   1.238   2.284  16.091  1.8626  0.6282  2.4500
 2407SOL    HW218684   1.209   2.401  16.159  1.3032 -2.0530  0.5433
 2408SOL     OW18685   3.298   4.112   8.265 -0.4551  0.1168 -0.4340
 2408SOL    HW118686   3.341   4.143   8.185  0.1556  0.4529  0.0267
 2408SOL    HW218687   3.253   4.194   8.286  0.0837  0.4665 -0.6555
 2409SOL     OW18688   3.087   4.574   4.109  0.4366  0.1672  0.3020
 2409SOL    HW118689   3.168   4.604   4.069  0.4447  0.5150  0.5793
 2409SOL    HW218690   3.063   4.658   4.146 -0.8007  1.2266 -2.9251
 2410SOL     OW18691   1.375   3.506   7.219  0.1823 -0.7528  0.2434
 2410SOL    HW118692   1.293   3.458   7.203 -0.0717 -0.5869  1.0288
 2410SOL    HW218693   1.348   3.560   7.293 -0.2172  2.2749 -2.1249
 2411SOL     OW18694   1.193   3.075   8.242 -1.1371 -0.1599 -0.2909
 2411SOL    HW118695   1.166   2.985   8.262  0.9900 -0.4319  1.3205
 2411SOL    HW218696   1.225   3.100   8.329  0.0033 -0.5908 -0.5992
 2412SOL     OW18697   2.763   1.789   7.959  0.5653  0.5183 -0.4249
 2412SOL    HW118698   2.750   1.882   7.977 -1.5386  0.1978 -0.3221
 2412SOL    HW218699   2.671   1.764   7.964  0.6551  0.4065  0.6333
 2413SOL     OW18700   4.151   1.862   4.031 -0.5794  0.2009 -0.4120
 2413SOL    HW118701   4.159   1.870   3.936 -1.8581  0.0187 -0.5274
 2413SOL    HW218702   4.242   1.833   4.038 -0.2038  1.0970 -1.5756
 2414SOL     OW18703   1.523   3.272   0.787  0.0831  0.2715  0.0617
 2414SOL    HW118704   1.453   3.219   0.825 -0.6206  1.3106  0.2164
 2414SOL    HW218705   1.489   3.358   0.811  0.1976  0.3547 -0.0765
 2415SOL     OW18706   1.980   0.841   0.318  0.3661 -0.6885 -0.3911
 2415SOL    HW118707   1.979   0.927   0.276 -2.9363  0.3451  1.8859
 2415SOL    HW218708   2.054   0.852   0.378 -2.7097  1.8424  2.8780
 2416SOL     OW18709   4.213   2.263   7.800 -0.2639 -0.5743 -0.2178
 2416SOL    HW118710   4.250   2.189   7.753  0.5098 -1.7851  2.2575
 2416SOL    HW218711   4.122   2.235   7.812 -0.3316  0.3047  1.3403
 2417SOL     OW18712   3.697   0.421   5.649 -0.4361  0.2875 -0.3547
 2417SOL    HW118713   3.747   0.468   5.583 -1.0144  0.5363 -0.6210
 2417SOL    HW218714   3.691   0.333   5.613  1.9292  0.3354 -0.8459
 2418SOL     OW18715   2.121   3.265   5.482 -0.0602  0.0647  0.3424
 2418SOL    HW118716   2.054   3.318   5.438  0.3490  0.2626 -0.0430
 2418SOL    HW218717   2.157   3.225   5.402 -0.1165 -1.6975  1.1973
 2419SOL     OW18718   0.633   2.202  12.103  0.1972 -0.4748  0.0731
 2419SOL    HW118719   0.635   2.120  12.153  0.6414  0.2042  1.1522
 2419SOL    HW218720   0.727   2.218  12.098 -0.2315  1.7561 -0.8830
 2420SOL     OW18721   1.187   3.871   6.192 -0.1702 -0.7995 -0.0921
 2420SOL    HW118722   1.219   3.901   6.277 -2.5826  3.0589 -0.5507
 2420SOL    HW218723   1.258   3.892   6.131 -0.6991  1.1672 -0.0103
 2421SOL     OW18724   0.297   0.518  13.942  0.9259 -0.4050 -0.0334
 2421SOL    HW118725   0.324   0.427  13.953  1.8100 -0.1721 -0.2810
 2421SOL    HW218726   0.208   0.493  13.916  1.0214  0.4228 -1.1765
 2422SOL     OW18727   3.311   4.097   9.913 -0.7838 -0.0100  0.6147
 2422SOL    HW118728   3.331   4.161   9.981  0.0837 -1.6116  1.8882
 2422SOL    HW218729   3.289   4.019   9.964 -0.9132 -0.2653  0.1704
 2423SOL     OW18730   0.417   3.637   5.837  0.5195  0.3718 -0.2679
 2423SOL    HW118731   0.384   3.720   5.802  1.6388  0.9534  0.0616
 2423SOL    HW218732   0.401   3.646   5.931 -0.8244  0.1168 -0.4680
 2424SOL     OW18733   0.995   4.262   6.297  0.2789  0.2073 -0.3347
 2424SOL    HW118734   0.910   4.294   6.327  0.2539 -1.7056  1.5666
 2424SOL    HW218735   1.023   4.327   6.232  1.8802 -1.2789 -1.1463
 2425SOL     OW18736   3.704   3.191  15.804  0.3135  0.5236 -0.2100
 2425SOL    HW118737   3.668   3.263  15.751 -0.0442 -1.0404 -2.0845
 2425SOL    HW218738   3.676   3.122  15.745 -1.8787  2.0407 -0.9365
 2426SOL     OW18739   3.685   3.860   4.422  0.3438  0.2144 -0.4743
 2426SOL    HW118740   3.685   3.924   4.493 -0.2208 -0.0130 -0.2735
 2426SOL    HW218741   3.778   3.863   4.399  0.1027  1.3976 -1.2296
 2427SOL     OW18742   3.048   0.660   7.517  0.1628 -0.1945  0.5249
 2427SOL    HW118743   3.020   0.743   7.555  1.6950  0.0464  1.1322
 2427SOL    HW218744   2.969   0.640   7.467 -0.5529  0.7200  1.2713
 2428SOL     OW18745   3.915   3.595   6.510 -0.4697 -0.3103 -0.4531
 2428SOL    HW118746   3.819   3.591   6.517 -0.3685  1.0883  1.5469
 2428SOL    HW218747   3.925   3.588   6.605 -2.8783  2.7023  0.0232
 2429SOL     OW18748   0.710   4.329   7.909 -0.8496 -0.4586  0.2499
 2429SOL    HW118749   0.636   4.372   7.865 -0.5290 -1.8374 -1.6542
 2429SOL    HW218750   0.731   4.254   7.853  1.3655 -1.0581  1.9005
 2430SOL     OW18751   2.122   2.177   8.828 -0.2660  0.2221 -0.0418
 2430SOL    HW118752   2.139   2.266   8.860  1.2482 -0.2290  0.3751
 2430SOL    HW218753   2.141   2.123   8.905 -1.0037  0.0596  0.0270
 2431SOL     OW18754   0.549   2.796  10.648  0.1230 -0.3238  0.3314
 2431SOL    HW118755   0.584   2.829  10.731  0.1381  2.0715 -0.6112
 2431SOL    HW218756   0.463   2.837  10.644 -0.7695 -2.3554 -0.9074
 2432SOL     OW18757   0.899   1.906   3.559  0.1659  0.3483  0.3942
 2432SOL    HW118758   0.896   1.963   3.636 -0.1146 -1.5637  1.8179
 2432SOL    HW218759   0.897   1.977   3.495  3.1170 -0.4241 -0.5594
 2433SOL     OW18760   3.241   2.012   2.222  0.5368  0.3140 -0.3120
 2433SOL    HW118761   3.174   2.001   2.290 -0.2581 -0.2235 -1.1872
 2433SOL    HW218762   3.196   2.055   2.150  2.8075 -0.2147 -2.0405
 2434SOL     OW18763   1.045   4.236  14.181 -0.3203  1.3672  0.0371
 2434SOL    HW118764   1.130   4.204  14.210 -1.0339 -1.2087 -0.6483
 2434SOL    HW218765   0.980   4.172  14.210 -0.0783  0.8663 -0.5308
 2435SOL     OW18766   2.070   1.561   2.652 -0.2660 -0.8008  0.0160
 2435SOL    HW118767   2.133   1.617   2.607  2.7809 -1.5308  3.3192
 2435SOL    HW218768   2.115   1.477   2.660  0.8653 -0.3491 -1.7296
 2436SOL     OW18769   3.582   2.963  11.737 -0.7343 -0.8141  0.6315
 2436SOL    HW118770   3.576   2.882  11.788 -0.6158 -0.8758  0.5467
 2436SOL    HW218771   3.559   3.029  11.803  1.3771  1.5681 -1.0245
 2437SOL     OW18772   1.220   4.575  16.362  0.0492  0.0856 -0.8030
 2437SOL    HW118773   1.233   4.665  16.331  2.5768  0.7776  2.1741
 2437SOL    HW218774   1.306   4.565  16.405  0.7254  0.5849 -2.0391
 2438SOL     OW18775   0.412   1.271   8.317 -0.2631 -0.0443  0.4223
 2438SOL    HW118776   0.436   1.250   8.407 -1.9341 -1.6360  0.4780
 2438SOL    HW218777   0.359   1.348   8.336  0.3562  0.3303  0.6645
 2439SOL     OW18778   3.144   2.066   5.875 -0.9939  0.2406 -0.0797
 2439SOL    HW118779   3.146   1.975   5.844 -0.1384 -0.0920  0.9746
 2439SOL    HW218780   3.110   2.051   5.963  0.5024  0.4183  0.5269
 2440SOL     OW18781   0.486   0.627   5.775  0.7888  0.1820 -0.0703
 2440SOL    HW118782   0.454   0.556   5.719 -4.4476  1.4839  1.3291
 2440SOL    HW218783   0.569   0.580   5.785  0.4960 -0.7098 -1.8511
 2441SOL     OW18784   1.691   0.396   7.857  0.2257  0.3005 -0.7088
 2441SOL    HW118785   1.728   0.477   7.892 -1.2087  0.2872  0.8399
 2441SOL    HW218786   1.746   0.320   7.873  1.3916  0.6095 -3.2166
 2442SOL     OW18787   2.231   4.056   9.647  0.0569  0.3567  0.9795
 2442SOL    HW118788   2.258   4.132   9.699  0.1982 -0.2023  1.7345
 2442SOL    HW218789   2.289   4.065   9.572 -2.7607  0.5880 -1.1539
 2443SOL     OW18790   4.425   1.426   7.792  0.0379  0.6940  0.3258
 2443SOL    HW118791   4.422   1.495   7.726  1.7718  0.5690  0.1160
 2443SOL    HW218792   4.338   1.430   7.832  0.1629 -0.0546  0.6784
 2444SOL     OW18793   1.313   0.793   3.220  0.2966 -0.0493  0.1844
 2444SOL    HW118794   1.311   0.708   3.176 -2.4576 -0.0284  0.2485
 2444SOL    HW218795   1.325   0.762   3.310  0.7785 -0.4928 -0.0358
 2445SOL     OW18796   3.133   0.009   1.911 -0.0071  0.2515 -0.1031
 2445SOL    HW118797   3.194   4.679   1.861  0.8992  1.0623  0.1415
 2445SOL    HW218798   3.086   0.067   1.851 -0.9249  1.7650  2.0718
 2446SOL     OW18799   2.335   0.627   9.700 -0.1662  0.1784 -0.0443
 2446SOL    HW118800   2.264   0.588   9.751  0.0166 -2.4531 -1.8045
 2446SOL    HW218801   2.349   0.553   9.642 -1.9970 -0.4533  0.3275
 2447SOL     OW18802   4.425   1.565   6.440 -0.4516  0.1068 -0.0112
 2447SOL    HW118803   4.358   1.524   6.495 -1.0187  0.7319 -0.2500
 2447SOL    HW218804   4.423   1.503   6.367  0.1960 -0.1985  0.2257
 2448SOL     OW18805   2.145   4.545   7.903  0.2233  0.1349  0.2456
 2448SOL    HW118806   2.104   4.460   7.887  0.3530 -0.3097  2.3261
 2448SOL    HW218807   2.221   4.519   7.954 -0.0607 -1.1307  0.0421
 2449SOL     OW18808   2.667   0.612   3.003 -0.2070 -0.0193  0.1016
 2449SOL    HW118809   2.587   0.565   2.979  0.5258 -0.8234 -0.7731
 2449SOL    HW218810   2.684   0.615   3.098 -0.3571 -1.0644  0.1696
 2450SOL     OW18811   2.979   1.149   6.986 -0.1186 -0.1556 -0.8052
 2450SOL    HW118812   3.038   1.216   6.953  0.9642  0.0081  1.4960
 2450SOL    HW218813   2.937   1.200   7.055 -2.0736  0.5766 -2.5387
 2451SOL     OW18814   3.102   3.146  16.313 -0.2831 -0.4781  0.1154
 2451SOL    HW118815   3.163   3.101  16.371  0.9826  0.7910 -0.2440
 2451SOL    HW218816   3.156   3.206  16.262  0.9991 -1.1818  0.6329
 2452SOL     OW18817   2.517   0.007   2.720 -0.5697  0.1623 -0.4653
 2452SOL    HW118818   2.437   4.697   2.761  0.2837 -1.6108 -0.3285
 2452SOL    HW218819   2.483   0.062   2.649 -1.7638 -0.2152 -0.1985
 2453SOL     OW18820   0.021   4.240  10.999 -0.3539  0.5159  0.5996
 2453SOL    HW118821   4.696   4.166  11.034 -2.7229  1.0189 -1.7271
 2453SOL    HW218822   4.704   4.307  11.053 -2.7281 -2.1000  2.0174
 2454SOL     OW18823   2.652   3.900   8.134 -0.1336  0.9956  0.2348
 2454SOL    HW118824   2.726   3.949   8.170 -0.4273 -0.3382  2.6098
 2454SOL    HW218825   2.592   3.900   8.208 -1.8834  2.1236 -1.1800
 2455SOL     OW18826   0.091   2.077  17.479 -0.2494  0.4121 -0.2961
 2455SOL    HW118827   0.124   2.156  17.434 -0.4435  1.2067  0.9661
 2455SOL    HW218828   0.148   2.083  17.555 -0.8041  1.1389  0.0619
 2456SOL     OW18829   1.862   4.425   5.253 -0.1527  0.4194 -0.5718
 2456SOL    HW118830   1.769   4.434   5.273  0.0298 -0.2861  0.5820
 2456SOL    HW218831   1.909   4.388   5.328  2.1171  4.4076 -0.0180
 2457SOL     OW18832   1.988   3.933   3.660  0.0321 -0.2541 -0.3773
 2457SOL    HW118833   1.906   3.886   3.674 -1.3530  2.3466  0.2317
 2457SOL    HW218834   1.974   4.004   3.723 -1.0741  0.1210 -1.0524
 2458SOL     OW18835   1.458   1.683  13.124  0.4774  0.6653  0.3723
 2458SOL    HW118836   1.478   1.593  13.149  0.7646  1.5499  3.3996
 2458SOL    HW218837   1.457   1.672  13.029  0.3628  1.5143  0.2700
 2459SOL     OW18838   3.415   0.633   8.137  0.1133  0.3992  0.2965
 2459SOL    HW118839   3.379   0.551   8.169  0.9745  0.0199  0.2970
 2459SOL    HW218840   3.479   0.668   8.199  1.4804 -1.1235 -0.2726
 2460SOL     OW18841   3.538   1.169  13.814 -0.0155 -0.2383  0.1102
 2460SOL    HW118842   3.501   1.201  13.897 -1.8403 -1.0710 -0.3901
 2460SOL    HW218843   3.573   1.249  13.775  2.5025 -0.9160  1.0084
 2461SOL     OW18844   0.117   0.084   2.577  0.1126 -0.6400  0.2962
 2461SOL    HW118845   0.094   0.020   2.644  1.1866 -2.3834 -0.9985
 2461SOL    HW218846   0.135   0.029   2.501  3.2429  0.6334  0.1148
 2462SOL     OW18847   0.423   0.220  17.323 -0.3300 -0.4570  0.3722
 2462SOL    HW118848   0.438   0.189  17.412  1.6638  0.9604  0.5331
 2462SOL    HW218849   0.454   0.310  17.330  2.1949 -1.1545 -2.0670
 2463SOL     OW18850   0.862   0.202   7.331  0.3160 -0.1903  0.2660
 2463SOL    HW118851   0.859   0.112   7.298 -4.2024  0.4026 -0.8777
 2463SOL    HW218852   0.774   0.231   7.306  0.1723  0.3610  1.3956
 2464SOL     OW18853   1.140   1.532   4.500 -0.3752  0.3065 -0.1749
 2464SOL    HW118854   1.234   1.544   4.482 -0.1703 -0.5646  0.2858
 2464SOL    HW218855   1.151   1.444   4.537 -3.7305 -0.1874 -0.4119
 2465SOL     OW18856   0.820   3.243   5.727  0.0138  0.2066 -0.2345
 2465SOL    HW118857   0.857   3.174   5.673 -0.1217  0.8157 -1.1060
 2465SOL    HW218858   0.751   3.270   5.667 -1.3621 -1.9638  0.3980
 2466SOL     OW18859   4.297   3.118  10.428 -0.2875  0.0639 -0.0011
 2466SOL    HW118860   4.265   3.088  10.513  1.3572 -0.5852  0.3929
 2466SOL    HW218861   4.210   3.124  10.390 -0.9603 -0.4385  1.4472
 2467SOL     OW18862   3.492   3.690   5.965  0.0662  0.2097  0.2907
 2467SOL    HW118863   3.508   3.596   5.973 -0.2279  0.1412  0.0733
 2467SOL    HW218864   3.554   3.723   6.030  1.4998 -2.0174  0.0228
 2468SOL     OW18865   2.799   1.402   3.312  0.2274  0.0498  0.0622
 2468SOL    HW118866   2.770   1.331   3.370  0.8689  0.0644  0.4094
 2468SOL    HW218867   2.874   1.434   3.362  1.5046 -2.5406 -0.1540
 2469SOL     OW18868   3.613   1.697  13.522  0.2184  0.8913 -0.8524
 2469SOL    HW118869   3.547   1.637  13.557 -0.3497  2.5187  0.8257
 2469SOL    HW218870   3.556   1.761  13.479  0.4171  0.9428 -1.0378
 2470SOL     OW18871   2.030   3.028   4.314  0.3036  0.7919  0.2911
 2470SOL    HW118872   2.085   3.056   4.387  1.6128 -2.8969  0.7287
 2470SOL    HW218873   2.056   3.102   4.258 -1.3736  2.5340  1.7956
 2471SOL     OW18874   1.700   3.223  16.079  0.0373 -0.1958  0.0389
 2471SOL    HW118875   1.649   3.166  16.021 -0.0813  1.7123 -1.7498
 2471SOL    HW218876   1.704   3.307  16.032  0.9122  0.0164  0.4799
 2472SOL     OW18877   0.086   1.641   9.401  0.4016  0.6148 -0.5651
 2472SOL    HW118878   0.044   1.570   9.450  0.5277  0.5936 -0.4872
 2472SOL    HW218879   0.119   1.581   9.335 -1.1096  0.0198 -0.7753
 2473SOL     OW18880   2.902   2.639   9.735  0.0685  0.3857  0.1856
 2473SOL    HW118881   2.984   2.593   9.749  0.5481  1.4388  0.8479
 2473SOL    HW218882   2.887   2.609   9.645  0.1792  1.5159 -0.2088
 2474SOL     OW18883   0.259   2.434  11.170 -0.3783 -0.3082  0.3396
 2474SOL    HW118884   0.268   2.386  11.252  1.9206  1.4005  1.0801
 2474SOL    HW218885   0.173   2.471  11.188 -0.6501 -1.3102  1.0887
 2475SOL     OW18886   4.668   4.517  12.425 -0.4514 -0.1217  0.4549
 2475SOL    HW118887   0.039   4.523  12.429 -0.4672  1.9014 -1.7800
 2475SOL    HW218888   4.643   4.530  12.516 -1.0049  2.1711 -0.0372
 2476SOL     OW18889   0.620   0.873   6.156 -0.2350  0.4830  0.0753
 2476SOL    HW118890   0.640   0.949   6.101  2.4726  1.0491  1.8436
 2476SOL    HW218891   0.612   0.912   6.243  2.0799 -0.8323  0.8768
 2477SOL     OW18892   2.293   3.828   3.902  0.1710  0.6869  0.0217
 2477SOL    HW118893   2.318   3.765   3.970  2.0647  1.2734 -0.1122
 2477SOL    HW218894   2.215   3.858   3.948  0.5891  1.3138  0.3236
 2478SOL     OW18895   4.527   4.290   4.360 -0.6996 -0.2556  0.4059
 2478SOL    HW118896   4.532   4.381   4.331  1.0897 -0.6030 -0.3718
 2478SOL    HW218897   4.620   4.268   4.364 -0.0162  2.5461 -0.2506
 2479SOL     OW18898   0.443   1.300   2.254 -0.1245  0.2986  0.0392
 2479SOL    HW118899   0.398   1.268   2.332 -0.5429  0.7982  0.0009
 2479SOL    HW218900   0.535   1.290   2.277  0.1331 -0.8325 -1.4656
 2480SOL     OW18901   3.626   2.123   4.933 -0.4999 -0.0154 -0.6884
 2480SOL    HW118902   3.559   2.062   4.900 -0.1219 -0.5361 -0.4952
 2480SOL    HW218903   3.582   2.206   4.918  0.3414  0.2714 -1.5456
 2481SOL     OW18904   2.984   3.021   6.825  0.5099 -0.1936 -0.1205
 2481SOL    HW118905   2.979   2.971   6.906 -0.7206 -0.8763 -0.6186
 2481SOL    HW218906   2.902   3.066   6.844  0.1708  0.1148 -2.2460
 2482SOL     OW18907   1.248   0.337   3.589 -0.1026  0.3448  0.1027
 2482SOL    HW118908   1.291   0.252   3.583  1.3712  1.3032 -2.5281
 2482SOL    HW218909   1.329   0.383   3.567 -0.2742  0.6322  0.0721
 2483SOL     OW18910   1.395   3.667   2.427  0.2766  0.9526 -0.1174
 2483SOL    HW118911   1.304   3.638   2.422  1.2682 -2.3751  0.6706
 2483SOL    HW218912   1.453   3.590   2.431  1.2365  1.6618 -0.4457
 2484SOL     OW18913   4.051   3.425   9.182  0.2993 -0.1442 -0.6104
 2484SOL    HW118914   4.061   3.384   9.096  0.9155  0.4797 -0.8383
 2484SOL    HW218915   3.967   3.387   9.208  2.0602 -2.6024  1.4343
 2485SOL     OW18916   3.715   1.459  11.163 -0.1508 -0.2148  0.1370
 2485SOL    HW118917   3.780   1.456  11.094  0.0030  0.5001  0.2533
 2485SOL    HW218918   3.716   1.366  11.186  0.6622 -0.2970 -0.2386
 2486SOL     OW18919   1.157   2.065   3.361 -0.2201 -0.2965  0.0046
 2486SOL    HW118920   1.195   2.109   3.286  0.5937 -2.2758 -0.7655
 2486SOL    HW218921   1.217   1.996   3.391 -1.7943 -1.2304  0.9926
 2487SOL     OW18922   4.059   2.382  14.402  0.9700 -0.5264  0.0875
 2487SOL    HW118923   4.099   2.401  14.317  0.0757  0.1110 -0.1999
 2487SOL    HW218924   4.137   2.386  14.457  0.9629  1.2792 -0.0281
 2488SOL     OW18925   1.696   1.103  13.492 -0.1983  0.3640  0.1443
 2488SOL    HW118926   1.639   1.135  13.422  1.5218  1.7558 -0.6160
 2488SOL    HW218927   1.766   1.071  13.437 -2.1448 -3.4209 -0.0881
 2489SOL     OW18928   1.725   2.818   6.493 -0.1009  0.1807 -0.5102
 2489SOL    HW118929   1.673   2.816   6.412  1.9702  2.0513 -1.9023
 2489SOL    HW218930   1.691   2.893   6.541 -0.0002 -0.5455  0.6846
 2490SOL     OW18931   0.139   0.403   5.483  0.1525  0.4090  0.5782
 2490SOL    HW118932   0.198   0.478   5.474  0.8411 -0.4524 -2.3095
 2490SOL    HW218933   0.127   0.390   5.577  0.4606  1.7565  0.7938
 2491SOL     OW18934   1.508   0.621   9.033 -0.2473  0.3358 -0.4919
 2491SOL    HW118935   1.520   0.612   9.128  3.0805  0.3779 -0.9085
 2491SOL    HW218936   1.601   0.622   9.013  0.5486  1.1287  3.2628
 2492SOL     OW18937   0.527   2.619   2.302 -0.4222  0.0087  0.2193
 2492SOL    HW118938   0.469   2.662   2.240  0.7611 -0.3997 -1.1637
 2492SOL    HW218939   0.499   2.528   2.291 -1.0992  0.2272  0.1871
 2493SOL     OW18940   1.953   0.398  10.755  0.0159  0.1674  0.0761
 2493SOL    HW118941   1.881   0.353  10.710 -0.2319  2.4533 -1.7952
 2493SOL    HW218942   2.019   0.372  10.691  0.2409 -0.9950  0.7768
 2494SOL     OW18943   4.011   3.349   7.288  0.1137 -0.3027 -0.4043
 2494SOL    HW118944   3.939   3.292   7.263 -0.6696  0.2347  0.6012
 2494SOL    HW218945   4.081   3.287   7.307 -0.9556 -0.9059  1.5571
 2495SOL     OW18946   0.469   1.494   6.437  0.0427  0.0958  0.2187
 2495SOL    HW118947   0.481   1.531   6.524  1.2723 -0.1270  0.1469
 2495SOL    HW218948   0.388   1.447   6.450 -0.4447  0.2219 -2.3351
 2496SOL     OW18949   3.291   1.644   4.287 -0.0692 -0.3702 -0.2548
 2496SOL    HW118950   3.262   1.618   4.375 -1.9242  0.9905 -0.4664
 2496SOL    HW218951   3.353   1.573   4.270 -1.3261 -1.4953 -0.1405
 2497SOL     OW18952   1.898   0.580   7.931  0.1553  0.1903  0.3749
 2497SOL    HW118953   1.882   0.606   7.840  1.7023 -0.7442 -0.1624
 2497SOL    HW218954   1.947   0.499   7.919 -0.3086  0.0803 -0.7385
 2498SOL     OW18955   3.006   1.608   5.271  0.3474  0.0563  0.3758
 2498SOL    HW118956   2.974   1.518   5.281 -0.5639  0.5731  2.1957
 2498SOL    HW218957   2.938   1.659   5.316  0.6663 -1.0214  2.0843
 2499SOL     OW18958   0.094   2.396  12.191 -0.1151 -0.6288  0.5522
 2499SOL    HW118959   0.092   2.433  12.103 -2.5497  0.7551  1.1916
 2499SOL    HW218960   0.051   2.463  12.244 -0.6110 -1.8884  1.7442
 2500SOL     OW18961   0.437   1.162   0.138  0.4626  0.1379 -0.5442
 2500SOL    HW118962   0.395   1.138   0.056 -0.2694 -1.1507  0.2151
 2500SOL    HW218963   0.468   1.076   0.166 -0.4252 -0.3842 -1.1932
 2501SOL     OW18964   0.131   4.569   2.937  0.7083 -0.6068  0.9180
 2501SOL    HW118965   0.058   4.617   2.897 -0.7540 -3.4470  0.1759
 2501SOL    HW218966   0.191   4.642   2.954  0.6868 -0.3825  0.0245
 2502SOL     OW18967   1.024   4.079  12.943  0.3091  0.5640  0.0464
 2502SOL    HW118968   1.087   4.130  12.993  0.9775  1.2678 -1.5204
 2502SOL    HW218969   0.971   4.056  13.020  1.5180 -0.1765  0.6599
 2503SOL     OW18970   3.887   1.674   5.315 -0.0972 -0.2545  0.6669
 2503SOL    HW118971   3.813   1.726   5.285 -1.9061 -3.2246  0.1026
 2503SOL    HW218972   3.944   1.750   5.330 -0.0277 -0.0821 -0.5015
 2504SOL     OW18973   3.913   1.859  16.318 -0.1301 -0.2622 -0.1117
 2504SOL    HW118974   3.818   1.868  16.311 -0.1702  1.2778  2.1410
 2504SOL    HW218975   3.934   1.946  16.352 -0.4593 -0.1348 -0.2367
 2505SOL     OW18976   3.083   1.351   6.831  0.4964  0.6173 -0.1696
 2505SOL    HW118977   3.086   1.421   6.896 -0.4107 -0.4753  1.0331
 2505SOL    HW218978   2.992   1.363   6.803 -0.1156  0.6029  1.8683
 2506SOL     OW18979   0.592   1.646   4.937  0.8396 -0.2038  0.6673
 2506SOL    HW118980   0.510   1.611   4.970  0.5136  0.3994  0.4989
 2506SOL    HW218981   0.659   1.623   5.001  1.0780 -0.3031  0.3849
 2507SOL     OW18982   2.486   2.129   9.169 -0.1747 -0.0504  0.0710
 2507SOL    HW118983   2.504   2.134   9.075  1.3836 -1.9237  0.2727
 2507SOL    HW218984   2.534   2.056   9.207  0.4901  0.4221  0.1326
 2508SOL     OW18985   1.577   0.982   5.306  0.1848 -0.1719  0.5023
 2508SOL    HW118986   1.667   0.965   5.276  0.0733 -0.4074  0.3080
 2508SOL    HW218987   1.535   0.904   5.271 -0.1584 -0.1525  0.8834
 2509SOL     OW18988   3.937   1.986  12.311 -0.2743  0.2998  0.0581
 2509SOL    HW118989   3.874   1.963  12.379  0.4055 -2.5955 -0.2941
 2509SOL    HW218990   4.018   2.006  12.357  0.6658 -1.5029 -0.7859
 2510SOL     OW18991   1.038   3.646   8.376  0.2924 -0.2647  0.2376
 2510SOL    HW118992   1.003   3.735   8.379 -1.0787 -0.7237 -2.0888
 2510SOL    HW218993   1.126   3.659   8.412  1.9115  0.3541 -3.9782
 2511SOL     OW18994   4.470   2.189   0.593 -0.0188 -0.2496  0.2782
 2511SOL    HW118995   4.436   2.115   0.543 -0.5374 -0.5781  1.1110
 2511SOL    HW218996   4.511   2.146   0.668 -1.8370  0.3324  1.6120
 2512SOL     OW18997   4.329   1.433   3.345 -0.7140 -0.0981 -0.3921
 2512SOL    HW118998   4.346   1.376   3.420 -1.2127  1.8316  1.2171
 2512SOL    HW218999   4.342   1.369   3.276  1.3525 -2.0442  1.7856
 2513SOL     OW19000   3.283   2.133  13.126  0.3226 -0.4832  0.1714
 2513SOL    HW119001   3.206   2.171  13.084  1.6682  1.5623 -0.4478
 2513SOL    HW219002   3.277   2.156  13.219  0.6657 -1.0566  0.3370
 2514SOL     OW19003   4.715   1.842   8.086  0.4900  0.2006 -0.3260
 2514SOL    HW119004   0.008   1.918   8.142 -0.9565  1.0097 -0.9857
 2514SOL    HW219005   0.070   1.789   8.087 -0.0055 -0.5520 -3.0950
 2515SOL     OW19006   1.521   0.122  15.261  0.4300 -0.2808  0.1409
 2515SOL    HW119007   1.502   0.213  15.236 -0.0216 -0.6143 -0.7020
 2515SOL    HW219008   1.528   0.136  15.356 -1.8325 -0.3646  0.3292
 2516SOL     OW19009   3.065   4.573   0.338  0.1980  1.2830  0.4632
 2516SOL    HW119010   3.059   4.648   0.278  0.8762  2.3895  1.7892
 2516SOL    HW219011   3.001   4.521   0.290  0.7442  2.6742 -1.8157
 2517SOL     OW19012   0.638   1.856   1.485  0.3890 -0.4548 -0.0683
 2517SOL    HW119013   0.557   1.905   1.472  1.4472  1.8011  1.7381
 2517SOL    HW219014   0.700   1.920   1.450  0.8905 -0.0958  1.4440
 2518SOL     OW19015   2.596   0.508  17.486  0.1201 -0.5736  0.0442
 2518SOL    HW119016   2.576   0.540  17.573  1.5675 -1.6094  0.7530
 2518SOL    HW219017   2.684   0.473  17.502 -0.5782 -1.5736  1.6009
 2519SOL     OW19018   2.619   0.067   4.324 -0.3119  0.7861  0.1546
 2519SOL    HW119019   2.568   0.004   4.375 -0.3517  1.5465  1.0648
 2519SOL    HW219020   2.707   0.031   4.316 -1.0877 -1.4383  1.8988
 2520SOL     OW19021   3.376   3.419  12.820 -0.6888  0.3417  0.1006
 2520SOL    HW119022   3.344   3.355  12.757 -2.1616 -0.1889  1.4021
 2520SOL    HW219023   3.468   3.418  12.793 -0.3429 -3.0404  1.4805
 2521SOL     OW19024   1.422   1.483   1.878  0.2052  0.6338  0.4426
 2521SOL    HW119025   1.369   1.451   1.951  1.3246 -2.2221  0.0137
 2521SOL    HW219026   1.354   1.478   1.810 -0.2192  3.1812  0.7192
 2522SOL     OW19027   3.343   1.536  13.723 -0.5454 -0.2659 -0.6124
 2522SOL    HW119028   3.419   1.478  13.721  0.1163  0.5632  0.3623
 2522SOL    HW219029   3.275   1.480  13.759  0.8383 -1.4801  0.0999
 2523SOL     OW19030   2.727   0.214   9.526  0.4249 -0.0292  0.1667
 2523SOL    HW119031   2.768   0.134   9.494 -2.3572 -2.2338  2.1086
 2523SOL    HW219032   2.801   0.274   9.537 -1.5107  2.2908  0.4696
 2524SOL     OW19033   3.760   3.532   8.452  0.1755  0.4419 -0.1669
 2524SOL    HW119034   3.788   3.463   8.391  0.1629 -0.0144  0.3418
 2524SOL    HW219035   3.671   3.550   8.421 -0.5002  0.0972  1.6010
 2525SOL     OW19036   0.139   3.674   6.125 -0.0595 -0.0720  0.2449
 2525SOL    HW119037   0.098   3.633   6.049  0.7788  2.4330 -1.5460
 2525SOL    HW219038   0.078   3.741   6.154  2.4765  2.1261  0.5376
 2526SOL     OW19039   0.652   1.024   3.735 -0.5576 -0.0429 -0.3366
 2526SOL    HW119040   0.676   1.008   3.827  1.1537  1.8919 -0.4492
 2526SOL    HW219041   0.645   1.119   3.740  3.0039  0.1753  0.7907
 2527SOL     OW19042   3.588   3.416   7.230  0.1159 -0.4097  0.3475
 2527SOL    HW119043   3.661   3.452   7.181  0.6698 -3.0215 -0.7656
 2527SOL    HW219044   3.584   3.331   7.186  0.5170 -0.7699  1.0240
 2528SOL     OW19045   1.020   0.643   5.836  0.3673  0.0161  0.4685
 2528SOL    HW119046   1.020   0.566   5.779 -0.3757 -0.0643  0.5787
 2528SOL    HW219047   1.039   0.713   5.773 -3.3284 -0.7697 -1.5033
 2529SOL     OW19048   2.395   1.625   9.419 -0.0876  0.4554  0.2636
 2529SOL    HW119049   2.408   1.577   9.502  3.3484  3.7076  1.6099
 2529SOL    HW219050   2.489   1.622   9.401  0.1305  2.7310  1.1027
 2530SOL     OW19051   1.091   1.494  11.765 -0.0343  0.1144  0.0015
 2530SOL    HW119052   1.075   1.490  11.671 -0.3309  0.3005  0.0423
 2530SOL    HW219053   0.999   1.502  11.789 -0.5053 -3.5535 -0.4801
 2531SOL     OW19054   2.396   0.082   6.926  0.0951 -0.2594  0.3724
 2531SOL    HW119055   2.346   0.118   6.853  0.6740  0.3284  0.2634
 2531SOL    HW219056   2.363   4.717   6.929 -0.3420 -0.0340  2.3346
 2532SOL     OW19057   0.869   1.209   9.122  0.2523  0.0586 -0.0894
 2532SOL    HW119058   0.891   1.140   9.184  1.3931 -2.4164 -3.2411
 2532SOL    HW219059   0.949   1.257   9.142 -0.5211  1.9598 -1.4891
 2533SOL     OW19060   4.695   1.717   5.936  0.1155 -0.6901  0.0512
 2533SOL    HW119061   4.670   1.664   5.861  0.4769  0.6633 -1.0285
 2533SOL    HW219062   4.636   1.679   6.001 -0.8292  0.8815  0.1235
 2534SOL     OW19063   1.997   3.256   9.392  0.3696 -0.1883 -0.1773
 2534SOL    HW119064   2.086   3.273   9.361  0.6270  2.1682  1.8389
 2534SOL    HW219065   1.943   3.323   9.350  0.5151  0.6192  0.9274
 2535SOL     OW19066   1.757   3.112   4.490  0.6462 -0.3613 -0.2037
 2535SOL    HW119067   1.747   3.026   4.449 -1.7586 -0.3624  0.3509
 2535SOL    HW219068   1.666   3.132   4.468  0.8981 -1.3279 -2.1299
 2536SOL     OW19069   1.991   4.446  10.492  0.3536  0.3518 -0.4567
 2536SOL    HW119070   1.948   4.387  10.554  0.0714  0.1855 -0.8060
 2536SOL    HW219071   1.934   4.464  10.417 -0.4027 -1.3514 -0.2831
 2537SOL     OW19072   0.941   1.742  13.646 -0.0476 -0.3961 -0.2321
 2537SOL    HW119073   0.847   1.745  13.630 -0.9523  0.1492  5.3858
 2537SOL    HW219074   0.949   1.662  13.697 -0.7057 -0.0578  0.4120
 2538SOL     OW19075   3.194   0.852   8.762  0.0334  0.9637 -0.1662
 2538SOL    HW119076   3.105   0.819   8.778  0.5471 -0.3402 -0.0939
 2538SOL    HW219077   3.245   0.798   8.822 -4.0514 -1.5105  1.0437
 2539SOL     OW19078   2.290   1.730   3.744 -0.3689  0.3144 -0.4837
 2539SOL    HW119079   2.302   1.780   3.663 -0.1444 -0.4101 -0.9030
 2539SOL    HW219080   2.276   1.805   3.801  0.6696  2.2716 -2.7977
 2540SOL     OW19081   1.370   4.544  16.103  0.1430 -0.4738 -0.6433
 2540SOL    HW119082   1.334   4.498  16.027  1.6178 -1.5617 -0.6941
 2540SOL    HW219083   1.317   4.515  16.177  1.5129  0.8135  0.8366
 2541SOL     OW19084   1.061   2.457   4.370  0.3979  0.3844 -0.1501
 2541SOL    HW119085   1.067   2.453   4.465  0.0494 -1.4641 -0.2071
 2541SOL    HW219086   1.043   2.551   4.361 -2.9793 -0.2644 -0.2214
 2542SOL     OW19087   4.723   2.349   1.915  1.2895 -0.0795 -0.2244
 2542SOL    HW119088   4.650   2.365   1.974 -0.8896 -1.6438 -2.4870
 2542SOL    HW219089   4.685   2.392   1.839  0.1995  1.0654  0.9707
 2543SOL     OW19090   0.137   3.944  10.166  0.4059 -0.4451  0.1326
 2543SOL    HW119091   0.126   3.859  10.125 -2.5145  1.3673 -2.8915
 2543SOL    HW219092   0.050   3.981  10.152 -0.0001 -1.2909  0.4824
 2544SOL     OW19093   0.513   4.060   3.472 -0.8491 -0.2151 -0.4252
 2544SOL    HW119094   0.512   4.042   3.378 -0.8829  1.8561 -0.8343
 2544SOL    HW219095   0.578   4.129   3.484  1.3991 -2.2217 -1.1230
 2545SOL     OW19096   1.869   0.437  14.307 -0.0323  0.2908 -0.7611
 2545SOL    HW119097   1.874   0.371  14.376  1.3540 -0.1032 -1.2525
 2545SOL    HW219098   1.933   0.500  14.342  0.5778 -0.5170 -0.4360
 2546SOL     OW19099   0.497   1.611   5.921 -0.7580 -0.0303  0.2943
 2546SOL    HW119100   0.513   1.541   5.857 -0.4124  1.6177 -1.4325
 2546SOL    HW219101   0.539   1.572   5.997  0.7968  4.5717  1.8145
 2547SOL     OW19102   1.259   3.790   4.870 -0.8410 -0.6503 -0.0849
 2547SOL    HW119103   1.216   3.796   4.956  0.4346 -2.1226  0.6688
 2547SOL    HW219104   1.188   3.820   4.813 -1.0324 -0.6022  0.1765
 2548SOL     OW19105   0.388   3.638  12.936 -0.2529  0.3533  0.0106
 2548SOL    HW119106   0.418   3.547  12.940 -0.6740  0.2592  0.9511
 2548SOL    HW219107   0.321   3.632  13.004 -2.2004  0.7958 -1.8712
 2549SOL     OW19108   2.820   2.187   4.983  0.2803  0.4249 -0.5917
 2549SOL    HW119109   2.900   2.240   4.987 -0.6762  1.8010  0.2862
 2549SOL    HW219110   2.800   2.172   5.075  0.6155 -1.1822 -0.7737
 2550SOL     OW19111   4.643   2.577   6.920 -0.0323  0.6036 -0.3701
 2550SOL    HW119112   4.718   2.525   6.892  0.1981  0.8898 -0.2909
 2550SOL    HW219113   4.667   2.594   7.011 -0.2605 -1.0533 -0.0049
 2551SOL     OW19114   0.039   2.081   9.367 -0.5873  0.8341  0.0889
 2551SOL    HW119115   0.100   2.076   9.441  0.2402  0.1120 -0.6498
 2551SOL    HW219116   0.012   1.991   9.349 -0.6564  0.3931  2.3330
 2552SOL     OW19117   1.964   2.253  17.174 -0.7999  0.0591 -0.3010
 2552SOL    HW119118   1.893   2.222  17.230 -1.1681 -1.9947 -1.9263
 2552SOL    HW219119   1.935   2.341  17.149 -0.5329  0.6370  1.4137
 2553SOL     OW19120   2.718   0.640  15.067 -0.4245  0.6649 -0.4913
 2553SOL    HW119121   2.628   0.671  15.072 -1.0954 -1.3276 -0.2548
 2553SOL    HW219122   2.729   0.657  14.973  1.1397  0.5131 -0.3305
 2554SOL     OW19123   4.120   1.054  14.747 -0.6374 -0.6457 -0.2089
 2554SOL    HW119124   4.131   1.093  14.660  0.0317  1.0909  0.6517
 2554SOL    HW219125   4.138   0.963  14.724  0.9407 -0.4226  0.1212
 2555SOL     OW19126   1.746   1.196   1.649  0.2037 -0.3621 -0.0438
 2555SOL    HW119127   1.827   1.232   1.688 -0.8430 -0.4822  2.2331
 2555SOL    HW219128   1.682   1.191   1.720  0.3022 -0.4991  0.0349
 2556SOL     OW19129   1.812   2.499   5.169  0.2858 -0.0523  0.0494
 2556SOL    HW119130   1.870   2.424   5.171 -0.1881 -0.4399 -0.8878
 2556SOL    HW219131   1.852   2.555   5.236 -0.2920 -1.2431  1.3757
 2557SOL     OW19132   3.433   4.186   5.441 -0.3779 -0.2338  0.2471
 2557SOL    HW119133   3.420   4.157   5.351  3.1804 -0.8688 -0.0607
 2557SOL    HW219134   3.362   4.248   5.458  0.7120  1.0251  0.2298
 2558SOL     OW19135   1.292   0.314   6.114  0.1311 -0.2460 -0.0864
 2558SOL    HW119136   1.338   0.389   6.151  0.2796 -0.5095  0.2658
 2558SOL    HW219137   1.344   0.294   6.036 -1.2360 -1.7394 -0.6082
 2559SOL     OW19138   1.423   4.676   7.669 -0.0603  0.0614  0.2854
 2559SOL    HW119139   1.419   4.607   7.734 -0.6581 -0.6277 -0.4898
 2559SOL    HW219140   1.372   0.021   7.709  0.9049  1.0667 -0.2158
 2560SOL     OW19141   3.903   1.344   9.432 -0.2437  0.1284  0.3193
 2560SOL    HW119142   3.968   1.325   9.500 -1.1158  0.1359  1.1506
 2560SOL    HW219143   3.945   1.413   9.382 -0.9517  1.7733  1.9947
 2561SOL     OW19144   1.970   4.176   8.686  0.1168  0.4470 -0.0889
 2561SOL    HW119145   1.899   4.160   8.748  0.7335  0.8804  0.7203
 2561SOL    HW219146   2.037   4.196   8.752 -1.5810 -0.9061  2.0377
 2562SOL     OW19147   0.493   0.217   3.584 -0.9668 -0.6392  0.0913
 2562SOL    HW119148   0.480   0.301   3.628 -0.8708  0.0318 -1.1581
 2562SOL    HW219149   0.474   0.157   3.656  0.9080  0.6921  1.6850
 2563SOL     OW19150   3.146   2.427   7.373  0.0673 -0.1964 -0.5365
 2563SOL    HW119151   3.208   2.376   7.322  0.5501 -2.1249  1.9657
 2563SOL    HW219152   3.191   2.411   7.456  2.1966 -2.4593 -2.1269
 2564SOL     OW19153   2.397   2.977   9.409  0.2270  0.4893 -0.5744
 2564SOL    HW119154   2.310   3.015   9.417  1.2421  2.9031 -1.2777
 2564SOL    HW219155   2.378   2.927   9.329 -0.4140  0.4734 -0.4159
 2565SOL     OW19156   2.649   0.146   8.604  0.4050 -0.2377 -0.0457
 2565SOL    HW119157   2.656   0.104   8.690 -1.4608 -1.0420 -0.2967
 2565SOL    HW219158   2.618   0.233   8.627 -1.0424 -0.2342 -2.0169
 2566SOL     OW19159   4.309   2.731   5.904  0.1916 -0.1593 -0.1848
 2566SOL    HW119160   4.309   2.691   5.991  0.2507 -0.9115 -0.5254
 2566SOL    HW219161   4.292   2.823   5.925  1.8073 -0.4169  2.1656
 2567SOL     OW19162   3.443   3.311  13.092 -0.5188 -0.4325  0.0135
 2567SOL    HW119163   3.436   3.311  12.996  1.5959  0.7550 -0.1474
 2567SOL    HW219164   3.503   3.384  13.105 -1.9950  0.6696  0.5940
 2568SOL     OW19165   2.540   1.573   2.861 -0.2846 -0.1096 -0.0582
 2568SOL    HW119166   2.567   1.564   2.770  0.2307  0.3052  0.0532
 2568SOL    HW219167   2.479   1.500   2.861 -1.6150  1.0172 -1.4795
 2569SOL     OW19168   1.999   4.050   8.456 -0.0920  0.0821  0.3387
 2569SOL    HW119169   2.093   4.063   8.443 -0.1862 -0.3447 -0.6933
 2569SOL    HW219170   1.976   4.119   8.519 -2.1949  0.5172 -0.9023
 2570SOL     OW19171   1.541   3.481   4.256  0.1470 -0.2162 -0.2820
 2570SOL    HW119172   1.573   3.407   4.308  1.0579 -1.4754 -2.6259
 2570SOL    HW219173   1.616   3.490   4.197 -0.5888  3.5391 -0.6065
 2571SOL     OW19174   3.444   0.699   5.341  0.8335  0.2686 -0.8369
 2571SOL    HW119175   3.528   0.724   5.379  0.1408  1.8412 -0.3351
 2571SOL    HW219176   3.467   0.652   5.261  0.6518 -1.9217  0.4263
 2572SOL     OW19177   3.189   0.811   6.783  0.1096  0.3627  0.1367
 2572SOL    HW119178   3.142   0.737   6.742  1.3176 -2.2907  3.5670
 2572SOL    HW219179   3.283   0.801   6.776  0.1708  1.4791 -0.5846
 2573SOL     OW19180   1.842   1.202  12.777  0.1162 -0.2906  0.1787
 2573SOL    HW119181   1.926   1.212  12.731  0.2126 -3.4514 -0.3572
 2573SOL    HW219182   1.799   1.125  12.739 -2.3376  1.2914 -0.2318
 2574SOL     OW19183   0.576   1.864   8.927  0.5023  0.4596  0.0849
 2574SOL    HW119184   0.504   1.833   8.982 -1.1468  1.8179 -1.3392
 2574SOL    HW219185   0.580   1.805   8.852  1.3393  0.4047  0.1698
 2575SOL     OW19186   0.236   1.874   3.995  0.1750  0.4921  0.5460
 2575SOL    HW119187   0.284   1.858   3.913 -0.2217 -0.6395  0.5481
 2575SOL    HW219188   0.270   1.808   4.055  1.2412  1.1257  0.6479
 2576SOL     OW19189   1.162   2.869   8.434 -0.5906 -0.2219  0.6965
 2576SOL    HW119190   1.244   2.819   8.434 -0.7658 -0.5123  0.1133
 2576SOL    HW219191   1.142   2.860   8.527 -0.4289 -1.5024  0.6073
 2577SOL     OW19192   0.526   1.652   6.671  0.5445 -0.3155  0.2424
 2577SOL    HW119193   0.524   1.730   6.616  0.8193  0.0629  0.7696
 2577SOL    HW219194   0.620   1.645   6.685  0.2847 -1.8405  1.2316
 2578SOL     OW19195   3.664   0.673  12.029 -0.3603  0.3886 -0.0665
 2578SOL    HW119196   3.604   0.703  11.962 -0.2436  0.2699 -0.2249
 2578SOL    HW219197   3.624   0.596  12.070  0.3652 -1.1865 -2.3280
 2579SOL     OW19198   2.039   4.498   2.940  0.0471 -0.1285 -0.3687
 2579SOL    HW119199   2.016   4.440   2.867 -1.4694  0.5202 -0.4131
 2579SOL    HW219200   2.133   4.484   2.950  0.4807  1.7060 -1.6674
 2580SOL     OW19201   0.213   4.064  10.950  0.4266  0.1443 -0.2188
 2580SOL    HW119202   0.192   4.006  10.877  0.6984 -0.4642  0.1809
 2580SOL    HW219203   0.134   4.114  10.968  0.2961  0.6477 -2.2431
 2581SOL     OW19204   2.770   1.905  14.353 -0.6516  0.1610 -0.0885
 2581SOL    HW119205   2.764   1.975  14.288  0.9195  0.5450  0.1622
 2581SOL    HW219206   2.848   1.938  14.398  0.2869  0.1433 -1.7119
 2582SOL     OW19207   2.023   3.383   8.449 -0.2604  0.1003  0.1239
 2582SOL    HW119208   2.002   3.301   8.494  0.0581 -0.5705 -0.9446
 2582SOL    HW219209   2.063   3.431   8.521  0.0904 -1.7713  1.1757
 2583SOL     OW19210   3.564   0.488   7.353 -0.3579  0.0998  0.1608
 2583SOL    HW119211   3.586   0.580   7.343 -1.4914  0.2373 -0.9717
 2583SOL    HW219212   3.470   0.490   7.369 -0.3670  1.0533 -0.0512
 2584SOL     OW19213   3.430   0.433   9.671  0.6035 -0.5002 -0.3418
 2584SOL    HW119214   3.472   0.487   9.604 -2.6799  0.8189 -1.3572
 2584SOL    HW219215   3.337   0.457   9.666  0.3141 -1.5868 -0.1081
 2585SOL     OW19216   4.094   3.837  12.185 -0.5118 -0.0684 -0.1511
 2585SOL    HW119217   4.091   3.906  12.251  0.7690  0.4564 -0.6387
 2585SOL    HW219218   4.044   3.768  12.228  0.5321  0.1732  1.4731
 2586SOL     OW19219   1.740   3.789   8.619  0.3441  0.0770  0.4411
 2586SOL    HW119220   1.830   3.791   8.652 -0.2728 -0.7099  2.1455
 2586SOL    HW219221   1.740   3.727   8.546  0.9955  0.6868 -0.0750
 2587SOL     OW19222   0.063   4.539   8.852  0.4540 -0.1009  0.5625
 2587SOL    HW119223   0.112   4.487   8.789 -0.8147 -1.4602  0.7244
 2587SOL    HW219224   0.055   4.626   8.813  4.0375 -0.3195 -0.6394
 2588SOL     OW19225   3.569   1.519   2.696 -0.0690  0.4065 -0.0734
 2588SOL    HW119226   3.562   1.482   2.608  0.8148 -1.7155  0.7374
 2588SOL    HW219227   3.662   1.541   2.699  0.0069 -0.1243  1.7781
 2589SOL     OW19228   4.060   3.365   3.577 -0.1278  0.7385 -0.2952
 2589SOL    HW119229   4.134   3.333   3.525 -0.1356 -0.9179  0.7233
 2589SOL    HW219230   4.004   3.288   3.571  0.1402  0.5280 -0.0769
 2590SOL     OW19231   2.771   3.222   7.666  0.0113  0.5969  0.3114
 2590SOL    HW119232   2.777   3.187   7.756  0.4622 -0.8853 -0.2889
 2590SOL    HW219233   2.677   3.227   7.654 -0.0472 -2.1810 -0.3914
 2591SOL     OW19234   4.171   1.744   1.058  0.0136  0.2115  0.2600
 2591SOL    HW119235   4.201   1.816   1.114  0.4925  0.2620 -0.0647
 2591SOL    HW219236   4.229   1.748   0.983  1.2070 -0.9819  1.1176
 2592SOL     OW19237   3.217   0.822   9.547 -0.0731  0.5121  0.2831
 2592SOL    HW119238   3.258   0.905   9.572 -1.7001  1.1013  1.0037
 2592SOL    HW219239   3.269   0.789   9.474 -3.8556 -2.2631 -1.1676
 2593SOL     OW19240   1.253   1.277   9.824 -0.1951  0.5054 -0.4745
 2593SOL    HW119241   1.253   1.358   9.772 -3.7665  1.2999  0.7778
 2593SOL    HW219242   1.163   1.255   9.801  0.6536 -2.1154 -1.2039
 2594SOL     OW19243   4.208   0.213  11.803 -0.8939  0.3242  0.3642
 2594SOL    HW119244   4.134   0.152  11.803 -0.0114 -0.7584 -0.1177
 2594SOL    HW219245   4.228   0.215  11.709 -1.6598 -0.0205  0.1926
 2595SOL     OW19246   3.349   3.383  14.906 -0.3456 -0.2477  0.4980
 2595SOL    HW119247   3.285   3.453  14.915  0.3316  0.3768  0.4317
 2595SOL    HW219248   3.420   3.423  14.856 -1.4588  1.8664  0.6240
 2596SOL     OW19249   0.056   0.796   1.829  0.2215  0.9352  0.2162
 2596SOL    HW119250   0.094   0.761   1.910 -0.4544  2.0552  1.0111
 2596SOL    HW219251   4.695   0.825   1.860 -0.6584 -0.4322 -0.8922
 2597SOL     OW19252   3.774   1.865   3.397 -0.1479 -0.1055 -0.8218
 2597SOL    HW119253   3.795   1.860   3.490 -1.0965 -0.5265 -0.6286
 2597SOL    HW219254   3.694   1.918   3.399 -0.7323 -1.0085 -0.3814
 2598SOL     OW19255   4.497   0.624   7.075 -0.1094  0.2484 -0.0825
 2598SOL    HW119256   4.543   0.693   7.122  1.3443  0.1905 -1.4087
 2598SOL    HW219257   4.499   0.559   7.145  0.9914 -3.2954 -3.4253
 2599SOL     OW19258   1.353   0.533   5.392 -0.6850  0.2451 -0.8179
 2599SOL    HW119259   1.388   0.600   5.452  0.5646 -3.5344  2.6847
 2599SOL    HW219260   1.428   0.501   5.342 -1.1313 -2.5861  0.3598
 2600SOL     OW19261   3.546   4.011   6.190  0.7335  0.0757  0.0203
 2600SOL    HW119262   3.612   3.979   6.251 -0.5209  0.8255  1.7758
 2600SOL    HW219263   3.479   3.948   6.166  0.0849  0.5005  0.7026
 2601SOL     OW19264   2.593   2.531  16.460 -0.0481 -0.3179 -0.2131
 2601SOL    HW119265   2.685   2.549  16.441 -1.2356  5.4590 -0.2741
 2601SOL    HW219266   2.556   2.619  16.459  0.8949  0.0837 -0.2363
 2602SOL     OW19267   2.499   3.733  16.984 -0.0667 -0.6972 -0.0459
 2602SOL    HW119268   2.427   3.677  16.956 -0.7236  0.2074 -0.1580
 2602SOL    HW219269   2.465   3.748  17.072  1.4673 -2.2113  0.7929
 2603SOL     OW19270   1.589   2.495  13.161 -0.4027 -0.2574 -0.5610
 2603SOL    HW119271   1.635   2.552  13.223 -2.3927  1.1777 -0.4134
 2603SOL    HW219272   1.638   2.496  13.079  1.5021  1.4196  0.5940
 2604SOL     OW19273   0.968   1.454   6.516 -0.7265  0.0674  0.7592
 2604SOL    HW119274   0.961   1.438   6.422  0.4432  0.2105  0.6491
 2604SOL    HW219275   1.059   1.480   6.524 -0.8670  0.9370 -0.4368
 2605SOL     OW19276   1.673   2.433  16.543  0.4846  0.3775  0.8154
 2605SOL    HW119277   1.731   2.382  16.600 -0.3816 -0.3673  1.0314
 2605SOL    HW219278   1.603   2.452  16.605 -1.4969  0.5126 -1.4521
 2606SOL     OW19279   2.508   1.697   7.983  0.2091  0.3639 -0.6986
 2606SOL    HW119280   2.433   1.724   7.929 -2.4736 -2.7070  1.4468
 2606SOL    HW219281   2.475   1.686   8.072  0.3807 -1.0635 -0.8053
 2607SOL     OW19282   1.687   0.116   4.605 -0.1869 -0.1055  0.3729
 2607SOL    HW119283   1.775   0.081   4.621 -0.2867 -1.2443 -1.6247
 2607SOL    HW219284   1.627   0.042   4.604 -0.9063  0.4784  0.9549
 2608SOL     OW19285   4.108   2.921   6.034  0.5218  0.0976  0.2258
 2608SOL    HW119286   4.045   2.991   6.017 -0.2783 -1.0130 -1.3537
 2608SOL    HW219287   4.118   2.935   6.129  0.5762 -2.4155  0.6052
 2609SOL     OW19288   0.783   1.953   7.653 -0.0905  0.5145  0.4944
 2609SOL    HW119289   0.708   1.905   7.619  0.9363 -1.1828  0.6158
 2609SOL    HW219290   0.740   2.037   7.639  1.8884  1.2863 -0.9004
 2610SOL     OW19291   3.313   4.211   2.157 -0.1681  0.2372 -0.7400
 2610SOL    HW119292   3.256   4.167   2.094  0.2876  1.4676 -2.0084
 2610SOL    HW219293   3.344   4.289   2.111  0.9580 -0.3371 -0.9731
 2611SOL     OW19294   2.472   2.799   2.472 -0.1843  0.2177 -0.1181
 2611SOL    HW119295   2.389   2.775   2.430 -0.1240  0.6363 -0.4612
 2611SOL    HW219296   2.447   2.882   2.513 -0.6870 -0.0794  0.1890
 2612SOL     OW19297   0.909   2.354  15.300  0.1077 -0.5801 -0.1129
 2612SOL    HW119298   0.924   2.316  15.213 -0.3772 -0.6598 -0.1626
 2612SOL    HW219299   0.881   2.278  15.350 -1.8263  0.6718  0.7090
 2613SOL     OW19300   1.051   4.660  14.575  0.0820  0.4868  0.6929
 2613SOL    HW119301   1.043   4.712  14.494 -0.9922 -0.3505  0.2656
 2613SOL    HW219302   0.987   4.590  14.562  0.5375 -0.0576  1.3636
 2614SOL     OW19303   0.645   0.886  13.427  0.0517 -1.1403 -0.1874
 2614SOL    HW119304   0.654   0.800  13.470  1.7693 -2.2185 -2.6859
 2614SOL    HW219305   0.610   0.941  13.497  0.4729 -0.8103 -0.2381
 2615SOL     OW19306   4.056   3.989  12.973 -0.3057 -0.0667 -0.5115
 2615SOL    HW119307   4.143   4.020  13.000  0.6825 -2.4507 -0.9973
 2615SOL    HW219308   3.998   4.060  13.003  1.7375  0.8648  1.2846
 2616SOL     OW19309   0.010   0.157  14.527  0.0011  0.0391 -0.2138
 2616SOL    HW119310   4.714   0.087  14.465 -0.2798  0.1528 -0.2486
 2616SOL    HW219311   4.689   0.121  14.603 -0.3392 -1.0418 -0.9235
 2617SOL     OW19312   4.070   2.018  10.085 -0.2393 -0.0635  0.2184
 2617SOL    HW119313   4.025   1.974  10.013  0.4182 -0.6189  0.1520
 2617SOL    HW219314   4.154   1.974  10.075 -0.1121 -0.4183  2.7022
 2618SOL     OW19315   1.722   2.273   9.623  0.0962 -0.4365 -0.5905
 2618SOL    HW119316   1.639   2.312   9.651 -0.0743 -1.2424  0.0377
 2618SOL    HW219317   1.770   2.264   9.705 -5.0930 -1.5176  2.3479
 2619SOL     OW19318   2.081   4.614   2.507  0.1048 -0.2594 -0.5867
 2619SOL    HW119319   2.143   4.579   2.443 -1.1938 -0.0018 -1.9776
 2619SOL    HW219320   2.079   4.707   2.481  1.8601  0.4227  1.7226
 2620SOL     OW19321   4.645   1.849   7.495  0.4268 -0.1580  0.6073
 2620SOL    HW119322   4.626   1.930   7.447 -1.8235 -0.5066  0.9443
 2620SOL    HW219323   0.014   1.873   7.498 -0.1081  1.8770  1.0784
 2621SOL     OW19324   0.659   1.928  12.198  0.4815  0.1809  0.7699
 2621SOL    HW119325   0.754   1.931  12.193  0.5417  1.1976  2.3205
 2621SOL    HW219326   0.649   1.838  12.229 -1.1186  0.1801  0.2661
 2622SOL     OW19327   2.884   0.924  10.583 -0.5010  0.3433 -0.2483
 2622SOL    HW119328   2.936   0.849  10.554  2.4562  2.0599  0.6074
 2622SOL    HW219329   2.795   0.891  10.596  0.4255 -0.8121  3.2900
 2623SOL     OW19330   2.747   4.033  10.591 -0.0597 -0.2231 -0.8937
 2623SOL    HW119331   2.674   4.094  10.600 -0.7660 -1.1298 -0.4424
 2623SOL    HW219332   2.703   3.950  10.574  0.8963 -1.1925  1.4428
 2624SOL     OW19333   0.759   3.184   4.339 -0.1370 -0.2724  0.1642
 2624SOL    HW119334   0.761   3.280   4.343 -1.2683 -0.2244 -0.6737
 2624SOL    HW219335   0.850   3.154   4.349 -0.9485 -2.0501  2.1189
 2625SOL     OW19336   1.490   2.232   6.205 -0.6034  0.4997 -0.2075
 2625SOL    HW119337   1.481   2.252   6.112  0.4518  0.6464 -0.2741
 2625SOL    HW219338   1.507   2.320   6.240  0.7671  0.2946 -0.3411
 2626SOL     OW19339   2.413   4.097  10.120 -0.2660  0.1560  0.0695
 2626SOL    HW119340   2.486   4.081  10.179 -1.3090 -0.9774  1.0626
 2626SOL    HW219341   2.376   4.182  10.146  0.6683  0.5424  0.1125
 2627SOL     OW19342   3.233   2.168   3.394  0.1403  0.3392  0.0343
 2627SOL    HW119343   3.231   2.140   3.485  2.3325 -0.7452 -0.2558
 2627SOL    HW219344   3.148   2.145   3.354  0.2888  1.4579 -0.9229
 2628SOL     OW19345   3.645   3.590   0.180 -0.3230  0.1403  0.5533
 2628SOL    HW119346   3.684   3.676   0.165 -0.0911 -0.0719 -0.0719
 2628SOL    HW219347   3.619   3.600   0.271  0.3306  0.5018  0.7045
 2629SOL     OW19348   0.125   0.559   5.847  1.0282 -0.0188 -0.2969
 2629SOL    HW119349   0.107   0.603   5.764  4.0545 -1.8979 -1.9704
 2629SOL    HW219350   0.107   0.467   5.831  2.1539 -0.7180  2.4481
 2630SOL     OW19351   0.985   3.235   1.371  0.0590 -0.8180  0.3776
 2630SOL    HW119352   0.918   3.220   1.438  0.3249  0.1424  0.8498
 2630SOL    HW219353   1.062   3.231   1.428  0.4409 -0.8654 -0.1413
 2631SOL     OW19354   2.331   0.402  17.633  0.5531 -0.0283 -0.1566
 2631SOL    HW119355   2.249   0.433  17.594  1.5315  0.4110 -1.8495
 2631SOL    HW219356   2.385   0.480  17.623  0.8754 -0.1024  0.9707
 2632SOL     OW19357   1.556   4.425  13.032  0.2186  0.1816 -0.1838
 2632SOL    HW119358   1.561   4.360  12.962  1.0151  2.6721 -2.4426
 2632SOL    HW219359   1.467   4.414  13.064 -0.2833 -2.5759 -2.5429
 2633SOL     OW19360   3.947   4.333  16.392  0.1581 -0.1261  0.3278
 2633SOL    HW119361   3.974   4.242  16.393  0.3658 -0.0680 -0.2008
 2633SOL    HW219362   3.942   4.360  16.300  1.3116 -2.0115 -0.2737
 2634SOL     OW19363   0.257   2.386   2.273  0.4070 -0.0982 -0.3851
 2634SOL    HW119364   0.274   2.361   2.182  0.2935  2.8834 -1.2233
 2634SOL    HW219365   0.348   2.369   2.297  0.8117  2.1741 -0.3666
 2635SOL     OW19366   2.566   4.298  11.756  0.2660 -0.4580  0.4153
 2635SOL    HW119367   2.529   4.349  11.684  1.0030 -0.3784  0.0888
 2635SOL    HW219368   2.580   4.218  11.705  2.2719 -1.3289  2.3209
 2636SOL     OW19369   1.040   2.015   7.032  0.0396  0.5337 -0.3380
 2636SOL    HW119370   1.119   2.061   7.002  0.6320 -0.7911 -0.7740
 2636SOL    HW219371   1.045   1.935   6.980  0.8325  0.4832 -0.1765
 2637SOL     OW19372   2.176   2.202  17.393 -0.0334 -0.0836  0.0204
 2637SOL    HW119373   2.171   2.292  17.424 -0.5238  0.8148 -2.6541
 2637SOL    HW219374   2.261   2.178  17.430 -0.7641  0.6584  2.1836
 2638SOL     OW19375   3.349   4.230   8.914  0.2836 -0.1692 -0.2733
 2638SOL    HW119376   3.318   4.297   8.852  1.5283  0.4353 -0.2446
 2638SOL    HW219377   3.382   4.297   8.974 -1.6493  0.7625 -0.2238
 2639SOL     OW19378   0.968   3.732   9.045 -0.1658  0.9052 -0.0338
 2639SOL    HW119379   1.031   3.662   9.056 -3.3046 -1.9552 -0.2001
 2639SOL    HW219380   1.031   3.804   9.054  1.6066 -0.4329 -1.7480
 2640SOL     OW19381   4.269   3.375   0.770  0.5262  0.0764  0.5400
 2640SOL    HW119382   4.196   3.405   0.715  0.3868 -0.5711  0.3776
 2640SOL    HW219383   4.316   3.321   0.707  1.5906  3.6309 -1.6966
 2641SOL     OW19384   3.744   0.237   7.481  0.4202 -0.1787 -0.0121
 2641SOL    HW119385   3.710   0.299   7.545 -0.0625  1.2013 -1.6247
 2641SOL    HW219386   3.807   0.185   7.531 -0.6477  0.0027  1.5076
 2642SOL     OW19387   3.536   4.588  12.374 -1.0446 -0.3785 -0.6636
 2642SOL    HW119388   3.484   4.524  12.424 -3.4133 -0.1282 -2.8056
 2642SOL    HW219389   3.576   4.650  12.435  2.6056 -1.2236 -2.1696
 2643SOL     OW19390   1.366   3.339   8.809 -0.1602 -0.4083  0.1162
 2643SOL    HW119391   1.394   3.281   8.738 -1.4116 -0.9750  0.0906
 2643SOL    HW219392   1.346   3.275   8.876  0.3556 -0.5297  0.1532
 2644SOL     OW19393   2.846   3.651   0.688 -0.6123  0.1367 -0.3052
 2644SOL    HW119394   2.811   3.663   0.600 -0.0352  0.5356 -0.4795
 2644SOL    HW219395   2.802   3.723   0.733 -0.1132  1.1263 -1.4044
 2645SOL     OW19396   4.246   0.311   6.802  0.5221 -0.3879 -0.0056
 2645SOL    HW119397   4.272   0.354   6.720 -1.2897  0.3080 -0.2065
 2645SOL    HW219398   4.307   0.236   6.803  1.0330 -0.0005 -2.0654
 2646SOL     OW19399   1.496   1.288   7.622  0.3805  0.2025  0.0906
 2646SOL    HW119400   1.552   1.326   7.555 -0.4003  0.0607 -0.6353
 2646SOL    HW219401   1.429   1.354   7.608  0.2083  0.2050  0.9319
 2647SOL     OW19402   3.029   1.139   8.540 -0.3775 -0.4544 -0.5438
 2647SOL    HW119403   3.015   1.189   8.460 -4.6742 -1.8446 -0.6485
 2647SOL    HW219404   2.966   1.187   8.594  1.7200  1.1753  0.4668
 2648SOL     OW19405   3.430   1.913   9.287 -0.5616  0.2908  0.2862
 2648SOL    HW119406   3.478   1.832   9.270 -0.2540  0.5194  0.0592
 2648SOL    HW219407   3.394   1.896   9.374  1.6117 -2.3409  0.6861
 2649SOL     OW19408   0.439   1.112   5.467  0.8258  0.0652 -0.4367
 2649SOL    HW119409   0.441   1.126   5.561 -1.1283 -0.2646 -0.3315
 2649SOL    HW219410   0.419   1.198   5.431 -1.1044  1.1381  3.1772
 2650SOL     OW19411   0.174   1.361   0.092 -0.0419  0.2675  0.3417
 2650SOL    HW119412   0.218   1.290   0.046 -0.5188  0.1552  0.0499
 2650SOL    HW219413   0.236   1.378   0.162 -0.3358  1.1161  0.3949
 2651SOL     OW19414   0.511   3.260  15.876  0.2100 -0.8200  0.6482
 2651SOL    HW119415   0.537   3.260  15.968  1.8232  2.0242  0.1816
 2651SOL    HW219416   0.578   3.310  15.831 -0.6395 -2.9148 -2.9689
 2652SOL     OW19417   3.737   0.911   3.006 -0.0922  0.7503  0.1415
 2652SOL    HW119418   3.698   0.995   2.984 -2.4446 -0.4293 -0.1843
 2652SOL    HW219419   3.815   0.936   3.057  1.3862 -0.9178 -1.3142
 2653SOL     OW19420   0.662   1.317   8.661 -0.3965  0.1704 -0.5661
 2653SOL    HW119421   0.709   1.260   8.722  0.8660  0.9368 -0.8208
 2653SOL    HW219422   0.578   1.275   8.643 -0.1859 -0.6671  0.4200
 2654SOL     OW19423   4.145   3.652   4.208  0.2857 -0.5435  0.3280
 2654SOL    HW119424   4.051   3.640   4.221  0.2589  0.2784  0.9599
 2654SOL    HW219425   4.148   3.683   4.118 -0.8535  3.2668  1.6071
 2655SOL     OW19426   0.807   0.294   5.772 -0.5847  0.1439  0.1546
 2655SOL    HW119427   0.784   0.354   5.842 -1.3290  0.1170 -0.0713
 2655SOL    HW219428   0.784   0.212   5.815 -2.1325  0.7761  0.5176
 2656SOL     OW19429   1.256   2.028   0.560  0.1818 -0.5475 -0.0399
 2656SOL    HW119430   1.167   2.022   0.594  1.1301 -0.7915  2.3638
 2656SOL    HW219431   1.252   2.114   0.518 -3.3978 -1.2979 -1.2998
 2657SOL     OW19432   3.795   2.748   3.811 -0.0013  0.2807 -0.4020
 2657SOL    HW119433   3.772   2.737   3.904 -1.2556  1.2028 -0.6108
 2657SOL    HW219434   3.884   2.783   3.812 -0.4638  1.4596 -0.7583
 2658SOL     OW19435   0.735   2.171   5.505  0.2936  0.3810  0.1142
 2658SOL    HW119436   0.825   2.139   5.510 -0.2086 -0.9743  0.4699
 2658SOL    HW219437   0.695   2.138   5.425 -3.7402  1.1485  1.7885
 2659SOL     OW19438   1.227   0.342  14.005  0.0731  0.4775  0.1104
 2659SOL    HW119439   1.290   0.414  13.996  1.8128 -0.9994  0.5649
 2659SOL    HW219440   1.170   0.380  13.938 -0.4667  0.1506  0.3893
 2660SOL     OW19441   1.141   2.223  14.170  0.3117  0.4080  0.6589
 2660SOL    HW119442   1.210   2.161  14.195 -0.4304 -0.8261 -0.3403
 2660SOL    HW219443   1.131   2.192  14.079 -2.2494 -0.7605  1.3057
 2661SOL     OW19444   2.452   3.023   3.565 -0.5340 -0.3487 -0.1980
 2661SOL    HW119445   2.474   3.033   3.657  1.1056  0.1584 -0.6493
 2661SOL    HW219446   2.412   2.937   3.559  0.7745 -1.1117  2.1472
 2662SOL     OW19447   1.080   4.429   4.715 -0.0630  0.0983  0.0598
 2662SOL    HW119448   1.102   4.520   4.736 -0.0788 -0.3495  1.9862
 2662SOL    HW219449   1.055   4.403   4.803 -0.3937  0.8007  0.1710
 2663SOL     OW19450   1.941   4.060   6.009  0.4416  0.0146 -0.0292
 2663SOL    HW119451   2.002   3.985   6.007  1.3317  0.8803 -4.6855
 2663SOL    HW219452   1.853   4.024   6.020  0.7256 -1.1166 -1.4818
 2664SOL     OW19453   3.244   2.217   7.861 -0.1870 -0.0380 -0.1125
 2664SOL    HW119454   3.197   2.275   7.921 -0.0064 -0.6662  0.6313
 2664SOL    HW219455   3.176   2.159   7.828  0.4493 -0.3572 -0.8748
 2665SOL     OW19456   3.114   0.009   0.810 -0.1636 -0.3585  0.2429
 2665SOL    HW119457   3.148   4.653   0.849  0.8827  0.1255  0.3339
 2665SOL    HW219458   3.142   4.713   0.721 -1.1793  2.2817 -0.6942
 2666SOL     OW19459   0.268   1.029   1.522 -0.1931 -0.0118  0.0730
 2666SOL    HW119460   0.231   1.015   1.609  0.0772 -0.5185  0.1109
 2666SOL    HW219461   0.303   1.117   1.533 -2.0555  0.6067  1.0240
 2667SOL     OW19462   3.480   1.029   5.622 -0.2316  0.9752  0.1264
 2667SOL    HW119463   3.422   1.098   5.588 -1.7306  0.8777  2.4860
 2667SOL    HW219464   3.412   0.962   5.620 -1.5155  2.3051 -2.6232
 2668SOL     OW19465   2.036   3.088   7.195 -0.0946 -0.1992  0.0259
 2668SOL    HW119466   2.034   3.183   7.207 -0.5947 -0.1314 -0.6206
 2668SOL    HW219467   1.943   3.072   7.177 -0.1510  0.7067 -0.4755
 2669SOL     OW19468   1.357   1.833   5.055 -0.0824 -0.0515 -0.1930
 2669SOL    HW119469   1.449   1.838   5.083  0.1872 -0.8941 -0.9187
 2669SOL    HW219470   1.361   1.839   4.959  0.7221 -1.5482 -0.2588
 2670SOL     OW19471   2.900   0.105   1.503 -0.0556 -0.4004 -0.2326
 2670SOL    HW119472   2.952   0.142   1.432  0.5533 -1.5611 -0.3808
 2670SOL    HW219473   2.880   0.019   1.467 -0.4290 -0.2907 -0.2933
 2671SOL     OW19474   3.728   2.688   5.608 -0.2344 -0.5167 -0.2047
 2671SOL    HW119475   3.733   2.766   5.663 -0.7376  0.0419 -0.9529
 2671SOL    HW219476   3.767   2.623   5.666 -0.2925 -0.6685 -0.3358
 2672SOL     OW19477   1.130   0.229   8.013  0.3436 -0.1837 -0.2399
 2672SOL    HW119478   1.088   0.309   8.044  1.7434  0.4543  0.0358
 2672SOL    HW219479   1.066   0.167   8.048  1.2749 -0.6195  0.6978
 2673SOL     OW19480   3.936   1.252  10.790 -0.3852 -0.1396  0.0749
 2673SOL    HW119481   3.974   1.210  10.867  0.8959  0.8463 -0.0132
 2673SOL    HW219482   3.923   1.342  10.820 -0.6877 -0.6179  1.3672
 2674SOL     OW19483   2.436   0.714   5.561  0.1435  0.5815 -0.5050
 2674SOL    HW119484   2.512   0.762   5.594 -0.6768  0.6036  1.3760
 2674SOL    HW219485   2.367   0.780   5.554  0.0874  0.3835 -1.7685
 2675SOL     OW19486   4.693   2.859  14.613 -0.2425  0.4454 -0.7195
 2675SOL    HW119487   4.612   2.848  14.662  1.8384  0.4908  2.7994
 2675SOL    HW219488   0.011   2.773  14.608 -0.3159  0.3691 -0.0757
 2676SOL     OW19489   4.315   2.485   7.260 -0.8645 -0.2947 -0.3033
 2676SOL    HW119490   4.337   2.573   7.290  0.7508 -1.5104  2.1899
 2676SOL    HW219491   4.402   2.461   7.228 -0.3902  1.3624 -0.2321
 2677SOL     OW19492   0.023   3.847  12.071  0.3216  0.1191 -0.0190
 2677SOL    HW119493   0.055   3.930  12.106 -2.6606  0.8524  0.8790
 2677SOL    HW219494   4.676   3.880  12.017 -1.0707 -0.7653  1.2913
 2678SOL     OW19495   3.309   3.473  12.504  0.1237  0.0285  0.3703
 2678SOL    HW119496   3.220   3.507  12.500 -0.0399 -0.0811  3.0872
 2678SOL    HW219497   3.302   3.394  12.557  1.6407 -0.0475  0.4572
 2679SOL     OW19498   0.978   2.728   8.297 -0.7355  0.4607 -0.3343
 2679SOL    HW119499   1.050   2.761   8.350 -0.9841  0.4483  0.0148
 2679SOL    HW219500   0.911   2.720   8.365  0.5770 -1.3309  0.7251
 2680SOL     OW19501   2.661   4.693  15.423  0.7912  0.1437 -0.0653
 2680SOL    HW119502   2.601   4.653  15.360 -0.6069  0.0679  1.3059
 2680SOL    HW219503   2.595   4.718  15.487  1.1029 -0.8338  0.6430
 2681SOL     OW19504   4.351   0.618   5.723  0.2672 -0.7673  0.6569
 2681SOL    HW119505   4.284   0.672   5.763 -1.1223 -0.5601 -1.9958
 2681SOL    HW219506   4.363   0.569   5.805 -3.5001  0.4992  1.9638
 2682SOL     OW19507   1.819   3.094  15.559 -0.8340 -0.0289 -0.3374
 2682SOL    HW119508   1.853   3.007  15.579 -0.7682  0.4321  1.6193
 2682SOL    HW219509   1.893   3.154  15.568 -2.3247  2.2729 -3.3876
 2683SOL     OW19510   3.652   1.900   7.950  0.5239  0.1006 -0.1727
 2683SOL    HW119511   3.707   1.920   7.874 -0.1899 -0.0560 -0.7407
 2683SOL    HW219512   3.607   1.981   7.974  1.8432  0.1690  2.0348
 2684SOL     OW19513   2.299   0.013  17.049  0.8982  0.0252 -0.5149
 2684SOL    HW119514   2.332   0.085  17.104 -0.9764 -0.2169  0.9396
 2684SOL    HW219515   2.214   0.054  17.031  0.3457  0.0638  2.0934
 2685SOL     OW19516   2.278   2.115   8.597 -0.2139  0.1545 -0.1648
 2685SOL    HW119517   2.242   2.028   8.582  2.3401 -0.6738 -1.5078
 2685SOL    HW219518   2.224   2.156   8.664 -0.7696 -3.1497  1.4087
 2686SOL     OW19519   4.190   0.313   7.671  0.0675 -0.6828 -0.2963
 2686SOL    HW119520   4.198   0.339   7.579 -1.9016  0.8025 -0.0468
 2686SOL    HW219521   4.214   0.388   7.726  1.9091 -0.7378 -1.0023
 2687SOL     OW19522   3.931   2.346   2.310 -0.3808  0.2907  0.6853
 2687SOL    HW119523   4.000   2.395   2.266  1.9987 -1.3899  2.4985
 2687SOL    HW219524   3.983   2.266   2.320  0.2363  0.4600 -1.1639
 2688SOL     OW19525   1.801   3.095   2.644 -0.4226  0.2650  0.6921
 2688SOL    HW119526   1.796   3.010   2.688  0.6583 -0.9072 -1.4179
 2688SOL    HW219527   1.711   3.116   2.670 -0.4323 -0.4505  1.2478
 2689SOL     OW19528   4.617   0.795  12.133  0.5950 -0.2356 -0.3802
 2689SOL    HW119529   4.541   0.740  12.115  1.4994 -1.6073  0.0684
 2689SOL    HW219530   4.607   0.851  12.056  1.0952  0.6687  0.2054
 2690SOL     OW19531   2.032   3.493   6.435 -0.1143 -0.1171 -0.3467
 2690SOL    HW119532   2.098   3.426   6.454  0.5815  1.2714  2.0141
 2690SOL    HW219533   2.068   3.573   6.472 -0.9632  0.8028 -1.5189
 2691SOL     OW19534   2.390   3.914   1.927  0.1249 -0.4582 -0.4087
 2691SOL    HW119535   2.410   3.903   2.019  0.5111  0.9762 -0.3213
 2691SOL    HW219536   2.319   3.977   1.939 -2.6387 -3.0190 -3.2725
 2692SOL     OW19537   0.494   1.301   4.806 -0.0436 -0.5647  0.4107
 2692SOL    HW119538   0.585   1.322   4.824 -0.3482  2.0508 -1.2256
 2692SOL    HW219539   0.494   1.207   4.785  1.9207 -0.4838  0.1114
 2693SOL     OW19540   4.629   4.441   3.881  0.1053  0.2786 -0.6785
 2693SOL    HW119541   4.624   4.384   3.804 -1.4086  1.4670 -1.4380
 2693SOL    HW219542   4.694   4.507   3.857 -0.8698  0.8530 -1.7321
 2694SOL     OW19543   1.432   0.993   6.505  0.0254 -0.0198 -0.1377
 2694SOL    HW119544   1.506   1.018   6.449  0.3390  1.4461  0.9230
 2694SOL    HW219545   1.491   0.952   6.568  0.5987 -1.2494 -1.4603
 2695SOL     OW19546   2.925   1.049  16.136 -0.1896 -0.4057  0.5153
 2695SOL    HW119547   2.874   1.090  16.066  1.4429  1.7246  0.5823
 2695SOL    HW219548   2.890   1.101  16.208  0.8304 -0.9681  1.4217
 2696SOL     OW19549   1.595   1.087   5.558 -0.0816 -0.0295  0.2009
 2696SOL    HW119550   1.584   1.058   5.468 -0.6802 -1.4309  0.7232
 2696SOL    HW219551   1.510   1.059   5.591  0.2715  0.4596  1.5297
 2697SOL     OW19552   4.023   2.841   3.425 -0.2640  0.3394 -0.3106
 2697SOL    HW119553   4.045   2.875   3.339  0.3481 -1.8096 -1.0049
 2697SOL    HW219554   3.943   2.891   3.441 -0.6982  0.1431 -1.8720
 2698SOL     OW19555   1.879   2.217   5.278 -0.3516  0.5645 -0.4169
 2698SOL    HW119556   1.883   2.222   5.374  0.5758 -2.2340 -0.3285
 2698SOL    HW219557   1.793   2.175   5.269  0.4588 -1.2034  0.1037
 2699SOL     OW19558   4.048   0.328   5.486 -0.0935  0.2038  0.3243
 2699SOL    HW119559   4.011   0.299   5.569  1.0032  2.9857  1.7961
 2699SOL    HW219560   4.142   0.341   5.496  0.5411 -1.9590 -2.7844
 2700SOL     OW19561   4.299   2.201   8.811 -0.5205 -0.3256  0.1358
 2700SOL    HW119562   4.207   2.216   8.792 -0.9050 -1.2626  1.2190
 2700SOL    HW219563   4.287   2.137   8.882  0.8861 -0.0485  0.6292
 2701SOL     OW19564   3.041   0.137   4.232  0.7433  0.4269  0.2694
 2701SOL    HW119565   3.039   0.160   4.325 -2.3363  1.1573  0.0498
 2701SOL    HW219566   2.958   0.177   4.206  1.2576  2.0355  1.1025
 2702SOL     OW19567   4.628   1.190   2.621  0.1008 -0.0072 -0.0267
 2702SOL    HW119568   4.694   1.229   2.564 -0.3088  0.6691 -0.0410
 2702SOL    HW219569   4.546   1.226   2.587 -0.7260 -2.0943 -0.2304
 2703SOL     OW19570   1.480   0.801   5.129 -0.0390 -0.0526  0.0990
 2703SOL    HW119571   1.402   0.748   5.109 -0.1650 -0.0995  0.7203
 2703SOL    HW219572   1.484   0.840   5.042  1.6030 -0.5805 -0.0480
 2704SOL     OW19573   0.775   1.651   6.586  0.0753  0.6135  0.2517
 2704SOL    HW119574   0.776   1.684   6.497 -0.9176  2.4761  0.9370
 2704SOL    HW219575   0.830   1.573   6.579  0.7157  1.1439 -0.5416
 2705SOL     OW19576   4.448   0.127   1.436  0.3436 -0.0170  0.5680
 2705SOL    HW119577   4.535   0.089   1.436  0.7162  0.8251 -0.6134
 2705SOL    HW219578   4.432   0.154   1.526  0.5092  1.9748  0.0176
 2706SOL     OW19579   2.986   4.536   2.320  0.5285 -0.0527  0.5496
 2706SOL    HW119580   3.036   4.463   2.356 -0.2799 -0.8615  0.0210
 2706SOL    HW219581   3.029   4.613   2.359 -0.8746 -0.6755  3.2735
 2707SOL     OW19582   2.464   2.480   4.396  0.1025 -0.2302 -0.4236
 2707SOL    HW119583   2.386   2.531   4.376 -0.0633  0.1786  1.2583
 2707SOL    HW219584   2.444   2.450   4.485  1.5071  0.6113  0.1687
 2708SOL     OW19585   2.484   2.267   4.226  0.1090 -0.4465  0.1652
 2708SOL    HW119586   2.507   2.340   4.283  0.4869  0.5246 -1.2235
 2708SOL    HW219587   2.404   2.310   4.194  0.0471 -1.1581 -0.6329
 2709SOL     OW19588   3.369   4.470   8.513  0.2964 -0.1330  0.4238
 2709SOL    HW119589   3.287   4.490   8.559 -0.2297 -1.5466  0.1011
 2709SOL    HW219590   3.420   4.547   8.538 -0.9560  1.4821 -1.9927
 2710SOL     OW19591   0.968   0.145  13.605 -0.5372  0.0848 -0.1648
 2710SOL    HW119592   0.996   0.217  13.549 -1.9323  0.1278 -0.8027
 2710SOL    HW219593   0.955   0.182  13.692  1.7841 -0.2274  0.3105
 2711SOL     OW19594   0.600   4.157   9.190 -0.3073 -0.0381 -0.2193
 2711SOL    HW119595   0.554   4.206   9.122  0.9964  1.0134 -0.3542
 2711SOL    HW219596   0.530   4.129   9.249  0.4360  1.1467  1.2200
 2712SOL     OW19597   2.504   3.862   6.627 -0.1291 -0.7564  0.3143
 2712SOL    HW119598   2.574   3.907   6.673  0.5541 -1.9113  0.3941
 2712SOL    HW219599   2.551   3.790   6.586  1.2008  0.3637 -0.1286
 2713SOL     OW19600   0.446   0.410   5.610  0.0244  0.5372 -0.3328
 2713SOL    HW119601   0.455   0.481   5.546 -1.0764 -0.9543 -2.1307
 2713SOL    HW219602   0.454   0.339   5.547 -0.3894 -1.4297  1.8231
 2714SOL     OW19603   2.916   3.878  17.505 -0.1813  0.4674  0.0439
 2714SOL    HW119604   2.836   3.865  17.454 -0.7303 -1.2907  1.3389
 2714SOL    HW219605   2.917   3.806  17.568 -0.7748  1.0538  0.7358
 2715SOL     OW19606   0.326   3.057   2.005  0.2769 -0.1733  0.1533
 2715SOL    HW119607   0.357   3.009   2.082  1.1432 -1.8167 -1.2010
 2715SOL    HW219608   0.366   3.141   2.027  1.7477 -0.6697 -0.5896
 2716SOL     OW19609   0.594   4.099   6.761 -0.1605  0.2555 -0.0394
 2716SOL    HW119610   0.562   4.158   6.829  1.3371  0.3307  0.6055
 2716SOL    HW219611   0.681   4.133   6.739 -0.0027 -0.7408 -0.9803
 2717SOL     OW19612   2.368   1.949  16.764  0.7620  0.2465 -0.3610
 2717SOL    HW119613   2.375   1.968  16.671  1.2108  1.9218  0.0207
 2717SOL    HW219614   2.274   1.965  16.773  0.7281 -0.3885  0.4089
 2718SOL     OW19615   4.449   3.146   3.646  0.2672  0.1022 -0.3159
 2718SOL    HW119616   4.448   3.084   3.720 -1.3752 -0.8784 -1.1504
 2718SOL    HW219617   4.543   3.161   3.642 -0.2752  3.4704 -0.1231
 2719SOL     OW19618   4.330   1.009  12.068 -0.2427  0.2868 -0.2267
 2719SOL    HW119619   4.285   1.023  11.985 -0.5465 -0.1017 -0.1277
 2719SOL    HW219620   4.253   1.033  12.120  0.3635  1.0717  0.3093
 2720SOL     OW19621   2.440   0.191  11.173 -0.1706  0.2234  0.1473
 2720SOL    HW119622   2.445   0.206  11.079 -1.3317 -0.2323  0.0130
 2720SOL    HW219623   2.386   0.263  11.207  1.2755  1.8624 -1.0570
 2721SOL     OW19624   0.648   3.465   2.687 -0.8258  0.1240 -0.2795
 2721SOL    HW119625   0.654   3.461   2.592 -1.4865 -1.1194 -0.2621
 2721SOL    HW219626   0.582   3.398   2.705 -0.9235 -0.2503 -2.0779
 2722SOL     OW19627   2.673   4.394   3.376 -0.2316 -0.0703  0.1356
 2722SOL    HW119628   2.630   4.328   3.322  1.0361 -1.6588  1.0880
 2722SOL    HW219629   2.629   4.472   3.342 -1.6387 -1.0761 -0.3889
 2723SOL     OW19630   2.659   0.616   3.709 -0.7964  0.0466 -0.2383
 2723SOL    HW119631   2.569   0.639   3.729 -0.5788  0.6228  0.0799
 2723SOL    HW219632   2.654   0.599   3.615 -1.3534 -2.0875  0.2025
 2724SOL     OW19633   3.454   2.384   2.581  0.1148 -0.4975 -0.2541
 2724SOL    HW119634   3.478   2.353   2.669  1.4741  0.2137 -0.3681
 2724SOL    HW219635   3.493   2.314   2.528  1.7747  0.2092  0.0158
 2725SOL     OW19636   0.547   2.237   3.338  0.3306  0.2141  0.0540
 2725SOL    HW119637   0.546   2.142   3.345  0.0730  0.3211  1.5061
 2725SOL    HW219638   0.492   2.268   3.410  0.5777  1.2319 -0.1891
 2726SOL     OW19639   2.195   4.111   7.631  0.0684 -0.0349  1.0769
 2726SOL    HW119640   2.164   4.027   7.598 -0.0312  1.0352 -1.4702
 2726SOL    HW219641   2.153   4.168   7.567  0.9330  0.9486  1.3848
 2727SOL     OW19642   0.008   0.765   7.682  0.6682 -0.3553 -0.4388
 2727SOL    HW119643   0.025   0.779   7.589 -1.7950 -0.8678 -0.9495
 2727SOL    HW219644   4.645   0.799   7.700  0.8630  0.7319 -1.5355
 2728SOL     OW19645   4.722   2.147   3.456 -0.4553  0.7114 -0.1431
 2728SOL    HW119646   4.688   2.068   3.414 -2.0399  0.2474  2.0214
 2728SOL    HW219647   4.653   2.169   3.518 -0.9862 -0.6484 -0.2517
 2729SOL     OW19648   4.584   3.250   7.409 -0.1817  0.0635 -0.0999
 2729SOL    HW119649   4.535   3.260   7.491 -1.7446  0.7580 -1.1174
 2729SOL    HW219650   4.664   3.201   7.429 -0.4117 -0.8833 -1.5086
 2730SOL     OW19651   0.972   1.419   7.263  0.6291 -0.1423  0.0864
 2730SOL    HW119652   0.921   1.494   7.231  0.2238 -0.0613  0.9179
 2730SOL    HW219653   0.990   1.437   7.355 -0.7836 -3.4484  1.0124
 2731SOL     OW19654   2.344   3.880   5.412  0.6727  0.1923  0.1108
 2731SOL    HW119655   2.292   3.821   5.358 -0.3978  0.7996  0.4639
 2731SOL    HW219656   2.299   3.854   5.493  3.0569  2.9638  2.3178
 2732SOL     OW19657   2.458   4.647  15.214 -0.0787 -0.2765 -0.2755
 2732SOL    HW119658   2.416   4.589  15.278 -0.6840 -0.8762 -1.2127
 2732SOL    HW219659   2.405   4.615  15.140  0.0920 -0.1682 -0.4428
 2733SOL     OW19660   3.782   0.188   4.686  0.3051 -0.1975  0.6219
 2733SOL    HW119661   3.768   0.260   4.625 -0.6836  0.3724  1.5032
 2733SOL    HW219662   3.706   0.137   4.656 -0.9625  2.5830 -0.8705
 2734SOL     OW19663   3.286   2.564  10.305  0.0812 -0.1662  0.0166
 2734SOL    HW119664   3.236   2.640  10.332  2.4524  2.0466 -1.9095
 2734SOL    HW219665   3.362   2.552  10.362  1.6411  1.2831 -1.7763
 2735SOL     OW19666   0.040   3.166   9.073  0.2863 -0.1110 -0.1363
 2735SOL    HW119667   0.050   3.188   9.166  0.6178  0.7927 -0.3928
 2735SOL    HW219668   0.012   3.075   9.070 -2.5972  0.8110 -1.2537
 2736SOL     OW19669   2.790   3.089   5.160  0.0870  0.9181  0.2584
 2736SOL    HW119670   2.754   3.075   5.072 -1.0332  1.5209  0.6154
 2736SOL    HW219671   2.860   3.026   5.177  0.2317  0.3909 -2.3213
 2737SOL     OW19672   1.964   3.355   7.818  0.3797 -0.2888  0.6888
 2737SOL    HW119673   2.026   3.332   7.748  0.6188 -0.7612  1.0595
 2737SOL    HW219674   1.965   3.293   7.890 -3.5957 -1.2935 -0.0797
 2738SOL     OW19675   1.385   3.394  14.075 -0.2309  0.3620 -0.0650
 2738SOL    HW119676   1.472   3.356  14.069 -1.2367 -2.1881  1.7323
 2738SOL    HW219677   1.351   3.371  14.162 -0.8761  0.7889 -0.2042
 2739SOL     OW19678   4.623   1.835  13.203  0.0892  0.2235 -0.9344
 2739SOL    HW119679   4.561   1.799  13.267 -0.7026  3.5847  0.2073
 2739SOL    HW219680   4.567   1.820  13.127 -0.5773 -2.4636  0.0811
 2740SOL     OW19681   2.635   0.548   8.589 -0.2640  0.8788  0.6133
 2740SOL    HW119682   2.560   0.607   8.599  1.5694  3.1625  0.7019
 2740SOL    HW219683   2.672   0.544   8.677 -2.8268  2.1327  1.7490
 2741SOL     OW19684   2.457   2.346   4.905  0.5218 -0.3759 -0.2940
 2741SOL    HW119685   2.377   2.397   4.916  0.7238 -0.2219  0.4271
 2741SOL    HW219686   2.518   2.403   4.953 -0.6336 -1.6356  2.6258
 2742SOL     OW19687   3.432   1.797   3.348  0.1106 -0.2127  0.1232
 2742SOL    HW119688   3.440   1.802   3.444 -1.1083  1.9062  0.1264
 2742SOL    HW219689   3.463   1.884   3.324  1.2811  0.1310  2.8502
 2743SOL     OW19690   3.481   2.145   2.448  0.1643  0.0926  0.3541
 2743SOL    HW119691   3.512   2.192   2.370 -1.2506  0.8089  0.2201
 2743SOL    HW219692   3.488   2.062   2.402 -0.3210 -0.8509  1.9851
 2744SOL     OW19693   1.594   2.651  15.779  0.1356  0.0883  0.4323
 2744SOL    HW119694   1.652   2.576  15.765  2.2059  1.2950  2.6024
 2744SOL    HW219695   1.507   2.610  15.780  0.1996  0.0126  2.6738
 2745SOL     OW19696   0.527   3.393   3.702  0.3401  0.6218 -0.3304
 2745SOL    HW119697   0.622   3.392   3.714  0.2642 -1.1336  0.1030
 2745SOL    HW219698   0.518   3.483   3.671  2.1822  0.0398 -2.5374
 2746SOL     OW19699   2.785   2.792   8.817  0.3288 -0.2317 -0.0883
 2746SOL    HW119700   2.739   2.789   8.901 -0.0873  4.1762 -0.1614
 2746SOL    HW219701   2.865   2.838   8.844  1.5926  0.1697 -4.4876
 2747SOL     OW19702   3.880   0.552   5.455  0.0361 -0.2449  0.0979
 2747SOL    HW119703   3.945   0.620   5.474 -0.9540  0.2960  1.5846
 2747SOL    HW219704   3.934   0.475   5.439 -1.1718 -1.1450  0.3611
 2748SOL     OW19705   4.549   2.283   8.158  0.4027 -0.3900 -0.2869
 2748SOL    HW119706   4.534   2.195   8.121 -2.2890 -0.2515  0.4592
 2748SOL    HW219707   4.458   2.306   8.176 -0.2577 -2.9816 -0.2151
 2749SOL     OW19708   1.596   0.581   2.944 -0.4440  0.1453  0.2808
 2749SOL    HW119709   1.616   0.600   3.035  1.6588 -0.3900 -0.0602
 2749SOL    HW219710   1.608   0.487   2.930 -1.5478 -0.2262  1.8943
 2750SOL     OW19711   1.839   0.164  11.033  0.6059 -0.6474 -0.3653
 2750SOL    HW119712   1.832   0.069  11.043  0.9525 -0.4681  1.6632
 2750SOL    HW219713   1.749   0.175  11.064  0.2159 -3.9991 -0.3180
 2751SOL     OW19714   3.682   3.113   8.519  0.2594 -0.6533 -0.5183
 2751SOL    HW119715   3.746   3.065   8.466  1.9553  0.7184  0.2910
 2751SOL    HW219716   3.648   3.180   8.459 -2.2548 -1.8052 -0.3702
 2752SOL     OW19717   2.548   3.083   2.491  0.6054  0.4603  0.0700
 2752SOL    HW119718   2.598   3.084   2.409  2.1100  1.2995  1.0076
 2752SOL    HW219719   2.620   3.100   2.551  1.3899  2.5614 -1.4769
 2753SOL     OW19720   3.546   2.869  10.889 -0.8146  0.0537  0.3761
 2753SOL    HW119721   3.627   2.919  10.882 -1.2788  0.9903  1.8035
 2753SOL    HW219722   3.487   2.932  10.929 -0.8565 -1.0978  2.1257
 2754SOL     OW19723   1.015   0.239  12.910 -0.0969  0.2283  0.9296
 2754SOL    HW119724   1.067   0.318  12.903 -0.5885  0.5451  0.8343
 2754SOL    HW219725   1.030   0.198  12.825  0.6197  1.2034  0.5903
 2755SOL     OW19726   4.619   2.507   0.679  0.1254 -0.3612 -0.3124
 2755SOL    HW119727   4.557   2.434   0.686 -1.5580  1.2058  1.0824
 2755SOL    HW219728   4.554   2.576   0.684  1.1007  0.6609 -1.9591
 2756SOL     OW19729   1.614   3.195   8.455 -0.0951 -0.4608  0.2934
 2756SOL    HW119730   1.590   3.116   8.503 -0.2007 -1.0790 -0.7751
 2756SOL    HW219731   1.532   3.240   8.434 -0.3096  0.0411  2.2387
 2757SOL     OW19732   4.474   3.009   5.164 -0.1424 -1.3701  0.5474
 2757SOL    HW119733   4.534   3.074   5.126 -1.6878  0.2274  0.8577
 2757SOL    HW219734   4.507   3.011   5.254 -0.0477 -1.1791  0.5101
 2758SOL     OW19735   2.025   0.695   6.533 -0.3381  0.6455  0.4159
 2758SOL    HW119736   1.987   0.609   6.553  0.3923 -0.0068 -1.0499
 2758SOL    HW219737   2.119   0.680   6.541 -0.0352  1.6132 -1.5552
 2759SOL     OW19738   4.584   2.396   7.240 -0.0724 -0.2999 -0.7743
 2759SOL    HW119739   4.632   2.474   7.213  0.8254 -0.5871 -0.0173
 2759SOL    HW219740   4.661   2.341   7.252  0.6171  0.8493  0.0750
 2760SOL     OW19741   2.215   3.910   2.929  0.4423  0.8091  0.2580
 2760SOL    HW119742   2.306   3.884   2.940 -0.2158 -1.2639  0.8025
 2760SOL    HW219743   2.219   4.003   2.907  1.9364  0.2348 -1.8280
 2761SOL     OW19744   0.142   0.390  14.580  0.0598  0.2353  0.6087
 2761SOL    HW119745   0.168   0.348  14.662 -2.3587  0.2054  1.3673
 2761SOL    HW219746   0.117   0.309  14.536  0.6862 -0.8541  2.2682
 2762SOL     OW19747   1.651   0.592   6.135  0.0582 -0.1029 -0.0503
 2762SOL    HW119748   1.693   0.639   6.063 -1.0493  1.3422  0.2361
 2762SOL    HW219749   1.570   0.643   6.139  0.6640  0.6963  1.9413
 2763SOL     OW19750   3.146   4.618   3.829 -0.1739 -0.3695  0.0031
 2763SOL    HW119751   3.085   4.564   3.779 -1.3119 -1.5299  2.7027
 2763SOL    HW219752   3.097   4.700   3.833 -0.9049 -0.7941 -0.2409
 2764SOL     OW19753   4.647   0.878   6.158  0.1272  0.1072 -0.0820
 2764SOL    HW119754   4.634   0.833   6.075 -0.6847  1.8853 -0.9141
 2764SOL    HW219755   4.661   0.968   6.128 -1.2645 -0.0782 -1.2726
 2765SOL     OW19756   3.662   2.948  15.661  0.1984 -0.3293  0.1169
 2765SOL    HW119757   3.757   2.940  15.664  0.1715 -0.6733 -0.0089
 2765SOL    HW219758   3.640   2.871  15.714  0.1624  0.0334  0.6242
 2766SOL     OW19759   1.740   1.994   5.881 -0.4728 -0.4488 -0.3275
 2766SOL    HW119760   1.765   2.076   5.923 -1.0518 -0.6359  0.3898
 2766SOL    HW219761   1.652   1.985   5.918 -0.1872 -1.4644  0.1161
 2767SOL     OW19762   3.229   1.055   1.192 -0.4275 -0.4426 -0.9017
 2767SOL    HW119763   3.230   0.965   1.224  0.5455 -0.2198 -0.3018
 2767SOL    HW219764   3.137   1.074   1.210 -0.0465  1.6130 -1.1931
 2768SOL     OW19765   3.769   0.113  16.137  0.2227  0.3568  0.5900
 2768SOL    HW119766   3.738   0.203  16.145 -2.1737 -0.7599  3.7288
 2768SOL    HW219767   3.724   0.073  16.063  0.4367  0.9695  0.1287
 2769SOL     OW19768   1.127   0.104  17.465 -0.1130 -0.5845 -1.2338
 2769SOL    HW119769   1.186   0.147  17.527 -0.7517 -2.8676  0.9524
 2769SOL    HW219770   1.093   0.178  17.414 -1.8225 -0.1001  0.6063
 2770SOL     OW19771   0.943   2.831  12.193  0.1455  0.0016  0.2412
 2770SOL    HW119772   0.995   2.781  12.256 -0.4823 -0.1634  0.6335
 2770SOL    HW219773   0.868   2.772  12.186 -0.0164  0.2718 -0.3168
 2771SOL     OW19774   4.260   3.444   7.083  0.0106 -0.1406 -0.2606
 2771SOL    HW119775   4.287   3.415   7.170  1.5572  0.3332 -0.5937
 2771SOL    HW219776   4.335   3.487   7.043  1.9225 -0.9861  2.4616
 2772SOL     OW19777   1.323   4.439   5.036  0.4396 -0.0839 -0.1095
 2772SOL    HW119778   1.241   4.393   5.053  0.5507  0.0061  0.6821
 2772SOL    HW219779   1.381   4.386   5.091 -0.3138 -1.0933 -0.2981
 2773SOL     OW19780   2.799   1.361   1.478  0.4652 -0.5537 -0.2023
 2773SOL    HW119781   2.874   1.355   1.419 -0.6368 -1.3106 -1.5370
 2773SOL    HW219782   2.743   1.293   1.441  1.4326 -1.4038 -0.1053
 2774SOL     OW19783   4.357   3.458   3.375 -0.2063  0.4755 -0.0996
 2774SOL    HW119784   4.305   3.489   3.301  0.3090 -0.8746 -1.0400
 2774SOL    HW219785   4.328   3.367   3.374  1.2802 -0.0284  1.9664
 2775SOL     OW19786   1.986   1.765   3.251 -0.1982 -0.1334 -0.5390
 2775SOL    HW119787   2.071   1.808   3.246 -0.7315  1.0270  0.2123
 2775SOL    HW219788   1.995   1.684   3.201 -1.6524 -1.6613  1.6602
 2776SOL     OW19789   2.370   0.357   6.228 -0.3528 -0.2869 -0.8534
 2776SOL    HW119790   2.278   0.382   6.220 -1.1524 -2.7772  0.1813
 2776SOL    HW219791   2.359   0.261   6.228  0.9109 -0.4679  4.1768
 2777SOL     OW19792   4.444   0.233   8.191  0.1790 -0.2933 -0.3821
 2777SOL    HW119793   4.385   0.265   8.123 -0.8336 -0.6456  0.3205
 2777SOL    HW219794   4.477   0.320   8.212 -0.7663  0.4330 -1.8564
 2778SOL     OW19795   1.714   2.533   8.491  0.4704  1.2122  0.6783
 2778SOL    HW119796   1.637   2.494   8.532  2.5132 -1.9054  1.6161
 2778SOL    HW219797   1.748   2.591   8.560  1.4806  1.9470 -0.4390
 2779SOL     OW19798   1.148   3.949   7.655 -0.0711  0.1257 -0.6002
 2779SOL    HW119799   1.185   3.996   7.580  0.3592 -0.4788 -0.7713
 2779SOL    HW219800   1.176   3.995   7.734  1.0755  0.0531 -0.9618
 2780SOL     OW19801   1.103   1.135   4.847 -0.7480 -0.0688  0.0084
 2780SOL    HW119802   1.083   1.049   4.883  2.8114 -0.4556  1.0609
 2780SOL    HW219803   1.177   1.155   4.905 -0.7542  0.0526 -0.0253
 2781SOL     OW19804   1.618   2.150   5.223  0.0680 -0.3867  0.0856
 2781SOL    HW119805   1.593   2.204   5.148  1.6308  1.0679  0.6005
 2781SOL    HW219806   1.549   2.172   5.286 -0.8320  0.6805 -1.2584
 2782SOL     OW19807   1.044   4.021   2.322  0.3958  0.3618 -0.2102
 2782SOL    HW119808   0.968   4.064   2.282 -1.6134 -1.1923  1.9519
 2782SOL    HW219809   1.081   3.976   2.246  0.3245  2.8462 -1.6981
 2783SOL     OW19810   0.225   3.248  14.400 -0.2908 -0.2772  0.1977
 2783SOL    HW119811   0.133   3.222  14.407  0.1694 -1.0879  3.1817
 2783SOL    HW219812   0.227   3.268  14.306 -1.6309  0.7128  0.3656
 2784SOL     OW19813   3.110   2.169   5.304 -0.4925  0.4564  0.0710
 2784SOL    HW119814   3.131   2.227   5.231  2.6906 -1.4861 -0.5387
 2784SOL    HW219815   3.065   2.094   5.263  2.7163 -0.9693 -0.8378
 2785SOL     OW19816   4.442   3.350   0.329  0.3187 -0.1026 -0.3160
 2785SOL    HW119817   4.507   3.413   0.299  1.3690 -0.4806  1.1534
 2785SOL    HW219818   4.414   3.310   0.247 -0.0825 -2.0471  0.7685
 2786SOL     OW19819   4.663   3.044   4.151 -0.2663  0.0907 -0.5144
 2786SOL    HW119820   0.031   3.058   4.172  0.1372 -1.9211 -0.9512
 2786SOL    HW219821   4.656   3.022   4.058  0.7731  0.7261 -0.7433
 2787SOL     OW19822   3.045   3.836   9.391 -0.9421  0.4768 -0.1642
 2787SOL    HW119823   3.054   3.809   9.300  2.4315  1.1689 -0.0415
 2787SOL    HW219824   3.121   3.895   9.392 -0.0385 -0.7210  0.8966
 2788SOL     OW19825   1.290   1.300   3.314 -0.0201 -0.3714 -0.5569
 2788SOL    HW119826   1.319   1.376   3.365  2.0393 -2.3931  1.3154
 2788SOL    HW219827   1.328   1.226   3.362 -0.8443 -1.0980 -1.0315
 2789SOL     OW19828   1.868   2.481  10.393  0.0518 -0.5044  0.2446
 2789SOL    HW119829   1.774   2.461  10.396 -0.1687  0.3803 -0.7292
 2789SOL    HW219830   1.899   2.480  10.483 -0.4084  1.8642  0.4270
 2790SOL     OW19831   4.389   4.627  12.581  0.5409  0.0853  0.3004
 2790SOL    HW119832   4.307   4.621  12.630  1.0796  0.7380  1.2751
 2790SOL    HW219833   4.401   4.546  12.531 -0.3254 -0.1700  0.5091
 2791SOL     OW19834   1.835   0.947   2.848 -0.5502 -0.7001 -0.4635
 2791SOL    HW119835   1.815   0.941   2.942  1.2544 -0.6700 -0.0716
 2791SOL    HW219836   1.930   0.952   2.859 -0.6096 -0.9539  0.2025
 2792SOL     OW19837   0.720   2.051   8.642 -0.2306  0.1097  0.1448
 2792SOL    HW119838   0.766   2.085   8.718 -0.7938 -1.2466  1.0893
 2792SOL    HW219839   0.775   2.080   8.570 -0.9125  3.4886  0.9948
 2793SOL     OW19840   1.453   3.224   6.912  0.3594  0.0955 -0.5393
 2793SOL    HW119841   1.369   3.178   6.909  0.1298  0.3638  1.3510
 2793SOL    HW219842   1.416   3.312   6.922  0.9094  0.4000 -1.2538
 2794SOL     OW19843   1.384   4.120   4.502  0.1522  0.2689 -0.1949
 2794SOL    HW119844   1.425   4.148   4.584  1.8860 -3.3231  0.1582
 2794SOL    HW219845   1.311   4.181   4.495  0.6288  1.0662  1.9154
 2795SOL     OW19846   4.245   3.134   3.004 -0.1544 -0.5664  0.1777
 2795SOL    HW119847   4.266   3.086   2.923  1.6408 -2.1643  1.5860
 2795SOL    HW219848   4.328   3.125   3.050 -0.0895 -1.2775 -0.0688
 2796SOL     OW19849   1.557   2.962   5.342 -0.0708 -0.3438  0.4841
 2796SOL    HW119850   1.504   2.882   5.342  2.5146 -2.0896  2.3146
 2796SOL    HW219851   1.553   2.985   5.249  0.0953  2.9103  1.3058
 2797SOL     OW19852   3.695   1.048   5.155  0.5745  0.0238 -0.7456
 2797SOL    HW119853   3.766   0.985   5.144  0.0564 -1.2073  3.0421
 2797SOL    HW219854   3.728   1.092   5.234  0.8699  0.6114 -1.1881
 2798SOL     OW19855   0.763   2.210   1.639  0.5936  0.2968  0.2514
 2798SOL    HW119856   0.738   2.293   1.600  1.9129 -0.1204 -1.5297
 2798SOL    HW219857   0.811   2.169   1.567  2.3485 -0.7004  1.9746
 2799SOL     OW19858   2.237   4.123  12.711  0.1992 -0.4427  0.4695
 2799SOL    HW119859   2.266   4.214  12.719  0.1942 -0.5875  2.1497
 2799SOL    HW219860   2.317   4.075  12.692 -0.9789 -2.5434  0.8587
 2800SOL     OW19861   1.569   4.087  10.637  0.5177  0.3717 -0.8640
 2800SOL    HW119862   1.498   4.042  10.682 -0.5748  1.1739 -1.7843
 2800SOL    HW219863   1.513   4.137  10.578  0.4051  2.3826  0.9320
 2801SOL     OW19864   1.674   0.177   3.768 -0.0605  0.1701 -0.6102
 2801SOL    HW119865   1.644   0.123   3.841 -2.8495 -0.3315 -2.1104
 2801SOL    HW219866   1.666   0.120   3.692  3.4748  0.0146 -0.8705
 2802SOL     OW19867   1.255   3.226   3.572 -0.1462 -0.5343 -0.6092
 2802SOL    HW119868   1.223   3.137   3.563 -1.8886  0.2229 -1.8286
 2802SOL    HW219869   1.319   3.233   3.500  0.1222 -0.7535 -0.3935
 2803SOL     OW19870   1.703   0.605   8.226 -0.8667 -0.5168  0.3582
 2803SOL    HW119871   1.773   0.543   8.202  1.8323  2.4810  0.5196
 2803SOL    HW219872   1.756   0.665   8.277  0.4263 -1.2671 -0.0816
 2804SOL     OW19873   4.605   1.071   2.104 -0.1711 -0.0505 -0.6534
 2804SOL    HW119874   4.598   0.981   2.135 -0.2717  0.1673 -0.0564
 2804SOL    HW219875   4.622   1.061   2.010 -1.4013  0.4923 -0.9351
 2805SOL     OW19876   2.259   2.397   4.138  0.2987  0.5212 -0.2039
 2805SOL    HW119877   2.219   2.336   4.075  1.2188 -0.0913 -0.1842
 2805SOL    HW219878   2.224   2.481   4.106  0.6379  1.5172  2.0844
 2806SOL     OW19879   3.321   0.030   5.311 -0.4176 -0.0207 -0.5677
 2806SOL    HW119880   3.380   0.084   5.365  0.5071 -0.1899 -1.4146
 2806SOL    HW219881   3.307   0.089   5.237 -1.7684  0.8095  0.3535
 2807SOL     OW19882   1.934   2.389   3.405 -0.4085 -0.2229 -0.5660
 2807SOL    HW119883   1.928   2.419   3.496 -0.2870  0.8818 -0.9192
 2807SOL    HW219884   1.897   2.301   3.414 -1.2103  0.3878  2.1822
 2808SOL     OW19885   2.014   1.886   9.411  0.0632 -0.0002 -0.6379
 2808SOL    HW119886   2.097   1.928   9.435  0.7657 -0.4525 -2.2989
 2808SOL    HW219887   2.007   1.818   9.479  4.2551  0.3781  0.1560
 2809SOL     OW19888   1.818   1.742   8.407  0.7154  0.0156 -1.4040
 2809SOL    HW119889   1.889   1.798   8.375  2.1289 -0.7471  0.3951
 2809SOL    HW219890   1.792   1.710   8.321 -0.7210 -0.7840 -0.6651
 2810SOL     OW19891   0.127   0.978   9.091 -0.1971 -0.7046  0.0027
 2810SOL    HW119892   0.181   0.913   9.136  0.3483 -0.9339 -0.9831
 2810SOL    HW219893   0.041   0.936   9.089 -0.4797 -0.0191 -1.6764
 2811SOL     OW19894   4.281   3.779   6.408  0.3457  0.2803 -0.5654
 2811SOL    HW119895   4.296   3.795   6.314  1.0075 -2.9727 -1.0128
 2811SOL    HW219896   4.193   3.816   6.419  1.5561  2.7048  0.9336
 2812SOL     OW19897   4.551   3.765   0.731 -0.2119 -0.0175  0.3816
 2812SOL    HW119898   4.619   3.820   0.693  0.1318 -0.6305  0.1114
 2812SOL    HW219899   4.471   3.817   0.726  2.1893  3.4492 -1.6642
 2813SOL     OW19900   0.418   3.678   8.469  0.8279 -0.1590  0.1829
 2813SOL    HW119901   0.380   3.626   8.540 -1.8179  0.0292 -1.1029
 2813SOL    HW219902   0.436   3.760   8.516  0.7984 -1.0721  1.7999
 2814SOL     OW19903   4.581   4.533  16.168 -0.5403  0.0952 -0.4830
 2814SOL    HW119904   4.528   4.581  16.105  1.4371  3.6625  0.5562
 2814SOL    HW219905   4.656   4.501  16.118  0.2542  0.0909  0.6952
 2815SOL     OW19906   1.581   1.597   1.198 -0.5694 -0.9859  0.0212
 2815SOL    HW119907   1.674   1.575   1.191  0.4972  2.6221  2.7038
 2815SOL    HW219908   1.556   1.620   1.287  0.8382  2.0908 -0.3817
 2816SOL     OW19909   2.199   0.343   7.613  0.3471  0.2109  0.3727
 2816SOL    HW119910   2.238   0.262   7.646 -2.2226 -0.3151  2.1725
 2816SOL    HW219911   2.185   0.319   7.521 -1.5073  3.6824 -0.2468
 2817SOL     OW19912   2.468   4.585   3.315 -0.6353  0.1469 -0.2365
 2817SOL    HW119913   2.380   4.566   3.283 -0.4340 -0.7622 -0.2368
 2817SOL    HW219914   2.508   4.640   3.248 -0.9819 -0.1931 -0.7194
 2818SOL     OW19915   0.539   0.342   9.138  0.2695  0.0421 -0.4113
 2818SOL    HW119916   0.611   0.402   9.157  1.3721 -0.3583 -3.2164
 2818SOL    HW219917   0.499   0.335   9.224  1.5726 -0.5556  0.1405
 2819SOL     OW19918   0.870   0.469   2.763  0.1903  0.3286  0.3925
 2819SOL    HW119919   0.888   0.562   2.770 -2.1840  0.8555 -0.5377
 2819SOL    HW219920   0.937   0.445   2.698 -0.8293  1.8788 -1.2032
 2820SOL     OW19921   2.978   4.353  10.356  0.7410  0.1481 -0.2900
 2820SOL    HW119922   2.977   4.265  10.392  1.9731  0.8822  1.4998
 2820SOL    HW219923   2.886   4.381  10.359  0.7762  0.2140  0.0890
 2821SOL     OW19924   1.002   2.470   6.385  0.2596 -0.3908  0.3600
 2821SOL    HW119925   0.985   2.427   6.301  0.7990  2.0533 -0.9921
 2821SOL    HW219926   1.090   2.438   6.406  0.3713 -2.1287 -2.6289
 2822SOL     OW19927   0.194   1.362  17.165  0.9218 -0.2171  0.5548
 2822SOL    HW119928   0.238   1.368  17.250  2.9059 -0.9445 -0.4327
 2822SOL    HW219929   0.270   1.356  17.108  0.0863  0.8788 -0.6529
 2823SOL     OW19930   1.857   4.132   4.092  0.1685 -0.4228  0.2867
 2823SOL    HW119931   1.884   4.138   4.183 -1.0358 -0.2229  0.6346
 2823SOL    HW219932   1.765   4.107   4.096 -0.1183  0.3564 -1.3157
 2824SOL     OW19933   0.905   3.605   7.133  0.0596 -0.6666  0.0902
 2824SOL    HW119934   0.910   3.599   7.229  1.8718  0.9292  0.1033
 2824SOL    HW219935   0.852   3.683   7.120  1.7851  0.5305  0.2063
 2825SOL     OW19936   0.125   3.737   1.152 -0.3992 -0.1352 -0.5214
 2825SOL    HW119937   0.089   3.703   1.070 -0.2083  0.3264 -0.7922
 2825SOL    HW219938   0.045   3.738   1.204 -1.0394 -1.0782 -1.4698
 2826SOL     OW19939   0.916   3.139   2.612 -0.1519  0.4352  0.6585
 2826SOL    HW119940   0.942   3.230   2.599 -1.9402  0.7601 -0.7595
 2826SOL    HW219941   0.999   3.099   2.635  0.4192  0.2277 -1.6888
 2827SOL     OW19942   2.434   3.529   1.404  0.6099 -0.1023 -0.1191
 2827SOL    HW119943   2.353   3.478   1.409  0.9972 -0.4104  2.9707
 2827SOL    HW219944   2.460   3.533   1.496 -1.8567 -0.6447  0.6014
 2828SOL     OW19945   2.556   2.519   3.084  0.1542  0.4978 -0.3858
 2828SOL    HW119946   2.582   2.579   3.014  0.5902 -0.9752 -1.4842
 2828SOL    HW219947   2.622   2.450   3.084  0.0243  0.3754 -0.0020
 2829SOL     OW19948   2.888   3.607   3.502 -0.0974  0.4941  0.4439
 2829SOL    HW119949   2.942   3.661   3.559 -0.1000  0.5049  0.4361
 2829SOL    HW219950   2.827   3.679   3.487  1.1925  2.1085  3.0414
 2830SOL     OW19951   2.660   2.978   2.931 -0.0218 -0.5791  0.3254
 2830SOL    HW119952   2.753   2.980   2.908  0.0977  0.4014  0.8780
 2830SOL    HW219953   2.658   3.063   2.975  0.9793  0.1793 -1.0917
 2831SOL     OW19954   1.890   1.893   1.946  0.3509 -0.3722  0.0103
 2831SOL    HW119955   1.918   1.903   1.855 -1.2481  0.8415 -0.3447
 2831SOL    HW219956   1.827   1.822   1.941 -2.7471  2.5158 -2.0585
 2832SOL     OW19957   2.323   4.273   3.716  0.0565 -0.0903  0.0908
 2832SOL    HW119958   2.301   4.315   3.799 -0.3356 -1.7182  0.8114
 2832SOL    HW219959   2.352   4.352   3.671 -1.6631  0.4849  0.0094
 2833SOL     OW19960   3.835   1.406   6.308 -0.0530  0.0607 -0.5930
 2833SOL    HW119961   3.929   1.390   6.299 -0.1544  0.0238 -1.5331
 2833SOL    HW219962   3.838   1.440   6.398 -1.1314 -1.0314 -0.1425
 2834SOL     OW19963   4.441   0.259   5.846 -0.1447 -0.5540  0.1466
 2834SOL    HW119964   4.401   0.218   5.769  0.9359  0.1464 -0.7782
 2834SOL    HW219965   4.462   0.180   5.896 -1.2679 -0.1242  1.2738
 2835SOL     OW19966   1.329   0.622   1.064  0.0483  0.2133  0.6162
 2835SOL    HW119967   1.311   0.659   1.151  0.8224 -0.7953  1.2064
 2835SOL    HW219968   1.391   0.552   1.083  1.1679  0.7433 -1.0807
 2836SOL     OW19969   3.901   0.842   6.290 -0.1265 -0.3881  0.4634
 2836SOL    HW119970   3.893   0.787   6.212  0.9610  0.5771 -0.3137
 2836SOL    HW219971   3.812   0.873   6.308 -0.5071 -0.2322 -1.7280
 2837SOL     OW19972   0.901   4.029   8.855 -1.1903  0.1286  0.4377
 2837SOL    HW119973   0.853   3.946   8.868 -0.6106 -0.6481 -2.5719
 2837SOL    HW219974   0.850   4.063   8.782  0.4251  0.4075 -0.5460
 2838SOL     OW19975   3.918   4.612   1.450 -0.0230 -0.3775 -0.1390
 2838SOL    HW119976   4.005   4.584   1.479 -0.5529 -2.7546 -0.8183
 2838SOL    HW219977   3.949   4.674   1.384 -0.6158 -1.1881 -1.1866
 2839SOL     OW19978   4.006   1.739   8.562 -0.3554  0.1344 -0.1243
 2839SOL    HW119979   3.994   1.648   8.590 -0.2507  0.0323 -0.4081
 2839SOL    HW219980   3.923   1.750   8.516 -1.1955  3.0032  2.0794
 2840SOL     OW19981   2.522   1.586   1.551  0.0631  0.6674  0.5387
 2840SOL    HW119982   2.462   1.651   1.587 -0.8461  0.1145  0.0228
 2840SOL    HW219983   2.520   1.598   1.456  1.6984 -0.2799  0.3964
 2841SOL     OW19984   2.559   1.233   7.107  0.0151  0.0907  0.2540
 2841SOL    HW119985   2.503   1.265   7.177 -0.5888  3.3031 -1.6809
 2841SOL    HW219986   2.641   1.237   7.156  0.7413  1.3631 -1.0668
 2842SOL     OW19987   2.510   1.020   9.368  0.3974  0.2383  0.5975
 2842SOL    HW119988   2.579   0.968   9.411  1.2552  0.7641 -0.1538
 2842SOL    HW219989   2.434   0.995   9.421 -0.2168  0.8665 -0.0088
 2843SOL     OW19990   4.664   4.259  10.059 -0.3595 -0.1818  0.8230
 2843SOL    HW119991   4.661   4.166  10.083  0.5351 -0.1862  0.9244
 2843SOL    HW219992   4.572   4.278  10.075 -0.3225  0.8952 -0.3482
 2844SOL     OW19993   0.294   1.581   4.137 -0.1426  0.8213  0.6320
 2844SOL    HW119994   0.200   1.577   4.121 -0.0952 -1.8744  0.9395
 2844SOL    HW219995   0.307   1.515   4.205  1.5703  0.2358 -0.2764
 2845SOL     OW19996   4.021   3.966  15.661 -0.2701 -0.1323  0.5321
 2845SOL    HW119997   4.074   3.946  15.584  1.3337  0.1315  1.5654
 2845SOL    HW219998   4.052   3.894  15.716  3.9037  2.1009  1.1376
 2846SOL     OW19999   4.688   2.110   5.675 -0.4159  0.4243 -0.4240
 2846SOL    HW120000   0.012   2.101   5.757 -1.1109 -1.2554 -0.2038
 2846SOL    HW220001   4.636   2.190   5.685  0.3758  0.8605  0.2052
 2847SOL     OW20002   2.484   1.101   4.101  0.1960  0.2129  0.0202
 2847SOL    HW120003   2.560   1.146   4.065 -1.0876  1.4212 -1.1950
 2847SOL    HW220004   2.416   1.162   4.071 -0.0783  0.0224  0.2527
 2848SOL     OW20005   2.324   1.858   8.254 -0.4437  0.1228  0.6639
 2848SOL    HW120006   2.396   1.917   8.234 -0.6275  0.3178  0.5742
 2848SOL    HW220007   2.259   1.873   8.185 -0.7529 -0.7309  0.7617
 2849SOL     OW20008   0.031   3.159   6.729 -0.2118 -0.1146  0.0348
 2849SOL    HW120009   4.699   3.213   6.673 -2.3455  0.3073  2.5862
 2849SOL    HW220010   0.103   3.221   6.729 -0.5742  0.3023  0.6307
 2850SOL     OW20011   4.120   3.445   1.245  0.4180  0.6922  0.7574
 2850SOL    HW120012   4.170   3.389   1.185 -0.9361 -1.5483  1.7274
 2850SOL    HW220013   4.062   3.475   1.174  1.1951  0.4461  0.0213
 2851SOL     OW20014   3.676   0.558   2.273 -0.0772 -0.9092  0.7845
 2851SOL    HW120015   3.581   0.560   2.279 -0.1773  2.0418 -1.4948
 2851SOL    HW220016   3.701   0.513   2.353  0.4523 -0.1143  1.0611
 2852SOL     OW20017   1.812   1.577   0.060 -0.3483  0.8661  0.3736
 2852SOL    HW120018   1.823   1.654   0.116 -0.7199 -0.0318  1.6834
 2852SOL    HW220019   1.777   1.608  17.676 -0.6493  0.7746  0.4651
 2853SOL     OW20020   0.176   1.661  15.100  1.1179  0.3072  0.0184
 2853SOL    HW120021   0.084   1.672  15.079  1.4247  1.6545 -0.5992
 2853SOL    HW220022   0.165   1.588  15.161 -1.8287  2.1155  1.6200
 2854SOL     OW20023   3.103   0.575   4.573  0.0098 -0.5085 -0.1764
 2854SOL    HW120024   3.131   0.511   4.508 -0.2256  0.0518 -0.8205
 2854SOL    HW220025   3.128   0.536   4.657  0.3710 -3.5112 -1.6633
 2855SOL     OW20026   0.547   1.510   8.135 -0.0504 -0.0170  0.3184
 2855SOL    HW120027   0.505   1.453   8.200  0.7603 -0.8799  0.0828
 2855SOL    HW220028   0.566   1.591   8.182 -0.2049  0.7507 -0.9525
 2856SOL     OW20029   2.474   2.125   3.026  0.3151 -0.0388 -0.1848
 2856SOL    HW120030   2.456   2.080   3.109  0.3686 -0.6961 -0.5311
 2856SOL    HW220031   2.426   2.068   2.967  0.5392  0.4671 -0.8575
 2857SOL     OW20032   2.938   1.708   3.461 -0.0127  0.6547  0.7004
 2857SOL    HW120033   2.873   1.710   3.391 -0.1848  1.8031  0.8989
 2857SOL    HW220034   3.015   1.742   3.418 -0.4652  0.3035 -0.3937
 2858SOL     OW20035   0.397   0.245  13.537 -0.5574 -0.7623  0.2022
 2858SOL    HW120036   0.350   0.163  13.553 -1.5349 -0.2922 -0.2718
 2858SOL    HW220037   0.334   0.297  13.486 -0.8376  1.2148  2.5753
 2859SOL     OW20038   1.466   2.658   8.922 -0.2847 -0.7978 -0.1612
 2859SOL    HW120039   1.411   2.661   8.843  0.0522  3.5049 -0.2596
 2859SOL    HW220040   1.433   2.589   8.979  0.9088  0.1539  1.6786
 2860SOL     OW20041   4.102   4.492   4.583 -0.7591  0.1928  0.0364
 2860SOL    HW120042   4.086   4.404   4.549 -0.0312 -0.6439  1.8639
 2860SOL    HW220043   4.115   4.463   4.674 -0.8563  0.9456  0.2887
 2861SOL     OW20044   2.995   3.203  14.112  0.5629 -0.4615 -0.3233
 2861SOL    HW120045   3.052   3.161  14.177  0.9658  0.0552 -0.3408
 2861SOL    HW220046   2.933   3.131  14.103 -0.5312  0.2782  1.2477
 2862SOL     OW20047   4.320   4.065   6.013 -0.1894 -0.0210  0.1450
 2862SOL    HW120048   4.319   4.100   5.924 -2.8514 -0.2966  0.0485
 2862SOL    HW220049   4.254   4.119   6.057  0.2413 -0.4159  1.2686
 2863SOL     OW20050   1.231   3.813   1.118 -0.2823 -0.7726 -0.4603
 2863SOL    HW120051   1.325   3.828   1.125 -0.6783  1.1455  0.4601
 2863SOL    HW220052   1.233   3.719   1.098 -1.9066 -0.8991 -0.0889
 2864SOL     OW20053   0.337   2.160   3.604 -0.0274  0.5447 -0.2773
 2864SOL    HW120054   0.247   2.151   3.635 -0.1459 -0.1141 -0.8080
 2864SOL    HW220055   0.340   2.251   3.573  0.9112  0.2487 -1.0648
 2865SOL     OW20056   3.354   1.401   8.096 -0.1110  0.1858 -0.1536
 2865SOL    HW120057   3.349   1.492   8.126 -2.0212  0.2491 -0.6855
 2865SOL    HW220058   3.265   1.379   8.124 -0.5462  2.6610  0.3954
 2866SOL     OW20059   4.079   4.197  12.760 -0.2879 -0.2569 -0.6707
 2866SOL    HW120060   4.025   4.201  12.681  1.4733  0.5362 -1.8460
 2866SOL    HW220061   4.087   4.102  12.764 -2.6606 -0.5049 -1.5139
 2867SOL     OW20062   2.174   2.586   4.381  0.0646  0.1280  0.3507
 2867SOL    HW120063   2.110   2.517   4.397 -0.4703  0.6843  0.5738
 2867SOL    HW220064   2.155   2.599   4.289 -3.5190  1.4434  1.3062
 2868SOL     OW20065   3.609   1.943  15.231 -0.1247  0.7097  0.2594
 2868SOL    HW120066   3.635   1.890  15.155  2.2843  1.3933  0.6083
 2868SOL    HW220067   3.576   2.026  15.196 -0.6762  0.9854  1.4450
 2869SOL     OW20068   1.225   0.554   7.349 -0.2476  0.3726  0.1334
 2869SOL    HW120069   1.190   0.643   7.346  0.1425  0.5213 -0.0007
 2869SOL    HW220070   1.255   0.565   7.439 -0.6077 -1.0498  0.4243
 2870SOL     OW20071   3.114   0.572   1.157 -0.0065 -0.1428 -0.1756
 2870SOL    HW120072   3.148   0.489   1.192  1.6172  0.0181 -1.3679
 2870SOL    HW220073   3.072   0.542   1.076 -0.4269 -0.4546  0.1582
 2871SOL     OW20074   3.384   0.054  10.720  0.1737  0.2361 -0.4513
 2871SOL    HW120075   3.476   0.080  10.732 -0.1963  1.0940  0.5206
 2871SOL    HW220076   3.379   4.689  10.755 -2.5025  0.6828  0.2513
 2872SOL     OW20077   1.926   1.647   3.767  0.0124  0.3893 -0.1070
 2872SOL    HW120078   1.969   1.717   3.816 -0.6641  0.5491  0.2553
 2872SOL    HW220079   1.920   1.581   3.835 -0.0464  2.4515  1.9030
 2873SOL     OW20080   3.535   0.062   8.075  0.0226 -0.1839  0.0972
 2873SOL    HW120081   3.566   0.147   8.106 -0.1999 -0.1666  0.2759
 2873SOL    HW220082   3.598   0.037   8.008  0.4003 -1.6735  1.0018
 2874SOL     OW20083   4.681   3.124   0.415 -0.2902 -0.0692  0.6342
 2874SOL    HW120084   4.697   3.202   0.362 -1.1837  0.3761  1.0233
 2874SOL    HW220085   4.690   3.161   0.503  0.5507 -1.3166  1.0679
 2875SOL     OW20086   3.171   3.939  17.528  0.3819  0.2129 -0.2033
 2875SOL    HW120087   3.165   4.016  17.470  0.6473 -0.4650 -1.1261
 2875SOL    HW220088   3.082   3.915  17.503 -0.7329  3.0858  0.9501
 2876SOL     OW20089   4.299   2.498   8.775 -0.2193  0.0977 -0.4282
 2876SOL    HW120090   4.280   2.472   8.685  1.6458  0.0902 -0.8237
 2876SOL    HW220091   4.299   2.414   8.821  0.1109  0.7072  0.7005
 2877SOL     OW20092   4.381   3.870   3.275  0.0300 -0.1337 -0.2049
 2877SOL    HW120093   4.470   3.840   3.254 -0.8726 -3.0975  0.2332
 2877SOL    HW220094   4.364   3.816   3.352 -0.2962  1.8060  1.0776
 2878SOL     OW20095   1.224   2.105  16.119 -0.4108 -0.4456  0.1351
 2878SOL    HW120096   1.164   2.053  16.065  0.3047 -2.0685  0.8878
 2878SOL    HW220097   1.218   2.062  16.204 -1.4030  2.0166  1.3176
 2879SOL     OW20098   2.808   4.083   9.824 -0.1664  0.2720  0.0711
 2879SOL    HW120099   2.901   4.104   9.837  0.2631 -0.5517 -1.6261
 2879SOL    HW220100   2.814   4.050   9.734 -0.4458  0.6230 -0.0767
 2880SOL     OW20101   2.649   2.158  10.087  0.1425 -0.3065  0.6924
 2880SOL    HW120102   2.664   2.110  10.169  2.5082  1.6634  1.4147
 2880SOL    HW220103   2.623   2.243  10.123  2.1944  0.4088  0.4990
 2881SOL     OW20104   1.269   2.425   6.453  0.2719  0.4515  0.2772
 2881SOL    HW120105   1.306   2.442   6.539 -2.4657  3.2122  0.8865
 2881SOL    HW220106   1.325   2.479   6.397 -0.9205 -0.5398 -1.9000
 2882SOL     OW20107   2.859   4.497   2.829  0.2481  0.3792  0.8015
 2882SOL    HW120108   2.845   4.450   2.746  2.0750 -0.4518  0.9783
 2882SOL    HW220109   2.844   4.589   2.807 -0.1844 -0.1170 -0.9629
 2883SOL     OW20110   0.152   2.306   9.963 -0.5520  0.1851  0.3531
 2883SOL    HW120111   0.189   2.245  10.027  0.5622  1.2843  0.7811
 2883SOL    HW220112   0.181   2.389  10.002 -0.2057  0.4027 -0.3531
 2884SOL     OW20113   3.830   1.997   2.401 -0.7991 -0.4084  0.5598
 2884SOL    HW120114   3.905   2.004   2.460  0.6052  1.7313 -1.4643
 2884SOL    HW220115   3.757   1.977   2.460 -0.8798  0.3706  0.7357
 2885SOL     OW20116   2.582   2.899   0.641 -0.5193 -0.7107  0.9795
 2885SOL    HW120117   2.602   2.812   0.608  0.4359 -0.5728  1.2068
 2885SOL    HW220118   2.665   2.914   0.686  0.1241 -3.4651  0.6898
 2886SOL     OW20119   2.311   2.293   3.848 -0.4536 -0.0312  0.2819
 2886SOL    HW120120   2.225   2.255   3.829  0.1468 -0.4684 -1.5655
 2886SOL    HW220121   2.367   2.221   3.817 -1.3851  0.2398 -2.0705
 2887SOL     OW20122   4.005   2.674   7.220  0.3778  0.0104  0.3478
 2887SOL    HW120123   4.024   2.768   7.214 -1.8419  0.5389  1.3901
 2887SOL    HW220124   4.050   2.642   7.142  0.8894 -2.3580  1.6315
 2888SOL     OW20125   2.557   1.118   6.610  0.1405 -0.2237 -0.1193
 2888SOL    HW120126   2.553   1.176   6.686 -0.6700 -0.9697  0.4204
 2888SOL    HW220127   2.586   1.037   6.652  0.3023 -0.2758 -0.3307
 2889SOL     OW20128   0.251   2.938   4.290 -0.1952 -0.3755  0.4262
 2889SOL    HW120129   0.268   2.904   4.202  0.5827 -1.0221  0.8194
 2889SOL    HW220130   0.285   2.870   4.349  0.2769  0.8048  1.5093
 2890SOL     OW20131   2.531   1.978  15.821 -0.4098 -0.0064  0.1806
 2890SOL    HW120132   2.615   1.935  15.834 -0.9882 -0.3018  2.9343
 2890SOL    HW220133   2.560   2.069  15.808  0.7455 -0.5195 -0.7771
 2891SOL     OW20134   2.966   3.451   3.926  0.3402  0.0655  0.4816
 2891SOL    HW120135   2.948   3.361   3.952 -1.3728  0.3503  0.2647
 2891SOL    HW220136   2.970   3.498   4.010  0.2208 -2.2017  1.7536
 2892SOL     OW20137   0.448   3.304   3.123  0.3186  0.2208 -0.3574
 2892SOL    HW120138   0.368   3.344   3.158  0.5662  0.7185 -0.3534
 2892SOL    HW220139   0.515   3.367   3.150  0.4552 -0.1025  0.0498
 2893SOL     OW20140   3.874   2.451  15.156  0.6155 -0.0812  0.4671
 2893SOL    HW120141   3.783   2.450  15.128  1.1857 -0.2790 -1.3475
 2893SOL    HW220142   3.872   2.381  15.221  0.6029  0.0180  0.5735
 2894SOL     OW20143   3.301   2.275   1.084  0.2908 -0.0866 -0.1863
 2894SOL    HW120144   3.352   2.226   1.148 -0.1720  0.2574  0.4445
 2894SOL    HW220145   3.339   2.359   1.110 -1.7769  1.3704 -1.8961
 2895SOL     OW20146   3.536   1.435   2.441  0.6928  0.2334 -0.1467
 2895SOL    HW120147   3.523   1.465   2.351  0.5220  0.4553 -0.0480
 2895SOL    HW220148   3.581   1.351   2.437 -2.2493 -1.3825  0.4772
 2896SOL     OW20149   1.758   0.959  12.721 -0.1626 -0.3026 -0.3429
 2896SOL    HW120150   1.750   0.884  12.663 -0.7772 -0.8193  0.4143
 2896SOL    HW220151   1.797   0.913  12.795  0.2413  1.3365  0.4754
 2897SOL     OW20152   0.360   0.703   7.571  0.4424  0.0625 -0.1105
 2897SOL    HW120153   0.323   0.681   7.486  0.4338  1.2219 -0.4027
 2897SOL    HW220154   0.299   0.669   7.637  1.9210 -0.2446  1.1131
 2898SOL     OW20155   0.178   1.417  15.303 -0.1992 -0.3723  0.5313
 2898SOL    HW120156   0.266   1.407  15.341  0.4259 -3.0220 -1.6365
 2898SOL    HW220157   0.167   1.340  15.247  0.4747  1.2638 -1.8431
 2899SOL     OW20158   4.549   3.043  10.457  0.1248 -0.3665 -0.6929
 2899SOL    HW120159   4.559   2.951  10.434 -0.5312 -0.8253  0.8561
 2899SOL    HW220160   4.466   3.074  10.422 -0.6575  1.6235  2.9517
 2900SOL     OW20161   4.407   0.190  10.611  0.0623  0.1307 -0.4479
 2900SOL    HW120162   4.355   0.217  10.687  0.9969 -1.0594  0.6087
 2900SOL    HW220163   4.492   0.229  10.632 -0.5376  1.2320 -0.0669
 2901SOL     OW20164   0.811   1.841   6.763  0.1822  0.4236 -0.1113
 2901SOL    HW120165   0.862   1.783   6.819 -1.9175 -0.3015  1.0156
 2901SOL    HW220166   0.787   1.778   6.694 -0.0295 -0.9203  1.2038
 2902SOL     OW20167   1.215   2.181  13.648 -0.1195  0.2946  0.1726
 2902SOL    HW120168   1.195   2.260  13.597  0.5282 -0.0740 -0.6636
 2902SOL    HW220169   1.136   2.130  13.631 -0.3712  1.9651 -3.8081
 2903SOL     OW20170   1.347   1.383   2.350  0.5782 -0.1465  0.7399
 2903SOL    HW120171   1.387   1.338   2.424 -0.6248  0.2627  1.6448
 2903SOL    HW220172   1.255   1.364   2.369  0.4362 -0.5734 -0.3874
 2904SOL     OW20173   1.275   3.591   3.652  0.5643  0.4670  0.5584
 2904SOL    HW120174   1.338   3.574   3.582  0.3220 -0.2604  0.5180
 2904SOL    HW220175   1.234   3.668   3.613 -0.2334 -1.2250 -1.9843
 2905SOL     OW20176   3.413   4.338   1.931  0.5350  0.4498  0.0395
 2905SOL    HW120177   3.342   4.286   1.894  0.7240  0.3636 -0.2009
 2905SOL    HW220178   3.488   4.281   1.912  0.0946 -0.9765  2.5778
 2906SOL     OW20179   1.062   3.794  15.235 -0.0036 -0.0151  0.1096
 2906SOL    HW120180   0.986   3.737  15.236  0.2105 -0.2956  0.5580
 2906SOL    HW220181   1.010   3.864  15.274  1.8804  1.4057  0.0861
 2907SOL     OW20182   3.571   0.632   2.595 -0.4674  0.4506  0.0989
 2907SOL    HW120183   3.642   0.572   2.619  0.1929  1.8280  1.5843
 2907SOL    HW220184   3.618   0.710   2.563 -1.5539  0.0796 -2.4173
 2908SOL     OW20185   2.892   2.531   9.136 -0.1906 -0.7338 -0.4464
 2908SOL    HW120186   2.918   2.601   9.196 -0.3501 -0.4916 -0.6614
 2908SOL    HW220187   2.949   2.552   9.062 -0.0574  1.6232  0.3207
 2909SOL     OW20188   4.336   3.174   3.372  0.0843 -0.8453  0.2590
 2909SOL    HW120189   4.315   3.080   3.374 -1.0788 -0.5759  0.8618
 2909SOL    HW220190   4.391   3.173   3.451 -1.8800  2.0111  1.6366
 2910SOL     OW20191   0.207   0.947  14.067 -0.0212  0.3164  0.1912
 2910SOL    HW120192   0.197   0.893  13.989  2.2976 -0.7198  0.6158
 2910SOL    HW220193   0.206   1.032  14.023 -0.5747  0.7683  1.0829
 2911SOL     OW20194   2.096   0.828   3.942 -0.1625  0.9315 -0.1327
 2911SOL    HW120195   2.114   0.877   3.862 -1.3253  1.0471 -0.3178
 2911SOL    HW220196   2.013   0.786   3.919  1.3825 -2.4534  0.3714
 2912SOL     OW20197   3.280   3.789   5.568 -0.5562 -0.0995  0.1444
 2912SOL    HW120198   3.364   3.833   5.581  0.8715 -3.1871  1.6060
 2912SOL    HW220199   3.251   3.828   5.486  0.4728 -3.1482 -1.6804
 2913SOL     OW20200   1.710   1.612   7.294 -0.6120 -0.3846 -0.5954
 2913SOL    HW120201   1.630   1.566   7.267 -2.0753  2.7709 -1.6681
 2913SOL    HW220202   1.755   1.620   7.210  0.9532 -0.2170  0.2580
 2914SOL     OW20203   2.073   0.795   7.271  0.5378 -0.0396 -0.3827
 2914SOL    HW120204   2.128   0.722   7.242 -0.7271 -1.3939  0.5792
 2914SOL    HW220205   1.998   0.739   7.294 -0.3282  0.1574 -2.7176
 2915SOL     OW20206   2.676   4.671   6.932 -0.5682  0.8269  0.0809
 2915SOL    HW120207   2.743   4.642   6.993  1.7768 -0.2540 -2.9949
 2915SOL    HW220208   2.623   4.592   6.933  0.4632  0.0918 -2.3795
 2916SOL     OW20209   4.574   4.046   4.037 -0.7524  0.2028  0.1337
 2916SOL    HW120210   4.507   4.053   3.968  0.6404  2.0712 -1.0154
 2916SOL    HW220211   4.565   3.951   4.047 -0.2431  0.1173 -0.2265
 2917SOL     OW20212   0.388   2.383   5.117 -0.1363  0.3647 -0.6109
 2917SOL    HW120213   0.367   2.321   5.187  0.1923 -0.2274 -1.0344
 2917SOL    HW220214   0.436   2.331   5.053  1.1624 -2.4876  2.6998
 2918SOL     OW20215   0.123   0.934   5.209 -0.5476 -0.3662 -0.4192
 2918SOL    HW120216   0.047   0.879   5.230  0.2698 -0.6926  1.6668
 2918SOL    HW220217   0.087   1.001   5.151  1.6079  0.1360 -1.1655
 2919SOL     OW20218   0.404   0.591   8.560  0.3046  0.3423  0.8429
 2919SOL    HW120219   0.466   0.521   8.580  0.3498  0.0716 -0.2348
 2919SOL    HW220220   0.432   0.629   8.476 -3.9515 -0.3600 -0.9122
 2920SOL     OW20221   1.165   1.742   4.156  0.1340 -0.1857 -0.3658
 2920SOL    HW120222   1.143   1.743   4.249  1.4632  2.8199 -0.0934
 2920SOL    HW220223   1.089   1.786   4.119  1.6349  2.2959 -0.5538
 2921SOL     OW20224   2.123   0.478   2.576  0.0856  0.1233 -0.2906
 2921SOL    HW120225   2.114   0.562   2.621 -0.5870 -0.3795  0.5237
 2921SOL    HW220226   2.035   0.481   2.538  0.3428 -0.1895 -0.9128
 2922SOL     OW20227   0.258   3.364   9.810 -0.1538 -0.1416 -0.5379
 2922SOL    HW120228   0.329   3.300   9.810 -0.7273 -0.7831 -1.6633
 2922SOL    HW220229   0.201   3.319   9.747 -0.0456 -0.5319 -0.3528
 2923SOL     OW20230   3.305   3.052  10.152 -0.4886  0.5436  0.4279
 2923SOL    HW120231   3.369   3.023  10.087  0.2225 -0.8483  1.7532
 2923SOL    HW220232   3.224   3.008  10.127  0.7430 -1.6030  0.2556
 2924SOL     OW20233   2.501   0.278  17.259 -0.1612  0.1263 -0.2360
 2924SOL    HW120234   2.522   0.343  17.326 -0.8798 -0.6525  0.7565
 2924SOL    HW220235   2.553   0.199  17.274 -0.3259 -0.0993 -0.8223
 2925SOL     OW20236   4.408   4.536  16.521 -0.1097 -0.1496  0.5200
 2925SOL    HW120237   4.316   4.547  16.496  0.5418  0.9276 -1.3467
 2925SOL    HW220238   4.437   4.624  16.495 -1.2646  0.3673  0.9902
 2926SOL     OW20239   0.065   1.485  15.868  0.1503 -0.4554  0.1382
 2926SOL    HW120240   0.084   1.435  15.789  0.5045 -1.7902  1.0814
 2926SOL    HW220241   4.714   1.539  15.844  1.4038  0.6991 -1.2152
 2927SOL     OW20242   3.015   4.060   5.017  0.2254  0.3661  0.1358
 2927SOL    HW120243   3.025   4.110   4.936  2.4201  0.1306  0.2505
 2927SOL    HW220244   2.921   4.041   5.012  0.4098 -0.7557  0.7869
 2928SOL     OW20245   1.630   3.383  13.510  0.5685  0.5593  0.5833
 2928SOL    HW120246   1.661   3.302  13.552 -0.1107  0.3975  0.7683
 2928SOL    HW220247   1.627   3.361  13.417 -1.0791  2.2838  0.2255
 2929SOL     OW20248   0.050   1.226  16.948 -0.5941 -0.2291 -0.0612
 2929SOL    HW120249   4.713   1.287  16.908  0.7456  0.6657 -0.7599
 2929SOL    HW220250   0.071   1.268  17.032 -0.3184  1.2883 -0.8866
 2930SOL     OW20251   4.032   0.455   3.827 -0.1859 -0.3215  0.2039
 2930SOL    HW120252   3.974   0.492   3.760 -0.1821  0.1441  0.4603
 2930SOL    HW220253   4.045   0.532   3.882 -0.1000  1.5272 -2.4408
 2931SOL     OW20254   3.036   4.422   8.580  0.3291  0.2147  0.0676
 2931SOL    HW120255   3.022   4.516   8.565  0.8141  0.2253 -0.3390
 2931SOL    HW220256   2.953   4.388   8.547  0.1046 -0.1377  1.0049
 2932SOL     OW20257   2.104   1.010  13.746  0.1878  0.0448  0.6489
 2932SOL    HW120258   2.070   0.941  13.690 -0.9548  0.7002  0.5158
 2932SOL    HW220259   2.173   1.043  13.689  0.9465 -0.1192  1.4739
 2933SOL     OW20260   2.068   3.496   1.197  0.3161 -1.3725  0.2872
 2933SOL    HW120261   2.111   3.411   1.201  2.6069 -0.1455  1.2452
 2933SOL    HW220262   2.124   3.532   1.129 -2.9864  2.5701 -0.3676
 2934SOL     OW20263   3.382   0.205   6.494  0.0904 -0.3026  0.1902
 2934SOL    HW120264   3.436   0.138   6.536  0.9457 -1.0097 -2.0679
 2934SOL    HW220265   3.310   0.197   6.557 -1.9266  0.1215 -2.0493
 2935SOL     OW20266   3.762   1.028   6.913 -0.0419 -0.2820  0.3173
 2935SOL    HW120267   3.833   1.008   6.852  1.1094  4.8083 -0.0528
 2935SOL    HW220268   3.806   1.105   6.948  0.7665 -0.8131  0.4489
 2936SOL     OW20269   0.174   2.420  14.236 -0.0293  0.1946  0.4308
 2936SOL    HW120270   0.113   2.437  14.164 -2.5663  4.2360  3.5243
 2936SOL    HW220271   0.254   2.418  14.184 -0.9392  2.2345 -1.0606
 2937SOL     OW20272   1.111   4.360   7.427  0.5728  0.2222 -0.0764
 2937SOL    HW120273   1.184   4.422   7.426  2.3649 -1.8626  2.8641
 2937SOL    HW220274   1.144   4.295   7.365 -2.6244 -0.3502 -1.1990
 2938SOL     OW20275   1.214   2.443  14.453 -0.2952 -0.5699  0.6132
 2938SOL    HW120276   1.153   2.449  14.380 -0.4196  0.6135  0.8211
 2938SOL    HW220277   1.186   2.516  14.508  0.5548 -1.0381  1.6775
 2939SOL     OW20278   1.779   2.105  17.289  0.1498 -0.2129 -0.2682
 2939SOL    HW120279   1.718   2.089  17.217 -1.5348  1.8645  0.7106
 2939SOL    HW220280   1.742   2.067  17.368 -2.0935 -0.3738 -1.3979
 2940SOL     OW20281   1.072   1.698   3.303  0.0149 -0.1055  0.5791
 2940SOL    HW120282   1.100   1.671   3.215  2.6072 -0.1208  1.4120
 2940SOL    HW220283   1.149   1.748   3.329  1.6611 -1.4762 -1.6068
 2941SOL     OW20284   4.671   4.550   5.472 -0.2426 -0.0373  0.4524
 2941SOL    HW120285   4.711   4.521   5.554  1.9591  1.3950 -0.1231
 2941SOL    HW220286   0.002   4.625   5.452 -0.8392 -0.0571 -1.3038
 2942SOL     OW20287   3.341   4.709   6.049 -0.0524  0.6758  0.3403
 2942SOL    HW120288   3.418   0.025   6.011 -1.4970 -0.9064 -4.2030
 2942SOL    HW220289   3.380   4.666   6.125 -0.5131  1.2426  0.9017
 2943SOL     OW20290   1.516   4.163   1.804 -0.0046  0.2790  0.0695
 2943SOL    HW120291   1.582   4.109   1.848  1.4298  2.1709  0.2518
 2943SOL    HW220292   1.525   4.249   1.843 -0.5238  0.6593 -0.6419
 2944SOL     OW20293   4.066   2.896   6.708 -0.1713 -0.2411 -0.8344
 2944SOL    HW120294   4.136   2.902   6.772 -0.6552 -1.2171 -0.2067
 2944SOL    HW220295   3.998   2.945   6.754  0.4071 -1.1132  0.9219
 2945SOL     OW20296   2.142   0.007   0.648  0.4777 -0.0992  0.1779
 2945SOL    HW120297   2.094   4.705   0.569 -1.9533  1.2421  1.2358
 2945SOL    HW220298   2.119   4.663   0.711  1.9747 -0.5345  0.2457
 2946SOL     OW20299   4.547   1.157   3.880  0.2976  0.1249 -0.3229
 2946SOL    HW120300   4.480   1.089   3.888 -1.2441  1.7366  0.4723
 2946SOL    HW220301   4.499   1.224   3.928 -1.4522 -1.3023 -0.0616
 2947SOL     OW20302   1.545   2.208  12.178  0.0586  0.5818  0.4011
 2947SOL    HW120303   1.525   2.157  12.099 -2.9977  0.6574  1.1324
 2947SOL    HW220304   1.635   2.182  12.200 -0.0785  0.4582  0.8182
 2948SOL     OW20305   1.013   2.820  10.215 -0.6491 -0.2410  0.4537
 2948SOL    HW120306   0.943   2.881  10.239 -1.2896 -1.2055  1.0519
 2948SOL    HW220307   1.011   2.827  10.120  1.3410  1.8416  0.5735
 2949SOL     OW20308   0.276   0.121   3.032  0.3767  0.1967  0.1117
 2949SOL    HW120309   0.238   0.191   2.979  3.1484  1.4334 -0.2175
 2949SOL    HW220310   0.338   0.164   3.090 -0.5927  1.6057  0.1102
 2950SOL     OW20311   2.582   2.225   4.505  0.1206 -0.1939 -0.0296
 2950SOL    HW120312   2.602   2.202   4.595  1.9270  2.1239  0.1650
 2950SOL    HW220313   2.488   2.213   4.497  0.1824 -1.1840  0.7178
 2951SOL     OW20314   0.181   1.582   4.806  0.8228  0.1643 -0.8662
 2951SOL    HW120315   0.253   1.525   4.836  0.1314 -0.0068  0.4864
 2951SOL    HW220316   0.232   1.657   4.774 -0.1984  1.2801  0.1243
 2952SOL     OW20317   4.697   2.408   5.138  0.1591  0.7075  0.3572
 2952SOL    HW120318   4.617   2.357   5.146  1.0597 -0.6866  0.6464
 2952SOL    HW220319   0.002   2.403   5.229 -0.7077 -0.3614  0.5788
 2953SOL     OW20320   3.043   3.444  15.894 -0.3189  0.5146 -0.4023
 2953SOL    HW120321   3.077   3.433  15.805  1.1055 -0.7077  0.2967
 2953SOL    HW220322   3.116   3.409  15.945  0.2519 -0.0866 -1.6271
 2954SOL     OW20323   2.086   1.780   7.411  0.3551  0.1037 -0.0312
 2954SOL    HW120324   2.141   1.737   7.477  0.9765 -0.3521 -0.8571
 2954SOL    HW220325   2.127   1.866   7.409 -1.4745  0.9649 -0.3767
 2955SOL     OW20326   0.914   0.019  12.562  0.2657 -0.2601 -0.0772
 2955SOL    HW120327   0.853   0.048  12.631  1.2113 -0.5433  0.8861
 2955SOL    HW220328   0.998   0.045  12.600 -1.3775  2.3217  1.8048
 2956SOL     OW20329   0.646   1.579   1.798  0.3824  0.1176 -0.1836
 2956SOL    HW120330   0.605   1.493   1.810 -1.2571  0.9961  0.5291
 2956SOL    HW220331   0.680   1.575   1.709  0.4308 -1.8768 -0.0760
 2957SOL     OW20332   3.519   0.238   3.760  0.1659  0.2949  0.0012
 2957SOL    HW120333   3.536   0.266   3.669 -0.3800  0.8253  0.0580
 2957SOL    HW220334   3.438   0.287   3.777  0.0632 -0.2264  0.9630
 2958SOL     OW20335   1.199   3.129   6.694  0.3378  0.0090  0.3197
 2958SOL    HW120336   1.226   3.117   6.785  0.8592 -0.2982  0.1269
 2958SOL    HW220337   1.218   3.223   6.687  1.3332 -0.1661  0.6244
 2959SOL     OW20338   3.691   4.167   6.496  0.5916 -0.0639  0.3478
 2959SOL    HW120339   3.781   4.188   6.521  0.6729  1.1255 -0.9933
 2959SOL    HW220340   3.664   4.111   6.570  1.5025 -1.5295 -0.4210
 2960SOL     OW20341   0.425   0.184   4.268  0.0229 -0.0660 -0.2483
 2960SOL    HW120342   0.460   0.261   4.222 -1.0088  0.9935  0.7387
 2960SOL    HW220343   0.430   0.115   4.201  0.2103 -0.0504 -0.2501
 2961SOL     OW20344   2.608   2.550   5.017 -0.1419  0.5264  0.5465
 2961SOL    HW120345   2.678   2.557   5.082  0.0184  0.7788  0.3487
 2961SOL    HW220346   2.554   2.625   5.044 -0.7442  0.6809 -1.0637
 2962SOL     OW20347   4.120   2.600   6.996  0.0462  0.1052  0.3427
 2962SOL    HW120348   4.083   2.569   6.913 -1.4341 -0.4832  1.2300
 2962SOL    HW220349   4.213   2.607   6.976  0.1117  1.3492  1.0720
 2963SOL     OW20350   4.578   1.192   6.718 -0.1912 -0.0350 -0.5655
 2963SOL    HW120351   4.492   1.167   6.753  0.0324 -1.5241 -1.0608
 2963SOL    HW220352   4.559   1.204   6.624 -0.9839 -0.2296 -0.4370
 2964SOL     OW20353   4.622   3.500   0.617 -0.4732  0.3461  0.0560
 2964SOL    HW120354   4.685   3.532   0.553 -1.2402  0.8761 -0.4367
 2964SOL    HW220355   4.581   3.576   0.658  0.1291  0.8205 -0.2286
 2965SOL     OW20356   4.413   2.743   7.388  0.0790  0.3061  0.0636
 2965SOL    HW120357   4.374   2.780   7.467  0.9397 -1.0210  1.1163
 2965SOL    HW220358   4.507   2.758   7.398 -0.0264  0.0197  1.5007
 2966SOL     OW20359   2.403   3.774   7.332 -0.3282  0.1212  0.0679
 2966SOL    HW120360   2.309   3.776   7.312  0.0132 -0.5896 -1.6532
 2966SOL    HW220361   2.401   3.749   7.424 -1.4908  2.9346  0.7935
 2967SOL     OW20362   1.734   3.360  14.045  0.0974 -0.0874 -0.1363
 2967SOL    HW120363   1.771   3.287  14.095 -0.2524 -0.5721 -0.5797
 2967SOL    HW220364   1.804   3.423  14.060  0.4922 -0.1248 -1.8343
 2968SOL     OW20365   0.780   0.278   4.465 -0.3486  0.0587 -0.3977
 2968SOL    HW120366   0.736   0.357   4.497 -1.9517 -0.5466 -1.1252
 2968SOL    HW220367   0.701   0.223   4.466 -0.5481  0.2946 -2.0028
 2969SOL     OW20368   1.484   1.424  13.161  0.6294 -0.5764 -0.0955
 2969SOL    HW120369   1.540   1.402  13.236  0.2364  3.1460  1.3054
 2969SOL    HW220370   1.529   1.375  13.092 -1.7073 -0.2003 -1.8780
 2970SOL     OW20371   4.518   3.871   8.588 -0.0675 -0.2574  0.2431
 2970SOL    HW120372   4.486   3.789   8.549 -1.0432  0.4150 -0.3569
 2970SOL    HW220373   4.482   3.870   8.677  1.6193  1.4640  0.9372
 2971SOL     OW20374   2.995   1.459   9.366 -0.5366  0.3332 -0.0533
 2971SOL    HW120375   3.011   1.373   9.403  1.0714  0.8973  0.5863
 2971SOL    HW220376   2.965   1.504   9.445  0.2817  0.9063 -0.0693
 2972SOL     OW20377   2.581   3.778   5.364 -0.5601  0.5975 -0.2137
 2972SOL    HW120378   2.551   3.688   5.368  1.8438 -0.2210 -0.3539
 2972SOL    HW220379   2.509   3.838   5.382 -0.5596  1.0328 -1.5866
 2973SOL     OW20380   0.869   2.978   1.142  0.4594  0.2383  0.5564
 2973SOL    HW120381   0.910   2.892   1.140 -0.4024 -0.1541 -0.0566
 2973SOL    HW220382   0.776   2.957   1.151  0.0772  2.1784  1.2309
 2974SOL     OW20383   3.580   1.939  13.899 -0.3017 -0.4443  0.2450
 2974SOL    HW120384   3.522   1.875  13.857 -0.5526 -0.9467  1.3321
 2974SOL    HW220385   3.594   2.002  13.829 -0.9809  0.3121  0.7842
 2975SOL     OW20386   2.547   3.953   0.501 -0.0906  0.2642  0.3724
 2975SOL    HW120387   2.569   4.009   0.576  1.2344  0.2783 -0.0280
 2975SOL    HW220388   2.454   3.936   0.516  0.1512 -2.2386 -1.0605
 2976SOL     OW20389   1.151   1.154  17.366  0.1519 -0.1094  0.1908
 2976SOL    HW120390   1.169   1.090  17.435 -1.4218 -2.0179 -1.1810
 2976SOL    HW220391   1.063   1.119  17.349  0.0842  0.0715  0.1703
 2977SOL     OW20392   2.661   2.522   1.800  0.0148  0.3151  0.3781
 2977SOL    HW120393   2.572   2.525   1.765  0.4456 -1.3465 -0.8666
 2977SOL    HW220394   2.688   2.614   1.797  0.7560  0.1059  0.5339
 2978SOL     OW20395   3.903   2.148   8.543 -0.4784  0.4952 -0.4577
 2978SOL    HW120396   3.842   2.083   8.508 -0.0304  0.2201 -0.7292
 2978SOL    HW220397   3.840   2.221   8.547  0.9592  1.6682  0.7826
 2979SOL     OW20398   0.809   2.845   2.729  0.1344  0.1558  0.0017
 2979SOL    HW120399   0.849   2.924   2.692 -0.7113  1.2250  1.3598
 2979SOL    HW220400   0.857   2.767   2.701 -0.3171 -0.1985  0.2152
 2980SOL     OW20401   1.183   2.604   6.710 -0.0578  0.6611 -0.5038
 2980SOL    HW120402   1.108   2.617   6.767 -0.8359 -2.7612 -0.7305
 2980SOL    HW220403   1.232   2.532   6.751 -2.3361 -0.7077 -0.2037
 2981SOL     OW20404   1.102   4.550   1.940 -0.4546 -1.1968 -0.2970
 2981SOL    HW120405   1.079   4.641   1.958  0.3940 -0.8406 -1.0353
 2981SOL    HW220406   1.110   4.568   1.846  2.5002 -2.4319 -0.2585
 2982SOL     OW20407   2.095   3.277  13.037  0.4755 -0.3375  0.1642
 2982SOL    HW120408   2.118   3.268  12.944  0.6957 -1.0414  0.2898
 2982SOL    HW220409   2.176   3.306  13.080 -0.4204  0.9267  0.9846
 2983SOL     OW20410   0.805   3.756  16.459  0.1623 -0.0940  0.1105
 2983SOL    HW120411   0.820   3.672  16.416 -3.6623 -1.3502  1.2412
 2983SOL    HW220412   0.710   3.767  16.460  0.3880  2.0640 -1.0505
 2984SOL     OW20413   4.432   3.216   6.080 -0.2005 -0.4339  0.4128
 2984SOL    HW120414   4.440   3.123   6.058  1.1694 -0.3721  0.6035
 2984SOL    HW220415   4.388   3.220   6.165  1.7754 -1.8989  1.5141
 2985SOL     OW20416   0.747   4.408  16.288 -0.4541 -0.0074  0.3108
 2985SOL    HW120417   0.797   4.481  16.251  1.2926 -0.9766  0.7464
 2985SOL    HW220418   0.796   4.378  16.364 -2.7680 -0.4062  1.6439
 2986SOL     OW20419   4.384   2.445  14.959  0.8887 -0.1221  0.1619
 2986SOL    HW120420   4.348   2.366  14.918 -0.2233  0.3881  0.1576
 2986SOL    HW220421   4.309   2.503  14.971  1.3650  0.8357 -1.4669
 2987SOL     OW20422   1.408   1.407   7.937 -0.1202  0.1637 -0.5860
 2987SOL    HW120423   1.436   1.469   8.005  0.6435 -1.5422  0.6487
 2987SOL    HW220424   1.348   1.465   7.890 -0.2338  0.3045 -0.2730
 2988SOL     OW20425   2.693   1.291   5.183  0.2908 -0.2935  0.1329
 2988SOL    HW120426   2.641   1.370   5.200  1.4887  0.9643 -1.9805
 2988SOL    HW220427   2.698   1.303   5.088 -1.4167  0.6465  0.1453
 2989SOL     OW20428   4.286   0.798   3.317  0.0431 -0.1108  0.2405
 2989SOL    HW120429   4.325   0.736   3.254  0.1672 -0.3606  0.5638
 2989SOL    HW220430   4.343   0.873   3.303  1.9914 -1.7240 -0.6303
 2990SOL     OW20431   3.705   3.484   1.690  0.1173  0.2961 -0.5475
 2990SOL    HW120432   3.732   3.476   1.598  0.0956 -0.8281 -0.4473
 2990SOL    HW220433   3.788   3.478   1.737  0.6523  2.8797 -1.1231
 2991SOL     OW20434   0.910   1.619  17.064 -0.0608  0.4320 -0.0423
 2991SOL    HW120435   0.986   1.628  17.122  0.0403 -1.0249  0.0549
 2991SOL    HW220436   0.907   1.526  17.042  0.7119 -0.0555  1.8417
 2992SOL     OW20437   4.481   1.045  12.305  0.1479 -0.0426 -0.3063
 2992SOL    HW120438   4.421   1.015  12.237 -0.6635  0.1418  0.3296
 2992SOL    HW220439   4.438   1.021  12.387  2.1072  2.2301  1.4058
 2993SOL     OW20440   0.249   2.333   4.758 -0.3577 -0.0863  0.0769
 2993SOL    HW120441   0.253   2.237   4.763 -1.0190 -0.0873  0.7657
 2993SOL    HW220442   0.334   2.350   4.799 -1.9460  1.4049  2.7309
 2994SOL     OW20443   3.575   3.609  11.000  0.4906 -0.3657 -0.3801
 2994SOL    HW120444   3.583   3.688  10.946  0.6309 -2.2776 -3.1586
 2994SOL    HW220445   3.553   3.539  10.939 -0.4792  2.3465 -3.1190
 2995SOL     OW20446   1.013   3.309  16.472 -0.1560  0.0440 -0.2290
 2995SOL    HW120447   1.061   3.284  16.393 -0.9328 -1.5505 -0.2135
 2995SOL    HW220448   1.063   3.262  16.539 -0.1669 -1.6048 -1.3745
 2996SOL     OW20449   1.488   3.365   3.713  0.1113 -0.0137  0.0471
 2996SOL    HW120450   1.405   3.363   3.665  0.6789  1.4184 -1.0167
 2996SOL    HW220451   1.538   3.401   3.639  0.4598  0.9350  0.7394
 2997SOL     OW20452   3.867   3.143   3.275  0.0970  0.1466  0.2860
 2997SOL    HW120453   3.940   3.102   3.229 -0.2391  0.1443 -0.2390
 2997SOL    HW220454   3.880   3.232   3.240 -1.0723 -0.3679 -1.4349
 2998SOL     OW20455   0.424   2.017  11.371  0.0308 -0.1825 -0.1064
 2998SOL    HW120456   0.513   2.022  11.405  0.1071  2.3136 -0.6701
 2998SOL    HW220457   0.389   1.958  11.438 -0.7261 -0.4601 -0.7495
 2999SOL     OW20458   1.847   3.477   9.563 -0.5688 -0.1896  0.1935
 2999SOL    HW120459   1.869   3.569   9.554  0.5761 -0.6395 -1.4959
 2999SOL    HW220460   1.864   3.456   9.472  2.0658  0.6773  0.5089
 3000SOL     OW20461   1.004   4.707   8.235  0.1002 -1.3123 -0.3341
 3000SOL    HW120462   0.971   4.636   8.290  1.0849  0.1145  2.1004
 3000SOL    HW220463   0.935   0.049   8.238 -0.9184 -2.4867  2.0969
 3001SOL     OW20464   1.970   3.963   6.534  0.1802 -0.3139  0.6589
 3001SOL    HW120465   1.967   3.922   6.447 -0.5190  2.2379 -0.4999
 3001SOL    HW220466   2.059   3.935   6.556  0.5387  2.1187  2.3186
 3002SOL     OW20467   2.731   0.014  11.861 -0.0787 -0.5921  0.2684
 3002SOL    HW120468   2.764   0.101  11.885 -3.7888  0.3609  1.9164
 3002SOL    HW220469   2.697   0.040  11.776 -0.1789 -0.7717  0.2534
 3003SOL     OW20470   3.153   1.446   0.601 -0.1552  0.5451  0.0904
 3003SOL    HW120471   3.244   1.418   0.613 -1.7779 -2.9769  4.3268
 3003SOL    HW220472   3.164   1.534   0.566 -0.1206  0.5065  0.0036
 3004SOL     OW20473   2.351   1.636   8.650  0.4954 -0.4355  0.1185
 3004SOL    HW120474   2.400   1.561   8.616 -2.0252 -1.7718 -0.5502
 3004SOL    HW220475   2.321   1.607   8.736  0.9604 -1.5289 -0.0934
 3005SOL     OW20476   3.872   0.455  11.944 -0.2869 -0.6072  0.1904
 3005SOL    HW120477   3.824   0.522  11.993  0.2054 -0.1866  0.0945
 3005SOL    HW220478   3.862   0.391  12.014 -1.4937 -0.9667 -0.3011
 3006SOL     OW20479   2.303   0.304  11.452 -0.1160  0.3406  0.0829
 3006SOL    HW120480   2.392   0.340  11.449  0.0971 -0.1601  0.3984
 3006SOL    HW220481   2.277   0.350  11.533  2.3371  0.2595  0.9267
 3007SOL     OW20482   0.501   4.322   3.763  0.5963 -0.7855 -0.4834
 3007SOL    HW120483   0.560   4.385   3.805 -0.7525 -0.5773  1.1080
 3007SOL    HW220484   0.448   4.386   3.716  0.1373 -0.5137  0.3939
 3008SOL     OW20485   0.734   4.490   5.538 -0.7334 -0.0957 -0.4255
 3008SOL    HW120486   0.727   4.576   5.580 -0.4190 -0.2662 -0.0235
 3008SOL    HW220487   0.688   4.434   5.601  1.5452  0.5330  1.8180
 3009SOL     OW20488   2.860   2.497   5.152 -0.2246 -0.3899  0.6811
 3009SOL    HW120489   2.910   2.554   5.211  0.3569 -0.1315 -0.0526
 3009SOL    HW220490   2.854   2.419   5.206 -3.0332 -0.6398 -0.0087
 3010SOL     OW20491   2.077   3.956   2.650 -0.1388 -0.3319 -0.4828
 3010SOL    HW120492   2.133   3.910   2.587  1.6791  1.3998 -0.1132
 3010SOL    HW220493   2.090   3.892   2.720 -1.2200 -1.1590 -1.0330
 3011SOL     OW20494   4.129   0.374  12.334  0.8823  0.1954 -0.4058
 3011SOL    HW120495   4.057   0.437  12.328  0.5439 -0.1536  0.0091
 3011SOL    HW220496   4.190   0.420  12.276  0.1679  1.4396 -0.1822
 3012SOL     OW20497   0.599   2.879   3.681 -0.3449 -0.4911  0.6905
 3012SOL    HW120498   0.549   2.890   3.762 -0.3384 -0.1971  0.6565
 3012SOL    HW220499   0.597   2.968   3.646 -0.5273 -0.9554 -0.4755
 3013SOL     OW20500   1.107   4.441   5.438  0.9599  0.2030  0.2247
 3013SOL    HW120501   1.100   4.362   5.384  0.1013  1.0182 -0.8764
 3013SOL    HW220502   1.108   4.498   5.362 -1.3910  1.4139  1.1035
 3014SOL     OW20503   3.033   2.641   5.322  0.3628  0.1839 -0.2850
 3014SOL    HW120504   3.021   2.609   5.411  0.1061 -0.3983 -0.5310
 3014SOL    HW220505   3.126   2.664   5.327  0.3744  0.6494 -2.4484
 3015SOL     OW20506   3.999   3.588   8.753  0.0171  0.1898  0.4202
 3015SOL    HW120507   4.049   3.508   8.742  0.6556  0.7606 -0.7596
 3015SOL    HW220508   4.041   3.629   8.829  1.2502  0.1649 -0.2450
 3016SOL     OW20509   1.824   2.832   8.422  0.2651  0.2760 -0.1896
 3016SOL    HW120510   1.812   2.923   8.448  2.6348  0.0394  1.7511
 3016SOL    HW220511   1.790   2.786   8.498  0.5987  0.0723 -0.1608
 3017SOL     OW20512   2.830   0.936  14.719  0.4423 -0.5555  0.0185
 3017SOL    HW120513   2.750   0.919  14.670 -0.2091  1.2594  0.4760
 3017SOL    HW220514   2.882   0.975  14.649  0.3317 -2.1703 -0.9630
 3018SOL     OW20515   0.273   0.657  10.860  0.4058  0.6408 -0.0801
 3018SOL    HW120516   0.265   0.569  10.824 -0.8249  1.1740 -1.1311
 3018SOL    HW220517   0.366   0.661  10.882  0.8520 -1.3170 -1.5692
 3019SOL     OW20518   2.864   1.321   8.685 -0.3219 -0.1600  0.3762
 3019SOL    HW120519   2.925   1.393   8.703 -0.4993  0.1346 -0.1786
 3019SOL    HW220520   2.837   1.351   8.598  2.3149  0.3809 -0.2474
 3020SOL     OW20521   2.530   0.326   8.760 -0.0024  0.3108 -0.5771
 3020SOL    HW120522   2.606   0.340   8.817 -0.5257 -0.3147  0.2709
 3020SOL    HW220523   2.509   0.416   8.734 -2.2136 -0.4025 -1.1977
 3021SOL     OW20524   2.800   0.144  13.076  0.6208  0.3922 -0.1999
 3021SOL    HW120525   2.863   0.116  13.143  1.8791 -0.6443 -1.8319
 3021SOL    HW220526   2.807   0.239  13.078  1.6705  0.3552 -2.1546
 3022SOL     OW20527   0.100   2.699  16.022  0.5541 -0.5552 -0.0625
 3022SOL    HW120528   0.087   2.763  16.092  0.7330 -2.4312  1.6806
 3022SOL    HW220529   0.195   2.688  16.022  0.6156  0.0075  0.0200
 3023SOL     OW20530   3.351   3.285  11.090 -0.3395 -0.2396  0.1107
 3023SOL    HW120531   3.442   3.287  11.061 -0.3255  1.0425  0.2310
 3023SOL    HW220532   3.314   3.374  11.083 -1.7316 -0.6694  1.9503
 3024SOL     OW20533   2.960   0.421   3.102 -0.5537  0.0278  0.1246
 3024SOL    HW120534   3.004   0.441   3.184  1.1575 -0.0047 -0.7977
 3024SOL    HW220535   2.964   0.508   3.061  0.1259 -0.1442 -0.1639
 3025SOL     OW20536   1.138   1.426   1.061  0.2923 -0.5030  0.4296
 3025SOL    HW120537   1.220   1.381   1.041  0.8546  1.0531 -0.7800
 3025SOL    HW220538   1.116   1.459   0.974  1.1515  0.5228  0.5996
 3026SOL     OW20539   2.963   3.822   6.059 -0.1144  0.1810  0.0457
 3026SOL    HW120540   2.917   3.906   6.063 -1.0831 -0.3563  0.1305
 3026SOL    HW220541   2.991   3.826   5.967  0.9729 -0.0520  0.3572
 3027SOL     OW20542   3.048   1.727   6.567 -0.3671 -0.1329  0.1108
 3027SOL    HW120543   3.068   1.700   6.657 -1.4884  0.0447  0.4043
 3027SOL    HW220544   3.098   1.659   6.521 -1.5068 -1.3422  0.6710
 3028SOL     OW20545   0.774   0.514   8.196 -0.3596 -0.3077  0.3253
 3028SOL    HW120546   0.808   0.556   8.117  0.4207  0.7938  1.2504
 3028SOL    HW220547   0.857   0.490   8.239  1.9172  2.4469 -2.5583
 3029SOL     OW20548   0.950   3.413   4.414 -0.0903 -0.0432 -0.5575
 3029SOL    HW120549   1.002   3.461   4.350 -1.9580  1.8084 -0.6832
 3029SOL    HW220550   0.998   3.423   4.497 -0.4880 -0.9439 -0.2116
 3030SOL     OW20551   4.697   1.846   9.267 -0.1097  0.7017 -0.6489
 3030SOL    HW120552   4.710   1.757   9.300 -1.7428  0.3505 -0.9757
 3030SOL    HW220553   4.627   1.834   9.204 -0.3740 -1.3917  0.0242
 3031SOL     OW20554   0.416   3.666   3.608 -0.2044 -0.4529 -0.2569
 3031SOL    HW120555   0.344   3.728   3.618  0.5792  0.3130  0.6974
 3031SOL    HW220556   0.408   3.643   3.516  0.2170  3.3847 -1.2267
 3032SOL     OW20557   2.905   1.421   4.318 -0.1489  0.0022  0.0898
 3032SOL    HW120558   2.913   1.489   4.251 -2.5729 -0.1954 -0.3937
 3032SOL    HW220559   2.993   1.384   4.318  0.1607  0.7026  2.5669
 3033SOL     OW20560   2.174   4.535   6.764  0.1605  0.4023 -0.5563
 3033SOL    HW120561   2.144   4.581   6.843 -2.9583  0.6159 -1.8545
 3033SOL    HW220562   2.157   4.444   6.791 -1.2029  0.9544  0.4721
 3034SOL     OW20563   4.522   0.119  12.650 -0.0004  0.1850  0.4321
 3034SOL    HW120564   4.479   0.034  12.641  2.3674 -1.0490  0.5244
 3034SOL    HW220565   4.589   0.101  12.716 -0.3438 -0.9092  0.4744
 3035SOL     OW20566   3.561   3.002   5.630 -0.6444 -0.6065 -0.2081
 3035SOL    HW120567   3.600   2.982   5.545  0.5578 -1.2308  0.4900
 3035SOL    HW220568   3.626   2.964   5.689 -1.6590 -2.3337 -0.2053
 3036SOL     OW20569   3.736   2.535  11.571  0.5673  0.4455 -0.1636
 3036SOL    HW120570   3.697   2.623  11.574  0.4348  0.3960 -0.4361
 3036SOL    HW220571   3.798   2.534  11.644 -2.1158 -1.1744  2.0917
 3037SOL     OW20572   4.299   3.764   7.113 -0.7772  0.0996 -0.2747
 3037SOL    HW120573   4.311   3.785   7.206 -0.3412 -3.9518  0.6067
 3037SOL    HW220574   4.386   3.791   7.084  0.0665 -1.8758  0.4100
 3038SOL     OW20575   4.559   3.417  10.332 -0.1506  0.3364  0.1016
 3038SOL    HW120576   4.468   3.389  10.320 -0.3065  0.3210  1.2785
 3038SOL    HW220577   4.564   3.397  10.426 -2.7074  2.3974  0.6712
 3039SOL     OW20578   4.559   0.951   8.888  0.1506  0.2329  0.0257
 3039SOL    HW120579   4.489   1.010   8.860  1.2884  1.3051 -0.5378
 3039SOL    HW220580   4.510   0.869   8.891 -0.5116  0.5379 -2.8480
 3040SOL     OW20581   4.521   0.714   5.527  0.4384  0.5889 -0.8260
 3040SOL    HW120582   4.545   0.622   5.513  0.4229  0.3206  0.8935
 3040SOL    HW220583   4.486   0.700   5.614 -0.0599  3.2812 -0.6107
 3041SOL     OW20584   3.359   3.267   5.699  0.4957 -0.7225 -0.7233
 3041SOL    HW120585   3.323   3.354   5.680 -0.1265 -0.4385  1.7189
 3041SOL    HW220586   3.396   3.296   5.782 -4.0474  1.2674  0.5948
 3042SOL     OW20587   3.156   3.493   1.758  0.2763  0.9202  0.0744
 3042SOL    HW120588   3.173   3.524   1.847  2.3127 -1.4438  0.5304
 3042SOL    HW220589   3.184   3.566   1.702 -0.6667  0.5011 -0.9346
 3043SOL     OW20590   4.391   1.074   6.965 -0.5431 -0.2392  0.0279
 3043SOL    HW120591   4.350   1.059   6.880  2.7958 -1.2807 -1.3920
 3043SOL    HW220592   4.321   1.099   7.026 -1.2718 -0.7870 -0.5897
 3044SOL     OW20593   1.028   3.777  13.242 -0.6330  0.5200  0.0681
 3044SOL    HW120594   0.966   3.804  13.310  4.1153  2.6236  3.6060
 3044SOL    HW220595   1.093   3.847  13.249  0.2949 -0.4472  1.1206
 3045SOL     OW20596   1.951   1.364   4.282 -0.1219 -0.4468 -0.2092
 3045SOL    HW120597   2.046   1.351   4.283  0.1534  1.3858 -2.0866
 3045SOL    HW220598   1.936   1.326   4.369  1.5296 -3.0482 -1.0664
 3046SOL     OW20599   1.833   3.478   8.252  0.1062 -0.9615  0.4888
 3046SOL    HW120600   1.921   3.463   8.287  0.4034  0.7090  0.4728
 3046SOL    HW220601   1.789   3.405   8.294 -1.6276  0.2946  0.8539
 3047SOL     OW20602   1.031   4.705   1.420 -0.5580  0.2959  0.0321
 3047SOL    HW120603   1.027   4.639   1.488  0.6632  2.4577  2.1893
 3047SOL    HW220604   1.051   0.052   1.481  1.4082 -0.7741  0.6289
 3048SOL     OW20605   0.575   2.211  15.238 -0.3616  0.0676 -0.6609
 3048SOL    HW120606   0.517   2.186  15.166 -0.2779 -1.0838 -0.3268
 3048SOL    HW220607   0.615   2.125  15.255 -1.5195 -0.7197 -1.8966
 3049SOL     OW20608   3.183   1.730   9.174 -0.0773 -0.0663 -0.2788
 3049SOL    HW120609   3.167   1.786   9.250  0.1314 -1.3573  0.7188
 3049SOL    HW220610   3.099   1.729   9.129 -0.3991 -0.3109  0.3227
 3050SOL     OW20611   2.447   0.985   4.864 -0.3555  0.5410 -0.3909
 3050SOL    HW120612   2.397   1.047   4.810 -0.2235  0.6343 -0.4062
 3050SOL    HW220613   2.456   0.913   4.802  3.3676  0.2528  0.4948
 3051SOL     OW20614   1.259   2.986  10.097  0.1856 -0.3029  0.3511
 3051SOL    HW120615   1.228   3.022  10.014  0.6414 -0.2758  0.1919
 3051SOL    HW220616   1.184   2.994  10.156  0.3092  1.3161  0.2758
 3052SOL     OW20617   1.230   3.932  11.276  0.0063 -0.5617 -0.4034
 3052SOL    HW120618   1.272   3.846  11.284  1.0549 -0.2325 -2.2041
 3052SOL    HW220619   1.270   3.971  11.198  0.6327 -0.5445 -0.0730
 3053SOL     OW20620   4.232   2.017   6.941 -0.0250 -0.6854 -0.1011
 3053SOL    HW120621   4.225   1.928   6.976  2.6590 -1.2638 -1.0525
 3053SOL    HW220622   4.326   2.037   6.939 -0.5603  1.5597 -1.6711
 3054SOL     OW20623   0.435   1.970   6.292 -0.0858 -0.4984 -0.2587
 3054SOL    HW120624   0.362   2.027   6.269  1.3154  0.0769 -3.3557
 3054SOL    HW220625   0.392   1.892   6.259 -2.4490  0.4321  0.5834
 3055SOL     OW20626   4.112   2.660  15.677  0.1981  0.0345 -0.0742
 3055SOL    HW120627   4.167   2.717  15.624  0.7425 -0.5424 -0.1372
 3055SOL    HW220628   4.142   2.574  15.647  1.7253  0.4225  0.3185
 3056SOL     OW20629   3.906   1.265  13.621  0.3554  0.1460 -0.2376
 3056SOL    HW120630   3.982   1.295  13.571  0.6266  0.1395  0.1717
 3056SOL    HW220631   3.874   1.350  13.652 -0.0784 -0.0761 -0.0891
 3057SOL     OW20632   1.126   3.690   5.788 -0.4669  0.2568 -0.2904
 3057SOL    HW120633   1.138   3.621   5.723  2.3561 -0.1777  0.6889
 3057SOL    HW220634   1.146   3.775   5.748 -0.3706  1.0115  1.3847
 3058SOL     OW20635   4.022   3.748   2.111  0.3032 -0.1441 -0.6796
 3058SOL    HW120636   3.974   3.809   2.056  2.8215  1.7336 -0.7598
 3058SOL    HW220637   3.958   3.676   2.115 -0.4974  0.7532  2.9088
 3059SOL     OW20638   3.506   3.732   9.825 -0.0884 -0.5701  0.1630
 3059SOL    HW120639   3.443   3.705   9.893 -0.8384  2.1257  0.5104
 3059SOL    HW220640   3.454   3.745   9.746 -0.7761  2.0539  1.0602
 3060SOL     OW20641   4.628   0.404   6.464 -0.6113  0.0422  0.5251
 3060SOL    HW120642   4.649   0.440   6.378 -0.2492  0.5548  0.8244
 3060SOL    HW220643   4.712   0.393   6.507 -0.0306 -0.5789 -0.7772
 3061SOL     OW20644   0.547   2.665   3.503 -0.4782 -0.4187 -0.4576
 3061SOL    HW120645   0.606   2.720   3.451 -1.9000 -0.1484 -1.7888
 3061SOL    HW220646   0.556   2.715   3.584 -0.3804 -0.6866 -0.3055
 3062SOL     OW20647   2.536   4.193   3.236  0.0574 -0.0477 -0.5050
 3062SOL    HW120648   2.442   4.186   3.255  0.3011 -1.9962  0.0100
 3062SOL    HW220649   2.539   4.198   3.141 -1.3133 -0.3507 -0.5723
 3063SOL     OW20650   1.087   2.722   3.078 -0.0839  0.6890  0.3642
 3063SOL    HW120651   1.023   2.705   3.010 -1.3998  1.8416  1.3028
 3063SOL    HW220652   1.044   2.679   3.152 -0.0249 -1.3639 -0.8057
 3064SOL     OW20653   1.088   2.252   3.965  0.8782  0.1164  0.2139
 3064SOL    HW120654   1.100   2.203   4.046 -0.3504 -1.4075 -0.5417
 3064SOL    HW220655   1.011   2.305   3.987  0.4012 -1.1172  1.4905
 3065SOL     OW20656   0.044   2.403   8.058 -0.7412 -0.1417 -0.8017
 3065SOL    HW120657   4.677   2.375   8.068 -0.7929 -0.1428 -1.2915
 3065SOL    HW220658   0.081   2.404   8.146 -1.2502  0.2410 -0.5861
 3066SOL     OW20659   0.601   2.452   2.650 -0.0855 -0.1061  0.0203
 3066SOL    HW120660   0.557   2.433   2.567  1.8740 -1.3265 -0.7412
 3066SOL    HW220661   0.596   2.368   2.695  1.1440 -0.1093  0.1658
 3067SOL     OW20662   2.388   0.474   5.427 -0.0063 -0.0474  0.0367
 3067SOL    HW120663   2.445   0.407   5.466  0.5261  1.0960  1.2087
 3067SOL    HW220664   2.397   0.536   5.500 -0.3792  0.3527 -0.2580
 3068SOL     OW20665   1.233   1.968  16.360 -0.5711  0.0473  0.2836
 3068SOL    HW120666   1.149   1.969  16.407 -1.0497 -4.1652 -0.5332
 3068SOL    HW220667   1.215   1.894  16.302 -0.2368  1.6147 -1.8032
 3069SOL     OW20668   4.392   2.622   6.958  0.0980 -0.5761  0.4703
 3069SOL    HW120669   4.484   2.597   6.953  0.3016 -0.0597  1.7031
 3069SOL    HW220670   4.392   2.688   7.026 -0.3485 -0.0857 -0.0047
 3070SOL     OW20671   1.648   1.388  15.893 -0.2772  0.0414  0.2000
 3070SOL    HW120672   1.681   1.306  15.857  0.0820  0.3545 -0.1859
 3070SOL    HW220673   1.718   1.446  15.862  0.9639 -0.3963  2.1190
 3071SOL     OW20674   0.209   0.962   6.226  0.2083  0.1598  0.3119
 3071SOL    HW120675   0.171   1.011   6.299  0.8452  2.0864 -0.6524
 3071SOL    HW220676   0.137   0.901   6.213  2.3799 -2.2504 -0.2570
 3072SOL     OW20677   3.146   4.541   7.138 -0.1534  0.2865 -0.1607
 3072SOL    HW120678   3.228   4.570   7.177 -1.1132  0.4644  1.7127
 3072SOL    HW220679   3.171   4.449   7.133 -0.4852  0.0114  2.9337
 3073SOL     OW20680   0.012   1.030   4.701  0.2112 -0.1696  0.5478
 3073SOL    HW120681   0.100   1.010   4.670 -0.0163 -0.4497  0.0900
 3073SOL    HW220682   0.007   1.126   4.699 -1.2712 -0.2211  1.6816
 3074SOL     OW20683   3.375   0.534   1.907 -0.2502  0.4009  0.5022
 3074SOL    HW120684   3.469   0.548   1.896  0.0458  0.4340  2.9949
 3074SOL    HW220685   3.336   0.606   1.859 -1.9269 -0.5454  0.4275
 3075SOL     OW20686   3.874   1.396   9.771 -0.2534 -0.3706 -0.1945
 3075SOL    HW120687   3.891   1.487   9.791  1.9856 -0.3120 -2.2642
 3075SOL    HW220688   3.823   1.368   9.847  2.4655  0.5598  1.9663
 3076SOL     OW20689   0.946   0.827  13.236  0.3674  0.1947 -0.2269
 3076SOL    HW120690   0.894   0.835  13.156 -0.6267  0.6453  0.4551
 3076SOL    HW220691   0.889   0.871  13.299 -0.0341 -0.9614  0.2327
 3077SOL     OW20692   0.966   2.380   6.119  0.0169 -0.0131 -0.4141
 3077SOL    HW120693   0.913   2.377   6.040 -2.4905  3.9865  1.1378
 3077SOL    HW220694   1.050   2.408   6.082 -0.0289  0.2635 -0.3093
 3078SOL     OW20695   3.589   0.664   1.384  0.1833  0.4241  0.2561
 3078SOL    HW120696   3.550   0.646   1.299  1.6043  1.6216 -0.6488
 3078SOL    HW220697   3.671   0.614   1.383 -0.7801 -1.1513  0.2120
 3079SOL     OW20698   0.860   2.704   1.072 -0.3400  0.3133  0.1929
 3079SOL    HW120699   0.823   2.731   0.988  0.2832 -1.1006 -0.5354
 3079SOL    HW220700   0.920   2.635   1.045 -0.2127  1.2149 -1.8313
 3080SOL     OW20701   0.707   0.235  17.067  0.4087  0.5310  0.3398
 3080SOL    HW120702   0.706   0.254  16.973 -0.2655  1.3212  0.5017
 3080SOL    HW220703   0.614   0.215  17.060  0.2341  0.7181  2.2567
 3081SOL     OW20704   3.381   0.018   6.699  0.6498  0.1828  0.0081
 3081SOL    HW120705   3.292   4.712   6.717  0.9962 -0.2849  0.9394
 3081SOL    HW220706   3.420   4.656   6.685  2.2740  0.8473  0.4275
 3082SOL     OW20707   2.312   3.316  13.194  0.4349 -0.2982 -0.8690
 3082SOL    HW120708   2.337   3.244  13.137 -0.4818 -1.5669  0.3423
 3082SOL    HW220709   2.390   3.329  13.249  0.0313  0.0530 -0.3858
 3083SOL     OW20710   3.141   2.565   8.689  0.0345  0.1187 -0.0798
 3083SOL    HW120711   3.224   2.604   8.717 -1.1382  2.1359  0.5626
 3083SOL    HW220712   3.104   2.527   8.768 -0.7760  1.6268  0.2657
 3084SOL     OW20713   0.753   1.213  12.425  0.1726  0.0239 -0.3097
 3084SOL    HW120714   0.702   1.149  12.376 -0.3416  1.1655 -1.2508
 3084SOL    HW220715   0.786   1.169  12.504  0.4416  1.4719  0.3800
 3085SOL     OW20716   1.252   0.754   4.489 -0.3238  0.6322 -0.5483
 3085SOL    HW120717   1.335   0.719   4.457  0.8526  1.0508  2.0390
 3085SOL    HW220718   1.263   0.736   4.582 -2.1937 -2.4040 -0.9203
 3086SOL     OW20719   3.265   3.424   5.942  0.2498  0.2771  0.1928
 3086SOL    HW120720   3.242   3.485   6.013  0.2010  0.4294  0.0452
 3086SOL    HW220721   3.267   3.486   5.869 -0.0126 -1.7997 -1.5357
 3087SOL     OW20722   2.564   0.523  10.857  0.6512 -0.3002 -0.1591
 3087SOL    HW120723   2.628   0.476  10.804  2.4709  0.9164  0.9733
 3087SOL    HW220724   2.490   0.521  10.796 -0.5278  1.0410  1.2383
 3088SOL     OW20725   3.863   4.325   3.245 -0.1332  0.0172  0.4600
 3088SOL    HW120726   3.771   4.319   3.220  0.7016 -1.3514 -2.2252
 3088SOL    HW220727   3.896   4.403   3.200  0.6321 -0.9115 -0.5733
 3089SOL     OW20728   0.589   3.306   5.559  0.0987  0.6407  0.0277
 3089SOL    HW120729   0.558   3.396   5.571 -2.6050 -0.2346 -0.4563
 3089SOL    HW220730   0.578   3.289   5.466 -2.8338 -0.5244  0.5954
 3090SOL     OW20731   2.943   0.229  10.614  0.0470 -0.3892 -0.7268
 3090SOL    HW120732   3.026   0.195  10.580 -0.3162 -1.0209 -0.9836
 3090SOL    HW220733   2.963   0.237  10.707  1.1351 -0.8677 -0.9155
 3091SOL     OW20734   4.239   0.060   3.711  0.3368  0.1594 -0.7547
 3091SOL    HW120735   4.200   0.095   3.791  0.1034 -1.3668 -0.2011
 3091SOL    HW220736   4.173   4.719   3.687 -0.1793 -0.2965  1.8692
 3092SOL     OW20737   4.492   2.546   8.357  0.0987  0.2909  0.4221
 3092SOL    HW120738   4.433   2.473   8.339 -0.6319  0.1207  3.4169
 3092SOL    HW220739   4.557   2.502   8.412  0.7862 -1.2238 -1.6238
 3093SOL     OW20740   3.387   2.069   8.445 -0.0353  0.6107  0.2359
 3093SOL    HW120741   3.362   2.083   8.354 -3.5248  0.5532  1.1949
 3093SOL    HW220742   3.297   2.048   8.470  0.3553 -0.6864  0.5629
 3094SOL     OW20743   1.970   4.174   6.263  0.3814 -0.7966 -0.8258
 3094SOL    HW120744   2.015   4.096   6.293 -0.4461 -1.6693 -1.8369
 3094SOL    HW220745   1.947   4.141   6.176  0.8340 -3.1285 -0.0519
 3095SOL     OW20746   0.311   3.665  12.157  0.5635  0.0323 -0.5535
 3095SOL    HW120747   0.374   3.593  12.162 -0.3670 -0.7195  0.3918
 3095SOL    HW220748   0.339   3.721  12.228 -1.3069 -0.0545  0.2581
 3096SOL     OW20749   1.555   1.961   4.609  0.0096 -0.2924 -0.0336
 3096SOL    HW120750   1.634   1.949   4.558 -1.0520  0.6382 -1.8790
 3096SOL    HW220751   1.596   2.014   4.677  0.5826 -1.9097  0.8996
 3097SOL     OW20752   2.845   1.255   7.650 -0.1272 -0.1137  0.0862
 3097SOL    HW120753   2.786   1.212   7.589 -0.5900 -0.1827  0.5789
 3097SOL    HW220754   2.799   1.338   7.654 -1.5657 -0.9483  0.9037
 3098SOL     OW20755   2.516   4.564  16.898 -0.2394  0.1659 -0.0157
 3098SOL    HW120756   2.609   4.569  16.920 -0.9375  0.4827  2.9186
 3098SOL    HW220757   2.485   4.635  16.954 -0.5476 -1.6482  2.1059
 3099SOL     OW20758   1.220   1.778   6.455 -0.0836 -0.0032 -0.1218
 3099SOL    HW120759   1.289   1.794   6.519 -0.2782 -0.9251  0.3248
 3099SOL    HW220760   1.186   1.695   6.490 -1.8256  0.9771  0.4748
 3100SOL     OW20761   3.444   0.904  14.534  0.2502 -0.0142 -0.4838
 3100SOL    HW120762   3.393   0.838  14.581 -0.9071 -1.0787 -3.2549
 3100SOL    HW220763   3.508   0.843  14.498  0.6673  0.7685 -1.0785
 3101SOL     OW20764   1.091   0.239  15.028 -0.1244 -0.2378 -0.3214
 3101SOL    HW120765   1.053   0.317  14.987  0.0517  0.2351  0.4206
 3101SOL    HW220766   1.102   0.177  14.955 -0.3115  0.5689 -1.0401
 3102SOL     OW20767   2.379   3.465   3.208  0.3608 -0.3753  0.6423
 3102SOL    HW120768   2.326   3.535   3.246  0.6198  1.2174 -1.9777
 3102SOL    HW220769   2.338   3.458   3.122  0.6756  0.3036  0.4369
 3103SOL     OW20770   1.542   2.662  11.021  0.2671 -0.5768  0.0498
 3103SOL    HW120771   1.614   2.599  11.020  1.2326  0.5065  0.8761
 3103SOL    HW220772   1.514   2.647  10.931  1.7966 -2.5898 -0.0947
 3104SOL     OW20773   2.691   4.615   8.555 -0.3373  0.2220  0.3889
 3104SOL    HW120774   2.700   4.710   8.549  1.1106 -0.0673 -1.7856
 3104SOL    HW220775   2.705   4.597   8.648  2.4951 -1.1383 -0.3225
 3105SOL     OW20776   3.599   1.497   8.332 -0.4330  0.4760 -0.2768
 3105SOL    HW120777   3.679   1.521   8.286 -0.0596 -1.2689 -0.5573
 3105SOL    HW220778   3.549   1.475   8.253  0.6971 -3.1100 -0.0229
 3106SOL     OW20779   3.853   0.590   3.663 -0.1862 -0.5184 -0.3955
 3106SOL    HW120780   3.842   0.633   3.578  0.4685 -1.3197 -0.8997
 3106SOL    HW220781   3.787   0.641   3.708  0.4953 -0.4011  0.4724
 3107SOL     OW20782   1.751   2.507  10.958 -0.0024 -0.5138 -0.2343
 3107SOL    HW120783   1.781   2.421  10.929  0.5222  0.0016 -1.2135
 3107SOL    HW220784   1.812   2.526  11.029  1.6717  2.3711 -2.4295
 3108SOL     OW20785   0.583   0.440  10.025  0.0484  0.1853 -0.0440
 3108SOL    HW120786   0.626   0.482   9.950  1.6258 -0.2026  0.6436
 3108SOL    HW220787   0.639   0.362  10.022  0.4243  0.3699  2.1203
 3109SOL     OW20788   2.156   2.337  14.675 -0.1230 -0.1125 -0.3373
 3109SOL    HW120789   2.070   2.296  14.683 -0.3090  0.1101 -1.2603
 3109SOL    HW220790   2.167   2.374  14.762  1.0062 -1.1476 -0.0239
 3110SOL     OW20791   3.640   1.468   6.131  0.0505 -0.2847  0.0248
 3110SOL    HW120792   3.691   1.476   6.050  0.7635  2.1959  0.7300
 3110SOL    HW220793   3.711   1.445   6.190  1.8380  0.0509 -2.0042
 3111SOL     OW20794   3.061   3.251   2.770  0.3812  0.3399 -0.8517
 3111SOL    HW120795   3.031   3.310   2.701 -0.3424  0.0047 -0.8267
 3111SOL    HW220796   3.152   3.279   2.774 -0.1267  2.0880 -1.7598
 3112SOL     OW20797   1.369   3.518   3.412 -0.4631  0.1955 -0.9064
 3112SOL    HW120798   1.401   3.590   3.357  1.1525  1.8373  2.2228
 3112SOL    HW220799   1.405   3.438   3.372 -0.3160  0.5303 -1.4500
 3113SOL     OW20800   4.465   1.014   4.943 -0.0784 -0.1522  0.0959
 3113SOL    HW120801   4.547   1.062   4.933  0.1437 -0.1264  1.9724
 3113SOL    HW220802   4.425   1.013   4.856  1.7592 -0.3466 -0.7498
 3114SOL     OW20803   3.669   4.225   3.078 -0.0967 -0.2570 -0.5734
 3114SOL    HW120804   3.604   4.162   3.107 -0.2361  0.2589  0.2240
 3114SOL    HW220805   3.742   4.166   3.056  0.0814 -0.3434  0.2679
 3115SOL     OW20806   4.601   0.625   7.939 -0.4202  0.1022 -0.2015
 3115SOL    HW120807   4.651   0.638   8.019 -2.4807  0.2390  1.0576
 3115SOL    HW220808   4.612   0.530   7.941  0.5195  0.1879 -1.0311
 3116SOL     OW20809   1.799   2.473   9.415  0.5946 -0.0975  0.3835
 3116SOL    HW120810   1.703   2.479   9.411  0.8137  1.8863 -1.7635
 3116SOL    HW220811   1.807   2.402   9.479  0.7888 -0.2712  0.1635
 3117SOL     OW20812   3.275   3.167   2.034  0.3114  0.4314  0.3428
 3117SOL    HW120813   3.329   3.220   1.976 -0.2440 -0.1721 -0.7178
 3117SOL    HW220814   3.189   3.183   1.997  0.1499 -2.9847 -0.8283
 3118SOL     OW20815   4.186   0.786   5.854  0.2993 -0.1981 -0.6179
 3118SOL    HW120816   4.111   0.728   5.869 -1.1001  1.5644 -0.7492
 3118SOL    HW220817   4.219   0.800   5.943 -1.9120 -0.3686  0.2580
 3119SOL     OW20818   0.716   0.010   7.194  0.1543  0.0925 -0.2908
 3119SOL    HW120819   0.641   4.699   7.146 -0.9791  1.2203  0.6582
 3119SOL    HW220820   0.733   4.663   7.256 -0.4210  1.3206  1.2636
 3120SOL     OW20821   3.617   3.154   4.917  0.4632 -0.2059 -0.4146
 3120SOL    HW120822   3.619   3.111   5.002  2.6529 -1.5507 -1.1528
 3120SOL    HW220823   3.707   3.150   4.886  0.4197  0.1159 -0.5834
 3121SOL     OW20824   0.223   0.759   7.863 -0.3400 -0.2022 -0.1189
 3121SOL    HW120825   0.174   0.739   7.943 -1.5722  1.2744 -0.5071
 3121SOL    HW220826   0.146   0.772   7.807  0.1577  0.0798 -0.7423
 3122SOL     OW20827   4.022   2.628  13.382 -0.1603 -0.0699  0.0074
 3122SOL    HW120828   3.991   2.716  13.402  2.5024  0.4287  1.8190
 3122SOL    HW220829   4.031   2.641  13.288 -1.5404  0.4667 -0.0489
 3123SOL     OW20830   2.749   4.098   2.764  0.1710 -1.0897 -0.4442
 3123SOL    HW120831   2.722   4.172   2.710  0.5439  1.2412  2.5430
 3123SOL    HW220832   2.843   4.110   2.779  0.1230 -1.2988  0.0192
 3124SOL     OW20833   2.451   4.175   8.693  0.0158 -0.4221  0.3970
 3124SOL    HW120834   2.455   4.212   8.781  1.4854 -1.0948  0.6133
 3124SOL    HW220835   2.424   4.088   8.721 -0.6997 -0.6839 -1.1141
 3125SOL     OW20836   1.689   1.253  13.014 -0.2034  0.7749 -0.2815
 3125SOL    HW120837   1.739   1.192  12.960  1.0872  2.1380 -0.6192
 3125SOL    HW220838   1.735   1.334  12.992  0.2166  1.1651  1.9740
 3126SOL     OW20839   2.580   0.997   5.921  0.0761  0.8417 -0.1758
 3126SOL    HW120840   2.533   1.007   5.838  0.6031 -2.5990 -0.8692
 3126SOL    HW220841   2.668   1.032   5.904  1.6631 -3.2746 -0.4701
 3127SOL     OW20842   3.958   0.864   7.157 -0.1457  0.8118 -0.0704
 3127SOL    HW120843   4.008   0.850   7.237 -1.7954  2.7803  1.3025
 3127SOL    HW220844   3.873   0.896   7.187  1.7244  1.8980  4.0301
 3128SOL     OW20845   2.254   2.804   6.562  0.0996  0.1322 -0.4429
 3128SOL    HW120846   2.228   2.719   6.526 -3.0221  1.1529 -0.6081
 3128SOL    HW220847   2.316   2.772   6.628 -2.1319  0.8712  2.0403
 3129SOL     OW20848   1.780   4.139   8.882  0.0688  0.1153  0.0712
 3129SOL    HW120849   1.709   4.195   8.912  0.6339  1.5565 -1.2674
 3129SOL    HW220850   1.729   4.062   8.857 -1.3345  1.6589 -1.8502
 3130SOL     OW20851   1.592   1.324   1.153 -0.5850 -0.3154  0.3833
 3130SOL    HW120852   1.546   1.293   1.075  0.8837 -0.9401 -0.2306
 3130SOL    HW220853   1.570   1.417   1.158 -2.4200 -0.6545 -1.3610
 3131SOL     OW20854   4.020   0.074   8.346  0.7559 -0.1079 -0.1975
 3131SOL    HW120855   4.066   0.079   8.430 -1.7093 -0.2064  1.1666
 3131SOL    HW220856   3.961   0.002   8.370  0.5969  0.8234  2.2063
 3132SOL     OW20857   0.676   0.155  15.335  0.1065  0.2549 -0.0606
 3132SOL    HW120858   0.659   0.145  15.429 -1.9912  0.8141 -0.3823
 3132SOL    HW220859   0.772   0.163  15.337 -0.0845  2.0482  1.7764
 3133SOL     OW20860   2.705   2.691   1.486  0.2124  0.0102  0.5760
 3133SOL    HW120861   2.749   2.630   1.546  0.6008 -0.5167 -0.2417
 3133SOL    HW220862   2.761   2.767   1.496 -0.6783  0.9163 -1.3974
 3134SOL     OW20863   0.087   0.447  13.808 -0.0897 -0.4802  0.5545
 3134SOL    HW120864   0.070   0.364  13.764  0.6529  0.5152 -1.6074
 3134SOL    HW220865   0.001   0.454  13.851 -1.3626  0.3133 -2.1169
 3135SOL     OW20866   3.571   0.354   9.893 -0.6342  0.4992  0.0169
 3135SOL    HW120867   3.536   0.399   9.815 -2.8825 -1.4005 -0.0805
 3135SOL    HW220868   3.515   0.390   9.962 -0.8674  1.4696 -0.6723
 3136SOL     OW20869   3.017   3.076   0.598 -0.4098  0.0144 -0.3599
 3136SOL    HW120870   2.999   3.074   0.504 -3.6600  1.4223  0.2073
 3136SOL    HW220871   3.103   3.116   0.593  0.1272 -1.1045 -0.0812
 3137SOL     OW20872   2.079   0.679   8.121 -0.2188  0.5313 -0.4387
 3137SOL    HW120873   2.016   0.702   8.189 -0.9237 -1.1278 -0.5351
 3137SOL    HW220874   2.024   0.657   8.046 -0.0618 -2.0064  0.1906
 3138SOL     OW20875   1.318   3.261   5.719 -0.2823 -0.0784 -0.1766
 3138SOL    HW120876   1.222   3.257   5.720 -0.2663 -0.7548 -2.6199
 3138SOL    HW220877   1.343   3.222   5.803  0.0685  0.2148 -0.1425
 3139SOL     OW20878   1.014   2.322  12.797 -0.2811  1.0059 -0.4886
 3139SOL    HW120879   1.087   2.262  12.779 -0.0742  1.4648 -1.1789
 3139SOL    HW220880   1.059   2.374  12.863  0.4385  0.6411 -0.6831
 3140SOL     OW20881   4.680   0.839   3.085  0.1883  0.2366 -0.0198
 3140SOL    HW120882   4.672   0.744   3.092 -1.3527  0.4274  0.7990
 3140SOL    HW220883   4.647   0.849   2.996 -1.3473  2.9775  0.8445
 3141SOL     OW20884   0.609   4.281   2.774  0.2155  0.2909  0.0961
 3141SOL    HW120885   0.684   4.252   2.828 -0.1312  1.5277  1.2281
 3141SOL    HW220886   0.568   4.345   2.832 -2.3177 -0.5423 -0.8042
 3142SOL     OW20887   2.704   1.104   9.665  0.6923 -0.4400 -0.0053
 3142SOL    HW120888   2.719   1.017   9.701  3.8064 -0.6674 -1.8025
 3142SOL    HW220889   2.750   1.104   9.580  1.0425  1.4460  0.1678
 3143SOL     OW20890   1.842   2.562  11.536 -0.7491  0.0253  0.7865
 3143SOL    HW120891   1.852   2.657  11.544  0.1247  0.0307 -0.3805
 3143SOL    HW220892   1.905   2.555  11.465  1.2510  0.8424  2.4711
 3144SOL     OW20893   4.149   3.612   6.000 -0.4921 -0.2709  0.4909
 3144SOL    HW120894   4.216   3.545   5.985  0.2792  0.7914 -0.8420
 3144SOL    HW220895   4.074   3.563   5.966  1.1073 -0.9410 -2.1009
 3145SOL     OW20896   2.978   3.044   2.285  0.1022  0.2277  0.5383
 3145SOL    HW120897   3.053   2.998   2.324  0.0974 -0.2367 -0.0130
 3145SOL    HW220898   2.921   2.973   2.258  0.2771  0.8688 -1.4924
 3146SOL     OW20899   0.359   0.427   6.874 -0.4547 -0.4789  0.7003
 3146SOL    HW120900   0.413   0.493   6.830  1.3614 -1.2143  1.8394
 3146SOL    HW220901   0.400   0.400   6.956 -0.0820 -1.6497  0.1226
 3147SOL     OW20902   4.062   1.027   6.418 -0.7640  0.6572  0.2900
 3147SOL    HW120903   4.151   1.002   6.393 -0.9207 -0.7957  1.1776
 3147SOL    HW220904   4.001   0.969   6.371 -1.7597  1.2552  0.8320
 3148SOL     OW20905   2.768   0.268   4.152  0.6128 -0.0586  0.2646
 3148SOL    HW120906   2.756   0.356   4.188  0.4898 -0.7501  1.9147
 3148SOL    HW220907   2.695   0.223   4.195 -0.3238  1.9018  0.7325
 3149SOL     OW20908   1.865   3.598   4.252  0.1847 -0.0877  0.2085
 3149SOL    HW120909   1.835   3.542   4.180  2.3269 -0.7915 -0.1382
 3149SOL    HW220910   1.812   3.564   4.324  0.3484  0.9319  0.8123
 3150SOL     OW20911   0.133   2.379   6.865  0.5593 -0.4397  1.0515
 3150SOL    HW120912   0.070   2.315   6.830  1.2056 -1.5073  1.8341
 3150SOL    HW220913   0.196   2.331   6.919  2.1191  0.7602  0.2804
 3151SOL     OW20914   1.273   1.382   2.082 -0.4533 -0.2797 -0.0389
 3151SOL    HW120915   1.256   1.292   2.057 -1.2911  0.0418 -0.6430
 3151SOL    HW220916   1.297   1.369   2.173 -1.3161  0.3109  0.2720
 3152SOL     OW20917   1.465   2.097   2.226  0.4025 -0.4884  0.9397
 3152SOL    HW120918   1.401   2.046   2.177  1.1966  0.4226 -1.0158
 3152SOL    HW220919   1.539   2.037   2.237  0.9156  0.4128  2.4043
 3153SOL     OW20920   3.835   3.671   0.592  0.1014  0.0212 -0.5099
 3153SOL    HW120921   3.800   3.646   0.677 -2.2144 -0.8398 -1.7089
 3153SOL    HW220922   3.930   3.667   0.609  0.1546  1.1806 -0.5626
 3154SOL     OW20923   1.065   3.090  16.992  0.3260  0.1669  0.2039
 3154SOL    HW120924   1.139   3.149  17.002  0.9760 -0.5436 -0.3800
 3154SOL    HW220925   1.005   3.159  16.964 -1.1175 -1.9934 -2.0836
 3155SOL     OW20926   3.540   1.439   4.534  0.0744 -0.3600  0.8160
 3155SOL    HW120927   3.522   1.487   4.614  0.1548  0.5582  0.2869
 3155SOL    HW220928   3.600   1.372   4.569  0.1379 -0.1693  1.0648
 3156SOL     OW20929   4.577   4.595   9.204  0.1174  0.6797 -0.5562
 3156SOL    HW120930   4.527   4.545   9.268  0.7474 -0.0290 -0.6226
 3156SOL    HW220931   4.652   4.536   9.207 -0.6428 -0.2441  0.4414
 3157SOL     OW20932   1.040   0.185   5.483 -0.0941 -0.1357 -0.0497
 3157SOL    HW120933   1.126   0.146   5.469  0.1768  0.6312 -0.5223
 3157SOL    HW220934   1.025   0.221   5.395 -0.4065 -0.4983 -0.1423
 3158SOL     OW20935   2.319   1.056   7.012  0.4689  0.3400  0.0827
 3158SOL    HW120936   2.382   1.116   7.052 -1.3687  1.4793  1.2511
 3158SOL    HW220937   2.367   0.973   7.007 -2.2750 -1.1731 -1.1617
 3159SOL     OW20938   2.953   4.288   0.450  0.2912 -0.2627 -0.1683
 3159SOL    HW120939   3.032   4.308   0.401  1.7301 -3.1436  0.9855
 3159SOL    HW220940   2.901   4.258   0.375  2.8389  0.2697 -2.1580
 3160SOL     OW20941   0.914   0.783   9.251 -0.0474 -0.0413 -0.1538
 3160SOL    HW120942   0.852   0.713   9.234  1.2772 -1.9047  2.7016
 3160SOL    HW220943   0.987   0.756   9.195  1.8058  1.3774  1.5652
 3161SOL     OW20944   0.518   0.926   0.253  0.1452 -0.2058  0.5202
 3161SOL    HW120945   0.593   0.876   0.285  0.5081 -0.4318 -0.7055
 3161SOL    HW220946   0.442   0.868   0.253  1.6788 -2.2347  0.5038
 3162SOL     OW20947   4.239   4.104  12.099  0.1935 -0.0303  0.3037
 3162SOL    HW120948   4.318   4.141  12.139  0.5166  1.3958 -1.6549
 3162SOL    HW220949   4.174   4.109  12.168 -1.1826  2.3603 -1.1462
 3163SOL     OW20950   2.955   2.610   2.622  0.1621  0.0600  0.3801
 3163SOL    HW120951   3.011   2.542   2.584 -0.0297 -0.0220  0.2393
 3163SOL    HW220952   3.007   2.643   2.695 -0.9264  0.6579  0.8944
 3164SOL     OW20953   3.511   2.397  11.563 -0.4065 -0.3455 -0.2264
 3164SOL    HW120954   3.600   2.431  11.552 -1.3467  1.4370 -2.2886
 3164SOL    HW220955   3.502   2.419  11.656 -0.6444  2.0810 -0.8096
 3165SOL     OW20956   1.390   1.102  13.056  0.0188  0.5930  0.7569
 3165SOL    HW120957   1.371   1.178  13.002  0.6753 -2.4062 -3.7412
 3165SOL    HW220958   1.390   1.029  12.994  2.9488 -1.6240  3.3218
 3166SOL     OW20959   1.370   0.052   4.428  0.5303 -0.3405 -0.2122
 3166SOL    HW120960   1.364   0.137   4.473 -0.8397 -1.2498  1.3167
 3166SOL    HW220961   1.434   0.012   4.488  0.9449 -0.4787 -0.7461
 3167SOL     OW20962   2.325   2.143   6.533 -0.0130 -1.3151  0.0668
 3167SOL    HW120963   2.381   2.076   6.494  2.6980 -0.0764  1.8142
 3167SOL    HW220964   2.394   2.203   6.561 -0.2372 -1.9584  1.9624
 3168SOL     OW20965   3.125   1.463   8.829 -0.2878 -0.3614  0.3096
 3168SOL    HW120966   3.217   1.464   8.803 -0.1169  0.2032  0.9123
 3168SOL    HW220967   3.102   1.543   8.782 -1.2487 -1.0477 -0.3755
 3169SOL     OW20968   4.067   1.433   4.271  0.8818  0.8069 -0.1778
 3169SOL    HW120969   4.023   1.359   4.313  0.0969  0.7427 -1.1130
 3169SOL    HW220970   4.015   1.504   4.308  0.2943 -0.0147  0.5782
 3170SOL     OW20971   1.020   4.475  17.676 -0.9964  0.7208  0.2989
 3170SOL    HW120972   1.042   4.385  17.654 -1.8655  0.1100  1.9506
 3170SOL    HW220973   0.980   4.453   0.061 -1.2485 -0.8305 -0.2316
 3171SOL     OW20974   1.898   2.793   4.303 -1.0721  0.4161 -0.0976
 3171SOL    HW120975   1.952   2.769   4.227 -0.8864  1.0088 -0.1555
 3171SOL    HW220976   1.928   2.881   4.325 -1.4536  0.7007 -0.7044
 3172SOL     OW20977   0.125   0.857   8.824 -0.1269  0.1900  0.6311
 3172SOL    HW120978   0.091   0.926   8.766 -0.1625  0.4970  1.0211
 3172SOL    HW220979   0.097   0.889   8.909  0.1632 -1.3536  1.3032
 3173SOL     OW20980   2.647   2.779  13.754  0.6459  0.6194 -0.3485
 3173SOL    HW120981   2.582   2.712  13.733  1.8395 -1.2586  2.0571
 3173SOL    HW220982   2.713   2.739  13.809  0.0961 -1.1940 -1.0232
 3174SOL     OW20983   2.607   2.373   8.953  0.3470  0.0252 -0.5022
 3174SOL    HW120984   2.514   2.379   8.930  0.0477 -0.7710  0.4438
 3174SOL    HW220985   2.614   2.456   8.999  1.1411  0.1672 -0.8874
 3175SOL     OW20986   2.598   1.957   8.284 -0.3499 -0.3447 -0.2661
 3175SOL    HW120987   2.680   1.970   8.236  0.2527 -1.6182  0.4023
 3175SOL    HW220988   2.569   2.045   8.308 -0.3846  0.6269 -3.8891
 3176SOL     OW20989   0.869   3.628   7.907 -0.5128  0.4819  0.3672
 3176SOL    HW120990   0.917   3.593   7.982  1.9165 -0.3189 -1.5411
 3176SOL    HW220991   0.881   3.549   7.853  2.0320  1.9825 -1.2891
 3177SOL     OW20992   4.165   1.545   7.847  1.1231  0.2692  0.3142
 3177SOL    HW120993   4.174   1.611   7.916 -2.5342 -0.2183  1.2455
 3177SOL    HW220994   4.121   1.589   7.775  1.1440 -1.8901 -0.9979
 3178SOL     OW20995   1.109   1.496  10.196 -0.0361 -0.3827  0.1098
 3178SOL    HW120996   1.046   1.430  10.166 -0.7773  0.0938  0.6262
 3178SOL    HW220997   1.190   1.445  10.192  1.2289  1.5861  1.0885
 3179SOL     OW20998   3.931   1.689   9.726  0.2051  0.3322  0.0206
 3179SOL    HW120999   3.988   1.732   9.662 -1.0267  0.9117 -0.6869
 3179SOL    HW221000   3.959   1.745   9.798 -1.3233 -0.0310  0.8886
 3180SOL     OW21001   0.839   0.692   7.121  0.3220 -0.1082  0.9369
 3180SOL    HW121002   0.858   0.612   7.171  0.4822 -0.4648  0.3030
 3180SOL    HW221003   0.766   0.733   7.167 -0.9160 -0.8087 -0.3796
 3181SOL     OW21004   4.140   0.636   4.503 -0.3678  0.0991 -0.1562
 3181SOL    HW121005   4.075   0.565   4.503 -0.7619  0.4415  1.7163
 3181SOL    HW221006   4.132   0.677   4.418 -0.0497  2.2914  0.8682
 3182SOL     OW21007   0.865   3.135   7.081 -0.1224 -0.1990  0.3491
 3182SOL    HW121008   0.824   3.217   7.108 -0.6020 -0.0958 -0.6924
 3182SOL    HW221009   0.909   3.116   7.163  0.7040  0.4989  0.0661
 3183SOL     OW21010   3.179   2.029  13.954 -0.2913  0.3822 -0.1889
 3183SOL    HW121011   3.085   2.035  13.970 -0.5436 -1.1355 -1.0604
 3183SOL    HW221012   3.186   1.935  13.938  0.2703  0.6715 -1.5711
 3184SOL     OW21013   2.690   1.824  11.988  0.4318  0.5931 -0.0700
 3184SOL    HW121014   2.748   1.763  12.032 -0.6507 -0.3619  0.0468
 3184SOL    HW221015   2.633   1.855  12.058 -0.4899  0.2410 -0.6564
 3185SOL     OW21016   3.587   3.124   8.060 -0.4586 -0.3167  0.0629
 3185SOL    HW121017   3.570   3.153   7.970 -0.1209 -0.4771 -0.0539
 3185SOL    HW221018   3.673   3.089   8.037 -0.0773  0.8122 -0.2490
 3186SOL     OW21019   2.110   3.793   7.222 -0.3260  0.5334  0.7829
 3186SOL    HW121020   2.115   3.821   7.314  0.4426  0.1789  0.8485
 3186SOL    HW221021   2.032   3.738   7.231  0.7283 -1.3184 -1.4259
 3187SOL     OW21022   3.600   2.013  14.643 -0.2301  0.1190  0.4949
 3187SOL    HW121023   3.544   1.940  14.668 -1.1698  0.7107  0.1298
 3187SOL    HW221024   3.619   1.988  14.553 -2.0249  0.6234 -0.0353
 3188SOL     OW21025   0.844   1.071  12.628 -0.3580 -0.1564  0.5842
 3188SOL    HW121026   0.781   1.129  12.671  0.0287  0.9765 -0.3793
 3188SOL    HW221027   0.841   0.994  12.685  1.7007  0.2447  1.2120
 3189SOL     OW21028   2.083   3.859   7.489 -0.3927 -0.0453 -0.2705
 3189SOL    HW121029   2.127   3.793   7.544 -0.8562 -0.1844 -0.0689
 3189SOL    HW221030   1.992   3.862   7.518 -0.5982  0.9916 -1.0344
 3190SOL     OW21031   0.887   2.412   4.032 -0.0073 -0.2918 -0.4983
 3190SOL    HW121032   0.901   2.500   4.069  0.6088  0.2165 -1.9384
 3190SOL    HW221033   0.817   2.440   3.973 -1.3570  2.5035  2.4010
 3191SOL     OW21034   0.486   2.447   5.945  0.4607 -0.3543 -0.3221
 3191SOL    HW121035   0.446   2.399   6.017 -0.8180 -0.2110 -0.9387
 3191SOL    HW221036   0.501   2.537   5.974 -0.4258  0.7217 -3.2404
 3192SOL     OW21037   2.866   1.274   2.880 -0.1019 -0.2507 -0.6473
 3192SOL    HW121038   2.822   1.345   2.835  0.0416 -0.2650 -0.8087
 3192SOL    HW221039   2.920   1.243   2.808 -1.5415  0.9100 -2.2164
 3193SOL     OW21040   1.817   3.231   9.870 -0.0115 -0.0554 -0.7162
 3193SOL    HW121041   1.737   3.196   9.908 -0.2670 -0.9868 -2.0868
 3193SOL    HW221042   1.883   3.204   9.934  1.3214  2.4900 -1.0091
 3194SOL     OW21043   3.636   0.827   2.182 -0.4337 -0.0085 -0.1642
 3194SOL    HW121044   3.702   0.758   2.188  1.0056  1.2279 -1.7833
 3194SOL    HW221045   3.666   0.864   2.099  2.4084 -2.2602 -0.1183
 3195SOL     OW21046   0.027   0.527   0.566 -0.3312 -0.5673  0.2542
 3195SOL    HW121047   0.022   0.605   0.621 -0.2902  0.4977 -1.2676
 3195SOL    HW221048   0.002   0.461   0.631  0.2172  0.5525  1.6117
 3196SOL     OW21049   4.192   3.175   8.140  0.1102  0.1312 -0.0618
 3196SOL    HW121050   4.159   3.225   8.215 -2.3944 -2.3126  0.4862
 3196SOL    HW221051   4.281   3.156   8.169  0.8263 -0.4629 -2.6440
 3197SOL     OW21052   3.413   2.539   3.688 -0.4540 -0.2650 -0.0361
 3197SOL    HW121053   3.449   2.475   3.627  2.2009  1.7296 -0.5894
 3197SOL    HW221054   3.438   2.619   3.642  1.3972 -0.7728  0.0891
 3198SOL     OW21055   3.779   0.389   2.460  0.4475  0.0294 -0.3104
 3198SOL    HW121056   3.777   0.302   2.499  1.1576  1.1254  2.2151
 3198SOL    HW221057   3.780   0.437   2.543 -0.4282  0.4638 -0.5488
 3199SOL     OW21058   1.505   2.976  10.913  0.0329 -0.3074  0.0724
 3199SOL    HW121059   1.500   2.950  10.821  0.2570 -2.2231  0.6044
 3199SOL    HW221060   1.482   3.069  10.911 -1.4676 -0.7145 -1.4673
 3200SOL     OW21061   0.810   4.198   2.963 -0.1419 -0.1191  0.0864
 3200SOL    HW121062   0.868   4.136   3.006  0.5235  1.6269  1.6544
 3200SOL    HW221063   0.878   4.262   2.944 -1.4258  0.6500 -1.9668
 3201SOL     OW21064   4.645   1.603   4.673 -0.5305 -0.4497 -0.0101
 3201SOL    HW121065   4.633   1.696   4.655 -0.0474 -0.3759  0.0355
 3201SOL    HW221066   0.006   1.601   4.717 -0.1552  0.4151 -0.7129
 3202SOL     OW21067   4.634   3.458   3.305  0.1583  0.4646  0.0770
 3202SOL    HW121068   4.628   3.403   3.227 -2.6536  0.2985  0.4258
 3202SOL    HW221069   4.544   3.455   3.337  0.7423 -0.3441  1.6261
 3203SOL     OW21070   1.831   4.483   2.582 -0.6121 -0.3934  0.5882
 3203SOL    HW121071   1.828   4.464   2.488 -0.6648  0.1573  0.4747
 3203SOL    HW221072   1.915   4.530   2.582 -1.4525  1.1064 -0.2355
 3204SOL     OW21073   0.939   0.670   7.702  0.5382 -0.0319 -0.1680
 3204SOL    HW121074   0.976   0.726   7.633 -1.3567  1.8012  0.3176
 3204SOL    HW221075   0.914   0.588   7.660  0.5479  0.3017 -0.8411
 3205SOL     OW21076   1.701   1.148   2.129  0.3492  0.2283  0.3952
 3205SOL    HW121077   1.675   1.065   2.087  0.0525  1.6488 -2.2279
 3205SOL    HW221078   1.687   1.133   2.222 -1.6976  0.9540  0.2093
 3206SOL     OW21079   3.252   1.788   6.182  0.8918  0.6170  0.5830
 3206SOL    HW121080   3.303   1.730   6.124  0.8604  2.4946 -1.3428
 3206SOL    HW221081   3.319   1.792   6.250  1.2767  0.3158  0.2213
 3207SOL     OW21082   2.878   3.991  11.424  0.1644  0.2692  0.2978
 3207SOL    HW121083   2.877   3.985  11.519  0.0105 -1.1938  0.1992
 3207SOL    HW221084   2.793   3.948  11.411  1.5069 -2.2263 -0.2520
 3208SOL     OW21085   4.678   0.898   3.339 -0.3408 -0.1154 -0.5869
 3208SOL    HW121086   4.681   0.879   3.245 -2.7080 -0.5788 -0.5718
 3208SOL    HW221087   4.650   0.811   3.365 -1.1310  0.0410 -0.8942
 3209SOL     OW21088   4.204   0.347   4.909 -0.5315  0.1230  0.0640
 3209SOL    HW121089   4.193   0.438   4.880  1.1343  1.1227  2.5749
 3209SOL    HW221090   4.136   0.320   4.970 -0.4587  0.5944  0.3494
 3210SOL     OW21091   2.246   0.531   4.244 -0.1204  0.1808 -0.0333
 3210SOL    HW121092   2.152   0.546   4.255 -0.0809  0.6206 -0.3055
 3210SOL    HW221093   2.254   0.496   4.155 -0.1219  0.8515 -0.2946
 3211SOL     OW21094   1.790   2.631   1.200  0.7191  0.1320 -0.1975
 3211SOL    HW121095   1.699   2.623   1.229  0.7905 -1.3289 -0.3630
 3211SOL    HW221096   1.776   2.719   1.164 -2.2501  0.1086  0.9215
 3212SOL     OW21097   3.299   0.109   8.404  0.1983  0.0174 -0.1369
 3212SOL    HW121098   3.363   0.074   8.467  0.9038 -0.3379 -1.0496
 3212SOL    HW221099   3.233   0.049   8.440 -0.2181  0.8529  0.4882
 3213SOL     OW21100   1.615   4.373   9.197  0.0820  0.1845  0.0873
 3213SOL    HW121101   1.597   4.347   9.107  0.5763 -1.4784  0.4687
 3213SOL    HW221102   1.709   4.392   9.199  0.3005 -0.8578 -0.5506
 3214SOL     OW21103   1.652   3.703   6.695 -0.3190  0.4863 -0.4531
 3214SOL    HW121104   1.641   3.795   6.672  0.0446  0.1049 -2.1236
 3214SOL    HW221105   1.561   3.679   6.679 -0.7459  2.2466 -0.7377
 3215SOL     OW21106   4.015   3.857   6.465 -0.5548 -0.8372  0.0837
 3215SOL    HW121107   3.945   3.919   6.446  0.5031  0.5747  0.8749
 3215SOL    HW221108   3.976   3.769   6.470 -0.5700 -0.8431 -0.1491
 3216SOL     OW21109   2.653   3.303  15.989  0.2005  0.3201 -0.3996
 3216SOL    HW121110   2.737   3.265  16.014  0.2341  0.6670  0.0095
 3216SOL    HW221111   2.634   3.350  16.070  2.3525 -1.8919  1.4176
 3217SOL     OW21112   0.719   0.564  16.937  0.3653 -0.6005 -0.2006
 3217SOL    HW121113   0.713   0.591  16.845 -0.5145  0.0248  0.0420
 3217SOL    HW221114   0.815   0.558  16.943  0.1432 -3.1067  0.7785
 3218SOL     OW21115   1.993   4.207   9.318  0.0963  0.2464 -0.3221
 3218SOL    HW121116   1.974   4.297   9.292 -1.6155  0.4669  1.6566
 3218SOL    HW221117   2.033   4.173   9.238 -1.0415  1.7368 -1.5189
 3219SOL     OW21118   1.630   3.782   6.390  0.3428  0.1733 -0.4022
 3219SOL    HW121119   1.627   3.850   6.457 -0.5380 -0.4326  0.1772
 3219SOL    HW221120   1.538   3.766   6.367 -0.0704 -0.2316  1.5290
 3220SOL     OW21121   4.412   2.206   8.513 -0.5140  0.4336  0.5921
 3220SOL    HW121122   4.337   2.162   8.473  1.0654 -0.8822 -0.9442
 3220SOL    HW221123   4.423   2.162   8.597  2.8212 -0.6891 -0.4335
 3221SOL     OW21124   0.993   0.992   0.968 -0.4678  0.1818  0.9067
 3221SOL    HW121125   1.049   0.992   1.046  0.8936  0.3777 -0.0777
 3221SOL    HW221126   0.922   1.053   0.990  0.4121  0.9518  1.6352
 3222SOL     OW21127   3.338   1.229   5.496 -0.2016  0.1073 -0.7735
 3222SOL    HW121128   3.366   1.301   5.439  3.8335 -0.7074  0.1661
 3222SOL    HW221129   3.334   1.151   5.440 -1.6226 -0.3766 -0.0133
 3223SOL     OW21130   1.677   3.143   7.437 -0.2813  0.0630  0.0950
 3223SOL    HW121131   1.687   3.218   7.495 -0.1875  0.3672 -0.3113
 3223SOL    HW221132   1.617   3.172   7.368 -0.1428  0.8751  0.3167
 3224SOL     OW21133   2.840   0.275  12.196  0.0551  0.0621  0.4654
 3224SOL    HW121134   2.846   0.269  12.101  0.4103 -1.4896  0.5887
 3224SOL    HW221135   2.751   0.244  12.213  1.2695 -2.4355  2.3395
 3225SOL     OW21136   2.090   1.864   8.088  0.1260 -0.2170 -0.0861
 3225SOL    HW121137   2.075   1.949   8.047  1.1630  0.7140  1.4854
 3225SOL    HW221138   2.038   1.856   8.169 -3.4616  0.5915 -2.3090
 3226SOL     OW21139   0.369   4.171   7.601  0.2931  0.1086 -0.5311
 3226SOL    HW121140   0.389   4.097   7.544  2.0338  1.2564 -1.4305
 3226SOL    HW221141   0.332   4.127   7.677  0.5544  0.3420 -0.2683
 3227SOL     OW21142   0.274   0.935  12.315 -0.1388  0.3360  0.0307
 3227SOL    HW121143   0.228   1.006  12.270  0.7952  0.8848 -0.0457
 3227SOL    HW221144   0.219   0.944  12.392 -2.3437  1.5593 -1.6816
 3228SOL     OW21145   1.202   2.271   1.565  0.1704 -0.3690 -0.3108
 3228SOL    HW121146   1.180   2.180   1.543 -3.4407  0.8538 -1.7657
 3228SOL    HW221147   1.266   2.256   1.634  0.3894 -1.8386 -0.8408
 3229SOL     OW21148   3.339   3.992  11.451 -0.2309  0.0509 -0.1345
 3229SOL    HW121149   3.414   3.933  11.445 -0.1248 -0.0686  2.2290
 3229SOL    HW221150   3.269   3.928  11.441  0.9929 -1.4669  0.9738
 3230SOL     OW21151   4.188   2.755   2.890  0.1565  0.3222  0.3806
 3230SOL    HW121152   4.274   2.794   2.877  0.0103  0.1150 -1.2363
 3230SOL    HW221153   4.190   2.679   2.831 -3.0801  0.1983  0.4453
 3231SOL     OW21154   1.345   2.536   5.692 -0.3229  0.0258 -0.8975
 3231SOL    HW121155   1.438   2.543   5.671 -0.1372 -0.3449 -0.1842
 3231SOL    HW221156   1.304   2.550   5.607  0.3003  2.0268 -0.8896
 3232SOL     OW21157   3.025   1.085   7.790 -0.0958 -0.5454  0.0918
 3232SOL    HW121158   2.972   1.026   7.736 -1.8256  1.5650 -0.4860
 3232SOL    HW221159   2.961   1.153   7.809  0.2464  1.3457 -5.3808
 3233SOL     OW21160   2.859   0.057   3.442  0.3079 -0.2852 -0.1641
 3233SOL    HW121161   2.920   0.064   3.368 -0.8551  0.2957 -1.0615
 3233SOL    HW221162   2.842   4.687   3.434  2.0363 -0.5961 -0.2488
 3234SOL     OW21163   1.625   1.602   6.425 -0.0582  0.3304  0.2007
 3234SOL    HW121164   1.697   1.548   6.458  0.7330 -0.4512 -2.8196
 3234SOL    HW221165   1.560   1.537   6.397 -0.5079  1.2115 -0.8047
 3235SOL     OW21166   2.358   0.365   8.015 -0.8502  0.6849  0.2438
 3235SOL    HW121167   2.313   0.447   7.993 -1.7065 -0.2377 -1.4926
 3235SOL    HW221168   2.435   0.370   7.959 -1.3310  2.3197 -0.2836
 3236SOL     OW21169   2.727   1.555   6.927 -0.5064  0.0155  0.8661
 3236SOL    HW121170   2.640   1.551   6.966 -0.3476 -0.4102  1.1832
 3236SOL    HW221171   2.736   1.649   6.913 -0.8188 -0.4237 -2.4247
 3237SOL     OW21172   1.957   2.703   6.484 -0.2229  0.2494  0.1641
 3237SOL    HW121173   2.008   2.758   6.544 -1.2321  2.3875 -0.9173
 3237SOL    HW221174   1.877   2.755   6.479 -0.8611 -0.8453 -0.8678
 3238SOL     OW21175   3.590   0.777  15.561 -0.3590 -0.4781  0.1109
 3238SOL    HW121176   3.626   0.840  15.499  2.2012 -2.0868 -0.0570
 3238SOL    HW221177   3.653   0.773  15.632 -0.1756 -0.3890 -0.0472
 3239SOL     OW21178   2.885   2.970   8.167 -0.0813  0.2060  0.1097
 3239SOL    HW121179   2.939   2.892   8.180  0.6431  0.5898 -0.6149
 3239SOL    HW221180   2.814   2.940   8.224 -1.1893  1.7571 -0.4629
 3240SOL     OW21181   1.760   3.111   5.441 -0.5909 -0.0582  0.4179
 3240SOL    HW121182   1.685   3.068   5.402 -0.2551 -0.7029  0.4877
 3240SOL    HW221183   1.743   3.203   5.422 -0.6890 -0.0388  0.5943
 3241SOL     OW21184   2.908   2.126  14.023 -0.2212  0.0165 -0.3838
 3241SOL    HW121185   2.835   2.080  14.065  0.2992  0.3855  0.9303
 3241SOL    HW221186   2.868   2.127  13.937 -1.5345 -1.7589  0.2138
 3242SOL     OW21187   1.236   0.883   2.024  0.0905  0.1569 -0.4136
 3242SOL    HW121188   1.192   0.867   1.940 -0.5349  1.9771 -0.4395
 3242SOL    HW221189   1.284   0.966   2.011  2.2642 -0.9387  0.6601
 3243SOL     OW21190   0.658   3.820   0.493 -0.5104 -0.1153  0.0899
 3243SOL    HW121191   0.702   3.801   0.576 -2.4637 -3.0319  0.4779
 3243SOL    HW221192   0.701   3.900   0.463 -1.7699  0.5856  0.1688
 3244SOL     OW21193   3.578   0.638  16.652 -0.0259 -0.4914 -0.0419
 3244SOL    HW121194   3.655   0.659  16.599 -0.4494  0.9205 -0.1044
 3244SOL    HW221195   3.602   0.703  16.718  1.0077 -1.1601  0.2521
 3245SOL     OW21196   0.759   0.462   3.220 -0.0203 -0.3324  0.3927
 3245SOL    HW121197   0.778   0.444   3.312 -1.4103 -0.0846  0.7402
 3245SOL    HW221198   0.794   0.549   3.202 -0.2948 -1.1466 -3.9944
 3246SOL     OW21199   2.294   2.351   3.566  0.0414 -0.0776 -0.1446
 3246SOL    HW121200   2.354   2.277   3.563  0.0946 -0.0775  1.0914
 3246SOL    HW221201   2.280   2.343   3.660  2.0318  0.6958  0.2309
 3247SOL     OW21202   0.443   1.075   5.765 -0.6385 -0.2096 -0.3508
 3247SOL    HW121203   0.505   1.074   5.838  0.6986  1.0605 -1.4702
 3247SOL    HW221204   0.384   1.006   5.796  0.5158 -2.4533 -3.2752
 3248SOL     OW21205   0.056   1.907  10.059 -0.1118  0.0887 -0.2951
 3248SOL    HW121206   0.122   1.960  10.104  1.0054 -3.6302  2.4741
 3248SOL    HW221207   0.051   1.938   9.969 -2.4410 -1.6320 -0.7707
 3249SOL     OW21208   3.397   4.200   2.635 -0.6858 -0.1444  0.2345
 3249SOL    HW121209   3.363   4.218   2.547 -1.2787  2.6921  1.0556
 3249SOL    HW221210   3.438   4.285   2.652  0.3723 -0.4802 -0.6507
 3250SOL     OW21211   0.787   3.960   3.616  0.3744 -0.3358 -0.1538
 3250SOL    HW121212   0.747   3.910   3.687 -1.9131 -0.3956 -1.5075
 3250SOL    HW221213   0.713   4.020   3.612  0.5454 -0.0956  0.2960
 3251SOL     OW21214   1.774   0.615  11.444 -0.1159  0.2406  0.0457
 3251SOL    HW121215   1.823   0.606  11.362 -0.8956 -0.3911 -0.3566
 3251SOL    HW221216   1.695   0.656  11.408  0.8783  2.3740  0.2894
 3252SOL     OW21217   4.473   4.718   4.649 -0.2409 -0.1288  0.3623
 3252SOL    HW121218   4.425   4.700   4.568 -2.1117  1.6607  1.0937
 3252SOL    HW221219   4.433   0.079   4.660 -2.8253 -1.0504 -1.9668
 3253SOL     OW21220   3.475   3.257  17.110  0.2038 -0.3407 -0.3104
 3253SOL    HW121221   3.413   3.326  17.135  1.5531  0.0983  1.8505
 3253SOL    HW221222   3.464   3.207  17.191  0.2792  1.4080  0.7938
 3254SOL     OW21223   2.623   1.904   3.642  0.1060 -0.2199 -0.8622
 3254SOL    HW121224   2.641   1.896   3.548  0.4847  1.5905 -0.9433
 3254SOL    HW221225   2.686   1.842   3.679 -0.0124  1.1111  1.5634
 3255SOL     OW21226   2.428   3.563   8.954 -0.0899  0.1509  0.3558
 3255SOL    HW121227   2.425   3.540   9.047  1.0022 -0.6801  0.1698
 3255SOL    HW221228   2.339   3.599   8.948 -0.6807 -1.3770 -0.0470
 3256SOL     OW21229   4.454   2.934  13.768  0.3280  0.5041 -0.0036
 3256SOL    HW121230   4.425   3.011  13.816 -0.6737 -0.9449  1.7051
 3256SOL    HW221231   4.442   2.878  13.845 -0.0943  1.0526  0.3207
 3257SOL     OW21232   2.173   1.734   6.126 -0.3531  0.3937 -0.0367
 3257SOL    HW121233   2.158   1.666   6.193 -0.5598  1.7973  1.3372
 3257SOL    HW221234   2.237   1.794   6.164  0.6848 -0.8757  0.2196
 3258SOL     OW21235   0.802   3.001  13.833  0.1012 -0.5766  0.6580
 3258SOL    HW121236   0.857   3.004  13.912  1.9729  0.4444 -0.6906
 3258SOL    HW221237   0.749   2.924  13.855 -0.7417  0.6368  2.9192
 3259SOL     OW21238   3.879   1.462   3.207  0.3019 -0.0011  0.4319
 3259SOL    HW121239   3.963   1.445   3.250  0.7134  1.0755  0.0570
 3259SOL    HW221240   3.879   1.557   3.194 -0.8275  0.1134  1.3382
 3260SOL     OW21241   2.775   0.429   0.532  0.1645  0.0275 -0.3073
 3260SOL    HW121242   2.793   0.512   0.575 -0.1623  0.3581 -0.8127
 3260SOL    HW221243   2.689   0.397   0.560 -0.1880  0.2008 -1.2137
 3261SOL     OW21244   0.380   2.867  10.983  0.4987 -0.5158 -0.5217
 3261SOL    HW121245   0.405   2.865  11.076 -1.1603 -1.2282 -0.0936
 3261SOL    HW221246   0.460   2.908  10.949  0.8586 -1.1459 -0.4344
 3262SOL     OW21247   2.552   3.450   4.802  0.8755 -0.6845  0.1617
 3262SOL    HW121248   2.638   3.468   4.842 -0.0896  2.4801  0.7933
 3262SOL    HW221249   2.563   3.362   4.765  1.7963 -0.4846 -0.0432
 3263SOL     OW21250   0.575   1.057   3.095  0.8226 -0.4087 -0.1175
 3263SOL    HW121251   0.500   1.116   3.095  2.3210  1.5280 -0.1541
 3263SOL    HW221252   0.648   1.117   3.110 -0.0516  0.4876  0.5448
 3264SOL     OW21253   3.863   0.167   2.190 -0.4858  0.4198  0.1672
 3264SOL    HW121254   3.854   0.127   2.104 -2.0768 -1.5116  1.2257
 3264SOL    HW221255   3.957   0.154   2.202 -0.5592 -0.2163  0.0914
 3265SOL     OW21256   0.497   4.061   6.415  0.4059 -0.0472  0.0234
 3265SOL    HW121257   0.553   4.008   6.358  0.4546  0.8877 -0.7852
 3265SOL    HW221258   0.557   4.062   6.490 -0.2758  0.3341  0.5567
 3266SOL     OW21259   1.766   2.110   7.601 -0.1582 -0.1797 -0.2977
 3266SOL    HW121260   1.825   2.038   7.577 -0.9097 -0.3435 -1.6115
 3266SOL    HW221261   1.711   2.064   7.665  0.4241 -0.3638  0.0701
 3267SOL     OW21262   2.773   3.520   8.171  0.0899 -1.0807 -0.5162
 3267SOL    HW121263   2.727   3.439   8.191 -1.8166  0.8841  2.9315
 3267SOL    HW221264   2.861   3.489   8.193  0.5995  0.2634 -0.6345
 3268SOL     OW21265   3.155   2.753  10.453 -0.0174 -0.8947 -0.4112
 3268SOL    HW121266   3.212   2.774  10.527 -0.8225  0.0212 -0.0535
 3268SOL    HW221267   3.096   2.693  10.498 -0.8282 -0.5547 -1.0042
 3269SOL     OW21268   0.882   0.912  15.098 -0.0483  0.3267  0.1268
 3269SOL    HW121269   0.927   0.989  15.065  0.7581 -1.3029 -2.5957
 3269SOL    HW221270   0.796   0.935  15.063  1.0519  2.8939 -0.8795
 3270SOL     OW21271   4.476   1.306  12.236  0.0574 -0.0455  0.1117
 3270SOL    HW121272   4.412   1.310  12.164  0.3479 -1.5978 -0.2466
 3270SOL    HW221273   4.496   1.213  12.250 -0.1655  0.3681  3.0709
 3271SOL     OW21274   3.236   2.471  13.503 -0.0332 -0.0296  0.5122
 3271SOL    HW121275   3.182   2.497  13.429  0.8986 -1.7662 -0.7581
 3271SOL    HW221276   3.306   2.536  13.501 -0.6460  0.5671 -0.8368
 3272SOL     OW21277   2.281   2.438  14.130  0.4242 -0.4483 -0.3372
 3272SOL    HW121278   2.200   2.410  14.088 -0.0511  1.4303 -0.6750
 3272SOL    HW221279   2.334   2.359  14.141  3.0232  0.7923 -3.9014
 3273SOL     OW21280   0.554   3.153   0.715  0.5599  0.0802 -0.2121
 3273SOL    HW121281   0.472   3.106   0.723  0.2113  0.5669 -0.9565
 3273SOL    HW221282   0.522   3.226   0.663 -1.0240  0.0086  0.6669
 3274SOL     OW21283   0.413   1.035   6.393  0.2239 -0.2358 -0.4754
 3274SOL    HW121284   0.500   0.999   6.411 -0.2378 -1.8130 -1.4266
 3274SOL    HW221285   0.377   0.964   6.341 -1.3297  0.7085 -0.6953
 3275SOL     OW21286   4.085   0.987   4.620  0.2689  0.2736  0.3360
 3275SOL    HW121287   4.046   0.976   4.533  1.1240 -1.5613  0.1976
 3275SOL    HW221288   4.179   0.981   4.603  0.5473  2.2602  1.1089
 3276SOL     OW21289   3.420   1.306   6.289  0.2695  0.3649 -0.4703
 3276SOL    HW121290   3.332   1.341   6.305  0.7933  1.0354  0.9459
 3276SOL    HW221291   3.464   1.372   6.236 -2.6568  1.1686 -1.8470
 3277SOL     OW21292   2.442   2.167   8.376 -0.5021  0.0898  0.1700
 3277SOL    HW121293   2.410   2.140   8.462 -2.9633  0.5197 -0.5926
 3277SOL    HW221294   2.399   2.251   8.357 -0.0131  0.7113  1.8402
 3278SOL     OW21295   0.167   1.878  13.441  0.0559 -0.1806 -0.6953
 3278SOL    HW121296   0.162   1.818  13.366 -2.9116 -0.9690  0.1291
 3278SOL    HW221297   0.120   1.824  13.504 -0.7651  1.9100  0.4669
 3279SOL     OW21298   0.463   4.316  13.710 -0.0705  0.5656  0.8017
 3279SOL    HW121299   0.394   4.382  13.718 -0.4746  0.1406  0.7590
 3279SOL    HW221300   0.406   4.247  13.677  0.6981  0.0817  0.4859
 3280SOL     OW21301   4.275   0.774   8.237  0.0493  0.2188  0.6171
 3280SOL    HW121302   4.203   0.822   8.277 -0.2672  0.2351  0.0180
 3280SOL    HW221303   4.289   0.833   8.163  1.4713 -1.5602 -0.5416
 3281SOL     OW21304   2.651   3.676   8.711  0.8514 -0.3135 -0.3151
 3281SOL    HW121305   2.626   3.759   8.753  1.9156 -0.1617  0.0200
 3281SOL    HW221306   2.742   3.689   8.684  0.8459  2.2965  0.8392
 3282SOL     OW21307   2.254   3.540   5.688  0.2976  0.4165 -0.7326
 3282SOL    HW121308   2.205   3.459   5.702 -0.2469  0.7337 -0.7904
 3282SOL    HW221309   2.341   3.506   5.668  0.0790 -0.8105  0.4455
 3283SOL     OW21310   1.906   1.923   2.981 -0.3680 -0.4482 -0.4168
 3283SOL    HW121311   1.850   1.993   2.949  1.5179  2.0652  1.7027
 3283SOL    HW221312   1.844   1.857   3.011 -1.7281  0.9392 -0.1834
 3284SOL     OW21313   0.775   0.678   8.901 -0.0311 -0.3275 -0.1964
 3284SOL    HW121314   0.739   0.661   8.813 -1.0542 -0.0408  0.1702
 3284SOL    HW221315   0.779   0.773   8.902 -0.5976 -0.3264  0.9719
 3285SOL     OW21316   2.526   3.104   0.498 -0.1256 -0.3459 -0.0677
 3285SOL    HW121317   2.530   3.026   0.552  0.0689 -0.3656 -0.1132
 3285SOL    HW221318   2.574   3.165   0.554  0.3524  0.4285 -1.3005
 3286SOL     OW21319   1.823   1.155   2.629 -0.0284 -0.4909 -0.4166
 3286SOL    HW121320   1.834   1.243   2.666 -0.1964 -0.2487 -0.9351
 3286SOL    HW221321   1.800   1.100   2.704  0.3078  1.8431  1.3984
 3287SOL     OW21322   2.860   2.017  10.624  0.0202  0.0233  0.3424
 3287SOL    HW121323   2.787   1.992  10.567 -0.8608  3.5254 -0.0806
 3287SOL    HW221324   2.923   2.042  10.557 -0.3382  2.4589  0.8965
 3288SOL     OW21325   3.146   1.674   3.151 -0.0977  0.2241 -0.0321
 3288SOL    HW121326   3.197   1.596   3.127 -0.1412  0.4698 -0.9098
 3288SOL    HW221327   3.064   1.626   3.159  0.5980 -0.8720  0.6419
 3289SOL     OW21328   2.475   1.626   6.237 -0.0392 -0.2533  0.0381
 3289SOL    HW121329   2.402   1.567   6.220  0.2843  0.3187 -3.2397
 3289SOL    HW221330   2.499   1.592   6.324  2.1359  0.0441 -0.4355
 3290SOL     OW21331   2.958   0.473   8.140 -0.0536  0.2169  0.1380
 3290SOL    HW121332   3.039   0.493   8.187  0.5797  0.1179 -0.9127
 3290SOL    HW221333   2.891   0.479   8.208 -0.0207 -2.0723  0.3804
 3291SOL     OW21334   2.274   2.552   9.946  0.2578  0.6867  0.2157
 3291SOL    HW121335   2.224   2.476   9.977  0.3651 -0.3742 -2.2360
 3291SOL    HW221336   2.344   2.506   9.900 -0.6934  1.4925 -2.0570
 3292SOL     OW21337   4.046   1.537   4.881 -0.6540  0.2574 -0.0566
 3292SOL    HW121338   4.004   1.622   4.869 -2.6376 -0.9314 -1.4005
 3292SOL    HW221339   4.050   1.535   4.977  1.8175 -1.1010 -0.1834
 3293SOL     OW21340   4.444   4.332   1.610  0.3358  0.1267 -0.8639
 3293SOL    HW121341   4.455   4.303   1.700 -0.0443 -1.1689 -1.2288
 3293SOL    HW221342   4.446   4.426   1.626 -2.0620 -0.5075  2.9560
 3294SOL     OW21343   0.339   0.297   7.230 -0.0765 -0.1793  0.3876
 3294SOL    HW121344   0.267   0.334   7.179 -1.1192 -1.6922  0.7362
 3294SOL    HW221345   0.292   0.311   7.312  1.2271 -1.2807  1.3330
 3295SOL     OW21346   0.303   1.005  15.538 -0.4505 -0.0247  0.2203
 3295SOL    HW121347   0.287   1.079  15.596 -2.9216  0.7812 -1.5096
 3295SOL    HW221348   0.218   0.969  15.513 -2.0928  2.3350  2.4019
 3296SOL     OW21349   3.728   1.000   5.519 -0.1581 -0.2436 -0.1050
 3296SOL    HW121350   3.711   0.935   5.451 -2.9603  0.5384 -0.1413
 3296SOL    HW221351   3.644   0.993   5.564  0.0754  0.2573  0.4274
 3297SOL     OW21352   0.239   1.518  13.723 -0.5157  0.5235  1.2255
 3297SOL    HW121353   0.163   1.560  13.681  2.1858  5.4312  1.1654
 3297SOL    HW221354   0.195   1.463  13.787 -1.1490  0.1605  0.4753
 3298SOL     OW21355   0.020   4.186  13.759 -0.0589 -0.4676 -0.3777
 3298SOL    HW121356   0.027   4.124  13.832 -0.6884  0.3049  0.3398
 3298SOL    HW221357   0.090   4.149  13.705 -0.1746  1.6003 -1.9333
 3299SOL     OW21358   3.012   4.497   9.007 -0.1506  0.2807  0.0818
 3299SOL    HW121359   3.075   4.506   9.079 -1.9551 -1.6448  1.8812
 3299SOL    HW221360   3.005   4.404   8.988 -2.2227  0.9372 -2.3321
 3300SOL     OW21361   0.998   1.339   1.279  0.2883 -0.1244 -0.5190
 3300SOL    HW121362   1.049   1.380   1.210  0.9939 -0.0460  0.0485
 3300SOL    HW221363   0.983   1.252   1.242  0.0753  0.0393 -0.8151
 3301SOL     OW21364   0.427   2.988   8.109  0.4420  0.3809 -0.2113
 3301SOL    HW121365   0.453   3.010   8.198  1.8033 -0.3843 -0.4263
 3301SOL    HW221366   0.344   3.036   8.107 -0.0934 -0.4823  1.8853
 3302SOL     OW21367   0.709   1.395   2.573 -0.0309 -0.4169 -0.4537
 3302SOL    HW121368   0.801   1.378   2.592 -0.5493  0.7297  3.0621
 3302SOL    HW221369   0.703   1.489   2.587 -2.2394 -0.7994  1.1632
 3303SOL     OW21370   4.428   2.825   8.418  0.1490 -0.3657 -0.6051
 3303SOL    HW121371   4.471   2.740   8.410  0.7297 -0.0056 -1.2133
 3303SOL    HW221372   4.503   2.881   8.433 -0.9205  1.1289 -0.8732
 3304SOL     OW21373   0.713   4.583   4.882 -0.3913 -0.0187 -0.3117
 3304SOL    HW121374   0.643   4.554   4.941 -0.0121  1.3862  0.8493
 3304SOL    HW221375   0.753   4.643   4.945 -1.5622  0.2336  0.1782
 3305SOL     OW21376   0.094   1.357   8.978 -0.0850 -0.1976  0.2610
 3305SOL    HW121377   0.146   1.278   8.961 -0.3572 -0.8209  2.2894
 3305SOL    HW221378   0.123   1.425   8.918 -0.0993  0.5473  1.0997
 3306SOL     OW21379   1.505   3.453  11.697  0.1580  0.0526  0.3315
 3306SOL    HW121380   1.543   3.366  11.710 -0.8252 -0.3460  0.5458
 3306SOL    HW221381   1.582   3.510  11.701  0.3701 -0.2405  0.3990
 3307SOL     OW21382   3.324   2.025   8.144 -0.2902  0.0252 -0.0889
 3307SOL    HW121383   3.243   1.981   8.118  0.6551 -0.5582 -1.9985
 3307SOL    HW221384   3.376   2.021   8.064  0.1472 -2.7125  0.3302
 3308SOL     OW21385   3.384   3.983   3.778 -0.0933 -0.6058 -0.3385
 3308SOL    HW121386   3.350   4.071   3.760  2.4523  0.2777 -0.7676
 3308SOL    HW221387   3.378   3.989   3.873  2.3115 -0.7726 -0.1737
 3309SOL     OW21388   3.147   3.457   6.656  0.3721  0.0453  0.3343
 3309SOL    HW121389   3.054   3.449   6.679 -0.2503  0.8912 -1.9188
 3309SOL    HW221390   3.188   3.405   6.726 -2.6772 -1.6123  0.9011
 3310SOL     OW21391   2.842   1.648  15.884  0.3129  0.2893 -0.5670
 3310SOL    HW121392   2.784   1.573  15.896  1.6631 -0.7968 -0.7737
 3310SOL    HW221393   2.923   1.611  15.848  0.6530  1.2730 -0.8279
 3311SOL     OW21394   4.104   2.531   5.753  0.4890 -0.1644 -0.3814
 3311SOL    HW121395   4.146   2.591   5.815  0.1081 -2.5276  2.1573
 3311SOL    HW221396   4.093   2.454   5.809 -0.5724 -0.0474 -0.4328
 3312SOL     OW21397   2.701   2.796   8.304 -0.4594 -0.3830 -0.2981
 3312SOL    HW121398   2.678   2.811   8.395  0.5913  2.1138 -0.4428
 3312SOL    HW221399   2.738   2.711   8.326  0.5465  0.6564  1.9731
 3313SOL     OW21400   3.520   1.858   3.653  0.1436 -0.4561 -0.4752
 3313SOL    HW121401   3.544   1.769   3.679  2.9999  0.2161 -0.7747
 3313SOL    HW221402   3.604   1.898   3.678 -0.4732  0.7492 -0.3563
 3314SOL     OW21403   3.768   0.698   7.377  0.2692  0.1524 -0.1336
 3314SOL    HW121404   3.776   0.784   7.418 -0.6527  0.5162 -0.7327
 3314SOL    HW221405   3.761   0.641   7.454  0.6241 -1.0119 -0.9753
 3315SOL     OW21406   3.633   4.504  16.736  0.6585 -0.1975 -0.2306
 3315SOL    HW121407   3.549   4.467  16.765  1.1790 -2.0241 -1.0419
 3315SOL    HW221408   3.625   4.510  16.641  2.1478  0.0439 -0.3370
 3316SOL     OW21409   1.153   3.913   2.546 -0.7142 -0.0799 -0.7152
 3316SOL    HW121410   1.124   3.971   2.616 -0.2904  0.5499 -1.0682
 3316SOL    HW221411   1.116   3.958   2.470  0.9641  0.6177 -1.1053
 3317SOL     OW21412   3.861   2.289  15.373  0.5638  0.4071  0.2464
 3317SOL    HW121413   3.891   2.198  15.370 -1.7581 -0.2625 -1.8630
 3317SOL    HW221414   3.811   2.285  15.455 -1.3618 -1.9921 -1.0548
 3318SOL     OW21415   0.134   3.235  14.768  0.0630  0.1764  0.1491
 3318SOL    HW121416   0.104   3.249  14.678 -0.1113  0.9548  0.3297
 3318SOL    HW221417   0.147   3.326  14.795 -1.4226  1.0827 -2.1794
 3319SOL     OW21418   4.104   0.194   3.895  0.1065 -0.4408  0.0599
 3319SOL    HW121419   4.118   0.209   3.989  0.9650 -1.3049  0.0781
 3319SOL    HW221420   4.072   0.280   3.870 -0.8296 -0.8906 -0.3163
 3320SOL     OW21421   2.073   3.870  10.225  0.0353 -0.0604  0.1627
 3320SOL    HW121422   2.124   3.951  10.234  0.0254 -0.0914  0.5132
 3320SOL    HW221423   2.006   3.892  10.160  0.2265 -1.2923 -0.4602
 3321SOL     OW21424   1.464   0.072   2.347 -0.7799  0.0551  0.3430
 3321SOL    HW121425   1.475   0.031   2.433 -0.9148  0.1101  0.3868
 3321SOL    HW221426   1.463   0.007   2.277  0.3996 -0.7227  1.0535
 3322SOL     OW21427   2.610   4.234   5.466 -0.4427 -0.6220 -0.2572
 3322SOL    HW121428   2.659   4.157   5.438 -1.0495 -1.0526 -0.1514
 3322SOL    HW221429   2.676   4.264   5.528  0.1840 -0.8526 -0.8119
 3323SOL     OW21430   0.506   2.619   5.213 -0.2328 -0.3026  0.0774
 3323SOL    HW121431   0.595   2.607   5.181 -0.6951  2.3392 -2.1526
 3323SOL    HW221432   0.463   2.535   5.194 -1.8077  1.0905 -2.5375
 3324SOL     OW21433   3.334   4.472  17.449  0.4475  0.9550  0.4861
 3324SOL    HW121434   3.398   4.502  17.385 -0.6861 -0.5165 -1.3500
 3324SOL    HW221435   3.268   4.444  17.385 -1.1754  1.5510  1.9014
 3325SOL     OW21436   0.190   0.695   6.066 -0.6087  0.2646 -0.4470
 3325SOL    HW121437   0.163   0.631   6.001 -0.5809 -1.9441  1.7365
 3325SOL    HW221438   0.130   0.675   6.138  1.0867 -1.9378  0.3433
 3326SOL     OW21439   4.632   0.037  14.763  0.4181 -0.0528  0.7454
 3326SOL    HW121440   4.688   4.685  14.770  1.1938  0.4229 -0.2626
 3326SOL    HW221441   4.549   4.720  14.788  0.5662 -1.2052 -0.6677
 3327SOL     OW21442   0.859   3.218   9.598 -0.0660 -0.0095 -0.0651
 3327SOL    HW121443   0.880   3.185   9.511  2.5370 -0.1171  0.5945
 3327SOL    HW221444   0.859   3.144   9.659  1.1167 -0.7201 -0.9398
 3328SOL     OW21445   0.658   0.553   9.529 -0.2447  0.0388  0.5179
 3328SOL    HW121446   0.731   0.507   9.486  0.1415  0.8027  0.3588
 3328SOL    HW221447   0.625   0.609   9.460  0.5053  2.7260  2.3311
 3329SOL     OW21448   4.666   4.501   4.593 -0.6338  0.4497  0.2245
 3329SOL    HW121449   4.663   4.496   4.498 -3.6884 -1.4819  0.4010
 3329SOL    HW221450   4.601   4.568   4.614 -0.8629 -0.6247  3.0130
 3330SOL     OW21451   1.085   1.156  13.482 -0.3646  0.0832 -0.2436
 3330SOL    HW121452   1.161   1.173  13.426 -2.2364  0.1853 -2.7442
 3330SOL    HW221453   1.021   1.162  13.411 -1.4364 -0.7889  0.6446
 3331SOL     OW21454   0.593   1.495   3.485 -0.0512 -0.6097 -0.8910
 3331SOL    HW121455   0.675   1.464   3.446  0.8699 -0.2459  0.7191
 3331SOL    HW221456   0.626   1.572   3.533 -3.6003 -0.8391  1.9052
 3332SOL     OW21457   2.688   3.215   6.433  0.2209  0.1984  0.3085
 3332SOL    HW121458   2.705   3.255   6.347  0.5055 -0.0914  0.2311
 3332SOL    HW221459   2.728   3.279   6.492 -1.5166 -0.0554  1.7440
 3333SOL     OW21460   2.105   3.320   2.275 -0.4714  0.1433 -0.2137
 3333SOL    HW121461   2.182   3.271   2.304 -1.9550 -1.7409  0.5943
 3333SOL    HW221462   2.075   3.271   2.199 -0.9923 -1.5065  1.0444
 3334SOL     OW21463   2.823   0.668  10.894  0.0905 -0.2109 -0.4515
 3334SOL    HW121464   2.740   0.630  10.865 -0.8565  0.9467  0.6957
 3334SOL    HW221465   2.859   0.609  10.960  2.4358 -0.5351 -2.0297
 3335SOL     OW21466   3.294   2.447   4.608  0.3058  0.2145  0.0399
 3335SOL    HW121467   3.247   2.465   4.527  0.2313  1.8779  0.4668
 3335SOL    HW221468   3.292   2.535   4.644 -2.8399 -0.2153  0.9236
 3336SOL     OW21469   2.488   0.013   7.850  0.1615  0.7934  0.3813
 3336SOL    HW121470   2.576   4.709   7.874 -0.5454  0.4529  2.5657
 3336SOL    HW221471   2.453   0.036   7.936  0.1621 -0.1189  0.6214
 3337SOL     OW21472   1.368   2.762   6.340  0.0793  0.3943  0.2110
 3337SOL    HW121473   1.410   2.834   6.386  0.5875 -0.4872  1.1076
 3337SOL    HW221474   1.293   2.746   6.397 -0.7819  1.0584 -0.7071
 3338SOL     OW21475   0.926   1.415   8.622  0.3419 -0.1552  0.6252
 3338SOL    HW121476   0.843   1.381   8.655  0.6576 -0.9707  0.5641
 3338SOL    HW221477   0.928   1.388   8.530  1.5241 -0.4702  0.7405
 3339SOL     OW21478   2.297   0.454   6.953 -0.2381  0.7328 -0.9163
 3339SOL    HW121479   2.335   0.370   6.927 -2.7635 -0.9041  0.6561
 3339SOL    HW221480   2.205   0.443   6.930 -0.3152  3.2359 -1.7055
 3340SOL     OW21481   4.091   2.778  13.162 -0.6376 -0.4773  0.3827
 3340SOL    HW121482   4.049   2.816  13.085 -0.5431 -0.4770  0.3306
 3340SOL    HW221483   4.091   2.852  13.223  1.9792  0.5360 -0.8185
 3341SOL     OW21484   1.261   4.082  17.232  0.3918 -0.5240  0.0486
 3341SOL    HW121485   1.195   4.137  17.191  1.8803  1.1686 -0.0729
 3341SOL    HW221486   1.276   4.021  17.160 -1.4580  0.5723 -1.2209
 3342SOL     OW21487   3.248   0.692  13.670  0.3712 -0.2026  1.2004
 3342SOL    HW121488   3.242   0.601  13.640  3.3259  0.3052 -1.0563
 3342SOL    HW221489   3.278   0.726  13.585 -0.9060 -0.8793  0.4791
 3343SOL     OW21490   3.615   2.666   4.830 -0.2231 -0.5910  0.1843
 3343SOL    HW121491   3.609   2.603   4.759  1.1448 -2.5817  1.8714
 3343SOL    HW221492   3.634   2.747   4.782 -0.3723 -1.8054 -1.9609
 3344SOL     OW21493   0.879   1.060   9.347 -0.1541 -0.0774  0.3171
 3344SOL    HW121494   0.884   0.982   9.292  0.0566 -0.2246  0.5462
 3344SOL    HW221495   0.966   1.083   9.380  0.1471 -1.4566  0.4793
 3345SOL     OW21496   0.765   2.393   5.058 -0.1058  0.1394 -0.5028
 3345SOL    HW121497   0.805   2.381   5.145 -0.4485 -0.0712 -0.3761
 3345SOL    HW221498   0.827   2.349   5.000  0.5855 -1.4718  1.4193
 3346SOL     OW21499   1.162   2.276   8.377  0.1268  0.0869 -0.3489
 3346SOL    HW121500   1.255   2.269   8.398  0.2085  0.3200 -0.6318
 3346SOL    HW221501   1.131   2.362   8.405  0.5874 -0.2011  1.0504
 3347SOL     OW21502   0.413   0.029   7.225 -0.2676  0.3327  0.1076
 3347SOL    HW121503   0.394   0.031   7.131 -0.1048  0.2124  0.0721
 3347SOL    HW221504   0.377   0.114   7.252 -0.2549  1.0578 -2.0984
 3348SOL     OW21505   2.639   3.411   3.012  0.8020 -0.4515  0.4159
 3348SOL    HW121506   2.666   3.335   3.063  1.1684 -1.5740 -1.4363
 3348SOL    HW221507   2.612   3.365   2.932 -0.2481  1.6211 -0.4281
 3349SOL     OW21508   3.049   1.344   2.698  0.3547  0.0725 -0.0966
 3349SOL    HW121509   2.998   1.336   2.617  0.6277 -1.7614 -0.0798
 3349SOL    HW221510   3.086   1.258   2.717  0.2307  0.0560  0.0692
 3350SOL     OW21511   0.206   3.565   7.455 -0.1386  0.2129  0.2799
 3350SOL    HW121512   0.288   3.615   7.459  0.2552 -0.7061  3.8258
 3350SOL    HW221513   0.232   3.477   7.427  0.2928 -0.1763  1.8911
 3351SOL     OW21514   3.000   3.374   5.089 -0.2169  0.0441 -0.6423
 3351SOL    HW121515   2.988   3.286   5.054 -0.7155 -0.4043  0.6433
 3351SOL    HW221516   3.096   3.381   5.087 -0.1777 -0.7421 -1.5814
 3352SOL     OW21517   1.957   4.128   5.164 -0.4172 -0.2210  0.0912
 3352SOL    HW121518   1.973   4.039   5.197  1.2164  0.1887  0.4008
 3352SOL    HW221519   2.027   4.181   5.203  0.4272 -0.9663 -0.4288
 3353SOL     OW21520   1.970   2.299   9.818  0.0859  0.0958 -0.1950
 3353SOL    HW121521   2.018   2.278   9.898  1.1137  3.8699  0.1511
 3353SOL    HW221522   2.028   2.286   9.743 -0.5918  3.2842 -1.2785
 3354SOL     OW21523   2.781   4.195   0.932 -0.1947  0.1828  0.6456
 3354SOL    HW121524   2.689   4.171   0.938 -0.2289  0.4014  0.9665
 3354SOL    HW221525   2.784   4.239   0.847  2.7892 -0.1098  0.5964
 3355SOL     OW21526   1.748   3.131   9.347 -0.2117 -0.1905 -0.7121
 3355SOL    HW121527   1.721   3.094   9.431 -0.1647  1.7729  0.1742
 3355SOL    HW221528   1.843   3.121   9.351  0.0356  1.7258 -1.8289
 3356SOL     OW21529   2.101   1.563   5.561  0.0744  0.2230  0.1724
 3356SOL    HW121530   2.147   1.640   5.594  0.2351 -0.1161  0.7249
 3356SOL    HW221531   2.154   1.492   5.597  1.9724  1.2558 -0.5617
 3357SOL     OW21532   3.836   3.266   8.949  0.0959 -0.7121 -0.1912
 3357SOL    HW121533   3.759   3.282   8.894 -0.8331 -1.5257  0.8746
 3357SOL    HW221534   3.812   3.318   9.026  3.2149 -1.4111  1.2657
 3358SOL     OW21535   1.086   3.641   4.283  0.3723  0.2639 -0.1099
 3358SOL    HW121536   1.153   3.638   4.215  0.5105 -4.9647  0.3017
 3358SOL    HW221537   1.139   3.676   4.354 -0.6288 -4.2661  2.8433
 3359SOL     OW21538   0.188   1.821   1.613 -0.8396 -0.1956  0.0372
 3359SOL    HW121539   0.170   1.825   1.706 -1.8951 -1.5232 -0.1125
 3359SOL    HW221540   0.260   1.759   1.599  0.9758  2.3707 -2.0032
 3360SOL     OW21541   0.711   1.293   7.189 -0.0219  0.6060 -0.2608
 3360SOL    HW121542   0.805   1.290   7.204  0.1402 -3.1547 -1.8738
 3360SOL    HW221543   0.701   1.228   7.119 -1.1130 -0.0214  0.4657
 3361SOL     OW21544   0.765   2.251  14.749 -0.2582 -0.0380 -0.3282
 3361SOL    HW121545   0.702   2.182  14.769 -1.2334  0.5407 -1.3746
 3361SOL    HW221546   0.712   2.323  14.714  0.7126  0.7882 -0.1197
 3362SOL     OW21547   1.388   3.310  13.095  0.3546  0.6420 -0.0025
 3362SOL    HW121548   1.464   3.318  13.153 -0.4870  0.4032  1.1245
 3362SOL    HW221549   1.349   3.233  13.137 -0.0688  0.6133 -0.4477
 3363SOL     OW21550   2.711   2.081   9.826  0.0585 -0.1419  0.0692
 3363SOL    HW121551   2.691   2.095   9.918 -0.1742  0.8682 -0.1296
 3363SOL    HW221552   2.736   2.171   9.804  0.5243 -0.4150 -0.5262
 3364SOL     OW21553   2.862   1.016   9.914  0.6244 -0.4328 -0.5937
 3364SOL    HW121554   2.939   1.030   9.858  1.5526  0.1367  0.8115
 3364SOL    HW221555   2.876   1.096   9.965 -1.4093 -1.7473  1.9906
 3365SOL     OW21556   1.854   1.468   6.569 -0.4960 -0.1227 -0.5636
 3365SOL    HW121557   1.821   1.425   6.490 -0.0051  0.6629 -1.2084
 3365SOL    HW221558   1.938   1.422   6.574 -1.1747 -1.2458  0.3815
 3366SOL     OW21559   4.270   0.956   5.672 -0.2240 -0.0913  0.3894
 3366SOL    HW121560   4.245   0.884   5.730 -1.3153  0.4127  0.5253
 3366SOL    HW221561   4.197   0.978   5.614 -0.2951 -1.4543 -0.0562
 3367SOL     OW21562   3.840   2.707   5.146 -0.1371  0.1018 -0.5390
 3367SOL    HW121563   3.846   2.646   5.073 -0.5979  0.8199 -1.1775
 3367SOL    HW221564   3.909   2.688   5.210 -0.4170  1.1734  0.0767
 3368SOL     OW21565   1.884   2.398   7.791  0.1197  0.2016 -0.4884
 3368SOL    HW121566   1.871   2.324   7.850 -0.5462 -1.8085 -3.1346
 3368SOL    HW221567   1.801   2.389   7.745  1.3675 -1.5566 -2.4144
 3369SOL     OW21568   0.737   1.242   2.302 -0.3657 -0.5299  0.8967
 3369SOL    HW121569   0.763   1.239   2.394  2.1445 -1.2291  0.1476
 3369SOL    HW221570   0.800   1.296   2.255 -0.1894 -3.1431 -1.8024
 3370SOL     OW21571   3.175   4.676  15.267  0.1904 -0.1407  0.0588
 3370SOL    HW121572   3.154   4.604  15.326  0.3049 -2.2184 -2.4346
 3370SOL    HW221573   3.126   4.654  15.188  0.8687  1.5011 -0.8215
 3371SOL     OW21574   2.835   0.207   1.227  0.2213  0.5321  0.9014
 3371SOL    HW121575   2.884   0.171   1.154 -0.0967  1.2974  0.3076
 3371SOL    HW221576   2.783   0.273   1.181  0.5188 -0.5838 -1.0385
 3372SOL     OW21577   1.175   3.224  16.675  0.1493  0.2713  0.0057
 3372SOL    HW121578   1.220   3.231  16.759  0.7925 -0.2676 -0.3004
 3372SOL    HW221579   1.185   3.316  16.650  0.1221 -0.1588 -1.6244
 3373SOL     OW21580   3.374   0.172   9.334 -0.4125 -0.2280  0.3427
 3373SOL    HW121581   3.464   0.201   9.347 -0.1938  0.4927 -2.8290
 3373SOL    HW221582   3.377   0.080   9.363 -2.3624  0.1059  1.5958
 3374SOL     OW21583   4.086   1.653   6.371 -0.1064 -0.3099 -0.3984
 3374SOL    HW121584   4.163   1.703   6.344  0.7573 -1.5985 -0.3714
 3374SOL    HW221585   4.103   1.566   6.332 -1.4887 -0.2378 -1.1542
 3375SOL     OW21586   1.444   4.195   2.776  0.2065  0.3566  0.7650
 3375SOL    HW121587   1.388   4.229   2.706  0.6493 -0.3266  0.0780
 3375SOL    HW221588   1.519   4.254   2.767  0.7342 -0.3110  0.7580
 3376SOL     OW21589   3.958   0.518  13.017 -0.2820 -0.4099 -0.5070
 3376SOL    HW121590   3.897   0.506  12.944 -0.5940 -0.2027 -0.2805
 3376SOL    HW221591   4.011   0.440  13.000  0.6861 -0.1183  1.2339
 3377SOL     OW21592   2.820   0.937  10.931 -0.0165 -0.1031 -0.0681
 3377SOL    HW121593   2.728   0.923  10.912 -0.4790  1.4933  1.0309
 3377SOL    HW221594   2.859   0.850  10.929 -0.9729 -0.5625  1.0418
 3378SOL     OW21595   2.680   0.488  10.377 -0.0573  0.2307  0.3202
 3378SOL    HW121596   2.665   0.449  10.291  0.4474  0.6144  0.0588
 3378SOL    HW221597   2.767   0.524  10.358 -0.5091  1.6755  0.9994
 3379SOL     OW21598   3.489   3.909   8.398 -0.3902  0.5372 -0.5950
 3379SOL    HW121599   3.431   3.934   8.327 -2.6890  0.7152  1.3484
 3379SOL    HW221600   3.564   3.864   8.359 -1.2741 -1.2882 -0.1830
 3380SOL     OW21601   2.703   0.204  10.227 -0.1063  0.7503 -0.2573
 3380SOL    HW121602   2.698   0.219  10.321 -0.5024  0.2819 -0.2076
 3380SOL    HW221603   2.628   0.255  10.196 -0.8040 -0.0786  0.0582
 3381SOL     OW21604   3.861   0.968   7.427  0.5227  0.4238 -0.3742
 3381SOL    HW121605   3.835   1.046   7.475 -2.8005 -0.7074 -0.3224
 3381SOL    HW221606   3.955   0.987   7.434  0.4883  0.3189  0.3244
 3382SOL     OW21607   4.678   3.746   3.282  0.0070 -0.2123  0.7145
 3382SOL    HW121608   0.015   3.803   3.328 -1.4308  0.4131  1.8564
 3382SOL    HW221609   4.686   3.660   3.324  0.0624 -1.1461 -1.2226
 3383SOL     OW21610   3.698   0.127   6.867 -0.0283 -0.0408 -0.1196
 3383SOL    HW121611   3.791   0.122   6.889 -0.4292 -1.1819  1.3382
 3383SOL    HW221612   3.684   0.068   6.793 -3.6922  0.0568  0.4663
 3384SOL     OW21613   3.017   1.313   4.665 -0.6281 -0.0965 -0.2062
 3384SOL    HW121614   3.093   1.265   4.698 -0.6083  0.3232  0.3610
 3384SOL    HW221615   2.953   1.271   4.723 -0.5725  2.0931  1.4691
 3385SOL     OW21616   3.607   1.424   7.119  0.3996  0.1181 -1.0638
 3385SOL    HW121617   3.594   1.385   7.206 -0.2682 -0.8326 -1.5810
 3385SOL    HW221618   3.552   1.369   7.062 -3.3637  0.7628  1.9677
 3386SOL     OW21619   4.339   2.754  10.397 -0.0225  0.4347 -0.3849
 3386SOL    HW121620   4.288   2.754  10.316 -0.8386  0.2772  0.1243
 3386SOL    HW221621   4.394   2.680  10.369  0.1754  0.8690 -1.1387
 3387SOL     OW21622   2.112   0.166   2.349  0.7590  0.4392  0.1345
 3387SOL    HW121623   2.064   0.179   2.430 -1.4683  0.9416 -1.2528
 3387SOL    HW221624   2.055   0.222   2.296  3.5275  1.4386 -1.8037
 3388SOL     OW21625   1.141   1.413   9.217 -0.6357 -0.3442 -0.1391
 3388SOL    HW121626   1.183   1.424   9.131 -2.1353 -0.6059 -0.8959
 3388SOL    HW221627   1.222   1.404   9.267 -1.1149  2.4050  1.1376
 3389SOL     OW21628   0.805   4.460   1.955  0.5433  0.3085  0.0772
 3389SOL    HW121629   0.783   4.499   1.870  0.6844 -0.4704 -0.3202
 3389SOL    HW221630   0.892   4.493   1.978  0.9226 -1.2745  0.8604
 3390SOL     OW21631   2.751   3.153   6.878 -0.5508 -0.3901  0.0610
 3390SOL    HW121632   2.753   3.236   6.831  0.0234 -0.0138  0.7510
 3390SOL    HW221633   2.730   3.187   6.965  1.2466  0.1108  0.3034
 3391SOL     OW21634   1.408   1.082   3.707 -0.1804  0.0744 -0.4898
 3391SOL    HW121635   1.480   1.144   3.704 -0.9459  0.9367 -0.9377
 3391SOL    HW221636   1.366   1.126   3.782  1.1245 -1.9212  1.4156
 3392SOL     OW21637   0.817   1.431   3.355  0.5210 -0.0146 -0.1770
 3392SOL    HW121638   0.826   1.522   3.327  0.7788  0.2500  0.7545
 3392SOL    HW221639   0.881   1.388   3.298  1.0546  1.7540 -0.8992
 3393SOL     OW21640   1.107   2.735   5.213  0.0256  0.0993 -0.0240
 3393SOL    HW121641   1.184   2.792   5.204  0.0303  0.4969  2.5428
 3393SOL    HW221642   1.026   2.786   5.209  0.1440  0.3577  0.9600
 3394SOL     OW21643   3.270   0.547   6.288  0.3809 -0.1775 -0.0620
 3394SOL    HW121644   3.335   0.511   6.227 -1.6861  0.8506 -2.8803
 3394SOL    HW221645   3.208   0.475   6.299 -0.0837  0.7371  3.1785
 3395SOL     OW21646   1.874   1.888   8.981 -0.2445  0.3312 -0.5647
 3395SOL    HW121647   1.947   1.937   8.942  0.4097 -0.4307 -0.3075
 3395SOL    HW221648   1.919   1.837   9.049  1.2210  2.0698 -0.2234
 3396SOL     OW21649   2.580   4.485   2.449  0.4719  0.0758  0.3843
 3396SOL    HW121650   2.607   4.451   2.364  1.2449 -0.4423  0.8424
 3396SOL    HW221651   2.616   4.574   2.441  1.4588 -0.2299  1.4213
 3397SOL     OW21652   2.437   0.688   8.288 -0.1809 -0.0426  0.1754
 3397SOL    HW121653   2.461   0.705   8.379 -1.9369  3.1555  0.0045
 3397SOL    HW221654   2.460   0.595   8.276 -2.2851 -0.8510  2.4790
 3398SOL     OW21655   0.757   3.107  11.713 -0.6439 -0.2430  0.4166
 3398SOL    HW121656   0.706   3.029  11.734 -2.0340  0.6686  0.4205
 3398SOL    HW221657   0.831   3.076  11.661  0.9380 -1.7900  3.6133
 3399SOL     OW21658   3.367   2.394   2.259 -0.9869  0.3856 -0.0706
 3399SOL    HW121659   3.412   2.361   2.181  0.2661 -1.3060  1.3786
 3399SOL    HW221660   3.448   2.403   2.308 -0.0122  3.7070 -2.3299
 3400SOL     OW21661   2.740   3.641   3.968  0.0026 -0.1271  0.1986
 3400SOL    HW121662   2.693   3.683   3.896 -2.1287  1.0370  2.2513
 3400SOL    HW221663   2.770   3.568   3.915  0.6294  0.4119 -0.1886
 3401SOL     OW21664   3.914   0.123  13.202  0.0574 -0.9450  0.0603
 3401SOL    HW121665   3.959   0.082  13.276  1.1451  0.1183 -0.0247
 3401SOL    HW221666   3.829   0.128  13.246 -0.1554  0.3544 -0.5092
 3402SOL     OW21667   3.072   4.077   4.432 -0.0300 -0.0596 -0.0935
 3402SOL    HW121668   3.154   4.106   4.473 -0.7734  0.5580  0.9709
 3402SOL    HW221669   3.052   3.997   4.480 -1.2295 -0.3951 -1.1718
 3403SOL     OW21670   0.404   0.758   2.702 -0.2208 -0.1036 -0.2888
 3403SOL    HW121671   0.357   0.675   2.702  2.2373 -1.4863  1.7732
 3403SOL    HW221672   0.475   0.740   2.764 -0.3955 -0.3438 -0.1587
 3404SOL     OW21673   3.608   1.637  14.548 -0.2140 -0.5001  0.0754
 3404SOL    HW121674   3.677   1.572  14.563  1.1095  0.1870 -3.0555
 3404SOL    HW221675   3.565   1.615  14.466  1.1070  2.9819 -1.5335
 3405SOL     OW21676   3.203   1.488   4.524  0.1398  0.0939  0.4101
 3405SOL    HW121677   3.139   1.466   4.592 -1.0779 -0.3871 -0.9122
 3405SOL    HW221678   3.279   1.521   4.573  0.1122  2.2169 -1.0077
 3406SOL     OW21679   1.830   2.376   7.447 -0.0908  0.1800  0.0630
 3406SOL    HW121680   1.804   2.290   7.481 -0.8809  0.6059  0.5447
 3406SOL    HW221681   1.878   2.355   7.367  1.8750 -0.5474  1.4434
 3407SOL     OW21682   2.441   3.543   6.632  0.3407 -0.4671 -0.2912
 3407SOL    HW121683   2.474   3.590   6.556  1.1061 -1.0717 -0.3368
 3407SOL    HW221684   2.436   3.450   6.608 -0.7399 -0.5432  0.2519
 3408SOL     OW21685   2.806   2.834   3.521  0.0837  0.0038 -0.1071
 3408SOL    HW121686   2.787   2.804   3.433 -0.8559 -0.2071  0.1653
 3408SOL    HW221687   2.876   2.776   3.551 -1.3783 -0.3830  2.6077
 3409SOL     OW21688   1.191   3.165   9.345 -0.3569 -0.1567  0.2018
 3409SOL    HW121689   1.102   3.130   9.343  0.0113 -1.1829  1.6579
 3409SOL    HW221690   1.202   3.219   9.423  0.2564 -1.0761  0.7575
 3410SOL     OW21691   3.298   1.670   2.022 -0.0275  0.0823  0.6682
 3410SOL    HW121692   3.378   1.646   2.067 -0.9095  0.5588  2.4644
 3410SOL    HW221693   3.246   1.590   2.018 -0.3232  0.3397 -0.8246
 3411SOL     OW21694   2.109   1.292   7.664 -0.1976 -0.1996 -0.2540
 3411SOL    HW121695   2.095   1.383   7.691 -0.7470 -0.5438  0.6090
 3411SOL    HW221696   2.092   1.247   7.747 -1.0580  2.6318  1.0896
 3412SOL     OW21697   2.103   1.788   4.575 -0.1048 -0.6145  0.2213
 3412SOL    HW121698   2.020   1.758   4.613  0.2476 -1.7486  0.1038
 3412SOL    HW221699   2.111   1.722   4.507  2.0798 -0.9487  0.8156
 3413SOL     OW21700   1.510   1.333   1.501 -0.0125  0.3038  0.0220
 3413SOL    HW121701   1.514   1.253   1.553  0.2011 -0.1175 -0.6521
 3413SOL    HW221702   1.604   1.345   1.489  0.3374 -2.2737  0.1763
 3414SOL     OW21703   3.153   1.904   2.780  0.3236  0.0117 -0.4136
 3414SOL    HW121704   3.195   1.904   2.867  0.4146  1.5766 -0.4686
 3414SOL    HW221705   3.215   1.959   2.732  1.1710  0.0931  0.7563
 3415SOL     OW21706   3.663   4.583   4.122  0.8451 -0.0392  0.9005
 3415SOL    HW121707   3.574   4.555   4.145 -0.0084  1.7657 -0.1532
 3415SOL    HW221708   3.704   4.499   4.101  0.4700 -0.1396  0.5579
 3416SOL     OW21709   4.610   3.337   2.176  0.7028 -0.0720 -0.2228
 3416SOL    HW121710   4.617   3.293   2.092  0.2801 -1.3578  0.4134
 3416SOL    HW221711   4.625   3.427   2.148 -1.1684  0.5235  0.6301
 3417SOL     OW21712   2.307   1.793   1.428  0.1068  0.5732  0.3634
 3417SOL    HW121713   2.365   1.739   1.374  0.0199  1.1451 -0.3095
 3417SOL    HW221714   2.365   1.868   1.437  0.6573  0.5195 -2.7319
 3418SOL     OW21715   0.054   1.553   2.102 -0.2331  0.4594 -0.5751
 3418SOL    HW121716   4.708   1.515   2.156 -1.8573  0.9341 -2.3401
 3418SOL    HW221717   4.722   1.597   2.038 -0.4504  2.2121  0.8341
 3419SOL     OW21718   0.431   2.406   7.205 -0.1109  0.3024  0.1149
 3419SOL    HW121719   0.526   2.399   7.214 -0.1160 -1.1292 -0.8147
 3419SOL    HW221720   0.405   2.466   7.274  1.6372  0.4843  0.6117
 3420SOL     OW21721   2.332   2.519   2.356  0.0076 -0.5194 -0.5362
 3420SOL    HW121722   2.334   2.482   2.268  1.6778 -0.5812 -0.4882
 3420SOL    HW221723   2.264   2.585   2.342  0.1071 -0.7539 -2.1783
 3421SOL     OW21724   3.440   4.574   9.773  0.2344  0.0113  0.1473
 3421SOL    HW121725   3.359   4.597   9.727 -0.4918 -1.2282  0.8107
 3421SOL    HW221726   3.452   4.484   9.746 -0.4979 -0.5248  1.5835
 3422SOL     OW21727   0.399   0.633   2.412  0.3261  0.0313 -0.9869
 3422SOL    HW121728   0.419   0.688   2.487 -2.2562 -0.6038  0.1844
 3422SOL    HW221729   0.391   0.541   2.437 -1.5782  0.1650 -1.0504
 3423SOL     OW21730   3.433   0.969   4.409 -0.5450  0.2286 -0.0319
 3423SOL    HW121731   3.386   0.891   4.438  0.4938 -0.8302 -1.2636
 3423SOL    HW221732   3.506   0.928   4.364 -1.4682 -3.9804  2.2898
 3424SOL     OW21733   0.345   0.113   8.143 -0.3298 -0.0541  0.1976
 3424SOL    HW121734   0.282   0.108   8.215  0.7784  1.7161  1.3143
 3424SOL    HW221735   0.422   0.146   8.189 -0.7092 -0.5637  1.1944
 3425SOL     OW21736   2.888   4.598   0.592 -0.1821 -0.0353  1.0670
 3425SOL    HW121737   2.891   4.693   0.597  0.4264 -0.1747  3.4990
 3425SOL    HW221738   2.977   4.584   0.560 -1.0201  1.2418 -1.7988
 3426SOL     OW21739   0.649   2.359   9.047  0.1029 -0.3198 -0.0618
 3426SOL    HW121740   0.595   2.293   9.090  0.1051  0.2418  0.7885
 3426SOL    HW221741   0.664   2.420   9.118  1.6729  0.6434 -1.2327
 3427SOL     OW21742   2.439   3.661  17.640 -0.4210  0.7334  0.1953
 3427SOL    HW121743   2.400   3.590  17.691 -1.4385  1.7265  0.8042
 3427SOL    HW221744   2.462   3.720   0.012  2.1037  2.1186 -1.7424
 3428SOL     OW21745   2.047   4.591   5.131 -0.4656 -0.2238  0.3607
 3428SOL    HW121746   1.975   4.542   5.172 -0.6214  2.2827  3.0855
 3428SOL    HW221747   2.076   4.539   5.057  2.4158 -0.8346  1.9394
 3429SOL     OW21748   2.394   3.923   3.419 -0.1204  0.2663  0.2096
 3429SOL    HW121749   2.424   4.000   3.467 -2.4760  0.8055  0.8536
 3429SOL    HW221750   2.314   3.903   3.468 -0.4066  0.5710 -0.1321
 3430SOL     OW21751   0.632   2.086   1.291  0.1778  1.0867 -0.5402
 3430SOL    HW121752   0.546   2.109   1.326 -0.0203 -1.3769  0.6190
 3430SOL    HW221753   0.620   2.118   1.201 -1.8659  3.1219  0.4746
 3431SOL     OW21754   0.932   0.472   9.625 -0.3120  0.2878 -0.0276
 3431SOL    HW121755   0.964   0.545   9.571 -0.1841 -0.6236 -1.1719
 3431SOL    HW221756   0.892   0.524   9.695 -0.3649  0.8747 -0.4962
 3432SOL     OW21757   2.982   2.947   8.938 -0.2096  0.1399  0.0869
 3432SOL    HW121758   3.037   2.955   9.016  1.0432  3.1719 -1.1204
 3432SOL    HW221759   3.050   2.953   8.870  0.1641  0.4360  0.4873
 3433SOL     OW21760   0.978   3.330  15.608 -0.0493 -0.1759  0.5772
 3433SOL    HW121761   0.990   3.423  15.628 -0.2677  0.1428 -0.8326
 3433SOL    HW221762   1.044   3.309  15.543 -0.0165 -0.0141  0.5585
 3434SOL     OW21763   4.117   3.279   4.693  0.0814  0.2934  0.1392
 3434SOL    HW121764   4.143   3.281   4.601  0.9392 -1.1787  0.3643
 3434SOL    HW221765   4.128   3.186   4.713  1.1755  0.5090  0.4992
 3435SOL     OW21766   2.807   4.035   9.028  0.4118 -0.1095  0.4002
 3435SOL    HW121767   2.824   3.951   8.985 -2.3579 -0.9159  0.9118
 3435SOL    HW221768   2.820   4.100   8.958 -2.3305 -0.1793 -0.1668
 3436SOL     OW21769   3.006   3.992   6.503 -0.0922 -0.4829  0.1869
 3436SOL    HW121770   3.057   4.013   6.425  0.9232  2.9677  1.7519
 3436SOL    HW221771   3.044   4.060   6.560 -1.5253  0.6322 -0.1934
 3437SOL     OW21772   4.684   1.581   6.392 -0.1035 -0.3529 -0.2809
 3437SOL    HW121773   4.592   1.557   6.402 -0.2567  0.1210 -0.5586
 3437SOL    HW221774   4.679   1.654   6.330 -1.7110 -0.2672 -0.0601
 3438SOL     OW21775   1.459   1.212   2.559  0.6373 -0.5604  0.6757
 3438SOL    HW121776   1.492   1.150   2.624  0.5771 -0.4440  0.8178
 3438SOL    HW221777   1.367   1.186   2.558  1.0448 -1.9779 -0.8310
 3439SOL     OW21778   3.238   4.285   7.121  0.5261 -0.2996  0.0344
 3439SOL    HW121779   3.190   4.216   7.167  2.2863  0.2318  2.6618
 3439SOL    HW221780   3.317   4.239   7.094 -0.8101 -2.6301  0.0678
 3440SOL     OW21781   2.105   4.144   4.807  0.1554  0.4128  0.5814
 3440SOL    HW121782   2.089   4.105   4.893 -0.6812 -0.0791  0.2044
 3440SOL    HW221783   2.118   4.236   4.829 -1.0215  0.4804  0.9776
 3441SOL     OW21784   3.649   0.870   7.122  0.3697  0.0704 -0.0085
 3441SOL    HW121785   3.625   0.786   7.082 -2.2267  0.2636  1.1155
 3441SOL    HW221786   3.695   0.916   7.052  2.7325  0.5131  1.8283
 3442SOL     OW21787   3.920   0.459   6.594  0.1047  0.0793  0.9450
 3442SOL    HW121788   3.841   0.417   6.558 -0.3735  1.1047  0.8119
 3442SOL    HW221789   3.924   0.527   6.527 -3.1681 -1.8906 -1.2759
 3443SOL     OW21790   1.234   2.585   5.919 -0.4672 -0.1035 -0.1886
 3443SOL    HW121791   1.231   2.490   5.935  2.4630 -0.1293  0.1839
 3443SOL    HW221792   1.247   2.570   5.825 -1.6844  1.3467 -0.5902
 3444SOL     OW21793   3.038   1.292  15.935  0.0729 -0.3433  0.4019
 3444SOL    HW121794   2.949   1.257  15.929  1.5159 -4.2473  1.5093
 3444SOL    HW221795   3.084   1.225  15.883  0.0639 -1.3341  1.6775
 3445SOL     OW21796   3.125   2.289   1.391  0.0639  0.4079  0.3815
 3445SOL    HW121797   3.216   2.297   1.420 -0.0204 -0.0022  0.7675
 3445SOL    HW221798   3.085   2.263   1.474 -0.4575  1.5850  0.5041
 3446SOL     OW21799   0.439   1.738   9.123 -0.1261  0.0358  0.1135
 3446SOL    HW121800   0.391   1.767   9.201  1.2604  2.2243  0.1783
 3446SOL    HW221801   0.518   1.701   9.161 -1.1573 -1.1294  1.1160
 3447SOL     OW21802   1.828   0.376  17.131  0.3239 -0.4661 -0.0856
 3447SOL    HW121803   1.763   0.416  17.189  0.1921 -1.3558  0.3701
 3447SOL    HW221804   1.800   0.414  17.048 -3.2634 -4.7845 -0.8100
 3448SOL     OW21805   4.535   3.049   7.198 -0.4771  0.1050  0.1168
 3448SOL    HW121806   4.586   3.076   7.122  3.1748  0.9517  2.9176
 3448SOL    HW221807   4.568   3.114   7.260  0.2482 -0.2904  0.1447
 3449SOL     OW21808   2.536   3.814   6.229  0.4369  0.1160 -0.1666
 3449SOL    HW121809   2.596   3.792   6.300 -2.4480 -2.4181  1.4913
 3449SOL    HW221810   2.559   3.905   6.210  0.3690  0.2277  0.2944
 3450SOL     OW21811   4.615   1.307  13.503 -0.0431 -1.2232  0.0063
 3450SOL    HW121812   4.711   1.301  13.505  0.0283  0.3350  1.4426
 3450SOL    HW221813   4.585   1.226  13.461 -0.0370 -1.5033  0.5462
 3451SOL     OW21814   1.874   2.374   3.843  0.4168 -0.5567  0.4046
 3451SOL    HW121815   1.878   2.433   3.767 -1.2226  0.8413  1.4058
 3451SOL    HW221816   1.796   2.400   3.891 -0.3099 -2.2405  0.1216
 3452SOL     OW21817   4.439   4.378  16.810  0.0221  0.3058 -0.3618
 3452SOL    HW121818   4.531   4.375  16.835 -0.3899  1.4471  1.2981
 3452SOL    HW221819   4.434   4.432  16.731 -0.9983 -0.1474 -0.6089
 3453SOL     OW21820   1.283   0.235   2.721  0.3948 -0.0841 -0.0120
 3453SOL    HW121821   1.322   0.307   2.771 -0.1507 -0.2455  0.6512
 3453SOL    HW221822   1.271   0.175   2.795  0.7150 -0.7526 -0.4990
 3454SOL     OW21823   0.055   0.022   9.068 -0.0796 -0.3891 -0.1228
 3454SOL    HW121824   0.060   4.660   9.110  0.5486  0.0238  0.6430
 3454SOL    HW221825   4.688   0.039   9.092 -0.5289 -2.5419 -0.2327
 3455SOL     OW21826   1.719   4.169   5.049  0.0689  0.2776 -0.6290
 3455SOL    HW121827   1.727   4.255   5.008  1.8149  1.0432  1.2801
 3455SOL    HW221828   1.799   4.170   5.101  0.2960 -0.7914 -0.9647
 3456SOL     OW21829   0.914   1.608   4.757 -0.2263  0.1847 -0.1890
 3456SOL    HW121830   0.971   1.537   4.787 -0.2865  0.5847  0.8826
 3456SOL    HW221831   0.899   1.656   4.839 -1.4398 -1.4996  0.5806
 3457SOL     OW21832   4.666   1.746   2.655  0.0639  0.3003  0.3613
 3457SOL    HW121833   0.014   1.799   2.686  2.1021 -1.6748 -1.0048
 3457SOL    HW221834   4.683   1.740   2.561  3.0785 -0.9968  0.9841
 3458SOL     OW21835   2.059   2.590   3.207  0.0614 -0.3833  0.0884
 3458SOL    HW121836   2.092   2.680   3.205 -1.0621  0.0035 -0.9201
 3458SOL    HW221837   2.145   2.552   3.227 -0.5001 -0.5079  2.1794
 3459SOL     OW21838   2.016   3.933   8.162 -0.2491  0.7922  0.1262
 3459SOL    HW121839   1.977   3.961   8.245  0.4035  2.3811 -0.1001
 3459SOL    HW221840   2.107   3.913   8.187  0.0072  0.7202 -0.8475
 3460SOL     OW21841   3.819   2.825   0.400  0.2185  0.2613 -0.5785
 3460SOL    HW121842   3.767   2.755   0.360  0.3681 -0.3776  0.3384
 3460SOL    HW221843   3.780   2.836   0.487 -1.4083  1.1477 -1.4236
 3461SOL     OW21844   1.835   2.216  11.285 -0.0060  0.3870  0.4187
 3461SOL    HW121845   1.893   2.140  11.291 -0.4469 -0.1008 -1.5988
 3461SOL    HW221846   1.900   2.280  11.254  2.2543 -1.9597  0.3338
 3462SOL     OW21847   3.024   4.008   1.309  0.0064  0.0612  0.1874
 3462SOL    HW121848   3.009   3.916   1.331  0.7897 -0.8012 -2.8880
 3462SOL    HW221849   2.946   4.026   1.256 -0.5340 -0.2262  0.8931
 3463SOL     OW21850   3.579   2.527   4.601  0.0734  0.3797  0.3449
 3463SOL    HW121851   3.494   2.481   4.600 -0.5343  1.5092  0.2398
 3463SOL    HW221852   3.631   2.466   4.549 -1.7000 -1.4140  0.6718
 3464SOL     OW21853   4.694   3.251   3.483 -0.1263  0.1733 -0.9130
 3464SOL    HW121854   4.680   3.317   3.415 -2.4886 -0.4958 -1.0483
 3464SOL    HW221855   0.019   3.186   3.431 -2.2012 -2.2761  0.1869
 3465SOL     OW21856   4.164   1.580   2.699 -0.7240  0.7144 -0.3489
 3465SOL    HW121857   4.165   1.627   2.782  0.8503  0.5443 -0.2660
 3465SOL    HW221858   4.257   1.563   2.682 -0.3090  0.0968  2.5525
 3466SOL     OW21859   2.487   4.452   6.969 -0.1941  0.4589 -0.6922
 3466SOL    HW121860   2.509   4.359   6.974 -0.6175  0.4391  0.7620
 3466SOL    HW221861   2.485   4.467   7.063  0.1371 -1.5529 -0.3685
 3467SOL     OW21862   1.791   4.647   1.632 -0.2179  0.1056 -0.4004
 3467SOL    HW121863   1.863   4.674   1.575  0.9862 -2.1872  0.0392
 3467SOL    HW221864   1.734   4.721   1.611  1.5141  1.2097 -1.2779
 3468SOL     OW21865   3.096   0.588   9.640  0.4554 -0.8601 -0.4401
 3468SOL    HW121866   3.089   0.594   9.736  1.5134 -1.9560 -0.2877
 3468SOL    HW221867   3.126   0.673   9.609 -3.3847  0.0619 -1.6589
 3469SOL     OW21868   1.399   2.265  13.397 -0.7041 -0.1492  0.1515
 3469SOL    HW121869   1.436   2.218  13.322  0.2237  1.7545 -0.5807
 3469SOL    HW221870   1.320   2.212  13.410 -1.0038  0.4886  0.9257
 3470SOL     OW21871   4.151   1.909   8.275  0.6206  0.3722 -0.3419
 3470SOL    HW121872   4.088   1.848   8.314  0.8278  0.3776 -0.0029
 3470SOL    HW221873   4.107   1.993   8.268 -1.7232 -1.0244 -2.2320
 3471SOL     OW21874   0.816   1.443   6.908  0.8407  0.2339 -0.2957
 3471SOL    HW121875   0.793   1.362   6.862  2.4884 -0.5183  0.2479
 3471SOL    HW221876   0.734   1.463   6.953  0.2328 -2.7390 -0.1131
 3472SOL     OW21877   3.640   1.095   4.126 -0.1119  0.6801 -0.6790
 3472SOL    HW121878   3.667   1.022   4.182  0.7097  0.4973 -1.3161
 3472SOL    HW221879   3.723   1.138   4.105  0.4424  0.0821  0.3073
 3473SOL     OW21880   0.429   0.084   3.829 -0.3821  0.1483  0.1237
 3473SOL    HW121881   0.388   0.115   3.911 -0.8753 -1.1188  0.3557
 3473SOL    HW221882   0.483   0.017   3.870 -2.2684 -1.1803  0.4274
 3474SOL     OW21883   2.267   0.084   7.698  0.3554  0.2403 -0.8995
 3474SOL    HW121884   2.313   0.053   7.620 -0.0980 -1.4869 -0.4762
 3474SOL    HW221885   2.327   0.063   7.769 -2.1158 -2.7909  0.3374
 3475SOL     OW21886   1.219   2.095   3.765 -0.2052  0.6116  0.6220
 3475SOL    HW121887   1.191   2.094   3.856  2.7824  0.3894  1.5560
 3475SOL    HW221888   1.178   2.010   3.750  0.4539  0.6447 -1.3789
 3476SOL     OW21889   4.233   1.379   6.521 -0.3472 -0.3556 -0.0730
 3476SOL    HW121890   4.264   1.297   6.561  0.2207 -0.9375 -1.6987
 3476SOL    HW221891   4.142   1.380   6.551 -0.1599  2.1625  0.4328
 3477SOL     OW21892   2.043   0.364  16.677 -0.3059  0.1859 -0.0468
 3477SOL    HW121893   1.972   0.326  16.625 -2.7388 -0.4266  3.6978
 3477SOL    HW221894   2.033   0.330  16.766 -0.0393 -0.3935 -0.2370
 3478SOL     OW21895   1.054   0.450   8.260  0.3030  0.1168  0.1951
 3478SOL    HW121896   1.099   0.389   8.319 -0.6058  1.5056  2.3211
 3478SOL    HW221897   1.067   0.537   8.296 -1.4239  0.5405 -0.1943
 3479SOL     OW21898   3.582   2.011   3.255 -0.0913 -0.0051  0.3935
 3479SOL    HW121899   3.535   2.023   3.173  1.1594 -1.3855 -0.5191
 3479SOL    HW221900   3.662   2.062   3.239 -0.7445  0.4990 -1.2536
 3480SOL     OW21901   2.650   1.538   5.823 -0.4105 -0.1838  0.1538
 3480SOL    HW121902   2.736   1.507   5.850  0.6646  1.5186 -1.3760
 3480SOL    HW221903   2.605   1.576   5.899  1.3243  2.1728 -0.0257
 3481SOL     OW21904   0.558   2.339   3.763  0.4473  0.3911  0.0029
 3481SOL    HW121905   0.531   2.347   3.671 -0.4761  4.5643  0.6084
 3481SOL    HW221906   0.616   2.264   3.749  2.0418  1.1366  2.5537
 3482SOL     OW21907   0.576   1.878   2.860 -0.1762  0.1151  0.3336
 3482SOL    HW121908   0.522   1.799   2.867  0.7660 -0.5713 -0.1177
 3482SOL    HW221909   0.562   1.920   2.945  1.0751  0.0791  0.5553
 3483SOL     OW21910   1.314   1.128   7.895  0.1271 -0.3853 -0.3667
 3483SOL    HW121911   1.349   1.204   7.941 -2.3725  1.8108 -2.0555
 3483SOL    HW221912   1.266   1.092   7.970 -2.0597  1.4329 -0.8763
 3484SOL     OW21913   1.155   0.414  16.129 -0.6829  0.1688 -0.1011
 3484SOL    HW121914   1.160   0.493  16.076 -0.1351 -0.5804 -1.1723
 3484SOL    HW221915   1.242   0.384  16.154 -0.4919  0.8708  0.0723
 3485SOL     OW21916   3.851   2.310   9.181  0.1714 -0.1634 -0.5505
 3485SOL    HW121917   3.829   2.257   9.104  3.0933 -1.2632 -0.6192
 3485SOL    HW221918   3.798   2.272   9.251  0.5414 -0.9748 -0.7182
 3486SOL     OW21919   1.948   0.780   4.838 -0.5174  0.1657  0.0723
 3486SOL    HW121920   1.882   0.840   4.874  0.1203 -0.0377  1.5327
 3486SOL    HW221921   1.975   0.725   4.910 -2.2710 -0.1311  0.5093
 3487SOL     OW21922   1.095   4.028   4.613  0.3034 -0.0452 -0.0001
 3487SOL    HW121923   1.129   4.059   4.529 -0.2354 -0.4239 -0.3534
 3487SOL    HW221924   1.127   3.938   4.606  0.1710 -0.1312  0.5761
 3488SOL     OW21925   1.535   4.284   8.975  0.1696 -0.1755  0.3690
 3488SOL    HW121926   1.513   4.298   8.883  1.2005 -0.9578  0.0005
 3488SOL    HW221927   1.448   4.262   9.007 -0.1925 -0.9097 -1.1414
 3489SOL     OW21928   1.683   0.689  15.288 -0.0161 -0.1245  0.5296
 3489SOL    HW121929   1.696   0.597  15.311 -0.0468 -0.3331 -0.2913
 3489SOL    HW221930   1.591   0.693  15.265 -0.1293 -2.1768  0.5882
 3490SOL     OW21931   1.760   1.484   7.526  0.2649  0.0294  0.1290
 3490SOL    HW121932   1.850   1.460   7.504  0.0522 -0.3022 -0.3760
 3490SOL    HW221933   1.724   1.537   7.455 -0.7038  0.7416  1.1316
 3491SOL     OW21934   0.098   2.926  10.472  0.1640  0.7464 -0.3213
 3491SOL    HW121935   0.023   2.971  10.511 -0.4488 -0.6002  0.0640
 3491SOL    HW221936   0.062   2.839  10.456 -0.5388  0.7572  1.1184
 3492SOL     OW21937   2.894   2.710   3.283 -0.2134 -0.0222  0.0493
 3492SOL    HW121938   2.811   2.732   3.242  0.4365  0.7855 -0.8488
 3492SOL    HW221939   2.930   2.635   3.237  1.8186  0.6803  0.4679
 3493SOL     OW21940   0.687   1.626  14.012  0.5935 -0.8352  0.3952
 3493SOL    HW121941   0.605   1.593  13.974 -0.1738  0.4742  0.8803
 3493SOL    HW221942   0.645   1.662  14.091  0.5879 -0.9060  0.4243
 3494SOL     OW21943   3.613   3.421  14.730  0.2401  0.6977  0.2425
 3494SOL    HW121944   3.620   3.328  14.754  1.3522  1.1916  1.8446
 3494SOL    HW221945   3.704   3.447  14.745  0.4821 -0.0869  0.1751
 3495SOL     OW21946   1.049   4.567  17.429 -0.4495 -0.2456 -0.4149
 3495SOL    HW121947   1.049   4.530  17.517  3.0384 -1.2577 -0.8405
 3495SOL    HW221948   1.076   4.659  17.433  1.2295 -0.7031 -1.2920
 3496SOL     OW21949   2.565   1.762   3.921 -0.1687  0.0754 -0.0677
 3496SOL    HW121950   2.510   1.778   3.843  0.6975 -1.5435 -1.0215
 3496SOL    HW221951   2.599   1.847   3.949  0.7482  0.2371 -1.6571
 3497SOL     OW21952   3.515   1.013  15.829 -0.3222 -0.3402 -0.1053
 3497SOL    HW121953   3.438   1.069  15.823  0.4612  0.3993 -3.1633
 3497SOL    HW221954   3.472   0.928  15.841  0.2383 -0.7952 -1.3692
 3498SOL     OW21955   3.656   1.179   3.071 -0.0735  0.4528 -0.3880
 3498SOL    HW121956   3.584   1.218   3.023 -1.3950 -2.9226 -1.1853
 3498SOL    HW221957   3.615   1.174   3.157  1.0008  0.5324  0.1304
 3499SOL     OW21958   3.025   4.081   3.123  0.2735 -0.1927  0.3152
 3499SOL    HW121959   2.957   4.135   3.082  1.6539 -0.0673 -1.7718
 3499SOL    HW221960   3.001   3.991   3.098  1.5519  0.2496 -2.4003
 3500SOL     OW21961   3.634   2.135  13.734 -0.5217 -0.5491  0.0303
 3500SOL    HW121962   3.556   2.190  13.728 -0.0202 -0.0299 -1.7114
 3500SOL    HW221963   3.678   2.152  13.651 -1.7503  0.3629 -0.4396
 3501SOL     OW21964   2.259   0.289   9.300  0.3716 -0.7279 -0.0035
 3501SOL    HW121965   2.345   0.247   9.302  0.2776 -0.8622  1.0460
 3501SOL    HW221966   2.200   0.215   9.290 -0.1225 -0.2999 -0.2403
 3502SOL     OW21967   0.587   0.271  14.211  0.2257 -0.0530  0.0191
 3502SOL    HW121968   0.560   0.279  14.119 -0.1592  0.1908  0.1552
 3502SOL    HW221969   0.624   0.356  14.233  0.1720 -0.0124 -0.0465
 3503SOL     OW21970   3.478   3.260   6.603 -0.0583  0.3071  0.1445
 3503SOL    HW121971   3.414   3.261   6.674  2.3579 -2.6723  2.4132
 3503SOL    HW221972   3.460   3.170   6.576  1.2397  0.5181 -1.4598
 3504SOL     OW21973   1.574   2.595   5.502  0.0233  0.1502  0.2324
 3504SOL    HW121974   1.533   2.636   5.427 -0.2389 -0.7998 -0.1341
 3504SOL    HW221975   1.564   2.503   5.479 -0.7414  0.5836 -1.1274
 3505SOL     OW21976   4.241   1.200   9.819  0.4040 -0.3591 -0.4127
 3505SOL    HW121977   4.335   1.189   9.804  0.4350 -0.4308 -0.1726
 3505SOL    HW221978   4.230   1.185   9.913 -2.6454  2.0707 -0.4078
 3506SOL     OW21979   2.310   1.571   0.806 -0.4267  0.3782  0.0433
 3506SOL    HW121980   2.390   1.605   0.767 -1.7808  2.8194 -0.6044
 3506SOL    HW221981   2.274   1.512   0.740  0.7119  1.0021 -1.1128
 3507SOL     OW21982   2.034   0.204   2.597  0.1546  0.7063 -0.0247
 3507SOL    HW121983   2.093   0.278   2.584  1.2848 -0.3920 -1.0863
 3507SOL    HW221984   2.035   0.204   2.693 -0.4368 -0.3927 -0.0095
 3508SOL     OW21985   0.353   0.370   8.910  0.0848 -0.0498 -0.0956
 3508SOL    HW121986   0.316   0.283   8.892 -1.0410  0.0079  1.9285
 3508SOL    HW221987   0.411   0.357   8.985  0.8858 -0.8416 -0.8532
 3509SOL     OW21988   3.493   2.890   6.250  0.5226 -0.4503  0.5409
 3509SOL    HW121989   3.570   2.838   6.270  1.0237 -0.2208 -0.8142
 3509SOL    HW221990   3.444   2.823   6.201 -2.8442  0.1471  3.1211
 3510SOL     OW21991   2.843   4.149   0.242 -0.0140 -0.2473  0.0976
 3510SOL    HW121992   2.837   4.057   0.269  0.4776 -0.6050 -1.0241
 3510SOL    HW221993   2.874   4.131   0.154  0.2459  0.5950  0.0217
 3511SOL     OW21994   1.842   4.335   3.409 -0.2172  0.7218 -0.0623
 3511SOL    HW121995   1.835   4.288   3.325 -0.9404 -0.4401  0.6296
 3511SOL    HW221996   1.914   4.300   3.461 -1.6563 -0.2967  1.2487
 3512SOL     OW21997   0.768   4.027   2.671  0.3181 -0.1032 -0.2371
 3512SOL    HW121998   0.689   4.027   2.617  1.0599  2.3449 -1.3271
 3512SOL    HW221999   0.729   3.997   2.753 -1.8108 -0.6307 -1.4465
 3513SOL     OW22000   3.831   3.756   7.586  0.2098 -0.1662 -0.8489
 3513SOL    HW122001   3.747   3.713   7.572  0.7631 -0.4032 -3.4125
 3513SOL    HW222002   3.890   3.681   7.576  1.9183  0.8665  1.5704
 3514SOL     OW22003   3.496   4.178  14.185  0.1978 -0.3952 -0.0273
 3514SOL    HW122004   3.585   4.150  14.166  0.9339  1.5637  0.4599
 3514SOL    HW222005   3.506   4.246  14.252  2.1102 -2.5038  1.8043
 3515SOL     OW22006   4.449   4.006   4.740  0.2091 -0.0343 -0.5422
 3515SOL    HW122007   4.433   4.094   4.775 -1.0077 -0.7298  0.6627
 3515SOL    HW222008   4.368   3.994   4.690  1.4404  0.8264 -2.6877
 3516SOL     OW22009   4.572   0.747  12.657  0.0648 -0.0277 -0.4410
 3516SOL    HW122010   4.498   0.707  12.611  0.1215  0.4194 -0.9211
 3516SOL    HW222011   4.623   0.778  12.582  2.2140 -3.4283 -0.4059
 3517SOL     OW22012   4.204   0.622  16.022 -0.1490 -0.3021 -0.7904
 3517SOL    HW122013   4.268   0.595  16.088 -0.5488  0.9533  0.1147
 3517SOL    HW222014   4.131   0.571  16.058  0.9474 -2.4472 -1.5828
 3518SOL     OW22015   1.141   3.656   7.522  0.2775  0.5855  0.0530
 3518SOL    HW122016   1.134   3.735   7.467  0.8694  0.7033  0.1491
 3518SOL    HW222017   1.087   3.679   7.597 -0.9581 -1.3446 -0.2578
 3519SOL     OW22018   3.413   2.035   7.416 -0.6639 -0.1590  0.3264
 3519SOL    HW122019   3.425   1.948   7.380 -3.0483 -1.0943  1.7954
 3519SOL    HW222020   3.401   2.008   7.507 -0.5706 -0.1433  0.3434
 3520SOL     OW22021   2.713   4.435  10.375  0.1236 -0.3197 -0.0299
 3520SOL    HW122022   2.654   4.462  10.446  0.4693 -0.5187  0.3317
 3520SOL    HW222023   2.735   4.524  10.349  0.5779 -1.0759 -2.2075
 3521SOL     OW22024   4.077   3.898   6.941 -0.3197  0.4403  0.0210
 3521SOL    HW122025   3.984   3.898   6.917 -0.0814 -0.3704 -0.8794
 3521SOL    HW222026   4.070   3.871   7.033 -1.2638  0.1734 -0.1277
 3522SOL     OW22027   0.135   2.840   4.063 -0.3440  0.2335 -0.4266
 3522SOL    HW122028   0.203   2.788   4.020 -1.0764  0.2807 -1.6548
 3522SOL    HW222029   0.053   2.803   4.030 -0.2687 -0.1764 -0.1546
 3523SOL     OW22030   1.841   0.184   7.982 -0.0980 -0.2767  0.1031
 3523SOL    HW122031   1.908   0.138   7.931 -0.6075  0.1607 -0.9585
 3523SOL    HW222032   1.824   0.115   8.046 -2.4061  1.6318  1.5310
 3524SOL     OW22033   4.655   4.285   7.460  0.3695 -0.0490 -0.1357
 3524SOL    HW122034   0.026   4.291   7.462  0.4225 -0.7859 -0.5713
 3524SOL    HW222035   4.636   4.373   7.427  2.2470 -0.0898 -1.3212
 3525SOL     OW22036   1.977   1.526   1.712  0.0717  0.8984 -0.4187
 3525SOL    HW122037   1.977   1.431   1.723  0.1363  1.0651  1.0013
 3525SOL    HW222038   1.921   1.533   1.634 -1.6328 -0.1296  0.7111
 3526SOL     OW22039   3.089   4.128   4.151  0.0118 -0.2862 -0.3550
 3526SOL    HW122040   2.997   4.142   4.128 -0.4144 -0.4734  1.2384
 3526SOL    HW222041   3.071   4.093   4.239  0.5353  0.5574  0.0931
 3527SOL     OW22042   0.434   2.135  14.996  0.2595 -0.2716 -0.5052
 3527SOL    HW122043   0.373   2.082  15.047  0.1862  0.0968 -0.2125
 3527SOL    HW222044   0.384   2.143  14.915 -0.2807 -0.6240 -0.2049
 3528SOL     OW22045   1.139   1.574   3.538  0.4921 -0.5466  0.0905
 3528SOL    HW122046   1.077   1.618   3.479  2.4582  0.9679 -0.8391
 3528SOL    HW222047   1.225   1.582   3.496  0.2105 -0.7102 -0.5123
 3529SOL     OW22048   0.810   1.686   3.313 -0.1509  0.0709 -0.0690
 3529SOL    HW122049   0.796   1.757   3.250  1.6718  0.1393 -0.4065
 3529SOL    HW222050   0.903   1.698   3.331 -0.5023  0.4824  1.5069
 3530SOL     OW22051   1.317   0.677  11.060 -0.8041  0.5855 -0.6819
 3530SOL    HW122052   1.304   0.744  11.128  2.3147  1.5462 -1.0526
 3530SOL    HW222053   1.394   0.711  11.014 -1.2412  2.1640 -0.2353
 3531SOL     OW22054   3.552   0.857   3.256 -0.1233 -0.2420  0.3889
 3531SOL    HW122055   3.500   0.937   3.242  1.6825  0.7761 -0.4821
 3531SOL    HW222056   3.592   0.858   3.169 -0.3465 -0.2940  0.2865
 3532SOL     OW22057   3.964   1.528  16.395  0.2064  0.1339 -0.0900
 3532SOL    HW122058   3.982   1.535  16.488  0.6654  0.9572 -0.2466
 3532SOL    HW222059   3.955   1.432  16.393 -1.7772  0.3447 -1.4552
 3533SOL     OW22060   0.389   4.666   0.357 -0.1180  0.0028  0.1278
 3533SOL    HW122061   0.381   4.696   0.448  0.0209 -0.7295  0.3874
 3533SOL    HW222062   0.474   4.698   0.326  0.5996 -2.2095 -0.2051
 3534SOL     OW22063   0.883   2.907  15.343  0.8816  0.2852  0.1993
 3534SOL    HW122064   0.912   2.985  15.295 -1.3776  1.3082  0.4860
 3534SOL    HW222065   0.793   2.895  15.312  1.3066 -0.5663 -0.6855
 3535SOL     OW22066   3.545   2.033   1.433  0.0746  0.1826  0.2613
 3535SOL    HW122067   3.467   2.027   1.378 -0.1300  1.1823  0.4407
 3535SOL    HW222068   3.518   2.087   1.508  1.1112 -0.1414  0.8708
 3536SOL     OW22069   1.527   4.527  11.283  0.7446  0.1780  0.3647
 3536SOL    HW122070   1.520   4.431  11.286 -0.6386  0.3049  1.1311
 3536SOL    HW222071   1.436   4.553  11.270  1.0421  0.5618 -0.8883
 3537SOL     OW22072   0.415   4.319   2.168 -0.3548  0.1237  0.3643
 3537SOL    HW122073   0.491   4.373   2.191  0.8785 -2.0151  1.2789
 3537SOL    HW222074   0.360   4.396   2.153 -2.6186 -1.3478  1.2828
 3538SOL     OW22075   4.291   3.935  11.772  0.7594  0.3469  0.1361
 3538SOL    HW122076   4.347   3.992  11.719  0.7643 -1.1204 -1.4284
 3538SOL    HW222077   4.252   3.877  11.707  1.1862  1.1181 -0.8023
 3539SOL     OW22078   2.024   1.220   3.961  0.0477 -0.5000  0.1933
 3539SOL    HW122079   1.956   1.283   3.984  0.2012 -0.9210  1.7800
 3539SOL    HW222080   1.984   1.152   3.907  1.4602  0.1293 -1.6346
 3540SOL     OW22081   4.189   0.618   3.587 -0.5436 -0.2913  0.9003
 3540SOL    HW122082   4.139   0.683   3.538  3.7926  1.9537 -0.5592
 3540SOL    HW222083   4.171   0.640   3.678  1.9830 -0.8095  1.5216
 3541SOL     OW22084   1.946   1.343   2.255  0.6154 -0.1635 -0.2484
 3541SOL    HW122085   1.897   1.309   2.181  1.6390 -0.0431 -0.9782
 3541SOL    HW222086   2.003   1.409   2.216  0.0718  0.3786 -0.1354
 3542SOL     OW22087   2.657   2.900   6.926 -0.3299 -0.3869 -0.0968
 3542SOL    HW122088   2.561   2.908   6.930 -0.4801 -1.9673 -0.6051
 3542SOL    HW222089   2.684   2.991   6.920  1.6006 -0.8404  1.8130
 3543SOL     OW22090   0.385   3.244   0.176 -0.1626 -0.3040 -0.4688
 3543SOL    HW122091   0.480   3.238   0.167  0.0327 -0.4740  1.5836
 3543SOL    HW222092   0.374   3.186   0.251  0.4421 -0.0603 -0.1910
 3544SOL     OW22093   4.109   2.497   4.600  0.7715  0.9037  0.1033
 3544SOL    HW122094   4.083   2.414   4.560  0.5799  1.8026 -1.6501
 3544SOL    HW222095   4.129   2.466   4.688  1.0382 -2.7666 -1.2476
 3545SOL     OW22096   0.181   0.154   8.880  0.4064 -0.1924 -0.0430
 3545SOL    HW122097   0.107   0.199   8.838  0.5050 -0.5092 -0.5613
 3545SOL    HW222098   0.141   0.104   8.951  1.7547 -2.4598 -0.8971
 3546SOL     OW22099   4.696   0.466   7.262 -0.1190  0.0639 -0.1153
 3546SOL    HW122100   0.054   0.444   7.217  0.7724  0.1119  1.5058
 3546SOL    HW222101   4.658   0.379   7.273 -1.7310  0.8971  0.9268
 3547SOL     OW22102   3.352   3.820   6.220  0.3033 -0.2680 -0.0336
 3547SOL    HW122103   3.346   3.810   6.315  2.0430 -0.4076  0.0669
 3547SOL    HW222104   3.295   3.749   6.191  0.0560 -0.3282  0.5813
 3548SOL     OW22105   0.920   2.234   6.805  0.2417 -0.5741  0.0513
 3548SOL    HW122106   0.915   2.297   6.733  1.8288 -1.3950 -0.7729
 3548SOL    HW222107   0.860   2.171   6.766  1.1723 -0.6162 -1.3159
 3549SOL     OW22108   4.454   0.142   8.894  0.0463  0.1484  0.3583
 3549SOL    HW122109   4.408   0.213   8.939 -1.5400 -0.4689 -0.2669
 3549SOL    HW222110   4.430   0.065   8.945  4.3137 -1.6427 -0.3607
 3550SOL     OW22111   2.202   1.060   5.327  0.5039  0.1298 -0.1758
 3550SOL    HW122112   2.214   1.037   5.235  2.7125 -0.5209  0.2841
 3550SOL    HW222113   2.288   1.100   5.341 -0.3458  0.2343  4.8337
 3551SOL     OW22114   2.013   1.430  14.663  0.1733 -0.1426 -0.4814
 3551SOL    HW122115   2.074   1.401  14.731  1.6146 -2.7956 -2.9136
 3551SOL    HW222116   2.084   1.478  14.622  0.0816  1.8500  1.6502
 3552SOL     OW22117   2.911   0.777   7.900  0.0701  0.2855 -0.4062
 3552SOL    HW122118   2.989   0.723   7.911 -0.6592 -0.8473 -0.7617
 3552SOL    HW222119   2.872   0.743   7.820  0.3696 -1.2967  0.1240
 3553SOL     OW22120   3.321   0.044   4.324  0.2768 -0.2276 -0.2045
 3553SOL    HW122121   3.299   4.676   4.334 -1.0613  0.2176  0.9381
 3553SOL    HW222122   3.233   0.075   4.299  0.4108  0.6846  0.4771
 3554SOL     OW22123   0.548   1.662   3.197  0.2416  0.0216  0.3899
 3554SOL    HW122124   0.623   1.659   3.256  0.8674  1.4427 -0.3144
 3554SOL    HW222125   0.475   1.632   3.251 -0.4889  0.0465 -0.5917
 3555SOL     OW22126   0.261   3.033   8.382  0.5758 -0.2404 -0.1059
 3555SOL    HW122127   0.220   3.060   8.300 -0.1630 -2.0822 -0.3536
 3555SOL    HW222128   0.217   3.071   8.457  1.2467  0.8572 -0.2604
 3556SOL     OW22129   0.754   2.204   2.797  0.4133 -0.0757 -0.1540
 3556SOL    HW122130   0.810   2.153   2.856  0.2725  0.4125  0.4034
 3556SOL    HW222131   0.675   2.200   2.850  0.7742 -0.3907  0.3666
 3557SOL     OW22132   3.866   4.671  13.628  0.4285 -0.0575 -0.8597
 3557SOL    HW122133   3.781   4.709  13.653  1.3530  0.4598  1.4979
 3557SOL    HW222134   3.918   4.643  13.703 -2.0403 -1.6645  0.2488
 3558SOL     OW22135   0.490   0.669  11.969 -0.3877 -0.5182  0.4703
 3558SOL    HW122136   0.469   0.612  11.895  1.0857 -2.5222  1.6003
 3558SOL    HW222137   0.517   0.616  12.043 -0.0581  0.1364  0.8165
 3559SOL     OW22138   4.080   0.688  13.554 -0.2364 -0.6003 -0.4996
 3559SOL    HW122139   4.066   0.636  13.475 -1.7925  0.2484 -0.7731
 3559SOL    HW222140   4.139   0.632  13.605 -0.5385 -0.7342 -0.2979
 3560SOL     OW22141   2.726   0.597   4.547 -0.6080 -0.0238 -0.8885
 3560SOL    HW122142   2.789   0.643   4.602 -0.3667 -1.1154 -0.2536
 3560SOL    HW222143   2.654   0.579   4.607  1.3176 -0.0494  1.4287
 3561SOL     OW22144   0.308   4.045   6.083 -0.7008 -0.0562 -0.1709
 3561SOL    HW122145   0.243   4.061   6.015  0.2075 -0.9183 -1.2483
 3561SOL    HW222146   0.389   4.079   6.045  0.5829 -1.1947  1.5673
 3562SOL     OW22147   0.400   1.313   8.617  0.4881 -0.0480 -0.0182
 3562SOL    HW122148   0.357   1.229   8.605 -0.4147  0.5626 -1.0884
 3562SOL    HW222149   0.326   1.368   8.641  0.5363  0.0987 -0.2008
 3563SOL     OW22150   4.289   1.497  10.309  0.1264  0.0616 -0.6351
 3563SOL    HW122151   4.376   1.483  10.271 -0.7901 -1.3588 -2.2010
 3563SOL    HW222152   4.259   1.407  10.300  1.2324 -0.2483 -1.1356
 3564SOL     OW22153   1.365   2.509   2.610  1.0189 -0.1839  0.3059
 3564SOL    HW122154   1.354   2.519   2.515  1.3306 -2.6116  0.0242
 3564SOL    HW222155   1.286   2.459   2.628  1.3683 -0.0941  2.0283
 3565SOL     OW22156   1.929   1.058   4.714  0.2708  0.1883  0.0720
 3565SOL    HW122157   1.865   1.074   4.783  1.0145  0.0994  0.7795
 3565SOL    HW222158   2.007   1.077   4.765 -0.0577 -0.7475  0.9179
 3566SOL     OW22159   3.931   2.724   2.629 -0.2651  0.4492 -0.0634
 3566SOL    HW122160   3.963   2.641   2.592  2.3006  2.0122 -1.3381
 3566SOL    HW222161   4.012   2.774   2.634 -0.3389  0.7765 -2.2221
 3567SOL     OW22162   0.976   4.392   2.869  0.6070  0.2431 -0.1192
 3567SOL    HW122163   1.020   4.452   2.928  1.5506  1.0572 -1.6654
 3567SOL    HW222164   0.918   4.446   2.815  0.7502  0.3263 -0.1892
 3568SOL     OW22165   3.856   4.077  10.074 -0.7548  0.1556 -0.0211
 3568SOL    HW122166   3.803   4.066   9.995  0.9254 -0.5042 -1.0523
 3568SOL    HW222167   3.913   4.003  10.054  1.3428  2.5700 -2.9320
 3569SOL     OW22168   3.151   0.238   6.079 -0.1478  0.0111 -0.1062
 3569SOL    HW122169   3.205   0.173   6.124  0.4480  1.0406  0.6622
 3569SOL    HW222170   3.087   0.183   6.034  0.8781 -2.5690  1.6278
 3570SOL     OW22171   1.592   3.426   2.984 -0.1297 -0.2754  0.3447
 3570SOL    HW122172   1.647   3.431   2.906  2.6977 -2.9110  2.1953
 3570SOL    HW222173   1.516   3.382   2.944 -1.0583  0.9493  0.7594
 3571SOL     OW22174   4.719   2.163   6.773 -0.2783 -0.2653  0.5685
 3571SOL    HW122175   0.036   2.146   6.688 -2.1401 -0.6220 -0.2559
 3571SOL    HW222176   4.651   2.096   6.772  0.1019 -0.6542  1.4543
 3572SOL     OW22177   4.378   0.062   5.235 -0.5001 -0.3029 -0.1011
 3572SOL    HW122178   4.390   0.108   5.152  0.4084 -0.0116  0.1823
 3572SOL    HW222179   4.391   4.695   5.210  0.1881 -0.4056  0.6015
 3573SOL     OW22180   3.774   2.590   8.934  0.5465  0.0069  0.5982
 3573SOL    HW122181   3.823   2.669   8.914  0.7951 -0.6789 -1.5105
 3573SOL    HW222182   3.762   2.600   9.029  0.5531  2.5945  0.3251
 3574SOL     OW22183   3.370   0.629   4.056 -0.0011  0.3697 -0.1058
 3574SOL    HW122184   3.358   0.677   3.974  1.8681  0.7674 -0.1446
 3574SOL    HW222185   3.466   0.621   4.057 -0.0271  0.7757  3.1369
 3575SOL     OW22186   1.308   2.722   9.426  0.2820 -0.3219  0.3396
 3575SOL    HW122187   1.335   2.813   9.438  1.4917 -0.3837 -2.0385
 3575SOL    HW222188   1.294   2.719   9.332  2.1575 -1.2250  0.0840
 3576SOL     OW22189   3.114   0.930  14.967  0.0706  0.3701 -0.1350
 3576SOL    HW122190   3.151   0.884  15.042 -1.8010 -0.5468  0.2109
 3576SOL    HW222191   3.103   0.854  14.910  0.3105  0.7728 -0.7262
 3577SOL     OW22192   2.023   2.220   4.057  0.0335  0.7230 -0.5392
 3577SOL    HW122193   2.066   2.177   3.983  0.1111 -0.4343  0.1874
 3577SOL    HW222194   1.948   2.257   4.010 -0.3194  1.2543  0.4402
 3578SOL     OW22195   3.313   4.013  12.845  0.3333  0.2584 -0.1442
 3578SOL    HW122196   3.222   4.005  12.817  1.0380 -0.0639 -2.3427
 3578SOL    HW222197   3.335   3.920  12.838  1.3298  0.3227  1.9944
 3579SOL     OW22198   2.448   4.078  11.514 -0.4879  0.4342  0.4196
 3579SOL    HW122199   2.361   4.062  11.478  0.8441 -0.5283 -2.3614
 3579SOL    HW222200   2.451   4.017  11.588 -0.2751  1.3790  1.1924
 3580SOL     OW22201   1.361   2.344   4.780 -0.8913  0.1376  0.2242
 3580SOL    HW122202   1.353   2.436   4.754  3.3527  0.4114 -0.1045
 3580SOL    HW222203   1.312   2.305   4.708 -1.5018 -0.6711  1.0779
 3581SOL     OW22204   2.771   0.471   8.351  0.0970  1.0264 -0.5528
 3581SOL    HW122205   2.701   0.442   8.293 -0.5633  1.9814 -0.2425
 3581SOL    HW222206   2.728   0.497   8.432 -1.4505  0.7106 -1.2530
 3582SOL     OW22207   3.164   0.807  10.328 -0.4328 -0.0478 -0.5075
 3582SOL    HW122208   3.095   0.743  10.312 -1.7409  0.7238  2.0703
 3582SOL    HW222209   3.232   0.740  10.336  0.1622  0.5460 -0.6813
 3583SOL     OW22210   1.321   2.073   5.556 -0.0359 -0.0115  0.8015
 3583SOL    HW122211   1.316   2.019   5.477  0.3435 -1.2878  1.6603
 3583SOL    HW222212   1.343   2.157   5.513 -1.2511 -0.4179 -0.6218
 3584SOL     OW22213   0.615   1.616   9.322  0.6713  0.1737  0.8069
 3584SOL    HW122214   0.711   1.623   9.330  0.9976 -1.3066 -1.8135
 3584SOL    HW222215   0.579   1.662   9.398  0.2605  0.6720  0.3094
 3585SOL     OW22216   1.878   1.160   6.718  0.1737 -0.2994 -0.8599
 3585SOL    HW122217   1.867   1.074   6.677  0.5831 -0.1482 -1.2785
 3585SOL    HW222218   1.928   1.141   6.797 -0.9981  0.9655  0.1766
 3586SOL     OW22219   2.272   1.655   8.919 -0.2927  0.4506  0.0562
 3586SOL    HW122220   2.288   1.615   9.005  0.9632  2.3259  0.6948
 3586SOL    HW222221   2.185   1.620   8.903 -1.6493  3.5862  0.5198
 3587SOL     OW22222   1.103   4.098  10.934  0.5554  0.1706  0.3196
 3587SOL    HW122223   1.179   4.045  10.959  0.9017  0.8858  0.7842
 3587SOL    HW222224   1.027   4.039  10.936  1.2393 -0.7837 -2.2074
 3588SOL     OW22225   3.711   3.420   2.531  0.2001 -0.9726  0.0792
 3588SOL    HW122226   3.761   3.499   2.513 -1.2803  0.0691  0.5710
 3588SOL    HW222227   3.778   3.367   2.575  2.2645 -0.7608 -2.8430
 3589SOL     OW22228   2.790   0.086  12.784 -0.4946 -0.0031 -0.2021
 3589SOL    HW122229   2.855   0.030  12.826 -0.5644  1.2978  1.6345
 3589SOL    HW222230   2.775   0.133  12.866  3.3437 -0.6192  0.8663
 3590SOL     OW22231   4.719   3.120   6.998  0.0522 -0.3666  0.0460
 3590SOL    HW122232   0.014   3.201   7.045  0.5996  1.0101 -2.5526
 3590SOL    HW222233   0.003   3.144   6.906  1.6014 -1.6741 -0.1597
 3591SOL     OW22234   0.499   3.963  14.350  0.3157 -0.3074  0.5104
 3591SOL    HW122235   0.539   3.966  14.264  0.5963 -0.9317  0.6200
 3591SOL    HW222236   0.492   4.056  14.372  0.2567  0.0866 -1.2369
 3592SOL     OW22237   4.639   0.727   5.931 -0.1726 -0.4728 -0.1253
 3592SOL    HW122238   4.555   0.711   5.887  0.9277 -0.9543 -2.0486
 3592SOL    HW222239   4.697   0.667   5.884 -1.5021 -2.1571  0.3850
 3593SOL     OW22240   0.848   2.279   7.931 -0.4094  0.3028 -0.0287
 3593SOL    HW122241   0.856   2.221   7.855 -0.8031 -0.1820  0.2970
 3593SOL    HW222242   0.896   2.357   7.905 -1.6283  0.8098 -0.7727
 3594SOL     OW22243   1.008   2.641  16.930 -0.4128  0.1399  0.0789
 3594SOL    HW122244   0.996   2.638  17.025  0.3481 -1.4434  0.1253
 3594SOL    HW222245   0.925   2.602  16.902 -0.8219 -0.2133  1.8029
 3595SOL     OW22246   3.154   3.588  11.729  0.3330  0.3840 -0.3459
 3595SOL    HW122247   3.168   3.679  11.755 -1.9522  0.5606  0.2591
 3595SOL    HW222248   3.242   3.570  11.697  0.3880 -2.5771  1.5134
 3596SOL     OW22249   1.850   1.135   7.053  0.3286  0.0233 -0.5464
 3596SOL    HW122250   1.846   1.136   7.149 -1.4879 -1.8737 -0.6122
 3596SOL    HW222251   1.937   1.096   7.040  0.5652  1.1225 -2.2083
 3597SOL     OW22252   2.156   1.816  10.062  0.0314  0.4745  0.0145
 3597SOL    HW122253   2.094   1.771  10.120 -0.1339 -1.8059 -1.9316
 3597SOL    HW222254   2.128   1.907  10.072 -1.9009 -0.2839  1.6916
 3598SOL     OW22255   1.106   1.926   4.857  0.0597  0.2579 -0.1020
 3598SOL    HW122256   1.084   1.957   4.769  0.7885  1.3148  0.0889
 3598SOL    HW222257   1.198   1.903   4.845  0.0491  0.3160 -0.3054
 3599SOL     OW22258   3.855   3.969  10.318  0.2511  0.4098  0.2346
 3599SOL    HW122259   3.883   4.011  10.237 -0.1748 -0.9945 -0.6552
 3599SOL    HW222260   3.912   4.002  10.387 -0.4927  0.0134  1.0464
 3600SOL     OW22261   1.226   2.143   6.501  0.5906  0.3224  0.3356
 3600SOL    HW122262   1.291   2.093   6.451 -0.6572 -1.2624  0.3103
 3600SOL    HW222263   1.242   2.224   6.451 -0.8344 -0.3205 -1.1699
 3601SOL     OW22264   2.279   0.080   6.204  0.1803 -0.0078  0.1736
 3601SOL    HW122265   2.306   0.001   6.252  1.5769 -0.6330 -1.6204
 3601SOL    HW222266   2.230   0.122   6.274 -1.0093 -0.3004 -0.4882
 3602SOL     OW22267   0.498   2.802   7.333 -0.4811  0.2596 -0.0883
 3602SOL    HW122268   0.534   2.873   7.387  1.3227 -0.9100  0.2616
 3602SOL    HW222269   0.588   2.787   7.304  0.3173  1.7686  1.5650
 3603SOL     OW22270   1.508   4.703   3.295  0.2560  0.4352 -0.0097
 3603SOL    HW122271   1.565   4.628   3.279 -0.9925 -0.3817 -0.6418
 3603SOL    HW222272   1.554   0.047   3.245  0.6352  0.5404  0.4862
 3604SOL     OW22273   0.383   1.442  16.340 -0.4133  0.5690  0.2124
 3604SOL    HW122274   0.456   1.386  16.315  0.2718  1.1352  0.9356
 3604SOL    HW222275   0.406   1.457  16.432  1.1097 -0.9623  0.0781
 3605SOL     OW22276   2.539   0.651   7.205 -0.3864 -0.0953  0.1809
 3605SOL    HW122277   2.514   0.577   7.260 -0.2133  0.1979  0.6485
 3605SOL    HW222278   2.593   0.599   7.145 -1.6153  0.5881 -1.5467
 3606SOL     OW22279   3.310   0.292  10.281 -0.3370  0.0996  0.0263
 3606SOL    HW122280   3.364   0.315  10.357 -2.1648  3.9257  0.1969
 3606SOL    HW222281   3.351   0.340  10.210 -0.4210  1.4750  0.9007
 3607SOL     OW22282   3.637   3.601   1.913 -0.3721 -0.0594  0.2208
 3607SOL    HW122283   3.678   3.531   1.964  1.7201  0.7153 -0.3788
 3607SOL    HW222284   3.637   3.568   1.823  1.6879 -0.3966  0.3278
 3608SOL     OW22285   4.560   1.348   2.318 -0.5124 -0.8058 -0.2646
 3608SOL    HW122286   4.540   1.367   2.226  0.7432  1.5855 -0.0441
 3608SOL    HW222287   4.509   1.269   2.333 -2.9417  0.4570 -1.9279
 3609SOL     OW22288   3.994   1.361   3.710  0.0645  0.3300 -0.5667
 3609SOL    HW122289   3.924   1.306   3.748  2.6044 -2.5355 -0.0147
 3609SOL    HW222290   4.061   1.295   3.694 -0.6651 -0.3885 -0.6988
 3610SOL     OW22291   0.374   1.816   7.892 -0.1902 -0.3302 -0.3884
 3610SOL    HW122292   0.321   1.801   7.971 -1.9163  2.3319 -1.0405
 3610SOL    HW222293   0.436   1.877   7.931 -2.5114  1.3155  0.6899
 3611SOL     OW22294   0.656   1.754   3.625  0.2983 -0.7196  0.2080
 3611SOL    HW122295   0.746   1.787   3.623  0.6527 -1.7360 -0.4275
 3611SOL    HW222296   0.614   1.822   3.574 -0.9835 -1.0002  0.8791
 3612SOL     OW22297   1.141   4.671   6.270 -0.7639  0.0556  0.1496
 3612SOL    HW122298   1.205   0.017   6.271  1.9309 -2.3722  1.7527
 3612SOL    HW222299   1.168   4.642   6.358  1.2410  0.4339 -0.3400
 3613SOL     OW22300   3.374   2.096   3.628 -0.3390 -0.1282 -0.0132
 3613SOL    HW122301   3.407   2.006   3.638  0.9269  0.6717  2.8186
 3613SOL    HW222302   3.458   2.137   3.609 -0.7837  0.8536  0.1827
 3614SOL     OW22303   1.234   4.199   9.390  0.7983 -0.2155  0.0590
 3614SOL    HW122304   1.229   4.251   9.309 -1.9879 -1.1815 -0.3726
 3614SOL    HW222305   1.216   4.264   9.458 -1.3214  0.9834 -1.6275
 3615SOL     OW22306   2.804   3.824   8.413  0.0092 -0.4172  0.4547
 3615SOL    HW122307   2.857   3.785   8.483  1.5074 -1.0960 -1.0504
 3615SOL    HW222308   2.847   3.909   8.423  0.4928 -0.7981  1.5964
 3616SOL     OW22309   4.458   4.227  14.260  0.4319  0.2882 -0.6847
 3616SOL    HW122310   4.480   4.319  14.253  1.0108  0.1933 -0.0259
 3616SOL    HW222311   4.381   4.233  14.203 -0.7250  1.7243  1.0308
 3617SOL     OW22312   4.618   3.851   4.867  0.2131  0.2938 -0.3282
 3617SOL    HW122313   4.648   3.903   4.941  0.5929 -1.6661  0.8935
 3617SOL    HW222314   4.554   3.902   4.817  0.3176  1.1929  0.4558
 3618SOL     OW22315   2.687   0.025  13.435 -0.1684 -0.3729  0.0565
 3618SOL    HW122316   2.635   0.078  13.495  1.8636 -0.9978  2.3608
 3618SOL    HW222317   2.639   0.031  13.352 -1.0512  2.4406  0.7519
 3619SOL     OW22318   3.223   0.402  11.561 -0.3382  0.0056 -0.1264
 3619SOL    HW122319   3.237   0.486  11.605 -0.5375  0.5170 -1.0433
 3619SOL    HW222320   3.315   0.374  11.556 -0.4587 -0.2820 -0.6926
 3620SOL     OW22321   2.435   4.080  15.632  0.3541  0.6951 -0.2848
 3620SOL    HW122322   2.405   4.015  15.568  0.4147  2.0372 -1.6792
 3620SOL    HW222323   2.451   4.023  15.708 -0.0574  0.8463 -0.0807
 3621SOL     OW22324   1.338   2.965   5.591 -0.3687  0.0102  0.2310
 3621SOL    HW122325   1.294   3.006   5.665  1.3020  1.2174  0.5609
 3621SOL    HW222326   1.384   2.899   5.642  1.6021  1.8745  0.8758
 3622SOL     OW22327   0.630   2.950   0.123  0.0305 -0.9257  0.3430
 3622SOL    HW122328   0.607   2.988   0.208 -0.4532  3.8535 -1.9434
 3622SOL    HW222329   0.665   3.027   0.079 -0.8066  0.1947  1.6292
 3623SOL     OW22330   0.159   0.681   2.061  0.2648 -0.2769 -0.4684
 3623SOL    HW122331   0.148   0.701   2.154  0.0525  0.9368 -0.7559
 3623SOL    HW222332   0.228   0.616   2.074  0.8070  0.3895 -0.0371
 3624SOL     OW22333   0.189   0.102   1.998 -0.0953  0.3800 -0.3648
 3624SOL    HW122334   0.281   0.078   2.002 -0.8048 -2.5275 -1.7042
 3624SOL    HW222335   0.189   0.190   1.961  0.5294  0.0905 -1.0465
 3625SOL     OW22336   4.053   1.588   8.854  0.5048  0.0728 -0.0522
 3625SOL    HW122337   4.103   1.604   8.934  0.2309  0.7694 -0.0170
 3625SOL    HW222338   4.029   1.496   8.860 -0.3469  0.2581 -0.5826
 3626SOL     OW22339   4.031   3.104   1.392 -0.2292 -0.0436  0.0800
 3626SOL    HW122340   4.085   3.090   1.314 -2.3598  0.3288 -1.4646
 3626SOL    HW222341   3.943   3.102   1.355 -1.2042 -1.2939  2.5329
 3627SOL     OW22342   2.739   3.034   0.281 -0.1896 -0.2962  0.8527
 3627SOL    HW122343   2.648   3.025   0.308 -0.2513 -0.0009  0.7354
 3627SOL    HW222344   2.737   2.976   0.205  1.7253 -0.4791  0.9262
 3628SOL     OW22345   3.072   2.979   3.678 -0.1055  0.2606 -0.5064
 3628SOL    HW122346   3.076   2.954   3.586  2.4917 -2.0631  0.2300
 3628SOL    HW222347   2.976   2.976   3.685 -0.0800 -0.8977 -0.5936
 3629SOL     OW22348   3.640   0.670   5.803  0.4189  0.0862  0.4233
 3629SOL    HW122349   3.566   0.730   5.797  0.8546  0.6313  0.4225
 3629SOL    HW222350   3.625   0.610   5.730  1.4742  0.1394  0.1514
 3630SOL     OW22351   0.958   3.895   6.019 -0.1059 -0.6492  0.0343
 3630SOL    HW122352   1.023   3.883   6.089  0.8947  0.2728 -0.7312
 3630SOL    HW222353   1.011   3.943   5.955  1.0421  0.0318  1.4992
 3631SOL     OW22354   4.127   3.859   0.853  0.1388  0.6038 -0.2359
 3631SOL    HW122355   4.083   3.944   0.843  0.9371  0.8045 -1.9913
 3631SOL    HW222356   4.211   3.881   0.813  0.9456 -2.2013 -0.0437
 3632SOL     OW22357   4.435   4.106  15.424  0.1173 -0.1485  0.0500
 3632SOL    HW122358   4.529   4.107  15.405  0.2513 -0.9390  0.6694
 3632SOL    HW222359   4.448   4.092  15.518  2.5312 -0.5344 -0.3370
 3633SOL     OW22360   3.196   0.906   5.622  0.1074 -0.8310 -0.6202
 3633SOL    HW122361   3.137   0.955   5.680  1.3293  0.6924 -0.6447
 3633SOL    HW222362   3.129   0.862   5.571  1.5172 -1.9367 -1.4866
 3634SOL     OW22363   3.813   4.524  12.318  0.1249  0.1109  0.3681
 3634SOL    HW122364   3.803   4.433  12.346 -0.1006  0.0044 -0.0476
 3634SOL    HW222365   3.724   4.557  12.325  0.3773  1.0446 -0.8315
 3635SOL     OW22366   4.111   1.028   7.434  0.0127  0.2202  0.1063
 3635SOL    HW122367   4.146   1.003   7.348 -1.1508 -2.0159  0.2830
 3635SOL    HW222368   4.191   1.070   7.467 -0.0549  1.6867 -1.5509
 3636SOL     OW22369   2.305   1.374   6.821 -0.1011 -0.3456  0.5350
 3636SOL    HW122370   2.271   1.340   6.904 -0.4098  1.4832  1.1576
 3636SOL    HW222371   2.378   1.315   6.802 -2.6496 -3.1716 -0.5559
 3637SOL     OW22372   0.925   0.651   6.144  0.0986 -0.3789 -0.5235
 3637SOL    HW122373   0.998   0.674   6.086  1.5080 -3.9143 -0.1576
 3637SOL    HW222374   0.948   0.702   6.222 -0.3478 -1.3106  0.2218
 3638SOL     OW22375   1.830   2.561  10.142 -0.8641  0.0340 -0.2962
 3638SOL    HW122376   1.853   2.535  10.232 -1.3139  0.0864 -0.1671
 3638SOL    HW222377   1.908   2.606  10.109  0.3533 -1.0273  1.0674
 3639SOL     OW22378   0.690   0.876   3.487 -0.1249 -0.5438  0.2378
 3639SOL    HW122379   0.673   0.944   3.552 -3.5818 -1.8987  0.7282
 3639SOL    HW222380   0.783   0.894   3.475 -0.2945 -0.6006 -1.1817
 3640SOL     OW22381   0.161   2.375  14.698  0.6826  0.3253  0.4775
 3640SOL    HW122382   0.132   2.298  14.648  1.4976  0.4849 -0.2426
 3640SOL    HW222383   0.244   2.395  14.655  0.4610  1.2521  0.4829
 3641SOL     OW22384   3.590   1.994  13.376 -1.1483 -0.0521  0.2504
 3641SOL    HW122385   3.637   1.957  13.301  0.1526 -0.3293  1.1998
 3641SOL    HW222386   3.607   2.086  13.357  3.1816 -1.1509 -1.0857
 3642SOL     OW22387   3.256   0.348   5.388 -0.0120 -0.1047  0.2681
 3642SOL    HW122388   3.273   0.339   5.294  1.0174  0.9687  0.3470
 3642SOL    HW222389   3.326   0.288   5.411 -0.5180 -0.0282  1.9577
 3643SOL     OW22390   0.213   1.160   8.154 -0.2397 -0.0649  0.0954
 3643SOL    HW122391   0.234   1.218   8.080 -0.4172 -0.0601  0.0485
 3643SOL    HW222392   0.285   1.180   8.214 -0.0791  1.1130 -0.4844
 3644SOL     OW22393   3.113   4.606  17.527 -0.5450  0.0768 -0.3150
 3644SOL    HW122394   3.206   4.586  17.514 -0.0048  0.9859  2.2618
 3644SOL    HW222395   3.085   4.623  17.437  0.0666 -2.2028 -0.9329
 3645SOL     OW22396   0.112   2.684   2.811 -0.2914 -0.4080  0.3793
 3645SOL    HW122397   0.185   2.648   2.760 -1.3894 -2.5130  0.2868
 3645SOL    HW222398   0.132   2.777   2.808  0.7133 -0.6245  0.4574
 3646SOL     OW22399   2.975   3.427  13.474 -0.2901  0.2185  0.0333
 3646SOL    HW122400   2.959   3.521  13.461 -1.7286  0.4203  3.3979
 3646SOL    HW222401   2.888   3.391  13.495  0.0885 -0.7576 -0.0630
 3647SOL     OW22402   2.445   0.423   1.555 -0.2533 -0.0853 -0.1200
 3647SOL    HW122403   2.370   0.365   1.570 -0.6799  0.4406 -0.2135
 3647SOL    HW222404   2.420   0.449   1.466 -0.0972  0.4757  0.0031
 3648SOL     OW22405   2.306   1.899   3.965  0.3549  0.3761 -0.3452
 3648SOL    HW122406   2.304   1.954   4.043 -1.6844 -0.6321  0.3336
 3648SOL    HW222407   2.316   1.815   4.011 -0.0389  0.1832 -0.6062
 3649SOL     OW22408   3.230   2.571   3.275  0.4638 -0.4494  0.1239
 3649SOL    HW122409   3.254   2.521   3.197 -0.4277 -0.0135 -0.4410
 3649SOL    HW222410   3.202   2.655   3.238 -0.3995  0.3726  2.7031
 3650SOL     OW22411   2.645   3.400   8.860  0.0710 -0.1536  0.0035
 3650SOL    HW122412   2.596   3.368   8.935 -0.2957  0.2043 -0.0832
 3650SOL    HW222413   2.582   3.467   8.832 -1.5570 -1.7291 -0.0948
 3651SOL     OW22414   1.405   1.410   5.516  0.5048  0.1572 -0.3147
 3651SOL    HW122415   1.476   1.467   5.545  0.8725  0.5913 -2.0467
 3651SOL    HW222416   1.327   1.448   5.556  1.5371 -0.7495  2.5294
 3652SOL     OW22417   1.248   2.777  10.335  0.1269 -0.5663 -0.0087
 3652SOL    HW122418   1.166   2.788  10.287  0.6698 -0.6916 -0.9672
 3652SOL    HW222419   1.243   2.682  10.334 -0.5307 -0.5205 -1.6651
 3653SOL     OW22420   2.528   3.281   5.172  0.3033  0.6546  0.2090
 3653SOL    HW122421   2.545   3.367   5.134 -1.0474  1.3574  1.1895
 3653SOL    HW222422   2.614   3.264   5.210  0.6497  1.4621 -0.2199
 3654SOL     OW22423   0.913   0.327   3.966 -0.0528  0.5803  0.1225
 3654SOL    HW122424   0.920   0.344   4.060  0.9167 -0.1643  0.1772
 3654SOL    HW222425   0.959   0.400   3.926  1.1224  0.1889  0.7734
 3655SOL     OW22426   1.182   0.129   5.034 -0.3539 -0.4103  0.2709
 3655SOL    HW122427   1.158   0.063   4.968 -2.7260  0.9832 -0.2573
 3655SOL    HW222428   1.206   0.074   5.108 -3.2949 -1.0753  0.7434
 3656SOL     OW22429   3.429   3.954   2.154  0.5956 -0.2994  0.7958
 3656SOL    HW122430   3.384   4.037   2.172 -1.7551 -1.4888  0.3519
 3656SOL    HW222431   3.478   3.949   2.236  2.7262 -0.3823 -0.4794
 3657SOL     OW22432   1.445   2.220  14.438  0.7634 -0.0228 -0.1955
 3657SOL    HW122433   1.377   2.158  14.463 -0.4821  1.4914  0.1966
 3657SOL    HW222434   1.382   2.292  14.434  1.7930  0.8620 -0.4413
 3658SOL     OW22435   4.031   1.502   5.148  0.5249  0.5852 -0.0966
 3658SOL    HW122436   4.080   1.465   5.221  0.4562  3.5373  1.4643
 3658SOL    HW222437   3.975   1.562   5.197 -0.6154  0.9368 -1.8309
 3659SOL     OW22438   4.302   3.247   6.314 -0.4087 -0.4048 -0.4035
 3659SOL    HW122439   4.315   3.212   6.402  2.2210  1.8403  0.1092
 3659SOL    HW222440   4.306   3.341   6.334 -0.9405 -0.3151 -0.7226
 3660SOL     OW22441   4.357   1.907   3.253 -0.2409 -0.7495  0.0360
 3660SOL    HW122442   4.309   1.979   3.293  0.6992  0.8882 -1.7386
 3660SOL    HW222443   4.362   1.849   3.329  1.3515 -0.6090  0.0553
 3661SOL     OW22444   3.603   3.978  11.658 -0.1690  0.9558 -0.6352
 3661SOL    HW122445   3.608   3.887  11.686  1.4543  1.1874 -0.1746
 3661SOL    HW222446   3.600   4.025  11.741 -0.4259  0.7131 -0.5088
 3662SOL     OW22447   1.926   3.714   2.756 -0.3187 -0.4499  0.0225
 3662SOL    HW122448   2.013   3.673   2.759 -0.5386 -0.6899  3.1884
 3662SOL    HW222449   1.884   3.706   2.671 -0.8988 -2.7362  0.5284
 3663SOL     OW22450   1.048   3.995   6.592  0.5609 -0.0381 -0.2127
 3663SOL    HW122451   0.982   3.990   6.523  0.7979 -0.3403 -0.4157
 3663SOL    HW222452   1.117   3.959   6.537 -0.4464 -2.0520 -0.1524
 3664SOL     OW22453   3.703   1.748  11.159  0.4546  0.4801 -0.0193
 3664SOL    HW122454   3.710   1.655  11.179  0.9120  0.5413  0.1023
 3664SOL    HW222455   3.789   1.769  11.122 -1.2728  3.4818 -2.3414
 3665SOL     OW22456   4.020   1.188  15.972  0.6158 -0.2069  0.4249
 3665SOL    HW122457   3.939   1.239  15.972  0.6208 -0.1920  1.4420
 3665SOL    HW222458   4.026   1.170  15.878 -0.5751 -2.9235  0.8588
 3666SOL     OW22459   1.595   4.713  12.592  0.3370  0.0074 -0.4211
 3666SOL    HW122460   1.660   4.681  12.655 -1.7527 -1.9676  0.7143
 3666SOL    HW222461   1.604   4.634  12.538  1.7553 -1.4836  1.9885
 3667SOL     OW22462   2.303   2.277   7.256  0.0969  0.1896 -0.6234
 3667SOL    HW122463   2.227   2.332   7.234 -0.1835 -0.3315 -0.9706
 3667SOL    HW222464   2.261   2.191   7.253  0.1376  0.1592 -0.3219
 3668SOL     OW22465   4.581   0.162   3.067  0.0798  0.2451 -0.2191
 3668SOL    HW122466   4.504   0.182   3.120  0.5592 -2.7009  1.5835
 3668SOL    HW222467   4.565   0.070   3.045  0.0730  0.0950  0.4316
 3669SOL     OW22468   2.501   3.017  12.176  0.5763  0.3251  0.3012
 3669SOL    HW122469   2.588   2.985  12.201  0.6678  1.5537  1.5594
 3669SOL    HW222470   2.464   3.060  12.253 -2.2259 -4.4630  1.6358
 3670SOL     OW22471   0.862   2.558   2.636 -0.6182  0.0909 -0.1533
 3670SOL    HW122472   0.781   2.510   2.652  0.3987 -1.1593  1.2334
 3670SOL    HW222473   0.842   2.619   2.565 -2.3796  2.0779  2.0634
 3671SOL     OW22474   3.337   4.099   4.938 -0.3374 -0.3511 -0.6349
 3671SOL    HW122475   3.377   4.165   4.881 -0.9036  0.6172  0.0920
 3671SOL    HW222476   3.246   4.088   4.911 -0.8096 -0.4346  0.9941
 3672SOL     OW22477   1.885   0.244   8.901 -0.4336 -0.3397 -0.1569
 3672SOL    HW122478   1.915   0.181   8.967  0.4926 -0.4116 -0.6492
 3672SOL    HW222479   1.837   0.310   8.950  3.3570 -0.1730  3.2982
 3673SOL     OW22480   3.881   0.321   3.575  0.4743 -0.2168  0.0649
 3673SOL    HW122481   3.850   0.408   3.601  0.4397 -0.8318  2.0907
 3673SOL    HW222482   3.851   0.258   3.641 -0.4177 -0.2878 -0.4035
 3674SOL     OW22483   3.930   1.037  15.677  0.1452 -0.0266 -0.7723
 3674SOL    HW122484   3.987   1.113  15.669 -1.1677  1.1768  1.4988
 3674SOL    HW222485   3.861   1.081  15.627  0.6999 -0.7754 -2.2261
 3675SOL     OW22486   3.420   1.130   8.145 -0.2611 -0.2869 -0.4755
 3675SOL    HW122487   3.391   1.162   8.231 -2.3210  0.7156 -1.5442
 3675SOL    HW222488   3.438   1.219   8.115  2.0776 -1.2352 -1.8351
 3676SOL     OW22489   0.516   1.357   5.794  0.0932 -0.2281 -0.4510
 3676SOL    HW122490   0.427   1.392   5.799  0.3511  0.7731 -2.8155
 3676SOL    HW222491   0.482   1.268   5.802  3.1349 -1.4622 -1.4627
 3677SOL     OW22492   2.995   0.327   8.482  0.1264 -0.4369  0.7306
 3677SOL    HW122493   3.049   0.359   8.409 -0.8511  0.2639  0.3116
 3677SOL    HW222494   2.916   0.377   8.463 -0.5678 -1.6077  0.5892
 3678SOL     OW22495   3.862   4.247   6.857  0.9679  0.5224  0.4161
 3678SOL    HW122496   3.776   4.211   6.877  0.4567  0.5241 -1.7858
 3678SOL    HW222497   3.855   4.342   6.849 -0.4225  0.4078  0.3160
 3679SOL     OW22498   2.039   2.061   7.178  0.5433 -0.5103  0.2618
 3679SOL    HW122499   2.085   2.004   7.116 -0.7676 -0.6566 -0.5719
 3679SOL    HW222500   1.960   2.012   7.199 -0.8168  1.7693  0.4810
 3680SOL     OW22501   4.434   2.753   7.778  0.8319  0.9765 -0.7042
 3680SOL    HW122502   4.380   2.784   7.850  0.3190  0.5704 -0.9087
 3680SOL    HW222503   4.388   2.673   7.752 -0.6420  2.0180 -1.2967
 3681SOL     OW22504   4.657   1.585   3.217  0.1518 -0.3719 -0.4550
 3681SOL    HW122505   4.661   1.525   3.292  0.5814  0.5908  0.2992
 3681SOL    HW222506   0.019   1.623   3.232 -0.9323  2.6809 -2.0124
 3682SOL     OW22507   2.446   1.398  12.512  0.4269  0.0286 -0.5592
 3682SOL    HW122508   2.392   1.394  12.433 -0.7397 -1.2001  0.2999
 3682SOL    HW222509   2.387   1.348  12.568 -1.2240  0.5590 -1.8251
 3683SOL     OW22510   1.930   3.155   5.141  0.1000 -0.0328 -0.3075
 3683SOL    HW122511   2.007   3.097   5.140  1.2689  1.4998  0.6805
 3683SOL    HW222512   1.922   3.199   5.225  1.3247 -2.3061  1.0005
 3684SOL     OW22513   0.782   0.274   8.816 -0.4979  0.1874  0.1092
 3684SOL    HW122514   0.747   0.219   8.886 -0.7658  2.2537  1.5868
 3684SOL    HW222515   0.873   0.282   8.842 -0.2673  1.4256 -1.0453
 3685SOL     OW22516   2.630   2.768  14.853 -0.2243  0.2447  0.1620
 3685SOL    HW122517   2.616   2.841  14.792 -2.4246  0.3543  0.8235
 3685SOL    HW222518   2.678   2.814  14.922 -0.6002 -0.6786  1.0469
 3686SOL     OW22519   1.157   2.648   2.333  0.2760 -0.2527 -0.4018
 3686SOL    HW122520   1.209   2.567   2.333 -0.0792 -0.4615 -3.5980
 3686SOL    HW222521   1.172   2.668   2.241 -3.1309  3.6607 -0.0895
 3687SOL     OW22522   4.532   3.758   7.787 -0.2480  0.1615  0.2050
 3687SOL    HW122523   4.517   3.853   7.795  0.1453  0.3033 -0.7413
 3687SOL    HW222524   4.443   3.725   7.773 -0.6352  0.5183  1.8494
 3688SOL     OW22525   0.949   3.051  17.629  0.2639 -0.2424 -0.0027
 3688SOL    HW122526   0.974   3.064  17.537  0.7373 -1.2897 -0.0216
 3688SOL    HW222527   0.902   3.135  17.631  0.6509 -0.0280  0.0049
 3689SOL     OW22528   1.686   2.600   7.135  0.4115  0.0359  0.3091
 3689SOL    HW122529   1.660   2.526   7.081 -1.6288  1.1859 -0.2757
 3689SOL    HW222530   1.750   2.639   7.075  0.3040  0.4087  0.4346
 3690SOL     OW22531   3.288   0.358   7.962  0.4500  0.4218 -0.3367
 3690SOL    HW122532   3.236   0.282   7.935 -0.2070  1.7810 -2.8000
 3690SOL    HW222533   3.336   0.388   7.885  1.0922  0.5793  0.1227
 3691SOL     OW22534   2.418   4.112   6.492 -0.0453 -0.1572 -0.0086
 3691SOL    HW122535   2.434   4.182   6.556 -0.7033  1.4588 -1.6121
 3691SOL    HW222536   2.421   4.032   6.544  0.1056 -0.4625 -0.4866
 3692SOL     OW22537   0.939   1.968   8.272 -0.3149  0.0901 -0.6527
 3692SOL    HW122538   0.964   2.031   8.340  0.6494 -0.5350 -0.4285
 3692SOL    HW222539   0.880   2.031   8.230 -1.3201 -2.2851 -2.7550
 3693SOL     OW22540   0.093   1.060   5.754  0.1876  0.5191  0.6572
 3693SOL    HW122541   0.154   0.987   5.765 -2.4834 -2.0633 -1.9420
 3693SOL    HW222542   0.012   1.017   5.729  0.3483 -0.7674  2.3155
 3694SOL     OW22543   3.006   2.261   4.516  0.5129  0.2143 -0.2089
 3694SOL    HW122544   3.002   2.200   4.442  0.5542  0.8187 -0.7048
 3694SOL    HW222545   3.076   2.228   4.573  0.0727 -1.2460 -0.5053
 3695SOL     OW22546   1.720   0.060  11.369 -0.0574  0.0115  0.3267
 3695SOL    HW122547   1.747   0.083  11.458  3.1437 -0.0927 -0.6373
 3695SOL    HW222548   1.705   0.144  11.325 -0.2005  0.4665  1.2312
 3696SOL     OW22549   3.845   4.654   7.540  0.1352 -0.6792 -0.1432
 3696SOL    HW122550   3.887   4.724   7.590 -2.5079  0.7763  0.0227
 3696SOL    HW222551   3.888   4.660   7.455  3.5314  0.3466  1.6615
 3697SOL     OW22552   0.300   2.586   2.652 -0.4956  0.0902  0.3765
 3697SOL    HW122553   0.368   2.556   2.712 -0.6706  0.3833  0.7231
 3697SOL    HW222554   0.351   2.628   2.582  0.2555  2.8587  2.5996
 3698SOL     OW22555   1.442   0.585   4.386 -0.3662  0.0103  0.0720
 3698SOL    HW122556   1.462   0.504   4.433  0.9756  1.6458  2.3322
 3698SOL    HW222557   1.413   0.556   4.299 -2.2691  2.9981 -0.2904
 3699SOL     OW22558   1.832   3.356  17.437  0.2484 -0.4188  0.6145
 3699SOL    HW122559   1.755   3.402  17.470 -0.4488 -0.4390 -1.0004
 3699SOL    HW222560   1.831   3.263  17.462  0.0797 -0.3527  0.8457
 3700SOL     OW22561   2.916   2.287   8.387  0.0710  0.2961  0.1292
 3700SOL    HW122562   2.823   2.301   8.405  0.9215  0.6430  4.4050
 3700SOL    HW222563   2.949   2.289   8.477  2.2641  1.1886 -0.6991
 3701SOL     OW22564   1.102   0.235   0.114 -0.3429 -0.0019  0.6993
 3701SOL    HW122565   1.157   0.270   0.044 -0.9460 -2.9909 -1.2397
 3701SOL    HW222566   1.034   0.182   0.073 -0.6570 -0.1356  1.3861
 3702SOL     OW22567   0.241   1.337  11.838 -0.2081  0.9863  0.2334
 3702SOL    HW122568   0.256   1.381  11.921 -1.6880 -0.0967  1.0641
 3702SOL    HW222569   0.245   1.246  11.866 -1.8785  0.5668 -0.8501
 3703SOL     OW22570   3.923   2.502   8.542  0.1817  0.7844  1.1401
 3703SOL    HW122571   3.983   2.536   8.475  0.0977  0.8908  1.1190
 3703SOL    HW222572   3.971   2.425   8.571  0.6583 -0.3290 -2.5688
 3704SOL     OW22573   1.103   2.593   4.942 -0.8502  0.4529 -0.3510
 3704SOL    HW122574   1.138   2.663   4.886 -0.5808  1.6066  1.2581
 3704SOL    HW222575   1.145   2.618   5.024  1.2024  2.1325 -1.9124
 3705SOL     OW22576   2.767   2.451   3.557  0.4543  0.2329 -0.5230
 3705SOL    HW122577   2.855   2.473   3.527 -0.1383  0.7341 -1.8659
 3705SOL    HW222578   2.789   2.365   3.593 -0.0790 -0.5224 -2.0200
 3706SOL     OW22579   0.461   4.531   5.989  0.1986  0.2961  0.0059
 3706SOL    HW122580   0.404   4.467   5.947  0.0747  0.5713 -0.2429
 3706SOL    HW222581   0.388   4.582   6.026 -1.4031 -1.0268 -1.3699
 3707SOL     OW22582   2.657   4.308   9.818  0.2557  0.0476 -0.6801
 3707SOL    HW122583   2.708   4.227   9.811 -0.0015 -0.2894  1.3113
 3707SOL    HW222584   2.671   4.332   9.910  1.9900  1.3896 -1.2876
 3708SOL     OW22585   0.345   0.643   3.730  0.0004  0.0092 -0.9258
 3708SOL    HW122586   0.393   0.663   3.811 -2.5994 -0.0728  0.6649
 3708SOL    HW222587   0.421   0.622   3.676  1.6285 -0.1815  1.4074
 3709SOL     OW22588   4.633   2.347  10.993 -0.3403 -0.1974 -0.4713
 3709SOL    HW122589   4.665   2.388  10.912  2.1963 -1.4384 -0.0834
 3709SOL    HW222590   4.564   2.409  11.015  1.6697  2.1739 -0.8161
 3710SOL     OW22591   2.631   2.003   4.049  0.4262 -0.2358 -0.4294
 3710SOL    HW122592   2.579   2.005   4.130 -2.6537  1.4475 -2.4551
 3710SOL    HW222593   2.626   2.097   4.031  4.0971  0.0597 -0.0239
 3711SOL     OW22594   4.108   4.610  15.907  0.0858  0.1802 -0.0073
 3711SOL    HW122595   4.047   4.544  15.939 -0.7662 -0.0805 -2.2401
 3711SOL    HW222596   4.184   4.554  15.892 -0.8263 -1.1411  0.3565
 3712SOL     OW22597   2.441   1.621   6.784 -0.1360 -0.0750  0.1691
 3712SOL    HW122598   2.402   1.534   6.789  0.2565 -0.3229 -1.1956
 3712SOL    HW222599   2.458   1.637   6.877 -0.5869 -1.0082  0.4124
 3713SOL     OW22600   3.043   1.193  10.107  0.2772 -0.2260  0.0851
 3713SOL    HW122601   3.134   1.219  10.097  0.1096  0.3609  0.1242
 3713SOL    HW222602   3.015   1.220  10.194  2.3564  0.1428  0.6308
 3714SOL     OW22603   3.966   4.086   0.841 -0.5697  0.4298  0.2074
 3714SOL    HW122604   3.873   4.075   0.862 -0.6479  0.3926 -0.1658
 3714SOL    HW222605   3.965   4.166   0.788 -0.3983  0.3359  0.0659
 3715SOL     OW22606   0.338   2.290  11.397 -0.1896  0.1146 -0.5363
 3715SOL    HW122607   0.376   2.314  11.482 -0.0920 -2.2140  0.0651
 3715SOL    HW222608   0.357   2.197  11.394 -0.7104  0.0702 -2.4733
 3716SOL     OW22609   0.326   2.165   1.296  0.5195  0.0293  0.1208
 3716SOL    HW122610   0.332   2.123   1.382  0.4234  2.0366  1.1135
 3716SOL    HW222611   0.240   2.207   1.302 -0.6413 -2.5059  0.8984
 3717SOL     OW22612   2.849   3.038   9.264 -0.1562 -0.1886  0.2789
 3717SOL    HW122613   2.915   3.086   9.314  1.5380 -0.7429 -1.4063
 3717SOL    HW222614   2.844   3.095   9.187 -0.8201 -1.5731 -0.6884
 3718SOL     OW22615   3.592   0.016   8.941 -0.1273 -0.3414  0.3335
 3718SOL    HW122616   3.659   0.078   8.969 -1.3424  0.4444  1.4668
 3718SOL    HW222617   3.645   4.689   8.879  1.0013  1.0865  0.1097
 3719SOL     OW22618   1.803   0.540  13.232 -0.5394  0.0653  0.1316
 3719SOL    HW122619   1.767   0.584  13.155 -0.4273  1.1949  0.7312
 3719SOL    HW222620   1.858   0.468  13.201 -0.3214  0.3763 -0.1995
 3720SOL     OW22621   3.466   3.975   4.289  0.0488 -0.1334 -0.3630
 3720SOL    HW122622   3.538   3.940   4.342 -0.3599  0.8580  0.8299
 3720SOL    HW222623   3.395   3.968   4.353  0.6777 -0.2789  0.3145
 3721SOL     OW22624   2.687   2.272   8.139  0.2935 -0.4880  0.3902
 3721SOL    HW122625   2.625   2.309   8.203 -0.6335  2.1579 -2.0305
 3721SOL    HW222626   2.691   2.344   8.076 -0.3174 -0.6428  0.1790
 3722SOL     OW22627   1.461   3.023   3.181 -0.2060 -0.0947  0.5537
 3722SOL    HW122628   1.472   3.072   3.099  2.1903 -0.0952  0.8793
 3722SOL    HW222629   1.422   2.941   3.148 -0.7767 -0.5688  2.4230
 3723SOL     OW22630   3.144   1.387  12.764  0.0898  0.0388 -1.0552
 3723SOL    HW122631   3.214   1.335  12.724  0.5988 -0.3284  0.3354
 3723SOL    HW222632   3.192   1.425  12.837 -1.4562 -1.9146  0.9542
 3724SOL     OW22633   0.672   1.364   3.972  0.4912  0.3283 -0.0084
 3724SOL    HW122634   0.675   1.340   3.879  0.3769  0.3360 -0.0143
 3724SOL    HW222635   0.617   1.442   3.962 -0.2307 -0.1938 -0.1425
 3725SOL     OW22636   0.421   0.964   7.158  0.6015 -0.6458 -0.1709
 3725SOL    HW122637   0.397   0.872   7.162 -0.5576 -0.1396  4.0865
 3725SOL    HW222638   0.414   0.997   7.248  1.2268 -2.2251  0.4432
 3726SOL     OW22639   2.025   1.544   5.078  0.0037 -0.7990 -0.4305
 3726SOL    HW122640   2.022   1.603   5.003  0.3987 -0.9716 -0.5815
 3726SOL    HW222641   2.109   1.566   5.120  0.7173 -2.2668 -1.1017
 3727SOL     OW22642   0.157   3.801   2.583  0.4703  0.1917 -0.1714
 3727SOL    HW122643   0.232   3.845   2.542  0.4223 -0.2214 -0.7065
 3727SOL    HW222644   0.191   3.714   2.601  0.3986  0.2696  0.3290
 3728SOL     OW22645   0.638   1.859   7.025  0.0513  0.1369  0.1219
 3728SOL    HW122646   0.647   1.919   7.098  1.6125 -0.2699  0.2627
 3728SOL    HW222647   0.683   1.910   6.957  0.9278  0.4045  0.8960
 3729SOL     OW22648   4.631   1.721   1.920  0.0106 -0.4207  0.1026
 3729SOL    HW122649   4.652   1.784   1.852 -0.9465 -0.1441  0.0713
 3729SOL    HW222650   4.656   1.640   1.875  2.4539  0.3072  0.1516
 3730SOL     OW22651   1.873   2.270  10.884  0.0417 -0.1280 -0.6930
 3730SOL    HW122652   1.963   2.274  10.852  0.7352  1.2318  1.4402
 3730SOL    HW222653   1.836   2.251  10.797 -1.5389 -0.1750 -0.0080
 3731SOL     OW22654   4.026   2.662   9.532 -0.1272 -0.1332 -0.1292
 3731SOL    HW122655   3.942   2.628   9.503 -0.4415  1.1434 -0.7573
 3731SOL    HW222656   4.040   2.742   9.480  0.2519 -0.9623 -1.2876
 3732SOL     OW22657   1.511   0.201   8.785 -0.6939 -0.2712  0.1109
 3732SOL    HW122658   1.451   0.255   8.836 -1.2592 -2.7495  2.1040
 3732SOL    HW222659   1.569   0.267   8.748  0.3037 -1.6280 -0.7728
 3733SOL     OW22660   0.021   0.240   5.066  0.6666  0.1863  0.0028
 3733SOL    HW122661   0.067   0.257   4.984  1.8222 -1.8062  0.2381
 3733SOL    HW222662   4.668   0.295   5.051 -0.9320 -1.7499  1.0748
 3734SOL     OW22663   0.163   4.302   2.820  0.5841 -0.0175 -0.0005
 3734SOL    HW122664   0.161   4.376   2.880  0.1211  0.2954 -0.4070
 3734SOL    HW222665   0.204   4.337   2.742 -0.4145 -1.2071 -1.0749
 3735SOL     OW22666   0.154   1.207   7.307 -0.1377  0.1994  0.3576
 3735SOL    HW122667   0.099   1.214   7.385 -1.7057 -2.8487 -0.4920
 3735SOL    HW222668   0.104   1.167   7.236 -1.5328  0.9608  0.9169
 3736SOL     OW22669   1.081   1.833   8.075 -0.2575  0.2920 -0.2941
 3736SOL    HW122670   1.040   1.902   8.128  0.7841  1.4340 -0.9753
 3736SOL    HW222671   1.019   1.762   8.091  0.6275 -1.1653 -3.4422
 3737SOL     OW22672   3.333   1.554  15.459 -0.4764 -0.1656  0.1239
 3737SOL    HW122673   3.237   1.549  15.458 -0.5192  0.9635 -1.0096
 3737SOL    HW222674   3.342   1.591  15.371  1.7718 -1.5213 -0.2106
 3738SOL     OW22675   1.394   1.864   1.419  0.0723  0.2558  0.2291
 3738SOL    HW122676   1.333   1.902   1.482 -0.3108  0.5739 -0.3347
 3738SOL    HW222677   1.339   1.850   1.342  1.4345 -3.3294 -0.0723
 3739SOL     OW22678   1.988   3.692   4.031 -0.2038  0.4148  0.1459
 3739SOL    HW122679   1.988   3.665   4.123 -3.3109  0.3237  0.1163
 3739SOL    HW222680   2.012   3.785   4.032 -0.0625  0.3698  0.9572
 3740SOL     OW22681   2.855   1.853   4.099  0.4835 -0.0516  1.0099
 3740SOL    HW122682   2.773   1.902   4.091  1.4661  1.1265 -1.9923
 3740SOL    HW222683   2.908   1.885   4.025  0.0816  0.5164  0.9677
 3741SOL     OW22684   3.663   1.660   5.603 -0.4125  0.5130 -0.3612
 3741SOL    HW122685   3.628   1.677   5.515  0.5330  1.5472 -0.5192
 3741SOL    HW222686   3.665   1.747   5.641 -1.4731 -0.1727  1.2710
 3742SOL     OW22687   2.567   3.198   4.658 -0.1453 -0.3604 -0.1188
 3742SOL    HW122688   2.490   3.144   4.676 -1.1895  1.1139 -0.1942
 3742SOL    HW222689   2.615   3.147   4.592 -0.9507 -0.6074 -0.5141
 3743SOL     OW22690   4.096   4.338  15.827 -0.3591  0.1488  0.1427
 3743SOL    HW122691   4.106   4.276  15.755 -0.8366 -1.1400  1.2004
 3743SOL    HW222692   4.047   4.277  15.882 -0.6086  1.2545  1.1385
 3744SOL     OW22693   1.466   0.285   5.908  0.0886  0.0731 -0.2752
 3744SOL    HW122694   1.419   0.309   5.828  2.5006  0.9807 -1.4271
 3744SOL    HW222695   1.552   0.321   5.889  0.6261 -0.9178  0.2826
 3745SOL     OW22696   4.338   2.414   9.938  0.0965 -0.4938  0.0734
 3745SOL    HW122697   4.369   2.343   9.993 -1.7204  0.1005  1.8624
 3745SOL    HW222698   4.406   2.408   9.870  0.0135  0.1991 -0.0707
 3746SOL     OW22699   1.714   4.624  13.145 -0.2937  0.8029 -1.0772
 3746SOL    HW122700   1.653   4.565  13.100 -0.2110 -0.6634  0.7454
 3746SOL    HW222701   1.767   4.655  13.072  1.3552  1.4397  0.3824
 3747SOL     OW22702   3.729   3.273  17.012 -0.2267 -0.2768 -0.5045
 3747SOL    HW122703   3.764   3.330  17.080  0.1805  0.4561 -1.3258
 3747SOL    HW222704   3.643   3.258  17.052  0.1122 -1.6297 -0.2930
 3748SOL     OW22705   1.791   3.021   4.918  0.4993  0.5647 -1.3001
 3748SOL    HW122706   1.826   3.064   4.996  1.4787  1.0361 -1.9908
 3748SOL    HW222707   1.799   3.092   4.854  2.5940  1.4034 -0.1265
 3749SOL     OW22708   3.323   4.536   2.403 -0.1189  0.4021  0.1682
 3749SOL    HW122709   3.415   4.521   2.383 -0.5961 -2.5702  0.2133
 3749SOL    HW222710   3.294   4.447   2.427 -0.7437  0.3733 -0.7138
 3750SOL     OW22711   1.676   4.002   3.084  0.4662 -0.2642  0.7453
 3750SOL    HW122712   1.591   4.037   3.059  0.9620 -1.9023 -3.2360
 3750SOL    HW222713   1.677   3.920   3.035 -2.6700  0.6455 -0.7917
 3751SOL     OW22714   1.960   0.071  10.782 -0.0144 -0.5057  0.1377
 3751SOL    HW122715   1.889   0.008  10.797 -1.4164  1.3229  1.2542
 3751SOL    HW222716   1.942   0.140  10.846  1.2193  0.6749 -0.7684
 3752SOL     OW22717   2.723   0.429  10.665  0.4135  0.1448  0.1205
 3752SOL    HW122718   2.789   0.366  10.637  0.3086  1.0581 -2.1355
 3752SOL    HW222719   2.686   0.432  10.577  2.0866 -0.3792 -0.6060
 3753SOL     OW22720   2.982   1.664   4.782  0.1952  0.1629  0.3510
 3753SOL    HW122721   2.988   1.729   4.712  0.3190 -0.0480  0.1662
 3753SOL    HW222722   2.952   1.582   4.742  2.1769  0.0864 -0.9699
 3754SOL     OW22723   1.440   0.469   4.988 -0.8848 -0.2495  0.4680
 3754SOL    HW122724   1.504   0.484   5.058  0.0946 -1.6966 -0.1194
 3754SOL    HW222725   1.366   0.521   5.018 -0.7311 -0.0328  0.4689
 3755SOL     OW22726   2.782   1.738   6.553 -0.4010 -0.0494 -0.1358
 3755SOL    HW122727   2.777   1.755   6.459  0.5210 -1.5511 -0.4529
 3755SOL    HW222728   2.877   1.743   6.567 -0.1327  2.2472 -2.7255
 3756SOL     OW22729   1.269   2.507  10.340  0.1383  0.8828  0.2339
 3756SOL    HW122730   1.316   2.441  10.289  2.0379 -0.6444  3.9859
 3756SOL    HW222731   1.206   2.451  10.386 -0.6609 -0.1565 -2.1116
 3757SOL     OW22732   0.021   2.248   4.128  0.0984  0.1897 -0.4632
 3757SOL    HW122733   0.014   2.341   4.109 -2.3096 -0.3702 -2.2567
 3757SOL    HW222734   0.082   2.226   4.057  0.9171 -0.2333  0.3628
 3758SOL     OW22735   0.134   1.968   3.021  0.1509 -0.6173  0.1943
 3758SOL    HW122736   0.073   1.953   3.094  1.5558 -0.0843  1.4687
 3758SOL    HW222737   0.116   1.887   2.973 -0.4215 -1.6862  2.1953
 3759SOL     OW22738   0.735   1.294   8.107  0.0130 -0.2901 -0.2232
 3759SOL    HW122739   0.757   1.284   8.015 -3.2620 -0.6163 -0.9525
 3759SOL    HW222740   0.669   1.363   8.098 -1.6083 -2.0051 -1.3658
 3760SOL     OW22741   2.697   3.571   0.238  0.0610  0.0709  0.6539
 3760SOL    HW122742   2.679   3.512   0.164 -1.2936  0.2114  0.8700
 3760SOL    HW222743   2.758   3.508   0.278  2.1725  1.2778 -0.6406
 3761SOL     OW22744   2.549   3.135  10.833 -0.2491  0.4011  0.2585
 3761SOL    HW122745   2.605   3.060  10.853 -1.6829 -0.5377  0.7874
 3761SOL    HW222746   2.478   3.100  10.779  0.5229  2.1897 -1.8635
 3762SOL     OW22747   0.738   0.476   7.345 -0.6255 -0.2194 -0.5170
 3762SOL    HW122748   0.690   0.508   7.421 -3.5388 -1.7286 -1.7121
 3762SOL    HW222749   0.833   0.490   7.355 -0.7200 -0.9300  1.3093
 3763SOL     OW22750   1.466   1.373  15.346 -0.7991 -0.0581  0.4682
 3763SOL    HW122751   1.467   1.298  15.405  0.3189 -0.3441  0.0710
 3763SOL    HW222752   1.373   1.374  15.324 -0.4644 -0.5936 -0.9332
 3764SOL     OW22753   2.412   1.959   5.765 -0.1438 -0.0788 -0.4937
 3764SOL    HW122754   2.435   2.052   5.770  1.4445 -0.4735 -0.4814
 3764SOL    HW222755   2.499   1.919   5.766  0.3851  1.0649 -0.1831
 3765SOL     OW22756   4.368   0.412   6.584 -0.0479 -0.2531 -0.3773
 3765SOL    HW122757   4.334   0.501   6.575  0.4525  0.1223  1.3996
 3765SOL    HW222758   4.460   0.430   6.562 -0.6953  0.8720 -2.1602
 3766SOL     OW22759   2.515   3.766   0.202  0.2982  0.3209  0.4819
 3766SOL    HW122760   2.423   3.754   0.223  0.3852 -1.3136 -0.0573
 3766SOL    HW222761   2.555   3.687   0.238  0.4239 -0.7586 -2.0002
 3767SOL     OW22762   0.141   1.729   3.283  0.2383 -0.0076  0.1532
 3767SOL    HW122763   0.186   1.813   3.268 -1.5044  0.9575  0.3596
 3767SOL    HW222764   0.211   1.681   3.327  0.7043  0.4059 -0.1204
 3768SOL     OW22765   3.693   1.031  13.647  0.0112  0.2280  0.3923
 3768SOL    HW122766   3.627   1.091  13.682 -0.3627  0.3129 -0.4497
 3768SOL    HW222767   3.768   1.088  13.633  0.7125 -0.9225 -0.5615
 3769SOL     OW22768   1.003   0.551   6.766 -0.4805  0.7123 -0.0190
 3769SOL    HW122769   1.097   0.563   6.756 -0.4421  0.8067  0.4346
 3769SOL    HW222770   0.976   0.638   6.797 -1.0765 -0.6496  3.2989
 3770SOL     OW22771   2.193   1.392  10.345  0.3290 -0.3388  0.0918
 3770SOL    HW122772   2.120   1.356  10.295 -0.1481 -2.2789  2.1553
 3770SOL    HW222773   2.158   1.416  10.431  0.9153 -0.5001  0.3826
 3771SOL     OW22774   2.571   1.966   4.341 -0.0859  0.2097 -0.3375
 3771SOL    HW122775   2.624   2.017   4.403  1.5341  0.2644 -1.7687
 3771SOL    HW222776   2.481   1.974   4.371  0.2835  1.9208  0.2921
 3772SOL     OW22777   4.030   0.320  12.577  0.2420  0.8602 -0.4018
 3772SOL    HW122778   4.068   0.249  12.628 -1.4491 -0.8299 -1.4982
 3772SOL    HW222779   4.073   0.306  12.493  1.8274 -0.1630  0.5835
 3773SOL     OW22780   4.529   4.417  14.557  0.3781 -0.1331 -0.0651
 3773SOL    HW122781   4.505   4.337  14.509  1.4921  1.4767 -3.3266
 3773SOL    HW222782   4.519   4.385  14.646 -2.4576 -0.3864 -0.4751
 3774SOL     OW22783   4.569   0.795   4.673  0.3390  0.3626 -0.6926
 3774SOL    HW122784   4.521   0.806   4.591  1.6728 -1.6643 -1.7493
 3774SOL    HW222785   4.610   0.882   4.669  0.4133  0.4108  0.9080
 3775SOL     OW22786   3.461   1.132   9.284  0.6613  0.5026  0.0404
 3775SOL    HW122787   3.437   1.171   9.200 -0.3432  1.9362  0.9843
 3775SOL    HW222788   3.463   1.037   9.268  0.3633  0.5711 -0.4280
 3776SOL     OW22789   0.566   1.362   9.688 -0.5196  0.0768 -0.1731
 3776SOL    HW122790   0.589   1.308   9.612  0.0575 -0.3166  0.2798
 3776SOL    HW222791   0.630   1.433   9.678 -1.9711  1.4877  0.5799
 3777SOL     OW22792   0.262   2.053   4.811 -0.0653  0.3529  0.2165
 3777SOL    HW122793   0.217   2.096   4.884  0.0635  1.9634 -0.6553
 3777SOL    HW222794   0.301   1.969   4.836 -1.1020 -1.0815 -2.9877
 3778SOL     OW22795   0.790   2.173   8.892 -0.0588 -0.2455 -0.1563
 3778SOL    HW122796   0.839   2.133   8.964 -2.2560 -1.0372  0.9311
 3778SOL    HW222797   0.746   2.245   8.938  1.6627  1.6763 -1.5542
 3779SOL     OW22798   0.769   3.763   5.403  0.2818  0.3330 -0.7770
 3779SOL    HW122799   0.737   3.793   5.488  0.8625 -2.3766  0.4166
 3779SOL    HW222800   0.813   3.840   5.367 -2.2501  2.9411  1.7196
 3780SOL     OW22801   2.758   1.118   4.725  0.4672  0.0316  0.1091
 3780SOL    HW122802   2.676   1.167   4.732  0.0817 -0.7357  1.0833
 3780SOL    HW222803   2.752   1.036   4.775 -1.6072  2.0446  3.2356
 3781SOL     OW22804   1.783   1.246  11.057  0.0840  0.4004 -0.3156
 3781SOL    HW122805   1.744   1.242  10.970 -0.0595 -0.7974 -0.1921
 3781SOL    HW222806   1.870   1.209  11.040 -0.0018  0.1975 -0.3168
 3782SOL     OW22807   2.354   2.144   0.862 -0.1443  0.2643  0.1883
 3782SOL    HW122808   2.414   2.120   0.933 -0.8294 -4.1655 -0.7172
 3782SOL    HW222809   2.383   2.232   0.840 -0.0604  0.2279  0.1524
 3783SOL     OW22810   1.712   1.348   4.539  0.0784 -0.2749 -0.2720
 3783SOL    HW122811   1.758   1.372   4.619 -3.4967 -1.6794  2.2062
 3783SOL    HW222812   1.754   1.273   4.496  1.3061  0.6274 -0.6553
 3784SOL     OW22813   1.077   4.420   8.476  0.0177  0.1973  0.3148
 3784SOL    HW122814   1.043   4.335   8.503  0.8257 -0.0567  0.5290
 3784SOL    HW222815   1.068   4.460   8.562  2.9982 -1.2261  1.2956
 3785SOL     OW22816   3.820   2.058   1.126  0.0108 -0.5941  0.0208
 3785SOL    HW122817   3.864   2.043   1.043 -0.3334 -0.9202 -0.0979
 3785SOL    HW222818   3.884   2.034   1.193  2.0329 -0.9705 -2.0581
 3786SOL     OW22819   3.335   1.267   1.799 -0.0796 -0.5586  0.8981
 3786SOL    HW122820   3.363   1.336   1.739 -0.1149 -2.6757 -1.5845
 3786SOL    HW222821   3.332   1.199   1.731 -1.3141 -0.0157  0.4119
 3787SOL     OW22822   0.725   2.656   8.854  0.6406  0.2420  0.1407
 3787SOL    HW122823   0.709   2.710   8.777  2.0574 -0.3958 -0.5919
 3787SOL    HW222824   0.659   2.592   8.827 -0.7053  1.8202 -0.3026
 3788SOL     OW22825   2.253   4.401  10.534  0.4223  0.3584  0.1827
 3788SOL    HW122826   2.159   4.421  10.528  0.4474  0.1466 -0.9587
 3788SOL    HW222827   2.268   4.409  10.628  1.6487 -1.2741  0.1272
 3789SOL     OW22828   1.775   2.752  16.588 -0.0265 -0.5155  0.3972
 3789SOL    HW122829   1.681   2.758  16.607 -0.0249  1.7541 -0.3216
 3789SOL    HW222830   1.808   2.818  16.649 -0.1689 -1.1361  1.1450
 3790SOL     OW22831   1.878   0.609   5.242  0.8098  0.1337 -0.3230
 3790SOL    HW122832   1.907   0.677   5.303  0.8653 -3.0922  3.3329
 3790SOL    HW222833   1.912   0.534   5.292 -2.0721 -0.6621  0.4605
 3791SOL     OW22834   1.434   1.385  15.657  0.1063  0.2614  0.2926
 3791SOL    HW122835   1.400   1.299  15.682 -0.0586  1.3238  3.6396
 3791SOL    HW222836   1.503   1.402  15.721  0.5475 -2.0027  0.4231
 3792SOL     OW22837   2.996   1.927   4.622  0.0130 -0.4405  0.1206
 3792SOL    HW122838   2.993   1.979   4.702  0.1258  0.7017 -0.6267
 3792SOL    HW222839   2.902   1.921   4.601 -0.3592  2.6131  0.9141
 3793SOL     OW22840   2.724   1.862   4.929 -0.4429  0.3464  0.5408
 3793SOL    HW122841   2.672   1.940   4.944  0.0143  0.5453  1.0667
 3793SOL    HW222842   2.726   1.812   5.010  0.4910  0.8313  0.8121
 3794SOL     OW22843   2.215   1.618   1.048 -0.9320  0.4849 -0.4575
 3794SOL    HW122844   2.254   1.700   1.080 -1.8027  0.8239 -0.2752
 3794SOL    HW222845   2.256   1.609   0.962 -1.3763  3.5169 -1.0126
 3795SOL     OW22846   1.901   3.090   3.655  0.2376  0.3008 -0.5488
 3795SOL    HW122847   1.812   3.078   3.623 -0.0174 -2.1723  1.0910
 3795SOL    HW222848   1.951   3.102   3.574  0.6883  1.6213 -0.0760
 3796SOL     OW22849   0.559   3.801   4.889  0.6470  0.2021 -0.2041
 3796SOL    HW122850   0.546   3.896   4.895 -3.4281 -0.3265 -0.5486
 3796SOL    HW222851   0.570   3.797   4.794 -1.2285  1.4654 -0.4703
 3797SOL     OW22852   0.647   4.638   2.803  0.0418 -0.6453  0.5817
 3797SOL    HW122853   0.602   4.564   2.844  1.4592 -1.0942  1.3141
 3797SOL    HW222854   0.570   4.693   2.788 -0.4666 -1.0943  1.5252
 3798SOL     OW22855   1.984   4.717  11.248  0.1091 -0.1172  0.0973
 3798SOL    HW122856   2.077   0.010  11.258  0.0330  0.4887 -0.3043
 3798SOL    HW222857   1.963   0.077  11.287 -0.8596 -0.6039  0.6294
 3799SOL     OW22858   2.144   2.306   7.680  0.4833  0.5496 -0.3570
 3799SOL    HW122859   2.155   2.368   7.609 -1.4222  1.3283  0.0261
 3799SOL    HW222860   2.058   2.330   7.715  0.3859 -0.5973  0.2182
 3800SOL     OW22861   4.387   1.334  16.820  0.6259  0.0573  0.1967
 3800SOL    HW122862   4.387   1.314  16.727  1.2200  0.1164  0.1858
 3800SOL    HW222863   4.477   1.365  16.824  1.0359 -0.8335 -2.3503
 3801SOL     OW22864   0.077   2.045   4.288 -0.6228 -0.1843  0.5351
 3801SOL    HW122865   0.092   1.963   4.242 -0.4186 -1.3265  2.6162
 3801SOL    HW222866   0.056   2.109   4.220  1.9132  0.7879  0.6829
 3802SOL     OW22867   0.218   2.337  12.825  0.1967  0.3883 -0.3178
 3802SOL    HW122868   0.132   2.337  12.867  0.9621 -1.2745  1.2138
 3802SOL    HW222869   0.244   2.428  12.842  2.6666 -0.4155  0.2349
 3803SOL     OW22870   1.069   1.671   0.433 -0.3462 -0.3797  0.4161
 3803SOL    HW122871   1.091   1.578   0.425  1.6684  0.0046  1.4353
 3803SOL    HW222872   0.981   1.672   0.394 -0.3749  1.5309  0.5469
 3804SOL     OW22873   0.139   3.550   0.505  0.6423 -0.0454 -0.4592
 3804SOL    HW122874   0.191   3.595   0.439  1.5672 -0.5391 -0.0679
 3804SOL    HW222875   0.169   3.601   0.581  0.1246 -0.4136 -0.0125
 3805SOL     OW22876   4.103   4.116   5.377  0.4239  0.0405  0.0533
 3805SOL    HW122877   4.095   4.189   5.438  2.4598  0.4010 -0.1280
 3805SOL    HW222878   4.148   4.047   5.425  1.8073 -0.5724 -2.1020
 3806SOL     OW22879   3.102   3.162   3.876  0.0068 -0.2511  0.3924
 3806SOL    HW122880   3.019   3.151   3.922  1.1623 -3.1038  1.7548
 3806SOL    HW222881   3.106   3.090   3.813 -1.1520 -0.7133  0.8573
 3807SOL     OW22882   2.403   2.133   5.061 -0.7408  0.6654 -0.0815
 3807SOL    HW122883   2.426   2.176   5.143  0.7205 -1.1806  0.4960
 3807SOL    HW222884   2.396   2.197   4.991  2.0955  0.2662 -0.7257
 3808SOL     OW22885   1.741   3.369   7.649 -0.4188 -0.2450  0.3289
 3808SOL    HW122886   1.831   3.367   7.682 -0.3397 -1.1191  0.0581
 3808SOL    HW222887   1.721   3.463   7.645 -0.9775 -0.4162 -0.9762
 3809SOL     OW22888   4.693   1.330   4.661 -0.4439  0.5768  0.3612
 3809SOL    HW122889   4.672   1.423   4.657 -2.5679  0.1781  2.1440
 3809SOL    HW222890   0.007   1.318   4.574 -0.1522  3.3603  0.1065
 3810SOL     OW22891   1.727   2.785   8.677  0.0027 -0.8815  0.0288
 3810SOL    HW122892   1.657   2.838   8.716  1.0094  0.1386  0.4432
 3810SOL    HW222893   1.792   2.808   8.743 -0.1534 -0.5082  0.0564
 3811SOL     OW22894   0.115   4.035  15.594 -0.0562  0.4577  0.4155
 3811SOL    HW122895   0.080   4.104  15.538 -1.5075  2.7394  4.1337
 3811SOL    HW222896   0.065   3.961  15.558  0.7839  0.4997 -0.8316
 3812SOL     OW22897   3.642   4.401   1.619  0.6575  0.2472 -0.0219
 3812SOL    HW122898   3.717   4.374   1.671 -0.1848 -0.4732  0.8085
 3812SOL    HW222899   3.675   4.477   1.571  2.6381 -1.2197 -1.0246
 3813SOL     OW22900   1.192   2.897   6.550  0.0366  0.8165 -0.1573
 3813SOL    HW122901   1.161   2.821   6.599  0.8038 -0.1133 -1.1425
 3813SOL    HW222902   1.159   2.968   6.605  0.3657  1.7742 -1.1930
 3814SOL     OW22903   2.729   0.634   6.212  0.7166 -0.6455  0.1638
 3814SOL    HW122904   2.730   0.538   6.203  0.3257 -0.6170 -0.1819
 3814SOL    HW222905   2.665   0.654   6.143  3.0191  1.8709 -1.2188
 3815SOL     OW22906   0.619   3.841   6.276  0.0697  0.3994 -0.0168
 3815SOL    HW122907   0.661   3.813   6.194  0.9241  1.2279  0.1415
 3815SOL    HW222908   0.526   3.843   6.252 -0.0489  0.2358  0.4320
 3816SOL     OW22909   4.612   4.455  14.845  0.2861  0.3259 -0.3867
 3816SOL    HW122910   4.689   4.461  14.789  1.6993 -0.7113  1.4390
 3816SOL    HW222911   4.646   4.434  14.932 -2.2005 -2.4833 -0.0707
 3817SOL     OW22912   3.108   4.683  10.292  0.6883  0.1828 -0.4518
 3817SOL    HW122913   3.122   4.720  10.379  0.6787 -3.4782  1.1276
 3817SOL    HW222914   3.193   4.704  10.254  1.3550  0.0414  0.9946
 3818SOL     OW22915   3.924   3.089   1.107 -0.1141 -0.6430 -0.0248
 3818SOL    HW122916   3.992   3.098   1.041  1.2006  1.0991  1.5386
 3818SOL    HW222917   3.877   3.009   1.085 -0.2583 -0.3906 -0.6294
 3819SOL     OW22918   3.733   0.713   4.961 -0.5252  0.2839  0.0070
 3819SOL    HW122919   3.772   0.784   5.012  0.4886  0.3815 -0.9131
 3819SOL    HW222920   3.808   0.661   4.935 -1.6691 -0.8742 -0.9812
 3820SOL     OW22921   2.153   0.855   7.821 -0.9826  0.1902  0.3387
 3820SOL    HW122922   2.163   0.844   7.727  0.4068 -2.5511  0.8045
 3820SOL    HW222923   2.072   0.905   7.813 -1.6150 -1.1144 -1.4352
 3821SOL     OW22924   3.216   4.256   0.317 -0.0143  0.5121  0.1009
 3821SOL    HW122925   3.269   4.226   0.391  1.4153  1.9024 -0.3651
 3821SOL    HW222926   3.279   4.302   0.263 -1.1022  1.6508 -0.1919
 3822SOL     OW22927   2.189   4.256  14.712 -0.4794  0.2775  0.3717
 3822SOL    HW122928   2.183   4.163  14.735 -0.3561  0.2594  0.3310
 3822SOL    HW222929   2.236   4.286  14.789 -1.2987  1.6263  0.3360
 3823SOL     OW22930   4.183   2.015   9.006  0.4395  0.5265  0.1663
 3823SOL    HW122931   4.201   1.923   9.023  0.3620  0.8530  2.0248
 3823SOL    HW222932   4.088   2.011   8.996  0.3796 -1.5820  1.6493
 3824SOL     OW22933   0.923   0.793  12.491  0.0447  0.6346  0.4537
 3824SOL    HW122934   0.862   0.808  12.419  1.3727  1.2533 -0.5302
 3824SOL    HW222935   0.868   0.800  12.570 -3.4318  0.8927 -1.9979
 3825SOL     OW22936   1.750   4.654  10.057 -0.5873  1.0133  0.3583
 3825SOL    HW122937   1.681   4.602  10.017  0.7577  0.9383 -1.8432
 3825SOL    HW222938   1.771   4.602  10.135  1.8991  2.2206  0.5163
 3826SOL     OW22939   2.598   3.389   1.037 -0.5851 -0.0432 -0.4340
 3826SOL    HW122940   2.583   3.320   1.102  0.9541 -1.5784 -1.6920
 3826SOL    HW222941   2.579   3.463   1.094  1.0494 -1.8418  2.4637
 3827SOL     OW22942   2.276   3.516  11.743 -0.2596 -0.2902 -0.6336
 3827SOL    HW122943   2.248   3.444  11.686 -2.6073  0.0621  0.0971
 3827SOL    HW222944   2.308   3.469  11.820 -1.3845  0.5663  0.3422
 3828SOL     OW22945   2.093   3.327  17.518  0.1094  0.1210 -0.5352
 3828SOL    HW122946   2.011   3.352  17.475 -1.1484  0.5414  2.1216
 3828SOL    HW222947   2.068   3.288  17.601 -1.9718  1.9659 -0.2993
 3829SOL     OW22948   1.647   2.704   9.662  0.7528 -0.3172 -0.2998
 3829SOL    HW122949   1.700   2.647   9.719 -0.4676 -1.1228  0.0160
 3829SOL    HW222950   1.715   2.720   9.596 -0.2745 -0.0108 -1.2740
 3830SOL     OW22951   4.305   2.462   6.457  0.1715  0.1782 -0.2301
 3830SOL    HW122952   4.275   2.552   6.446  3.8676  0.9590 -3.7413
 3830SOL    HW222953   4.390   2.463   6.413 -0.5836  1.9396 -1.6537
 3831SOL     OW22954   3.670   1.398   9.020  0.0658  0.3730  0.0289
 3831SOL    HW122955   3.708   1.470   9.071  1.2787  1.9684 -3.0538
 3831SOL    HW222956   3.695   1.326   9.077  1.9575  1.2136  0.2897
 3832SOL     OW22957   3.827   4.134   5.797 -0.4572 -0.4340 -0.3631
 3832SOL    HW122958   3.798   4.189   5.724  1.0996 -0.7170 -1.1979
 3832SOL    HW222959   3.754   4.074   5.813 -0.9486 -0.0803 -1.2309
 3833SOL     OW22960   2.924   0.452  14.965 -0.8083  0.4999  0.0205
 3833SOL    HW122961   2.906   0.442  15.059  0.9256 -0.2864  0.2579
 3833SOL    HW222962   2.869   0.523  14.931  0.4993  1.4123 -0.1564
 3834SOL     OW22963   1.637   2.155  15.293 -0.0610  0.4614 -0.1789
 3834SOL    HW122964   1.587   2.173  15.213 -0.9020  0.4897  0.3513
 3834SOL    HW222965   1.561   2.154  15.351  0.3499 -0.1347  0.3429
 3835SOL     OW22966   1.688   0.397   8.674 -0.6930  0.1468  0.1414
 3835SOL    HW122967   1.769   0.412   8.722 -0.1847  0.1976 -0.7366
 3835SOL    HW222968   1.677   0.486   8.641  1.5468  0.2762 -0.2488
 3836SOL     OW22969   0.876   3.835   5.701 -0.3806  0.0606  0.3089
 3836SOL    HW122970   0.836   3.913   5.739 -0.1837  0.1888  0.2505
 3836SOL    HW222971   0.925   3.868   5.626 -1.0697  0.0422 -0.1497
 3837SOL     OW22972   3.954   0.755  17.001  0.0988 -0.1971  0.2879
 3837SOL    HW122973   4.042   0.786  17.022 -0.0627  0.3891  0.0885
 3837SOL    HW222974   3.932   0.699  17.075 -0.8105  0.1940  0.3063
 3838SOL     OW22975   2.811   1.474   4.579  0.5857  0.5282  0.6498
 3838SOL    HW122976   2.860   1.394   4.599 -1.2276 -1.1426 -1.4401
 3838SOL    HW222977   2.842   1.488   4.490 -1.9602  1.7161 -0.0371
 3839SOL     OW22978   0.989   1.494   3.004  0.0344 -0.0432  0.2793
 3839SOL    HW122979   1.048   1.569   3.015 -0.0611  0.4202 -2.2953
 3839SOL    HW222980   0.906   1.538   2.985  0.1669 -0.6739 -1.7718
 3840SOL     OW22981   4.004   3.618   4.480  0.2006 -0.2901  0.0051
 3840SOL    HW122982   4.094   3.600   4.453  0.8831  3.5359 -0.2405
 3840SOL    HW222983   4.012   3.710   4.504 -1.0030 -0.4444  0.9596
 3841SOL     OW22984   2.680   2.790   4.576 -0.7113 -0.2538  0.2195
 3841SOL    HW122985   2.708   2.713   4.527  0.8562  0.5274 -0.1226
 3841SOL    HW222986   2.692   2.757   4.665 -1.3231  0.4195  0.5454
 3842SOL     OW22987   3.221   2.099   4.925  0.3610  0.3655 -0.6255
 3842SOL    HW122988   3.242   2.006   4.932  0.8258  0.3288 -2.3595
 3842SOL    HW222989   3.129   2.087   4.901  0.6211  0.8941 -1.9065
 3843SOL     OW22990   2.552   1.521   6.479  0.1944 -0.7383 -0.3603
 3843SOL    HW122991   2.505   1.590   6.527  2.2489 -0.5916  1.4315
 3843SOL    HW222992   2.501   1.440   6.483 -0.7007 -0.2604 -2.0060
 3844SOL     OW22993   2.694   2.116   2.394 -0.5106 -0.3485 -0.3814
 3844SOL    HW122994   2.603   2.124   2.424 -0.9394 -4.0924 -0.7597
 3844SOL    HW222995   2.717   2.197   2.441 -0.2211 -1.3144  1.1420
 3845SOL     OW22996   2.445   4.227  17.615  0.1018 -0.4194  0.5992
 3845SOL    HW122997   2.413   4.181  17.537  0.8323  1.0218 -0.5648
 3845SOL    HW222998   2.528   4.182  17.633  1.6418  1.0843 -2.6310
 3846SOL     OW22999   2.784   3.892   6.685  0.0303  0.5193 -0.0913
 3846SOL    HW123000   2.858   3.907   6.627  0.8983 -0.7697  0.6800
 3846SOL    HW223001   2.819   3.827   6.747  0.2103  0.9947  0.3028
 3847SOL     OW23002   3.502   1.240   6.915  0.1390  0.2425 -0.0965
 3847SOL    HW123003   3.551   1.167   6.878 -1.0757 -1.1709  1.0753
 3847SOL    HW223004   3.412   1.226   6.886 -0.3053 -0.4111  1.6148
 3848SOL     OW23005   3.973   3.906   5.692  0.3784  0.5450  0.2773
 3848SOL    HW123006   3.952   3.968   5.762 -2.8538  1.4102 -1.4514
 3848SOL    HW223007   3.920   3.924   5.615 -2.0641 -0.5413  1.6994
 3849SOL     OW23008   2.666   4.465   4.160  0.2157 -0.4071  0.2088
 3849SOL    HW123009   2.685   4.521   4.234  1.9227 -0.7906  0.0524
 3849SOL    HW223010   2.718   4.498   4.087  0.2485  1.0393  0.8969
 3850SOL     OW23011   0.140   1.081   4.060  0.0832 -0.3425 -0.4253
 3850SOL    HW123012   0.228   1.093   4.097 -0.2935  2.4200 -0.4192
 3850SOL    HW223013   0.135   1.134   3.980  0.2227  1.0685  0.4960
 3851SOL     OW23014   2.495   0.064   2.286  0.3815 -0.2593  0.1721
 3851SOL    HW123015   2.585   0.031   2.282  0.9969  1.3208  1.3812
 3851SOL    HW223016   2.468   0.053   2.195  0.4635  0.2774  0.0843
 3852SOL     OW23017   0.911   3.356   7.850  0.2095 -0.1483 -0.1127
 3852SOL    HW123018   1.003   3.339   7.833 -0.2277 -3.5948  0.9863
 3852SOL    HW223019   0.892   3.309   7.932 -1.3276 -1.8916 -1.4733
 3853SOL     OW23020   1.567   2.285  16.862 -0.7186  0.8716  0.3517
 3853SOL    HW123021   1.561   2.255  16.953  0.7811 -0.3023  0.0693
 3853SOL    HW223022   1.643   2.233  16.835  0.3676  0.1832  4.6304
 3854SOL     OW23023   2.575   4.025  10.328 -0.4814 -0.2268 -0.2351
 3854SOL    HW123024   2.598   3.949  10.381  1.2629  0.7662  0.4394
 3854SOL    HW223025   2.561   4.091  10.396  2.3311  0.0680  0.0854
 3855SOL     OW23026   3.425   4.271  12.136 -0.6358  0.2217 -0.1431
 3855SOL    HW123027   3.503   4.229  12.171  0.0370  1.1329 -0.5375
 3855SOL    HW223028   3.451   4.362  12.122 -1.0290  0.4728  0.7722
 3856SOL     OW23029   1.016   3.567  13.651 -0.2906  0.5209 -0.3129
 3856SOL    HW123030   1.054   3.645  13.693  0.0981  0.5479 -0.7210
 3856SOL    HW223031   0.968   3.529  13.724  1.3754  0.4682  0.7559
 3857SOL     OW23032   4.204   1.570  10.850 -0.0535 -0.2637  0.1921
 3857SOL    HW123033   4.234   1.565  10.759  0.7599  1.7327  0.3630
 3857SOL    HW223034   4.273   1.519  10.891 -1.6755 -1.9895  0.7668
 3858SOL     OW23035   1.268   1.262   3.869 -0.4571  0.3785 -0.0008
 3858SOL    HW123036   1.291   1.327   3.936  0.0452 -0.1755  0.3626
 3858SOL    HW223037   1.177   1.283   3.848  0.2530  3.2473 -0.2612
 3859SOL     OW23038   2.895   3.536   6.043  0.0482 -0.3378 -0.2886
 3859SOL    HW123039   2.918   3.513   5.953  1.5863 -0.8596  0.2269
 3859SOL    HW223040   2.934   3.623   6.051 -0.7063  0.0783 -1.2473
 3860SOL     OW23041   2.133   3.487   9.599  0.4388 -0.0856 -0.3053
 3860SOL    HW123042   2.223   3.506   9.571  0.6283 -1.3297 -0.5530
 3860SOL    HW223043   2.089   3.567   9.571  0.2299  0.2187  0.9153
 3861SOL     OW23044   3.149   3.259   2.258  0.0436 -0.3494 -0.0117
 3861SOL    HW123045   3.076   3.198   2.268 -0.2819  0.3369  1.6535
 3861SOL    HW223046   3.199   3.224   2.184  0.8001 -1.6660  1.1369
 3862SOL     OW23047   1.021   0.919   5.963 -0.6583  0.5822  0.4891
 3862SOL    HW123048   0.969   0.839   5.954  1.7241 -0.9033  0.0407
 3862SOL    HW223049   0.968   0.983   5.914 -0.7482  0.8249  0.8985
 3863SOL     OW23050   0.627   0.506   4.750  0.6688  0.4087  0.0836
 3863SOL    HW123051   0.702   0.519   4.692  0.8590 -1.6975 -0.1180
 3863SOL    HW223052   0.561   0.512   4.681  3.2018  3.2230 -2.1311
 3864SOL     OW23053   2.843   3.863   3.052  0.1984 -0.7235 -0.0171
 3864SOL    HW123054   2.806   3.921   3.119 -0.0434 -0.8629 -0.0305
 3864SOL    HW223055   2.758   3.856   3.007 -0.2198  0.8777  0.5248
 3865SOL     OW23056   1.296   0.342   6.972 -0.5438  0.0994 -0.6460
 3865SOL    HW123057   1.266   0.260   7.009  0.0427 -1.3947 -3.4539
 3865SOL    HW223058   1.322   0.398   7.045 -1.3081  0.9859 -1.0508
 3866SOL     OW23059   1.677   0.431  12.285 -0.2478 -0.3558 -0.5672
 3866SOL    HW123060   1.757   0.484  12.285 -0.6967  0.3188 -0.9771
 3866SOL    HW223061   1.610   0.498  12.294 -0.2105 -0.5521  1.0310
 3867SOL     OW23062   0.517   2.478   6.432 -0.1009  0.8156  0.0452
 3867SOL    HW123063   0.566   2.396   6.426  1.9818  2.1275 -0.9391
 3867SOL    HW223064   0.596   2.532   6.439  0.7323 -0.2829 -1.1871
 3868SOL     OW23065   2.168   0.129   4.533  0.6031 -0.2748  0.2719
 3868SOL    HW123066   2.257   0.165   4.535  0.4006  0.1603  1.2527
 3868SOL    HW223067   2.129   0.189   4.470  0.9533 -0.9140 -0.5594
 3869SOL     OW23068   2.630   4.304   5.179  0.7312  0.1656 -0.8128
 3869SOL    HW123069   2.551   4.306   5.232  1.4109  1.5184  0.1381
 3869SOL    HW223070   2.694   4.301   5.250  1.2817 -2.0350 -1.3893
 3870SOL     OW23071   3.600   1.704   1.963  0.7138  0.2137  0.1998
 3870SOL    HW123072   3.550   1.785   1.957 -0.6429 -0.6802 -0.7629
 3870SOL    HW223073   3.545   1.648   1.907  1.8380  1.3830 -2.0634
 3871SOL     OW23074   4.396   2.817   7.136  0.6091  0.1072  0.6887
 3871SOL    HW123075   4.367   2.784   7.221 -3.6680  2.5295  0.2133
 3871SOL    HW223076   4.443   2.898   7.156  2.7344 -0.6421 -1.3487
 3872SOL     OW23077   0.269   0.877   5.480 -0.5049 -0.1595 -0.3838
 3872SOL    HW123078   0.220   0.901   5.402  0.3993 -0.0840 -0.9207
 3872SOL    HW223079   0.334   0.945   5.492 -1.3203  0.9098 -2.1587
 3873SOL     OW23080   4.134   1.324   5.340  0.4316 -0.3747 -0.0656
 3873SOL    HW123081   4.156   1.231   5.338  1.3506 -0.1291 -1.1588
 3873SOL    HW223082   4.067   1.324   5.409 -0.6647  0.4929 -1.1444
 3874SOL     OW23083   2.501   4.283   4.485  0.0057  0.1736 -0.7982
 3874SOL    HW123084   2.525   4.207   4.538  1.4258  0.4382 -1.0652
 3874SOL    HW223085   2.460   4.342   4.548  1.9240 -2.3684  2.7889
 3875SOL     OW23086   4.206   1.989   7.950  0.1210  0.6921 -0.0846
 3875SOL    HW123087   4.121   2.032   7.947  0.0581  0.6778  1.8445
 3875SOL    HW223088   4.235   1.988   7.858  0.6914 -1.5740  0.1198
 3876SOL     OW23089   3.469   1.766   2.605  0.2751 -0.0290  0.3315
 3876SOL    HW123090   3.485   1.672   2.613  1.1773 -0.0029 -1.2437
 3876SOL    HW223091   3.389   1.769   2.553  0.8256  0.2535 -0.4834
 3877SOL     OW23092   3.711   2.597   2.447  0.2868 -0.2497 -0.0470
 3877SOL    HW123093   3.757   2.514   2.462  0.1218 -0.2730  0.3134
 3877SOL    HW223094   3.780   2.658   2.476  0.5054 -0.5511  0.0703
 3878SOL     OW23095   3.125   2.469   7.969 -0.4499  0.2091  0.5571
 3878SOL    HW123096   3.206   2.439   8.010  0.3662  3.5858  1.4038
 3878SOL    HW223097   3.070   2.475   8.047  0.2063 -0.4491  1.0775
 3879SOL     OW23098   4.669   1.957  15.998  0.6761 -0.1720  0.1761
 3879SOL    HW123099   4.622   1.885  16.039  0.5777 -0.3689 -0.2776
 3879SOL    HW223100   4.666   2.029  16.062 -0.2157 -1.0407  1.1013
 3880SOL     OW23101   2.347   0.253   1.969 -0.2170  0.0890 -1.2458
 3880SOL    HW123102   2.326   0.170   2.011  2.7647  0.8912  1.8684
 3880SOL    HW223103   2.347   0.227   1.877  0.6293 -1.6785 -0.7383
 3881SOL     OW23104   4.340   3.349   7.334 -0.1862  0.9052 -0.1365
 3881SOL    HW123105   4.409   3.287   7.359  0.3047  1.0184 -1.2079
 3881SOL    HW223106   4.342   3.412   7.406  0.3725  0.6704  0.0627
 3882SOL     OW23107   2.047   4.187   8.013 -0.2570  0.4621  0.3333
 3882SOL    HW123108   2.079   4.118   8.071  0.6006 -0.5025 -1.2886
 3882SOL    HW223109   1.976   4.220   8.068 -0.0155  0.3126  0.7343
 3883SOL     OW23110   2.715   3.055   4.487  0.0428  0.1141 -0.4505
 3883SOL    HW123111   2.801   3.040   4.447 -0.3003  0.6534 -1.3895
 3883SOL    HW223112   2.695   2.973   4.532 -1.6659  0.7580 -0.0467
 3884SOL     OW23113   0.443   3.908  15.477 -0.2471  0.1000 -0.1860
 3884SOL    HW123114   0.493   3.990  15.474  0.5581 -0.3281  1.4388
 3884SOL    HW223115   0.512   3.855  15.437 -0.1351 -0.3794  0.6394
 3885SOL     OW23116   3.868   3.883   3.049 -0.1670 -0.4542 -0.7235
 3885SOL    HW123117   3.895   3.974   3.038  0.4162 -0.5962 -0.4398
 3885SOL    HW223118   3.943   3.832   3.018  1.4658  2.3047 -1.2778
 3886SOL     OW23119   2.672   2.770   0.946  0.7227  0.0833  0.7847
 3886SOL    HW123120   2.700   2.684   0.976  0.6676  0.1994  1.1610
 3886SOL    HW223121   2.742   2.805   0.892  0.5824 -0.7577  0.0519
 3887SOL     OW23122   0.026   0.947  10.618 -0.0132 -0.1284  0.3729
 3887SOL    HW123123   4.689   0.932  10.689  1.4920  1.9570  2.1002
 3887SOL    HW223124   0.043   0.854  10.604 -1.4503 -0.0816 -1.6861
 3888SOL     OW23125   3.904   2.474  12.551  0.4767  0.8697  0.1886
 3888SOL    HW123126   3.995   2.452  12.531  0.1807 -0.7687  0.6211
 3888SOL    HW223127   3.903   2.451  12.644  2.3040 -0.3196 -0.0781
 3889SOL     OW23128   4.261   3.805   5.771 -0.2450 -0.3007 -0.2222
 3889SOL    HW123129   4.258   3.726   5.826  0.1781  0.2512  0.5834
 3889SOL    HW223130   4.171   3.803   5.739 -0.7011 -3.1088  1.1879
 3890SOL     OW23131   3.068   1.820   9.467 -0.3747 -0.3065  0.5591
 3890SOL    HW123132   3.071   1.757   9.539  1.6389 -1.0943 -0.2148
 3890SOL    HW223133   3.080   1.904   9.511  3.7315 -1.2121  1.2050
 3891SOL     OW23134   2.885   1.825   9.809  0.0567 -0.5535 -0.1063
 3891SOL    HW123135   2.837   1.904   9.835 -0.3414 -0.4082 -1.2720
 3891SOL    HW223136   2.879   1.776   9.891  1.2245 -1.0724 -0.3413
 3892SOL     OW23137   2.095   0.994   6.120  0.0586  0.8872 -0.6686
 3892SOL    HW123138   2.094   0.973   6.213  1.2783  2.0982 -0.3732
 3892SOL    HW223139   2.175   0.948   6.093 -0.4342  1.5231 -3.2721
 3893SOL     OW23140   1.715   0.567   2.001 -0.1204  0.5267 -0.2076
 3893SOL    HW123141   1.709   0.570   1.905  1.5836  2.4167 -0.2594
 3893SOL    HW223142   1.637   0.612   2.033 -0.4083 -1.1913  1.4733
 3894SOL     OW23143   4.402   3.035   8.216 -0.1912 -0.4564 -0.0596
 3894SOL    HW123144   4.474   3.031   8.154  0.8183  2.7079  0.9035
 3894SOL    HW223145   4.434   2.989   8.294  2.2597  0.3436 -0.6030
 3895SOL     OW23146   3.481   3.876   8.658 -0.1710  0.2154  0.2044
 3895SOL    HW123147   3.511   3.786   8.645  1.7002  0.8209  0.2175
 3895SOL    HW223148   3.498   3.898   8.566 -1.7217  0.2117 -0.0703
 3896SOL     OW23149   2.718   2.134  13.823  0.5469  0.1727 -0.0142
 3896SOL    HW123150   2.732   2.122  13.729  0.0669  1.6394 -0.2611
 3896SOL    HW223151   2.692   2.225  13.828  3.1204  0.9279 -0.2663
 3897SOL     OW23152   2.687   0.785  12.033 -0.0949  0.6308 -0.2007
 3897SOL    HW123153   2.750   0.851  12.004  1.1225 -0.6421 -0.4418
 3897SOL    HW223154   2.685   0.811  12.125  0.9145  3.5622 -1.0103
 3898SOL     OW23155   2.854   2.687   7.997 -0.8194  0.4764  0.2575
 3898SOL    HW123156   2.879   2.612   8.050 -0.5740  1.3631  1.3804
 3898SOL    HW223157   2.937   2.733   8.000 -1.0264  0.8490  0.2804
 3899SOL     OW23158   0.641   2.419   5.600  0.2587  0.5456  0.1631
 3899SOL    HW123159   0.549   2.403   5.618  0.5059 -1.1639 -0.0475
 3899SOL    HW223160   0.677   2.332   5.581  1.0857  0.9483 -0.1434
 3900SOL     OW23161   3.626   0.212  12.050 -0.1107 -0.0337  0.1910
 3900SOL    HW123162   3.700   0.195  12.109  1.3225 -0.6176 -1.7759
 3900SOL    HW223163   3.571   0.138  12.075  0.9872 -1.4466 -1.5630
 3901SOL     OW23164   3.464   3.774   5.072 -0.0262 -0.5381  0.0399
 3901SOL    HW123165   3.536   3.741   5.018  1.3822  0.7317  1.1629
 3901SOL    HW223166   3.471   3.728   5.156 -1.8839  1.3849  1.2638
 3902SOL     OW23167   1.787   1.449   6.040 -0.3378  0.5024  0.4046
 3902SOL    HW123168   1.694   1.473   6.048 -0.7505 -0.4695 -1.4510
 3902SOL    HW223169   1.819   1.538   6.056 -0.4231  0.2998  1.7291
 3903SOL     OW23170   2.210   3.171   4.058  0.0550  0.0059  0.5368
 3903SOL    HW123171   2.284   3.123   4.023 -1.3690 -0.4515 -1.8251
 3903SOL    HW223172   2.190   3.232   3.987 -1.2726 -2.3645 -1.1096
 3904SOL     OW23173   3.405   4.387   5.051 -0.0051  0.4108 -0.1432
 3904SOL    HW123174   3.326   4.360   5.004  0.9116 -1.5590 -0.5458
 3904SOL    HW223175   3.465   4.404   4.978 -1.3975 -1.9227 -1.8306
 3905SOL     OW23176   0.196   3.844  17.026  0.3042  0.0981  0.2278
 3905SOL    HW123177   0.256   3.915  17.047  0.2348  0.2846 -0.2156
 3905SOL    HW223178   0.212   3.840  16.932 -0.2755 -0.5230  0.1552
 3906SOL     OW23179   3.209   1.130  11.361  0.4249  0.3092 -0.5073
 3906SOL    HW123180   3.139   1.168  11.414  2.0089  0.3519  1.5583
 3906SOL    HW223181   3.155   1.090  11.293 -0.8301  0.7682  0.2059
 3907SOL     OW23182   3.795   0.323  11.436 -0.6434 -0.4500  0.5652
 3907SOL    HW123183   3.822   0.352  11.523  1.5515  3.1277 -1.3190
 3907SOL    HW223184   3.781   0.230  11.454 -3.3855  0.5071  3.4043
 3908SOL     OW23185   3.473   1.149   3.260  0.1159  0.0363  0.2047
 3908SOL    HW123186   3.386   1.176   3.232  0.2735  0.9202  0.5671
 3908SOL    HW223187   3.475   1.175   3.352 -1.5976  2.3824 -0.4264
 3909SOL     OW23188   1.089   0.241   6.280 -0.3217 -0.9035  0.0133
 3909SOL    HW123189   1.151   0.265   6.211 -1.2637 -1.1190 -0.8987
 3909SOL    HW223190   1.119   0.284   6.360  2.8905 -0.7818 -1.2521
 3910SOL     OW23191   1.897   4.493   7.105 -0.2856 -0.0752 -0.1316
 3910SOL    HW123192   1.899   4.397   7.109 -2.1382 -0.1178 -0.1668
 3910SOL    HW223193   1.810   4.507   7.069  0.1103  2.4344 -0.0886
 3911SOL     OW23194   2.373   4.480   4.119  0.0424  0.3866  0.2851
 3911SOL    HW123195   2.395   4.574   4.116 -0.4918  0.4578 -1.0456
 3911SOL    HW223196   2.466   4.459   4.130  0.0791 -0.2889 -1.4879
 3912SOL     OW23197   3.262   0.435   7.303  0.3947  0.0759  0.5655
 3912SOL    HW123198   3.245   0.513   7.356 -0.6375 -1.0556  1.8847
 3912SOL    HW223199   3.178   0.391   7.317  0.7987 -0.5732  0.9296
 3913SOL     OW23200   2.098   1.608   6.902  0.1312 -0.1636 -0.1145
 3913SOL    HW123201   2.018   1.576   6.860  0.2008  0.2561 -0.5820
 3913SOL    HW223202   2.155   1.533   6.888  0.5263 -0.1796  1.6034
 3914SOL     OW23203   3.703   0.481  10.413  0.0224  0.3120  0.2734
 3914SOL    HW123204   3.743   0.512  10.495  1.2355  0.8657 -0.5252
 3914SOL    HW223205   3.620   0.447  10.445 -0.0364  0.4822  0.3052
 3915SOL     OW23206   2.053   4.450   5.673 -0.0340 -0.5148  0.6509
 3915SOL    HW123207   2.022   4.425   5.760  0.2936 -0.3928  0.7997
 3915SOL    HW223208   2.145   4.434   5.690  0.5586 -0.0902 -2.2076
 3916SOL     OW23209   1.645   2.881   4.385 -0.0545 -0.4874 -0.0538
 3916SOL    HW123210   1.722   2.832   4.357  1.6041  0.6913  2.4228
 3916SOL    HW223211   1.614   2.825   4.457 -0.8584  1.6947  1.2890
 3917SOL     OW23212   4.064   4.015   8.380 -0.1783  0.2994  0.2751
 3917SOL    HW123213   4.056   3.970   8.463 -1.4271  1.5647  0.8271
 3917SOL    HW223214   4.051   3.937   8.326 -0.6185  0.4532  0.1598
 3918SOL     OW23215   2.273   4.634   6.504 -0.4499 -0.3623  0.0333
 3918SOL    HW123216   2.228   4.597   6.580  0.2292 -0.6734  0.2837
 3918SOL    HW223217   2.230   4.582   6.436 -0.8080  2.7590 -2.1059
 3919SOL     OW23218   1.031   1.971  15.974  0.6621  0.2546 -0.0483
 3919SOL    HW123219   0.995   1.911  16.039 -0.4323 -0.6459 -1.4896
 3919SOL    HW223220   0.951   2.003  15.934 -0.5966  1.4018  3.3999
 3920SOL     OW23221   2.519   3.916   7.854  0.4818 -0.0756 -0.0443
 3920SOL    HW123222   2.425   3.906   7.869  0.5950 -1.3512 -0.1602
 3920SOL    HW223223   2.563   3.888   7.935  1.5758 -4.0283 -2.0129
 3921SOL     OW23224   1.933   2.941   9.764 -0.0541 -0.2057  0.4810
 3921SOL    HW123225   1.997   3.011   9.753  0.5883 -0.7862  0.4473
 3921SOL    HW223226   1.968   2.891   9.690 -0.5462 -0.1687  0.2225
 3922SOL     OW23227   1.458   0.681   1.989 -0.1396 -0.0106  0.0019
 3922SOL    HW123228   1.401   0.739   1.938 -0.7714 -1.6815 -1.1762
 3922SOL    HW223229   1.394   0.610   1.988  0.7772 -0.8499  1.8248
 3923SOL     OW23230   2.467   0.079  10.835  0.4859 -0.3994 -0.7351
 3923SOL    HW123231   2.548   0.126  10.854  0.7058  0.3273 -3.4791
 3923SOL    HW223232   2.478   4.717  10.874 -0.9428 -0.4148 -0.3505
 3924SOL     OW23233   1.499   2.423   8.600  0.2660 -0.5324 -0.1419
 3924SOL    HW123234   1.481   2.412   8.693 -1.5080 -0.8546 -0.5177
 3924SOL    HW223235   1.475   2.341   8.558  1.2613 -0.0875 -1.5900
 3925SOL     OW23236   2.453   2.893  13.602 -0.1308 -0.1651 -0.4208
 3925SOL    HW123237   2.480   2.954  13.534 -0.5306  2.1055  1.4628
 3925SOL    HW223238   2.522   2.910  13.666  0.9418  0.6854 -1.7917
 3926SOL     OW23239   4.316   2.099   6.631 -0.2489 -0.3559 -0.1263
 3926SOL    HW123240   4.245   2.035   6.640  1.7541 -2.5480  0.2327
 3926SOL    HW223241   4.384   2.055   6.683  0.8372 -0.3535 -1.5406
 3927SOL     OW23242   3.715   4.119   9.011  0.0330  0.0912 -1.2339
 3927SOL    HW123243   3.673   4.083   8.933 -2.4295 -0.4285  0.3322
 3927SOL    HW223244   3.782   4.052   9.028  0.7959  1.7672  2.3186
 3928SOL     OW23245   3.110   4.648  17.205 -0.2004 -0.3416 -0.0794
 3928SOL    HW123246   3.173   4.720  17.196  0.2042 -0.6162  0.5303
 3928SOL    HW223247   3.038   4.675  17.149  0.2730  2.5654  0.6862
 3929SOL     OW23248   3.623   4.445   8.343 -1.0107  0.6861  0.4848
 3929SOL    HW123249   3.552   4.435   8.280 -1.7162  1.0522  1.2140
 3929SOL    HW223250   3.570   4.424   8.420 -0.6238  0.1078  0.5905
 3930SOL     OW23251   3.816   2.929  10.262  0.3232  0.2647  0.7196
 3930SOL    HW123252   3.865   2.862  10.214 -1.0088 -0.1425 -0.0963
 3930SOL    HW223253   3.735   2.880  10.277  1.4370 -1.6955  0.3061
 3931SOL     OW23254   1.071   1.405   3.748  0.3072 -0.4372 -0.8123
 3931SOL    HW123255   1.118   1.445   3.675  1.0888 -0.1952 -0.1822
 3931SOL    HW223256   1.011   1.351   3.697  0.1608 -0.1341 -0.9566
 3932SOL     OW23257   0.902   2.323   1.194  0.1675  0.4722  0.1661
 3932SOL    HW123258   0.815   2.304   1.157  0.5898 -1.1793  0.0329
 3932SOL    HW223259   0.927   2.400   1.142  1.9798 -0.4961 -0.3854
 3933SOL     OW23260   3.158   3.801  11.506 -0.5244 -0.0961  0.4258
 3933SOL    HW123261   3.082   3.759  11.548  0.8756 -1.2271  1.8368
 3933SOL    HW223262   3.225   3.759  11.561 -1.0832 -0.4557  0.8449
 3934SOL     OW23263   2.717   3.863  11.611 -0.3809 -0.2827 -0.0702
 3934SOL    HW123264   2.642   3.809  11.635 -0.3687 -0.2981 -0.0668
 3934SOL    HW223265   2.682   3.951  11.627 -1.9382 -0.9938  0.4058
 3935SOL     OW23266   4.348   3.954   9.473  0.4796 -0.3066 -0.2892
 3935SOL    HW123267   4.399   3.896   9.530  1.2836  0.5180 -0.1592
 3935SOL    HW223268   4.303   3.893   9.416 -1.2501  1.2337 -0.5556
 3936SOL     OW23269   4.702   1.403   8.191 -0.1315 -0.2961 -0.4870
 3936SOL    HW123270   4.624   1.458   8.198 -0.6666 -1.5369  3.2399
 3936SOL    HW223271   4.683   1.342   8.262  1.4038 -1.3359 -0.9696
 3937SOL     OW23272   4.057   0.251  10.749 -0.6862  0.3419 -0.7085
 3937SOL    HW123273   3.985   0.251  10.813 -1.0781 -0.8544 -1.1529
 3937SOL    HW223274   4.133   0.219  10.798  1.0311  1.0335 -2.9376
 3938SOL     OW23275   1.172   1.083   8.140  0.1535 -0.0213 -0.1476
 3938SOL    HW123276   1.215   1.158   8.180 -0.4972 -0.2675  1.0052
 3938SOL    HW223277   1.177   1.023   8.214  0.3443 -1.3895 -1.2627
 3939SOL     OW23278   1.714   1.718   7.701  1.0526 -0.5001  0.8175
 3939SOL    HW123279   1.630   1.717   7.747  0.7833  4.0007  0.4039
 3939SOL    HW223280   1.725   1.626   7.676  2.3226 -0.6914  2.1158
 3940SOL     OW23281   0.183   2.724   7.741 -0.1633  0.1109 -0.5763
 3940SOL    HW123282   0.272   2.690   7.748 -0.2098  0.4773  1.5624
 3940SOL    HW223283   0.136   2.643   7.763  1.3900 -0.9666 -1.2076
 3941SOL     OW23284   0.688   3.214  13.719  1.1488 -0.2241  0.3824
 3941SOL    HW123285   0.751   3.156  13.762  1.5101  0.3023  0.5698
 3941SOL    HW223286   0.618   3.191  13.780 -1.0016  3.2843 -0.7751
 3942SOL     OW23287   0.532   1.440  16.604 -0.0441 -0.1923 -0.0628
 3942SOL    HW123288   0.559   1.516  16.657 -1.9535  0.2214  0.2946
 3942SOL    HW223289   0.525   1.364  16.662  1.3585 -0.0958  0.2528
 3943SOL     OW23290   0.571   1.879   6.509  0.0518 -0.1765 -0.5593
 3943SOL    HW123291   0.525   1.897   6.427  1.9576  0.7588 -1.4209
 3943SOL    HW223292   0.585   1.969   6.538 -2.2810  0.3305 -0.9783
 3944SOL     OW23293   3.153   3.937  10.926  0.7888  0.0394  0.2651
 3944SOL    HW123294   3.142   3.910  11.017  1.3550  2.1281  0.9431
 3944SOL    HW223295   3.247   3.954  10.931  0.2817  2.6130  1.2059
 3945SOL     OW23296   3.376   3.225   3.911  0.4141 -0.8760 -0.0423
 3945SOL    HW123297   3.409   3.207   3.824  0.4424  0.7099 -0.3599
 3945SOL    HW223298   3.282   3.212   3.896  0.1271 -1.0912  1.9311
 3946SOL     OW23299   0.651   2.499   0.504 -0.0368  0.3717  0.0801
 3946SOL    HW123300   0.705   2.420   0.505 -1.0993 -0.3503 -1.5086
 3946SOL    HW223301   0.722   2.562   0.520 -0.1169  0.7241 -0.9817
 3947SOL     OW23302   2.361   1.928   9.422  0.4281 -0.2031  0.0518
 3947SOL    HW123303   2.357   1.832   9.423 -0.7651 -0.1873 -2.4535
 3947SOL    HW223304   2.423   1.959   9.356  2.5046 -0.5620  1.8617
 3948SOL     OW23305   4.315   1.502   7.030  0.0701 -0.6664 -0.1780
 3948SOL    HW123306   4.269   1.422   7.002  2.1300 -1.8366 -0.2352
 3948SOL    HW223307   4.392   1.466   7.072  1.2661  0.7322 -1.1720
 3949SOL     OW23308   0.328   3.791   3.121  0.1208  0.0920  0.2288
 3949SOL    HW123309   0.266   3.858   3.148 -1.2085 -1.4963  1.1483
 3949SOL    HW223310   0.333   3.737   3.200  0.8392  0.4555  0.4274
 3950SOL     OW23311   4.625   4.596  12.118  0.0283 -0.6570 -0.3996
 3950SOL    HW123312   4.637   4.597  12.213 -3.2144  0.0620 -0.0118
 3950SOL    HW223313   4.697   4.535  12.102 -0.0808 -0.4441 -1.7503
 3951SOL     OW23314   1.547   2.407  15.143  0.2987 -0.0361 -0.3127
 3951SOL    HW123315   1.511   2.477  15.088 -0.1699  0.7951  1.0355
 3951SOL    HW223316   1.633   2.393  15.103  0.5061  0.9380 -0.2115
 3952SOL     OW23317   4.637   1.235   8.393 -0.3163  0.2964  0.0593
 3952SOL    HW123318   4.602   1.159   8.440  0.6001  0.1395  0.4798
 3952SOL    HW223319   4.629   1.296   8.467 -0.0045  0.0522  0.2945
 3953SOL     OW23320   2.190   1.491   6.279  0.2025  0.6789  0.0797
 3953SOL    HW123321   2.177   1.436   6.202 -1.5072  0.9496  0.1711
 3953SOL    HW223322   2.227   1.425   6.337  1.4002  1.8426  0.6301
 3954SOL     OW23323   4.316   0.369   2.628 -0.0543  0.1415 -0.1999
 3954SOL    HW123324   4.408   0.347   2.610 -0.3982  0.4738 -2.3545
 3954SOL    HW223325   4.265   0.293   2.599 -2.2183  1.1056  1.1102
 3955SOL     OW23326   4.579   1.873   3.718  0.1712  0.0065  0.0832
 3955SOL    HW123327   4.588   1.798   3.776 -1.5711 -0.4300 -0.2142
 3955SOL    HW223328   4.496   1.908   3.749 -0.1704 -0.1630 -0.6471
 3956SOL     OW23329   0.230   2.689   7.159  0.1071  0.6266  0.6459
 3956SOL    HW123330   0.318   2.679   7.124 -0.1907 -0.4831  0.2320
 3956SOL    HW223331   0.240   2.772   7.206  0.4157  0.5261  0.7561
 3957SOL     OW23332   3.957   2.179   3.397 -0.0488 -0.0972 -0.7808
 3957SOL    HW123333   3.959   2.259   3.450  0.7236  0.3679 -1.5035
 3957SOL    HW223334   3.895   2.207   3.330 -1.7187  0.4001  0.9874
 3958SOL     OW23335   1.860   2.973   7.526  0.1905 -0.3202 -0.4305
 3958SOL    HW123336   1.941   3.018   7.503  0.3508 -0.1895  0.3674
 3958SOL    HW223337   1.796   3.040   7.501 -0.8835 -0.4024  2.0217
 3959SOL     OW23338   3.113   0.502   3.322 -0.2100 -0.2353 -0.3089
 3959SOL    HW123339   3.083   0.558   3.394 -0.5778 -0.2933 -0.4148
 3959SOL    HW223340   3.148   0.430   3.374 -1.3491  0.1042  0.9381
 3960SOL     OW23341   2.512   0.183   9.339 -0.0575  0.7826 -0.3052
 3960SOL    HW123342   2.607   0.183   9.327 -0.2763 -0.7786 -2.0653
 3960SOL    HW223343   2.512   0.152   9.430  2.0411  1.0154 -0.2070
 3961SOL     OW23344   3.022   1.557   6.150  0.5169 -1.0392  0.1662
 3961SOL    HW123345   3.030   1.651   6.165  0.7898 -1.1780  0.8779
 3961SOL    HW223346   2.937   1.558   6.107  0.4773  2.5076  0.3180
 3962SOL     OW23347   2.540   1.711   1.864  0.0670 -0.0035  0.2541
 3962SOL    HW123348   2.565   1.749   1.949 -1.5239 -1.6109  1.4503
 3962SOL    HW223349   2.481   1.643   1.898  0.7933 -0.4680  0.6171
 3963SOL     OW23350   0.369   1.636   7.355  0.2942 -0.2910  0.2967
 3963SOL    HW123351   0.280   1.608   7.377  0.1634  0.5739  0.8818
 3963SOL    HW223352   0.414   1.551   7.359 -0.6431 -0.9412 -2.6621
 3964SOL     OW23353   3.308   1.969   6.782  0.5420  0.5987  0.1140
 3964SOL    HW123354   3.369   2.023   6.731  0.1866  1.3605  0.4890
 3964SOL    HW223355   3.338   1.884   6.750 -0.9702 -0.4070  1.3852
 3965SOL     OW23356   3.131   0.615  14.969 -0.3498 -0.2281 -0.2461
 3965SOL    HW123357   3.203   0.567  15.010 -0.9604 -0.8686  0.0961
 3965SOL    HW223358   3.056   0.569  15.007  0.8765 -2.1291 -0.0907
 3966SOL     OW23359   0.397   3.363   0.552  0.0634  0.3686 -0.3915
 3966SOL    HW123360   0.369   3.366   0.461 -2.2468  0.4450  0.3325
 3966SOL    HW223361   0.331   3.422   0.588  0.0483 -0.0315  0.2296
 3967SOL     OW23362   2.214   0.542  10.987  0.3484  0.5551 -0.3056
 3967SOL    HW123363   2.156   0.613  10.961 -1.2367 -0.6405  0.0054
 3967SOL    HW223364   2.231   0.510  10.898  0.2596  0.1213 -0.1644
 3968SOL     OW23365   3.789   2.025   6.930  0.2986 -0.4000  0.6821
 3968SOL    HW123366   3.717   2.088   6.933  0.5928  0.0517 -1.6121
 3968SOL    HW223367   3.846   2.056   7.001  0.0842  0.3995  0.5051
 3969SOL     OW23368   3.015   3.984  11.737  0.0086 -0.2370 -0.8863
 3969SOL    HW123369   3.091   3.938  11.700 -0.1403  0.3418 -1.8849
 3969SOL    HW223370   3.049   3.981  11.827  1.8156  0.5071 -1.5443
 3970SOL     OW23371   0.060   2.220  13.716 -0.5519  0.2397  0.1430
 3970SOL    HW123372   0.050   2.209  13.810  0.3716  0.6559  0.2919
 3970SOL    HW223373   0.123   2.151  13.694 -0.8841 -0.5500  1.7006
 3971SOL     OW23374   2.160   1.758  13.392  0.4146 -0.1503 -0.6448
 3971SOL    HW123375   2.099   1.808  13.336 -1.3398 -1.2119  0.3146
 3971SOL    HW223376   2.158   1.802  13.477 -0.8764 -0.7423 -0.3681
 3972SOL     OW23377   2.726   4.309   2.581  0.2189 -0.7543  0.2835
 3972SOL    HW123378   2.690   4.392   2.551  1.7085 -0.2948 -0.2093
 3972SOL    HW223379   2.796   4.301   2.517  0.9963 -0.4888  1.1082
 3973SOL     OW23380   2.141   3.358   5.883 -0.1622  0.5649  0.1736
 3973SOL    HW123381   2.049   3.386   5.886 -0.1162  0.9692 -2.0405
 3973SOL    HW223382   2.163   3.400   5.967 -0.4560  0.2842  0.3926
 3974SOL     OW23383   1.827   0.192   4.074  0.6088  0.1849  0.3689
 3974SOL    HW123384   1.866   0.177   4.160 -0.0864  0.2460  0.6884
 3974SOL    HW223385   1.834   0.097   4.060 -1.3457  0.0606  0.2859
 3975SOL     OW23386   1.616   0.878   4.631  0.5694  0.3335  0.7528
 3975SOL    HW123387   1.624   0.973   4.622  3.0220 -0.0876 -1.3741
 3975SOL    HW223388   1.641   0.831   4.552 -1.4689 -0.5524  0.6362
 3976SOL     OW23389   2.028   3.968  11.622 -0.1872 -0.5713  0.0760
 3976SOL    HW123390   2.116   3.956  11.660 -0.7106  1.6049  1.9748
 3976SOL    HW223391   2.048   3.954  11.529 -1.8519 -0.8249 -0.2407
 3977SOL     OW23392   3.201   2.633   4.261  0.0363 -0.1826  1.1711
 3977SOL    HW123393   3.123   2.602   4.307 -0.4443  0.1942  0.5995
 3977SOL    HW223394   3.232   2.548   4.230  1.2991  0.1788  1.4260
 3978SOL     OW23395   2.335   1.951  17.159 -0.8180  0.1054  0.3864
 3978SOL    HW123396   2.402   1.923  17.222 -1.3637 -0.3557  0.7545
 3978SOL    HW223397   2.390   1.995  17.094 -1.4617  0.2129 -0.0793
 3979SOL     OW23398   0.315   0.265   0.992 -0.1557  0.1064  0.0851
 3979SOL    HW123399   0.392   0.247   0.938 -0.4385  1.0582 -0.6384
 3979SOL    HW223400   0.262   0.193   0.958 -1.2350  0.8818  0.1189
 3980SOL     OW23401   4.123   3.488   5.048  0.6594 -0.4871 -0.1831
 3980SOL    HW123402   4.197   3.469   5.107  0.2837 -0.0838  0.4126
 3980SOL    HW223403   4.164   3.484   4.962  0.0263  1.0775 -0.5526
 3981SOL     OW23404   1.901   3.386   5.377 -0.0394  0.0319 -0.5834
 3981SOL    HW123405   1.845   3.398   5.454  1.9658  2.3419  0.5103
 3981SOL    HW223406   1.865   3.461   5.329 -1.2257  0.3812  0.8555
 3982SOL     OW23407   2.337   1.969   6.171 -0.0657 -0.3376  0.3548
 3982SOL    HW123408   2.429   1.975   6.145 -0.8735  1.7362 -2.0377
 3982SOL    HW223409   2.313   2.058   6.196  2.2461  0.4495 -0.1653
 3983SOL     OW23410   1.590   4.413   3.516 -0.2759 -0.4322  0.2529
 3983SOL    HW123411   1.528   4.355   3.472  0.0306 -1.5879  1.3422
 3983SOL    HW223412   1.674   4.380   3.483  0.0965  0.4690  0.2902
 3984SOL     OW23413   0.030   4.482   1.765  0.0253 -0.6968  0.3774
 3984SOL    HW123414   0.011   4.465   1.857  0.0458 -1.3819  0.2506
 3984SOL    HW223415   4.664   4.487   1.734  1.0161 -2.9363 -2.8449
 3985SOL     OW23416   1.596   0.419   6.399 -0.2847  0.1538  0.1637
 3985SOL    HW123417   1.552   0.488   6.448 -1.6138 -0.6372  0.0797
 3985SOL    HW223418   1.605   0.457   6.311 -0.1248  0.3117  0.2471
 3986SOL     OW23419   2.296   0.683   5.793  0.4052 -0.0336  0.4800
 3986SOL    HW123420   2.354   0.705   5.866 -1.1649 -0.0887  1.7495
 3986SOL    HW223421   2.349   0.657   5.718 -1.5179 -0.6249 -0.6686
 3987SOL     OW23422   2.862   0.355   3.622 -0.3673 -0.1770  0.2751
 3987SOL    HW123423   2.865   0.449   3.640  0.0635  0.1759 -1.6902
 3987SOL    HW223424   2.786   0.350   3.564 -1.1980  0.5654  1.3023
 3988SOL     OW23425   3.712   2.256   6.675 -0.2310  0.0026  0.1914
 3988SOL    HW123426   3.770   2.317   6.630 -4.1582  0.7478 -3.9267
 3988SOL    HW223427   3.708   2.292   6.763 -0.9456  2.0036 -0.6448
 3989SOL     OW23428   0.806   0.061   9.496 -0.2023  0.2054  0.1163
 3989SOL    HW123429   0.720   0.102   9.484  0.2108  0.8689 -0.6305
 3989SOL    HW223430   0.861   0.132   9.461  2.3450 -1.3343  0.9695
 3990SOL     OW23431   2.484   3.086   0.064  0.3348 -0.6505  0.1800
 3990SOL    HW123432   2.459   3.022   0.131 -0.0400 -2.5285 -1.7289
 3990SOL    HW223433   2.510   3.164   0.113 -0.1617 -2.0523  2.6901
 3991SOL     OW23434   1.116   0.813   7.340 -0.2454 -0.0949  0.3021
 3991SOL    HW123435   1.093   0.882   7.277  1.5538 -1.4967 -1.9123
 3991SOL    HW223436   1.040   0.819   7.397 -2.6654 -1.2905 -2.7723
 3992SOL     OW23437   1.905   3.860   8.978 -0.1008 -0.1271 -0.0545
 3992SOL    HW123438   1.863   3.831   8.897 -1.8458 -1.4398  1.3168
 3992SOL    HW223439   1.833   3.857   9.040 -0.0812  0.1240 -0.0220
 3993SOL     OW23440   0.799   2.486   0.805  0.5082 -0.6205  0.3855
 3993SOL    HW123441   0.874   2.451   0.756  2.6950  1.4687  2.2350
 3993SOL    HW223442   0.834   2.483   0.894  1.2118 -0.8713  0.0998
 3994SOL     OW23443   1.306   0.995  17.187  0.6780  0.2659  0.2778
 3994SOL    HW123444   1.235   1.054  17.210  0.1196  0.2215 -1.3331
 3994SOL    HW223445   1.284   0.920  17.243  2.3162 -0.4757 -0.0624
 3995SOL     OW23446   3.335   4.647  15.626 -0.2604 -0.2165  0.0265
 3995SOL    HW123447   3.323   4.712  15.556 -0.8305  1.0377  1.2711
 3995SOL    HW223448   3.420   4.674  15.661  0.6269 -2.6634 -0.3209
 3996SOL     OW23449   2.370   3.201   9.973 -0.3349  0.2196 -0.0779
 3996SOL    HW123450   2.366   3.108   9.997  1.5874  0.5109  1.3748
 3996SOL    HW223451   2.407   3.243  10.051 -0.4869 -0.9686  0.6386
 3997SOL     OW23452   4.589   2.094   4.450  0.5536  0.1392  0.1070
 3997SOL    HW123453   4.581   2.174   4.502 -0.2940  0.6010 -0.7381
 3997SOL    HW223454   4.661   2.121   4.394  1.0032  0.9866  1.0887
 3998SOL     OW23455   2.949   0.179   9.242 -0.0636 -0.5853 -0.1415
 3998SOL    HW123456   2.905   0.140   9.318 -2.3383  1.2884 -0.5154
 3998SOL    HW223457   3.028   0.125   9.242  0.9488  0.8950 -0.8666
 3999SOL     OW23458   2.907   3.524  17.522 -0.0646  0.4397 -0.4446
 3999SOL    HW123459   2.905   3.575  17.603  0.6323  1.4354 -1.0539
 3999SOL    HW223460   3.003   3.515  17.526 -0.0026  1.4784  0.5511
 4000SOL     OW23461   3.642   0.931   3.520  0.2039 -0.0081  0.0064
 4000SOL    HW123462   3.603   0.899   3.439  2.3195 -1.1224 -0.5695
 4000SOL    HW223463   3.721   0.963   3.478  0.3024 -0.6232 -0.2833
 4001SOL     OW23464   0.215   4.147   2.302  0.6757 -0.0487  0.0863
 4001SOL    HW123465   0.295   4.166   2.252 -1.4567  0.5088 -3.0941
 4001SOL    HW223466   0.248   4.079   2.361 -3.1897 -0.3039  1.9501
 4002SOL     OW23467   0.093   1.529   6.622 -0.1119  0.3999  0.4778
 4002SOL    HW123468   0.029   1.487   6.680  0.1179  2.6890  2.3895
 4002SOL    HW223469   0.037   1.543   6.546 -0.0361 -2.0450 -0.0308
 4003SOL     OW23470   4.521   3.449   1.072  0.0977  0.0736  0.0054
 4003SOL    HW123471   4.426   3.450   1.082  0.0003 -0.7969 -0.7873
 4003SOL    HW223472   4.546   3.362   1.105 -3.1362 -1.0138 -0.5064
 4004SOL     OW23473   3.286   0.528   3.104  0.2646 -0.2467 -0.1412
 4004SOL    HW123474   3.220   0.522   3.173 -1.8480 -2.0791 -2.3320
 4004SOL    HW223475   3.297   0.623   3.103  0.3115 -0.1970  2.9566
 4005SOL     OW23476   2.710   0.881   4.876 -0.0592 -0.1768 -0.2695
 4005SOL    HW123477   2.689   0.787   4.872  0.6352 -0.4001  1.3741
 4005SOL    HW223478   2.625   0.922   4.893  0.5981  0.3192  1.8700
 4006SOL     OW23479   3.722   0.773  16.843  0.7555  0.5703 -0.0852
 4006SOL    HW123480   3.798   0.776  16.902 -0.1870  0.5863  1.1336
 4006SOL    HW223481   3.732   0.856  16.797 -0.0955  0.8297  0.1838
 4007SOL     OW23482   3.033   3.267   3.039  0.6408 -0.4073 -0.6884
 4007SOL    HW123483   3.039   3.254   2.944  2.7733 -0.0753 -0.6064
 4007SOL    HW223484   3.004   3.356   3.058  3.0457 -0.0295  1.3143
 4008SOL     OW23485   3.813   0.460   9.391  0.0118  0.5567 -0.0523
 4008SOL    HW123486   3.875   0.521   9.352 -0.4307  0.5069 -0.8340
 4008SOL    HW223487   3.794   0.391   9.327 -1.6896  0.4723  0.5484
 4009SOL     OW23488   2.037   1.858   8.739  0.4151  0.2262  0.0854
 4009SOL    HW123489   2.113   1.842   8.683  0.7176  1.4688  0.1201
 4009SOL    HW223490   2.016   1.776   8.783  2.6262 -0.1495  0.4520
 4010SOL     OW23491   3.265   1.431   3.015 -0.1272  0.1793  0.4650
 4010SOL    HW123492   3.178   1.396   3.034 -1.6259  3.4889 -0.3528
 4010SOL    HW223493   3.292   1.451   3.105 -0.0279  1.2358  0.2026
 4011SOL     OW23494   2.407   4.241  15.347  0.1406 -0.2149 -0.1066
 4011SOL    HW123495   2.420   4.165  15.404 -2.6285  0.2748  1.2308
 4011SOL    HW223496   2.358   4.208  15.272  0.1472  1.0224 -0.6539
 4012SOL     OW23497   0.855   2.911   3.033 -0.3021 -0.4414 -0.9153
 4012SOL    HW123498   0.764   2.887   3.052  0.3374 -0.2294  2.4409
 4012SOL    HW223499   0.860   2.890   2.940 -0.1748  0.5839 -1.1393
 4013SOL     OW23500   2.847   3.993   4.289  0.1384  0.4291 -0.2959
 4013SOL    HW123501   2.838   4.030   4.377  1.7825  0.7541 -0.2594
 4013SOL    HW223502   2.804   4.064   4.241  0.3306  0.4598 -0.4220
 4014SOL     OW23503   3.062   4.571   7.745  0.8196 -1.0915 -0.6297
 4014SOL    HW123504   3.040   4.659   7.715 -2.7880 -2.1206 -1.0070
 4014SOL    HW223505   3.005   4.512   7.696  0.1297 -1.1283  0.2310
 4015SOL     OW23506   2.396   0.450   2.737  0.0302 -0.1289 -0.1166
 4015SOL    HW123507   2.304   0.442   2.711  0.1532 -0.1857 -0.5397
 4015SOL    HW223508   2.435   0.418   2.655 -0.5623 -1.6942  0.2203
 4016SOL     OW23509   1.719   0.934   1.566  0.3224 -0.2025  0.1418
 4016SOL    HW123510   1.811   0.929   1.539  0.4095  0.5621  0.2786
 4016SOL    HW223511   1.709   1.029   1.577  0.0696 -0.4109  1.7362
 4017SOL     OW23512   4.670   1.149   3.069  0.5637 -0.1403 -0.2095
 4017SOL    HW123513   4.677   1.243   3.048  0.4190  0.0341  0.5225
 4017SOL    HW223514   0.028   1.111   3.040  1.3041  1.5803 -0.3729
 4018SOL     OW23515   2.451   3.471   9.208  0.0879  0.0043  0.7114
 4018SOL    HW123516   2.371   3.517   9.235 -0.8134 -2.4020  2.2641
 4018SOL    HW223517   2.517   3.505   9.268 -0.1870 -1.9156  2.1324
 4019SOL     OW23518   1.431   1.614   8.897 -0.8987  0.2002  0.3681
 4019SOL    HW123519   1.355   1.557   8.907  0.7400 -2.3151 -1.2358
 4019SOL    HW223520   1.444   1.648   8.985 -2.1585 -0.6969  0.8859
 4020SOL     OW23521   1.793   4.067  14.612  0.4595 -0.3910 -0.3045
 4020SOL    HW123522   1.777   4.155  14.644  0.4556 -0.3024 -0.5537
 4020SOL    HW223523   1.760   4.024  14.691 -0.4408  0.2760 -0.3200
 4021SOL     OW23524   3.771   3.569   2.897  0.0823  0.4411 -0.1772
 4021SOL    HW123525   3.702   3.634   2.908 -0.4636 -0.4808  1.8602
 4021SOL    HW223526   3.737   3.485   2.864  1.8234 -0.2119 -0.3271
 4022SOL     OW23527   0.050   4.202   8.444 -0.0596 -0.0372 -0.2746
 4022SOL    HW123528   4.687   4.176   8.472 -0.0202 -0.1301 -0.2361
 4022SOL    HW223529   0.024   4.248   8.364  0.9795  1.4560  0.2551
 4023SOL     OW23530   2.940   0.179  13.842 -1.0072  0.4287  0.3950
 4023SOL    HW123531   2.881   0.105  13.861 -2.1571  1.0219 -0.8929
 4023SOL    HW223532   2.975   0.204  13.928 -0.3039 -0.4494  0.3660
 4024SOL     OW23533   4.193   0.050  16.102 -0.1494  0.1402  0.7068
 4024SOL    HW123534   4.125   0.085  16.160 -0.5209 -0.0098  0.3551
 4024SOL    HW223535   4.143   4.724  16.039  0.0981 -1.0268  1.4313
 4025SOL     OW23536   1.836   3.490   9.280  0.3666 -0.0805  0.4823
 4025SOL    HW123537   1.782   3.465   9.205 -0.2676 -0.0515  0.9371
 4025SOL    HW223538   1.851   3.582   9.258 -0.9753  0.0546  0.1181
 4026SOL     OW23539   0.708   0.944   8.937 -0.0578 -0.2675  0.0712
 4026SOL    HW123540   0.650   0.995   8.880 -0.6865  0.9196  1.7967
 4026SOL    HW223541   0.648   0.933   9.011  0.1495 -3.8859 -0.2822
 4027SOL     OW23542   4.239   1.702   6.645 -0.1712 -0.0006 -0.1953
 4027SOL    HW123543   4.196   1.777   6.604 -3.1976 -4.0059 -4.3046
 4027SOL    HW223544   4.293   1.669   6.573 -0.1027  1.2468 -0.7171
 4028SOL     OW23545   0.534   4.527  10.175  0.4033  0.1556 -0.1158
 4028SOL    HW123546   0.542   4.621  10.162 -0.2715  0.3702  0.9690
 4028SOL    HW223547   0.439   4.521  10.170  0.5015 -0.5491 -1.3119
 4029SOL     OW23548   2.588   2.747  10.786 -0.1744 -0.6291 -0.2172
 4029SOL    HW123549   2.617   2.670  10.835  2.5510  0.7433  0.3464
 4029SOL    HW223550   2.650   2.812  10.819 -0.7119 -0.3808  0.3062
 4030SOL     OW23551   0.855   3.813   1.931 -0.1085 -0.3159 -0.0416
 4030SOL    HW123552   0.826   3.728   1.965  0.4902 -0.5331 -0.0705
 4030SOL    HW223553   0.926   3.845   1.986  0.2160  0.6662 -1.0415
 4031SOL     OW23554   0.568   1.419   7.397  0.2930 -0.1763  0.1188
 4031SOL    HW123555   0.508   1.345   7.387 -0.4752  0.3686  0.7771
 4031SOL    HW223556   0.636   1.398   7.333  1.9983  3.1262  0.8408
 4032SOL     OW23557   1.008   1.004   2.576 -0.1472  0.0216 -0.3656
 4032SOL    HW123558   1.018   0.911   2.558  0.0647  0.2981 -1.7069
 4032SOL    HW223559   0.915   1.014   2.598 -0.0169  0.7757 -0.1596
 4033SOL     OW23560   1.109   3.925  14.709  0.1606  0.9014  0.0136
 4033SOL    HW123561   1.193   3.970  14.723 -0.3548  1.4472  1.3688
 4033SOL    HW223562   1.090   3.966  14.625  1.6495  1.8068  0.1217
 4034SOL     OW23563   1.129   2.907   4.716  0.0427 -0.9077 -0.2530
 4034SOL    HW123564   1.036   2.893   4.736 -0.8405 -0.0210 -3.6801
 4034SOL    HW223565   1.131   2.995   4.754  2.3780 -0.4999 -1.3209
 4035SOL     OW23566   1.213   4.237  13.227 -0.5551  0.4022 -0.0022
 4035SOL    HW123567   1.298   4.201  13.200 -1.0822 -0.1013 -0.9835
 4035SOL    HW223568   1.207   4.290  13.148  0.8967 -0.5946 -0.7867
 4036SOL     OW23569   0.508   1.156   7.917 -0.3602 -0.1287 -0.1571
 4036SOL    HW123570   0.575   1.196   7.861  0.0515  0.9603  1.1014
 4036SOL    HW223571   0.433   1.215   7.915 -0.9290 -0.7904  1.4399
 4037SOL     OW23572   3.368   2.495   9.364  0.1100  0.6269 -0.1103
 4037SOL    HW123573   3.319   2.456   9.436 -0.7047 -0.0736 -1.0328
 4037SOL    HW223574   3.457   2.468   9.383  0.1450  0.3019 -0.7175
 4038SOL     OW23575   2.246   1.455  15.741  0.2412 -0.5774  0.4711
 4038SOL    HW123576   2.187   1.384  15.713  0.3919  0.5335 -2.6788
 4038SOL    HW223577   2.284   1.414  15.818 -0.4866 -0.7890  0.7227
 4039SOL     OW23578   2.325   2.861  16.807 -0.1436  0.4664 -0.3285
 4039SOL    HW123579   2.239   2.883  16.771 -0.8482  1.9112  2.2466
 4039SOL    HW223580   2.304   2.859  16.900  3.0130  1.2067  0.4178
 4040SOL     OW23581   4.231   3.946   7.925  0.2250 -0.6495 -0.2301
 4040SOL    HW123582   4.305   3.986   7.881  0.8096 -1.3554  0.1133
 4040SOL    HW223583   4.252   3.939   8.018 -1.6969  0.3546  0.2738
 4041SOL     OW23584   0.269   3.198  13.404 -0.3601 -0.4900 -0.9924
 4041SOL    HW123585   0.355   3.168  13.433 -0.0361 -1.6647 -3.1986
 4041SOL    HW223586   0.288   3.292  13.400  3.7536 -1.2627  0.5579
 4042SOL     OW23587   1.420   1.984  13.775 -0.4693 -0.2748  0.4721
 4042SOL    HW123588   1.427   2.061  13.719  0.6340 -2.2011 -2.0297
 4042SOL    HW223589   1.449   1.923  13.708  2.9241  3.0743 -1.0714
 4043SOL     OW23590   0.750   1.793   1.190  0.2080 -0.1581  0.4774
 4043SOL    HW123591   0.721   1.884   1.188 -1.4048 -0.6788  0.0083
 4043SOL    HW223592   0.828   1.800   1.134  0.6479 -0.4089  1.0640
 4044SOL     OW23593   0.247   4.653   8.381  0.5726  0.6602  0.2113
 4044SOL    HW123594   0.164   4.700   8.390 -0.4384 -0.6692 -2.2344
 4044SOL    HW223595   0.296   4.683   8.458  0.3799  0.6601  0.3340
 4045SOL     OW23596   1.904   2.072   1.480 -0.0235  0.3082  0.2435
 4045SOL    HW123597   1.899   2.166   1.494 -0.3182  0.2844  0.2862
 4045SOL    HW223598   1.812   2.052   1.464  0.7632 -3.0935 -0.0767
 4046SOL     OW23599   2.983   2.982   5.533  0.8284 -0.3849 -0.0937
 4046SOL    HW123600   2.949   3.036   5.461 -0.4347  0.4288  1.1112
 4046SOL    HW223601   3.073   3.015   5.531  0.5506  0.4759  1.7557
 4047SOL     OW23602   4.647   1.080   8.142  0.0943 -0.0606 -0.4780
 4047SOL    HW123603   4.642   1.139   8.218  0.5649  1.1581 -1.4040
 4047SOL    HW223604   4.700   1.137   8.086  0.1060  1.5886  1.1967
 4048SOL     OW23605   2.908   0.198  12.574  0.6674 -1.0033  0.6571
 4048SOL    HW123606   2.853   0.141  12.628 -1.4762  0.5839  0.1020
 4048SOL    HW223607   2.868   0.285  12.572 -2.2455 -2.4441 -2.4645
 4049SOL     OW23608   4.534   3.778   4.094 -0.3802  0.1000 -0.2047
 4049SOL    HW123609   4.471   3.727   4.043 -1.1402 -0.3331  1.1742
 4049SOL    HW223610   4.597   3.708   4.108  4.5739  4.1707 -2.0294
 4050SOL     OW23611   4.064   0.428  16.123  0.1891 -0.2104  0.5590
 4050SOL    HW123612   4.070   0.361  16.192  0.2969 -0.3641  0.4026
 4050SOL    HW223613   4.082   0.383  16.040  2.8360 -0.0416  1.0481
 4051SOL     OW23614   2.185   2.762   2.465  0.0079 -0.3811 -0.4457
 4051SOL    HW123615   2.104   2.718   2.489  0.5709 -0.3744  1.4801
 4051SOL    HW223616   2.143   2.823   2.404  1.9104  1.0707 -0.3269
 4052SOL     OW23617   4.035   3.693  15.756 -0.5271  0.3615 -0.0085
 4052SOL    HW123618   4.121   3.650  15.763  0.2580  2.1437  1.4027
 4052SOL    HW223619   3.988   3.622  15.711 -0.8568  1.4849 -1.4167
 4053SOL     OW23620   3.264   0.236   4.095 -0.5225 -0.0800  0.4484
 4053SOL    HW123621   3.202   0.172   4.130  0.3326 -0.1102  1.9322
 4053SOL    HW223622   3.325   0.186   4.042 -0.2892  0.0666  0.5792
 4054SOL     OW23623   2.550   0.113   0.238 -0.4585  0.7538  0.1415
 4054SOL    HW123624   2.598   0.188   0.272 -0.2820  1.0492 -0.7397
 4054SOL    HW223625   2.544   0.133   0.144  2.5191  0.1032 -0.1799
 4055SOL     OW23626   2.425   0.797   2.984 -0.2149 -0.7087 -0.0232
 4055SOL    HW123627   2.510   0.831   2.957 -0.1536  0.5115  1.7316
 4055SOL    HW223628   2.359   0.836   2.927  0.9395  0.6440 -0.4160
 4056SOL     OW23629   2.842   3.782   8.908  0.1953  0.0193  0.2236
 4056SOL    HW123630   2.796   3.820   8.834  0.4768 -1.1876 -0.5621
 4056SOL    HW223631   2.879   3.702   8.871 -3.4350 -2.3430  1.6938
 4057SOL     OW23632   3.689   2.964   6.462 -0.6053  0.4606  0.0551
 4057SOL    HW123633   3.595   2.979   6.469 -0.4116  1.1491  1.2858
 4057SOL    HW223634   3.694   2.954   6.367  0.6832  2.1056 -0.0509
 4058SOL     OW23635   1.834   4.169   7.585  0.0360 -0.3019  0.2539
 4058SOL    HW123636   1.899   4.151   7.517  0.9600  1.8271  0.5837
 4058SOL    HW223637   1.769   4.100   7.576 -2.2865  1.9145  0.1453
 4059SOL     OW23638   0.093   3.096   2.823  0.0221  0.0715 -0.0102
 4059SOL    HW123639   0.104   3.035   2.897  5.5680 -0.6622 -1.4581
 4059SOL    HW223640   0.163   3.067   2.765 -1.0355 -1.7745 -0.3598
 4060SOL     OW23641   1.678   3.488   5.535  0.4548 -0.0504  0.4475
 4060SOL    HW123642   1.589   3.481   5.569 -0.9596  1.9027 -2.8846
 4060SOL    HW223643   1.663   3.561   5.476  1.2770  0.5802  1.0110
 4061SOL     OW23644   0.885   1.677   8.630 -0.1697  0.0696 -0.0517
 4061SOL    HW123645   0.915   1.587   8.625  3.6541  1.2922  1.1526
 4061SOL    HW223646   0.791   1.678   8.612 -0.4039 -0.7465  1.1117
 4062SOL     OW23647   2.527   0.444   1.883 -0.1715  0.4570  0.1322
 4062SOL    HW123648   2.532   0.444   1.787 -1.6844 -1.4854  0.0564
 4062SOL    HW223649   2.474   0.368   1.908 -0.3575  0.7046  0.4827
 4063SOL     OW23650   0.168   3.152   8.140  0.0389  0.0452  0.9715
 4063SOL    HW123651   0.165   3.229   8.083 -0.2445 -0.3565  0.4496
 4063SOL    HW223652   0.122   3.093   8.080 -2.4370  0.5052  2.4082
 4064SOL     OW23653   4.081   3.675  11.881 -0.0437  0.4229 -0.4705
 4064SOL    HW123654   4.115   3.588  11.901  1.1414  0.7330 -1.1280
 4064SOL    HW223655   3.989   3.656  11.895  0.2858 -1.2117 -0.5018
 4065SOL     OW23656   1.774   1.371   9.299  0.1449  0.5916 -0.1814
 4065SOL    HW123657   1.733   1.305   9.355 -0.1702 -1.0763 -2.3546
 4065SOL    HW223658   1.740   1.451   9.339 -3.4557 -0.8638 -0.3430
 4066SOL     OW23659   2.533   3.598   3.706 -0.0524 -0.1512  0.0473
 4066SOL    HW123660   2.492   3.552   3.779  1.6360 -0.2253  0.9519
 4066SOL    HW223661   2.466   3.602   3.638  0.8540 -0.7510 -0.8939
 4067SOL     OW23662   3.865   3.592   4.921  0.4374  0.1319  0.1640
 4067SOL    HW123663   3.852   3.551   4.836  1.1316  0.1340  0.0604
 4067SOL    HW223664   3.816   3.527   4.971  1.4195  0.7904  2.0169
 4068SOL     OW23665   2.908   2.288   3.282  0.3251 -0.5804 -0.1157
 4068SOL    HW123666   2.857   2.208   3.297  1.0390 -1.2806 -1.3785
 4068SOL    HW223667   2.870   2.326   3.202 -0.1373  0.8281  0.7822
 4069SOL     OW23668   4.397   4.417   8.239 -0.1747  0.2624  0.5636
 4069SOL    HW123669   4.326   4.432   8.301 -0.0384 -0.7243  0.9762
 4069SOL    HW223670   4.405   4.509   8.215 -0.4286 -0.2140 -1.3960
 4070SOL     OW23671   1.067   1.715   7.276  0.5377  0.4592  0.1818
 4070SOL    HW123672   0.973   1.697   7.286  0.0118  2.0267 -2.0134
 4070SOL    HW223673   1.106   1.650   7.335  1.1247 -0.3166 -1.0829
 4071SOL     OW23674   0.930   0.626   4.937 -0.0541 -0.1045  0.2422
 4071SOL    HW123675   0.912   0.615   4.843  2.8302 -2.3258 -0.0583
 4071SOL    HW223676   0.962   0.538   4.960 -4.1521 -1.2576  1.4519
 4072SOL     OW23677   4.373   3.493   4.491 -0.5915 -0.0475 -0.3264
 4072SOL    HW123678   4.436   3.469   4.558 -1.9052  1.2047  1.3488
 4072SOL    HW223679   4.358   3.408   4.449 -0.4863 -0.7281  1.0264
 4073SOL     OW23680   4.331   4.081   8.270 -0.3545  0.6046  0.4777
 4073SOL    HW123681   4.243   4.098   8.304 -0.4114  1.2663  0.0084
 4073SOL    HW223682   4.322   4.089   8.175 -0.4580  0.6214  0.4890
 4074SOL     OW23683   3.877   2.450   6.548 -0.1707 -0.1100  0.4658
 4074SOL    HW123684   3.902   2.390   6.477  0.1368 -0.8239  1.1810
 4074SOL    HW223685   3.815   2.507   6.502  0.6508 -1.2300 -2.0250
 4075SOL     OW23686   0.137   3.146   3.998 -0.0646  0.5904 -0.8054
 4075SOL    HW123687   0.103   3.154   3.909 -3.0928 -1.5250  0.1708
 4075SOL    HW223688   0.155   3.052   3.997  0.1038  0.6042  0.7782
 4076SOL     OW23689   4.719   3.788   3.003 -0.3460 -0.1364 -0.5349
 4076SOL    HW123690   4.691   3.785   3.095 -0.1006  1.0496 -0.4326
 4076SOL    HW223691   0.090   3.774   3.007 -0.9305 -3.3032  2.4102
 4077SOL     OW23692   4.113   0.091  14.889  0.3236 -0.2737  0.0133
 4077SOL    HW123693   4.133   0.009  14.845 -0.4802 -0.2462 -0.3882
 4077SOL    HW223694   4.076   0.053  14.969  0.2131 -1.9834 -0.8664
 4078SOL     OW23695   0.138   1.999   5.491  0.6858  0.2142 -0.2632
 4078SOL    HW123696   0.074   2.027   5.557  0.3422 -3.4410  0.9588
 4078SOL    HW223697   0.208   2.005   5.556 -1.6675  1.2036  2.1881
 4079SOL     OW23698   1.284   3.824   7.916  0.0813 -0.0296 -0.0427
 4079SOL    HW123699   1.276   3.919   7.908  2.9371 -0.0364 -2.7725
 4079SOL    HW223700   1.192   3.804   7.895 -0.5448  2.2348  0.5402
 4080SOL     OW23701   3.027   4.336  15.690  0.5196 -0.2019  0.0958
 4080SOL    HW123702   3.074   4.392  15.753 -2.5267 -0.0485  2.1953
 4080SOL    HW223703   2.958   4.299  15.745  0.1022  0.5348  0.0724
 4081SOL     OW23704   4.403   4.650   2.057  0.1932  0.3187  0.1884
 4081SOL    HW123705   4.488   4.695   2.053 -0.4961  1.5684 -0.3225
 4081SOL    HW223706   4.430   4.565   2.022 -2.6902  0.1585 -1.6335
 4082SOL     OW23707   4.436   4.413   2.914  0.1220 -0.0146  0.4874
 4082SOL    HW123708   4.367   4.454   2.863 -0.8381 -1.9069  0.2494
 4082SOL    HW223709   4.463   4.346   2.850  0.5940 -0.3590  1.0460
 4083SOL     OW23710   2.680   0.263   3.452 -0.9747 -0.3353  0.1771
 4083SOL    HW123711   2.612   0.218   3.503  0.3794  0.0363  2.3242
 4083SOL    HW223712   2.752   0.200   3.444 -0.9119 -0.5063  1.9476
 4084SOL     OW23713   0.212   1.659  12.143  0.0781  0.0600  0.4651
 4084SOL    HW123714   0.294   1.701  12.167  0.1520 -0.0021  0.3247
 4084SOL    HW223715   0.150   1.732  12.139 -0.1495 -0.1500  0.0287
 4085SOL     OW23716   0.599   0.287  13.697 -0.1252  0.5597  0.3019
 4085SOL    HW123717   0.626   0.375  13.672  0.9211 -0.7429 -3.1208
 4085SOL    HW223718   0.524   0.271  13.639  0.8509 -2.2500 -0.1938
 4086SOL     OW23719   1.171   0.170   7.363  0.3517 -0.0928 -0.0611
 4086SOL    HW123720   1.134   0.205   7.444  1.9110 -1.7887  1.3730
 4086SOL    HW223721   1.262   0.160   7.392  0.4802 -0.3463 -0.5467
 4087SOL     OW23722   3.902   1.255   2.999 -0.0653  0.1829 -0.0405
 4087SOL    HW123723   3.917   1.336   3.049  1.9479 -0.4627  0.4013
 4087SOL    HW223724   3.807   1.252   3.010 -0.1929  0.4040 -1.0832
 4088SOL     OW23725   2.983   2.953  12.385  0.3428  0.0697  0.2141
 4088SOL    HW123726   2.975   2.881  12.448  0.4221 -0.3556 -0.2540
 4088SOL    HW223727   3.043   3.009  12.435 -1.0398  1.6182  0.1113
 4089SOL     OW23728   3.957   2.925   4.226  0.0594  0.4434 -0.4534
 4089SOL    HW123729   3.952   2.838   4.188 -0.0818  0.4963 -0.5542
 4089SOL    HW223730   4.048   2.922   4.257 -0.0280 -1.5065 -0.3792
 4090SOL     OW23731   0.663   0.964   5.307 -0.2932  0.0677 -0.2558
 4090SOL    HW123732   0.746   0.997   5.341 -0.0417 -1.8779  1.0252
 4090SOL    HW223733   0.608   1.039   5.332 -0.1215  0.4758 -1.0921
 4091SOL     OW23734   1.218   0.013   3.925 -0.4077  0.7139 -0.1541
 4091SOL    HW123735   1.238   4.644   3.916  0.7193  0.8498  0.9693
 4091SOL    HW223736   1.123   0.013   3.938 -0.2931 -0.2925  0.7094
 4092SOL     OW23737   1.791   1.698   1.515 -0.0492 -0.1107  0.0577
 4092SOL    HW123738   1.836   1.642   1.452 -0.8368 -0.1979 -0.4325
 4092SOL    HW223739   1.699   1.677   1.499  0.3230  0.7645 -3.2485
 4093SOL     OW23740   3.796   1.510   2.304 -0.3598 -0.3068 -0.1843
 4093SOL    HW123741   3.744   1.571   2.354  0.4429  0.0088  0.2708
 4093SOL    HW223742   3.865   1.491   2.368 -0.2185  0.6242 -0.0626
 4094SOL     OW23743   1.222   4.460   2.696 -0.1764  0.5113 -0.3215
 4094SOL    HW123744   1.135   4.482   2.661 -2.1067 -1.4361  3.2849
 4094SOL    HW223745   1.198   4.454   2.788  0.2830  2.4071 -0.0809
 4095SOL     OW23746   4.681   2.704  10.350 -0.2305  0.0864  0.2296
 4095SOL    HW123747   4.715   2.614  10.347 -1.3041 -0.3311  0.4963
 4095SOL    HW223748   4.594   2.694  10.311 -1.8492  0.2060  3.7675
 4096SOL     OW23749   1.373   0.083  14.453  0.3703 -0.2317 -0.1975
 4096SOL    HW123750   1.365   0.016  14.385 -2.4226 -1.2380  1.1332
 4096SOL    HW223751   1.380   0.162  14.399 -1.1276  0.3172  0.4116
 4097SOL     OW23752   2.902   1.424  13.890 -0.7186 -0.2190 -0.3131
 4097SOL    HW123753   2.819   1.465  13.917 -1.1060 -0.9475 -0.4025
 4097SOL    HW223754   2.917   1.363  13.962 -2.4799  1.1779  1.2693
 4098SOL     OW23755   2.369   3.304   8.645 -0.0583  0.3297 -0.2712
 4098SOL    HW123756   2.368   3.399   8.657  1.3788  0.1225  1.3985
 4098SOL    HW223757   2.342   3.302   8.553 -1.8201 -0.9846  0.2780
 4099SOL     OW23758   2.800   4.111   1.186  0.4729  0.1421  1.1143
 4099SOL    HW123759   2.713   4.120   1.225  0.6358 -1.4879  1.8173
 4099SOL    HW223760   2.791   4.172   1.113 -0.0932  0.0991  1.1499
 4100SOL     OW23761   3.509   1.211   3.530  0.2039  0.4276 -0.6471
 4100SOL    HW123762   3.539   1.239   3.617 -1.0915 -0.2457  0.0067
 4100SOL    HW223763   3.590   1.215   3.480  0.9305  0.4681  0.5121
 4101SOL     OW23764   4.428   2.726  11.347 -0.7057 -0.0699 -0.0863
 4101SOL    HW123765   4.517   2.734  11.383 -1.1254  3.5757  0.1428
 4101SOL    HW223766   4.441   2.683  11.263  0.4813 -0.6437  0.3831
 4102SOL     OW23767   0.058   3.266   0.635  0.2693  0.1959  0.0494
 4102SOL    HW123768   0.025   3.354   0.619 -1.5770 -0.7077 -1.1907
 4102SOL    HW223769   0.023   3.259   0.723  1.1080  0.3969  0.3923
 4103SOL     OW23770   4.305   0.413   5.509 -0.1483  0.3527 -0.6331
 4103SOL    HW123771   4.384   0.363   5.488  0.4068  1.0065 -0.1029
 4103SOL    HW223772   4.336   0.473   5.577 -1.2135  2.2600 -1.8118
 4104SOL     OW23773   2.895   0.760   2.862 -0.6255  0.5734 -0.0263
 4104SOL    HW123774   2.843   0.727   2.935  0.1298 -1.9062 -0.6195
 4104SOL    HW223775   2.966   0.809   2.903 -0.3872 -0.0917  0.3473
 4105SOL     OW23776   0.032   1.253  12.717  0.2292 -0.2235  0.1253
 4105SOL    HW123777   4.713   1.292  12.640  0.0785 -0.4691  0.0863
 4105SOL    HW223778   4.699   1.177  12.720 -0.7326  0.5063  0.1862
 4106SOL     OW23779   3.027   4.618  15.035  0.0215 -0.5252  0.1874
 4106SOL    HW123780   3.026   4.688  14.970 -1.3832 -0.1220  0.6482
 4106SOL    HW223781   2.935   4.596  15.028  0.0918 -1.3928  1.8871
 4107SOL     OW23782   3.816   2.004   6.643 -1.5702  0.2145 -0.1622
 4107SOL    HW123783   3.770   2.088   6.649  0.5053  1.1598  2.4735
 4107SOL    HW223784   3.831   1.996   6.737 -0.1210 -1.7256 -0.5669
 4108SOL     OW23785   2.781   4.213   6.486 -0.1974  0.3784  0.0141
 4108SOL    HW123786   2.728   4.236   6.563 -1.2681  2.5038 -1.3499
 4108SOL    HW223787   2.856   4.267   6.513 -0.9558  0.8747  1.1262
 4109SOL     OW23788   3.179   4.418  11.229  0.6751 -0.0099  0.1737
 4109SOL    HW123789   3.116   4.353  11.259  2.6979 -1.2694  1.6764
 4109SOL    HW223790   3.188   4.393  11.137 -0.7048 -0.1228  0.0705
 4110SOL     OW23791   1.136   0.844  13.040 -0.0467  0.0742 -0.2235
 4110SOL    HW123792   1.120   0.932  13.006 -1.5127 -0.1743 -0.1473
 4110SOL    HW223793   1.081   0.835  13.117  1.6685 -0.2493  0.9740
 4111SOL     OW23794   2.586   2.614   3.409 -0.5686 -0.0770  0.0477
 4111SOL    HW123795   2.609   2.633   3.318 -0.2947 -0.0895  0.1144
 4111SOL    HW223796   2.669   2.573   3.432 -0.1237  0.4106 -0.7224
 4112SOL     OW23797   3.339   4.608  11.302  0.1075 -0.3711  0.3391
 4112SOL    HW123798   3.282   4.544  11.258  0.6300 -2.0684  2.1370
 4112SOL    HW223799   3.404   4.563  11.354  0.1836  1.5335  1.9052
 4113SOL     OW23800   3.054   0.360  10.354 -0.2938 -0.5758  0.2935
 4113SOL    HW123801   3.023   0.293  10.416  2.8131  0.4820  2.9644
 4113SOL    HW223802   3.135   0.319  10.324  0.3724  0.7529  0.2977
 4114SOL     OW23803   4.219   4.540   2.781  0.6689 -0.1796 -0.2621
 4114SOL    HW123804   4.151   4.490   2.827  1.4141 -0.4946  0.5029
 4114SOL    HW223805   4.164   4.581   2.714  1.8561  2.8546  0.6295
 4115SOL     OW23806   1.463   3.589   8.716 -0.6106 -0.4261 -0.6815
 4115SOL    HW123807   1.552   3.561   8.695 -0.1454  0.5288  0.0081
 4115SOL    HW223808   1.427   3.509   8.753 -0.1817 -0.8162 -1.1119
 4116SOL     OW23809   3.635   4.061   0.873  0.4174  0.3061  0.1125
 4116SOL    HW123810   3.588   4.131   0.828  0.7807  0.4509 -0.0431
 4116SOL    HW223811   3.559   4.008   0.897 -0.2916  1.0971 -0.3892
 4117SOL     OW23812   3.663   0.628   3.328 -0.3324 -0.1100  0.8855
 4117SOL    HW123813   3.618   0.713   3.331 -0.0585  0.0096  1.7913
 4117SOL    HW223814   3.666   0.610   3.422 -1.6503  1.7587  1.2972
 4118SOL     OW23815   2.737   1.278  11.528  0.0244  0.5281  0.2443
 4118SOL    HW123816   2.738   1.373  11.540  2.8620  0.9985 -3.9787
 4118SOL    HW223817   2.732   1.244  11.617  0.4215 -2.2932 -0.8119
 4119SOL     OW23818   4.525   2.999   4.737  0.0640  0.8636  0.2697
 4119SOL    HW123819   4.582   2.965   4.806 -1.4541  1.7158  1.9545
 4119SOL    HW223820   4.524   3.092   4.759  0.6620  0.9629 -0.1268
 4120SOL     OW23821   0.857   2.751  17.688  0.0145 -0.0274 -0.1018
 4120SOL    HW123822   0.804   2.812   0.041 -0.8736 -0.1279 -0.8846
 4120SOL    HW223823   0.795   2.763  17.616  0.1812 -0.6653 -0.3569
 4121SOL     OW23824   2.895   1.497   0.755  0.8955  0.4746  0.2043
 4121SOL    HW123825   2.903   1.579   0.705 -1.5221  0.0268 -0.9051
 4121SOL    HW223826   2.986   1.468   0.750  0.4841 -0.8439  0.2939
 4122SOL     OW23827   4.282   2.728   5.437 -0.6134  0.3182  0.6174
 4122SOL    HW123828   4.327   2.777   5.506 -0.3518 -1.8326  1.9800
 4122SOL    HW223829   4.340   2.745   5.363  1.3953 -1.4789  1.7852
 4123SOL     OW23830   2.880   4.301   3.035 -0.2615 -0.0085 -0.1777
 4123SOL    HW123831   2.890   4.371   2.970  2.4466 -0.7124 -0.5284
 4123SOL    HW223832   2.790   4.314   3.065  0.1162  3.3862 -0.4560
 4124SOL     OW23833   3.185   2.482   7.063 -0.0463  0.1793 -0.4197
 4124SOL    HW123834   3.244   2.519   7.128 -1.4656 -0.9145  1.4895
 4124SOL    HW223835   3.247   2.432   7.010 -0.1968  1.4007 -1.7539
 4125SOL     OW23836   1.846   1.037   5.690  0.2089 -0.4090 -0.1184
 4125SOL    HW123837   1.765   1.041   5.639  0.1995 -1.2659 -0.1823
 4125SOL    HW223838   1.887   1.110   5.644  0.7289 -0.8493 -0.3509
 4126SOL     OW23839   4.168   2.399  13.375 -0.0782  0.1015  0.4262
 4126SOL    HW123840   4.256   2.432  13.359 -0.2602 -0.0593 -0.8835
 4126SOL    HW223841   4.120   2.476  13.405 -0.2318 -0.2761  1.1469
 4127SOL     OW23842   3.866   0.903   7.804 -0.0962  0.5034 -0.1643
 4127SOL    HW123843   3.800   0.875   7.867 -0.8438  1.2117 -0.6420
 4127SOL    HW223844   3.828   0.879   7.720  0.5668  0.2762 -0.4033
 4128SOL     OW23845   1.614   4.298   4.217 -0.4013 -0.8356  0.1519
 4128SOL    HW123846   1.550   4.231   4.195  1.1946 -2.1600 -0.4968
 4128SOL    HW223847   1.561   4.372   4.244  1.0882  0.1103  0.5237
 4129SOL     OW23848   3.780   4.658   5.007  0.6310  0.0635  0.2327
 4129SOL    HW123849   3.788   4.659   4.912 -2.9259  0.4350 -0.0637
 4129SOL    HW223850   3.840   4.584   5.020 -0.9299 -1.2671 -0.1388
 4130SOL     OW23851   1.446   3.947   4.293 -0.0220 -0.2349 -0.0262
 4130SOL    HW123852   1.485   3.864   4.319  0.5127  0.4660  1.4364
 4130SOL    HW223853   1.430   3.983   4.381 -0.1242  1.6602 -0.8200
 4131SOL     OW23854   0.971   4.548   3.242 -0.0538 -0.5160  0.1507
 4131SOL    HW123855   1.007   4.478   3.188 -0.7310 -1.6100  1.1183
 4131SOL    HW223856   0.876   4.541   3.233 -0.0747  1.5285 -1.2410
 4132SOL     OW23857   1.988   3.245   8.709  0.2051  0.2962  0.1208
 4132SOL    HW123858   1.926   3.209   8.645 -0.2945 -1.4838  1.5940
 4132SOL    HW223859   1.930   3.302   8.759 -1.4340  1.2820 -2.9057
 4133SOL     OW23860   0.796   3.891  15.051  0.3238 -0.0662 -0.8375
 4133SOL    HW123861   0.809   3.815  14.994 -1.2569 -0.6326 -0.4340
 4133SOL    HW223862   0.780   3.843  15.132 -0.3948  1.5656 -0.0066
 4134SOL     OW23863   4.125   4.719   5.194 -0.5779  0.0122  0.0550
 4134SOL    HW123864   4.122   4.625   5.182  0.7204 -0.1695  1.1371
 4134SOL    HW223865   4.188   0.009   5.265 -0.6488 -1.4284  0.4116
 4135SOL     OW23866   2.014   0.602   4.323  0.8318 -0.0614 -0.1944
 4135SOL    HW123867   1.997   0.661   4.396  0.7747 -0.0982 -0.1782
 4135SOL    HW223868   1.943   0.622   4.262  0.7253 -1.1370 -0.4196
 4136SOL     OW23869   1.606   3.214  11.628 -0.0847  0.1758  0.1632
 4136SOL    HW123870   1.699   3.224  11.646 -0.2022  0.3136  0.7238
 4136SOL    HW223871   1.598   3.137  11.572  1.3289 -0.5590  0.9793
 4137SOL     OW23872   3.406   0.416   7.712 -0.2077 -0.1017  0.0849
 4137SOL    HW123873   3.373   0.353   7.647 -0.9536 -1.0632  1.4009
 4137SOL    HW223874   3.486   0.440   7.664  0.7100 -0.3704  1.4876
 4138SOL     OW23875   4.647   4.562   7.407 -0.2870  0.6489 -0.5210
 4138SOL    HW123876   0.001   4.572   7.461 -0.3298 -1.3172 -0.0968
 4138SOL    HW223877   4.689   4.604   7.332  0.0205 -0.7380 -1.1270
 4139SOL     OW23878   0.448   3.514  11.856 -0.1052 -0.5736  0.1157
 4139SOL    HW123879   0.479   3.516  11.947 -1.2130 -1.7332  0.5117
 4139SOL    HW223880   0.526   3.488  11.807  0.9886  1.2881  0.8567
 4140SOL     OW23881   4.083   0.173   3.232  0.4973  0.3029 -0.1117
 4140SOL    HW123882   4.006   0.223   3.205  0.5274  0.5811  0.3215
 4140SOL    HW223883   4.061   0.166   3.325  3.1117 -0.0420  0.5007
 4141SOL     OW23884   1.168   2.863   6.143  0.1374  0.4569 -0.1794
 4141SOL    HW123885   1.204   2.951   6.156 -0.0925  1.1251 -3.8613
 4141SOL    HW223886   1.242   2.812   6.176  0.8074  2.2601  1.0919
 4142SOL     OW23887   3.377   0.028  10.219 -0.1838 -0.2338  0.1516
 4142SOL    HW123888   3.433   0.036  10.142 -1.8598  2.5519 -0.7548
 4142SOL    HW223889   3.341   0.116  10.227  0.3788 -0.1544  1.8426
 4143SOL     OW23890   3.926   3.863   4.319  0.3912  0.2072 -0.4470
 4143SOL    HW123891   4.011   3.899   4.293  1.0392 -1.6919 -0.9862
 4143SOL    HW223892   3.872   3.898   4.249  2.2546  1.2587 -1.3373
 4144SOL     OW23893   4.669   2.825   7.448 -0.2306 -0.8989  0.0141
 4144SOL    HW123894   0.033   2.791   7.449  0.4792  0.9415  0.3492
 4144SOL    HW223895   4.688   2.919   7.445  1.1901 -1.1894  0.2594
 4145SOL     OW23896   1.033   2.016  13.153 -0.1485 -0.6830 -0.7973
 4145SOL    HW123897   1.003   1.978  13.071 -0.4541  0.8150 -1.3869
 4145SOL    HW223898   1.001   1.957  13.221 -0.7457  2.0248  1.3018
 4146SOL     OW23899   0.106   1.875   8.562  0.6442  0.6775 -0.0985
 4146SOL    HW123900   0.082   1.800   8.507 -0.3884  0.2962  0.8663
 4146SOL    HW223901   0.021   1.920   8.567  0.1963 -0.3112  1.1747
 4147SOL     OW23902   0.598   4.352   0.332  0.7697 -0.2721  0.5387
 4147SOL    HW123903   0.589   4.410   0.408  1.7698  2.3337 -1.3281
 4147SOL    HW223904   0.558   4.413   0.270  0.1317 -0.2934  0.9277
 4148SOL     OW23905   0.516   1.964  17.079  0.3764  0.3841 -0.0862
 4148SOL    HW123906   0.434   1.943  17.123  0.0287  0.6624 -0.6085
 4148SOL    HW223907   0.566   1.888  17.110  1.1714  0.2743 -1.6238
 4149SOL     OW23908   0.826   0.313   7.987 -0.0679  0.6716  0.4321
 4149SOL    HW123909   0.812   0.219   7.987  1.5531  0.4432 -1.2912
 4149SOL    HW223910   0.804   0.329   8.079 -1.9574  1.5607 -0.1679
 4150SOL     OW23911   0.233   2.191   6.274  0.2275 -0.0195  0.1067
 4150SOL    HW123912   0.205   2.132   6.344  1.3498  0.3275  0.8526
 4150SOL    HW223913   0.163   2.255   6.271 -1.1327 -1.5916 -1.5644
 4151SOL     OW23914   3.025   2.599   3.912 -0.5133 -0.0992 -0.4074
 4151SOL    HW123915   3.004   2.690   3.932  0.6555 -0.2058  1.3390
 4151SOL    HW223916   3.017   2.603   3.816 -2.0975 -0.9163 -0.3103
 4152SOL     OW23917   4.566   1.879   7.854  0.2548 -0.4105  0.5547
 4152SOL    HW123918   4.640   1.913   7.804 -1.1059 -1.8125 -2.4488
 4152SOL    HW223919   4.615   1.840   7.927 -0.8463 -1.2897  0.8231
 4153SOL     OW23920   2.980   0.867   8.490 -0.3987 -0.8225 -0.3133
 4153SOL    HW123921   3.010   0.953   8.518 -3.3678 -0.3252  1.2735
 4153SOL    HW223922   2.893   0.864   8.529 -0.8368 -1.3387 -1.3207
 4154SOL     OW23923   1.813   0.388   7.053  0.0319 -0.5447  0.0129
 4154SOL    HW123924   1.775   0.475   7.041  0.5217  0.0005  2.4391
 4154SOL    HW223925   1.770   0.336   6.986 -1.0360 -0.3462  0.5497
 4155SOL     OW23926   1.004   0.384   3.497 -0.0858 -0.3924  0.0005
 4155SOL    HW123927   1.089   0.364   3.537 -0.8208  2.1920  2.8895
 4155SOL    HW223928   0.996   0.299   3.454  1.1153 -0.2133 -0.5790
 4156SOL     OW23929   1.563   3.340   5.266  0.2468  0.1463  0.3391
 4156SOL    HW123930   1.592   3.431   5.267 -0.2781  0.3594 -2.8140
 4156SOL    HW223931   1.544   3.325   5.358 -0.3908 -0.7509  0.0725
 4157SOL     OW23932   1.327   2.705   7.433 -0.1789 -0.7146  0.9347
 4157SOL    HW123933   1.368   2.745   7.509  0.5952 -1.7069  1.0258
 4157SOL    HW223934   1.315   2.785   7.382 -0.4072 -1.8456 -0.7828
 4158SOL     OW23935   0.791   2.630   8.477  0.0535 -0.0282  0.3994
 4158SOL    HW123936   0.737   2.695   8.521  0.6935  0.2674  0.7358
 4158SOL    HW223937   0.738   2.613   8.399  1.3413  2.1365 -0.9466
 4159SOL     OW23938   3.126   3.893   8.224 -0.3841 -0.0518  0.5141
 4159SOL    HW123939   3.174   3.975   8.240  0.4770 -0.0977 -1.7926
 4159SOL    HW223940   3.174   3.868   8.145  0.8320  0.9923  0.9107
 4160SOL     OW23941   2.867   0.251   7.735  0.1539  0.1342 -0.5402
 4160SOL    HW123942   2.936   0.188   7.718  0.5747  0.3054  0.5789
 4160SOL    HW223943   2.872   0.254   7.830 -0.7588 -0.0452 -0.4861
 4161SOL     OW23944   1.203   1.402   0.456  0.1079 -0.0400 -0.4557
 4161SOL    HW123945   1.243   1.333   0.403  0.4928  0.1181 -0.3650
 4161SOL    HW223946   1.136   1.352   0.502 -0.9212  2.1221  0.3916
 4162SOL     OW23947   2.091   0.198  16.191  0.0104 -0.0894 -1.2459
 4162SOL    HW123948   2.134   0.226  16.110  1.8456 -1.3131 -0.6928
 4162SOL    HW223949   2.162   0.216  16.253 -1.2053 -0.3384  0.2234
 4163SOL     OW23950   0.224   3.867   6.874 -0.0213 -0.2141  0.5091
 4163SOL    HW123951   0.303   3.845   6.922  0.2473 -1.0561 -0.3060
 4163SOL    HW223952   0.208   3.953   6.911  1.4847  0.5817 -0.6968
 4164SOL     OW23953   1.358   0.926  12.836  0.0886  0.0045  0.4359
 4164SOL    HW123954   1.351   0.834  12.862  1.7975  0.3242  2.0553
 4164SOL    HW223955   1.270   0.956  12.815 -0.0070  0.4793  1.5156
 4165SOL     OW23956   3.041   3.980   7.733  0.6492 -0.4523  0.2644
 4165SOL    HW123957   3.114   4.037   7.709 -0.4993  1.0402  0.3081
 4165SOL    HW223958   2.994   4.037   7.794  1.8978 -0.3985  1.1879
 4166SOL     OW23959   2.515   2.660  11.388 -0.3694 -0.0511  0.2496
 4166SOL    HW123960   2.557   2.652  11.302  0.1383  1.9527  0.3129
 4166SOL    HW223961   2.552   2.745  11.410 -1.3581  0.5905 -0.5683
 4167SOL     OW23962   4.373   4.359   3.946 -0.3370  0.0974 -0.1742
 4167SOL    HW123963   4.369   4.303   3.869 -0.1858 -0.6307  0.3484
 4167SOL    HW223964   4.460   4.396   3.933  0.7402 -1.6067  2.3126
 4168SOL     OW23965   3.050   1.098  10.697  0.2005  0.3487  0.2704
 4168SOL    HW123966   2.989   1.037  10.656  0.4252 -0.9035  1.8133
 4168SOL    HW223967   3.029   1.085  10.790  1.2840 -2.8540  0.0689
 4169SOL     OW23968   0.219   1.801  13.165 -0.7727  0.3221  0.2761
 4169SOL    HW123969   0.142   1.844  13.127 -0.8438 -1.2906 -1.4086
 4169SOL    HW223970   0.260   1.779  13.082  0.9290  0.3343  1.1281
 4170SOL     OW23971   4.688   1.482   6.839  0.0913  0.2223 -0.0589
 4170SOL    HW123972   0.018   1.513   6.911 -0.3158  0.5171  0.1242
 4170SOL    HW223973   4.603   1.465   6.882 -1.6552  1.2437 -3.1164
 4171SOL     OW23974   3.346   3.529   9.070 -0.2953 -0.0684  0.1768
 4171SOL    HW123975   3.411   3.546   9.139  0.1384  0.0575 -0.2618
 4171SOL    HW223976   3.399   3.478   9.009  0.0226 -1.5590  1.6765
 4172SOL     OW23977   2.014   2.760   8.038  0.5526 -0.1752  0.1223
 4172SOL    HW123978   2.092   2.815   8.048  0.3851  0.3147 -1.2272
 4172SOL    HW223979   2.032   2.710   7.959 -0.6612  1.5034 -1.2286
 4173SOL     OW23980   0.152   2.910   0.411 -0.3405 -0.2588 -0.1995
 4173SOL    HW123981   0.230   2.960   0.388 -0.0142 -0.1586  1.1491
 4173SOL    HW223982   0.088   2.972   0.377 -0.0080 -0.2100 -0.7374
 4174SOL     OW23983   3.638   4.258   5.612 -0.1860 -0.3121  0.5721
 4174SOL    HW123984   3.567   4.230   5.554  0.6432  0.6084 -0.8811
 4174SOL    HW223985   3.698   4.290   5.544  0.9950  0.6158  2.0451
 4175SOL     OW23986   0.699   0.161   9.031  0.1549 -0.4976 -0.6986
 4175SOL    HW123987   0.646   0.216   9.088 -0.2927 -1.4663 -0.1688
 4175SOL    HW223988   0.658   0.074   9.028 -1.1256  0.1119 -0.9954
 4176SOL     OW23989   1.858   2.082   6.663  0.1911 -1.3237  0.4209
 4176SOL    HW123990   1.815   2.005   6.698 -1.9844  0.7654  2.3254
 4176SOL    HW223991   1.889   2.121   6.745 -2.9946  0.7392  0.6588
 4177SOL     OW23992   0.057   0.402   1.458 -0.7865  0.1551 -0.7962
 4177SOL    HW123993   0.113   0.473   1.428  0.7211 -0.7906 -0.2068
 4177SOL    HW223994   0.122   0.338   1.487 -0.7670  0.4652 -0.1552
 4178SOL     OW23995   4.170   1.009   2.503 -0.2522  0.1228 -0.1210
 4178SOL    HW123996   4.191   0.959   2.424 -0.2774 -0.4312  0.2263
 4178SOL    HW223997   4.212   0.951   2.566 -2.2622 -1.3300 -0.0921
 4179SOL     OW23998   4.583   3.770   1.781  0.3842  0.1832 -0.1564
 4179SOL    HW123999   4.525   3.819   1.723 -0.0241  2.6098  2.3042
 4179SOL    HW224000   4.665   3.767   1.731 -0.2228  0.0978 -1.1565
 4180SOL     OW24001   1.259   2.796   8.057 -0.2107 -0.1506 -0.5908
 4180SOL    HW124002   1.249   2.890   8.048  0.4645 -0.0491 -0.2597
 4180SOL    HW224003   1.334   2.785   7.998  0.4981  1.5371 -0.0030
 4181SOL     OW24004   4.307   2.805  13.574 -0.1505 -0.1043  0.4255
 4181SOL    HW124005   4.276   2.863  13.504 -0.8091 -0.1716  0.6691
 4181SOL    HW224006   4.350   2.865  13.635 -0.5506  0.0519  0.5525
 4182SOL     OW24007   1.706   0.126   3.162  0.2819  0.0468  0.0182
 4182SOL    HW124008   1.762   0.166   3.228 -0.3739 -0.2770  0.7801
 4182SOL    HW224009   1.772   0.086   3.105  2.3221 -0.0144  2.4440
 4183SOL     OW24010   1.190   4.343   0.526  0.2996 -0.2031  0.1958
 4183SOL    HW124011   1.218   4.417   0.579 -1.0993 -0.1124  0.8148
 4183SOL    HW224012   1.102   4.377   0.510  0.5748 -0.1249 -1.2092
 4184SOL     OW24013   2.487   1.976   6.421  0.0563  0.1931  0.3536
 4184SOL    HW124014   2.455   1.957   6.333  0.1462 -0.6366  0.5014
 4184SOL    HW224015   2.480   1.890   6.462 -0.8251  0.5901  1.0454
 4185SOL     OW24016   2.900   4.575  15.533 -0.0246 -0.2177  0.4603
 4185SOL    HW124017   2.840   4.641  15.497  1.1445  0.2939 -0.5584
 4185SOL    HW224018   2.934   4.631  15.602  1.6183  0.7509 -1.1255
 4186SOL     OW24019   1.126   3.584   3.885 -0.1328  0.5052  0.5112
 4186SOL    HW124020   1.160   3.583   3.795 -0.7843  0.3526  0.2676
 4186SOL    HW224021   1.192   3.635   3.932  0.6945 -0.2826  0.2039
 4187SOL     OW24022   4.569   0.477   9.497  0.4718 -0.3823  0.0687
 4187SOL    HW124023   4.581   0.561   9.541  1.7507 -0.5835  0.1171
 4187SOL    HW224024   4.533   0.428   9.571  0.2451 -0.2524  0.0429
 4188SOL     OW24025   4.505   3.601  12.257 -0.4442  0.5341  0.1971
 4188SOL    HW124026   4.547   3.517  12.239  1.5714  1.6901 -0.5016
 4188SOL    HW224027   4.461   3.577  12.339 -1.4330 -0.4533 -0.6256
 4189SOL     OW24028   3.287   1.748   7.035  0.1736 -0.0865 -0.7545
 4189SOL    HW124029   3.380   1.749   7.060  0.6303 -0.8450 -2.3966
 4189SOL    HW224030   3.250   1.703   7.111 -0.1992  0.5800 -0.5437
 4190SOL     OW24031   3.182   2.600  14.923 -0.4439  0.3467 -0.5308
 4190SOL    HW124032   3.257   2.660  14.919 -0.8967  0.8811 -1.0264
 4190SOL    HW224033   3.178   2.576  14.831  1.3294  4.0591 -1.5845
 4191SOL     OW24034   0.073   3.469  12.138  0.2163  0.2346 -0.4613
 4191SOL    HW124035   0.119   3.396  12.178  0.7073  1.5501  1.4250
 4191SOL    HW224036   4.707   3.439  12.148  0.7179 -1.4622 -1.1734
 4192SOL     OW24037   1.406   4.440  12.120  0.1009 -0.6966 -0.2981
 4192SOL    HW124038   1.449   4.400  12.045 -0.3347 -3.1787  0.7681
 4192SOL    HW224039   1.442   4.388  12.192 -1.7654 -1.0230  0.3886
 4193SOL     OW24040   0.570   4.125  15.343 -0.0070  0.0386  0.4865
 4193SOL    HW124041   0.652   4.136  15.295  0.4569  0.4471  1.3686
 4193SOL    HW224042   0.506   4.141  15.274  1.3289 -0.6308 -0.9116
 4194SOL     OW24043   1.388   3.246   3.941 -0.1726  0.2222  0.2425
 4194SOL    HW124044   1.363   3.336   3.960 -0.7438  0.5141 -1.8635
 4194SOL    HW224045   1.451   3.271   3.873 -0.4384 -0.1192 -0.1278
 4195SOL     OW24046   3.072   3.400  14.377 -0.0468 -0.5340 -0.3315
 4195SOL    HW124047   3.059   3.426  14.468 -2.3565  1.7777 -1.3227
 4195SOL    HW224048   3.158   3.357  14.373  0.7462  1.1935 -1.8931
 4196SOL     OW24049   1.432   1.280   4.161  0.0175  0.6566 -0.1137
 4196SOL    HW124050   1.516   1.301   4.202 -0.2963  2.5883 -0.4545
 4196SOL    HW224051   1.383   1.357   4.188 -0.2094  0.8813 -1.1720
 4197SOL     OW24052   3.107   1.244   8.091 -0.0486 -0.2672  0.6311
 4197SOL    HW124053   3.031   1.261   8.035  0.8751  0.4457 -0.3980
 4197SOL    HW224054   3.122   1.150   8.075  0.8741 -0.1424  0.7671
 4198SOL     OW24055   3.431   3.386  15.195 -0.3811 -0.4105  0.3166
 4198SOL    HW124056   3.377   3.458  15.164  0.3242 -0.5404 -1.1826
 4198SOL    HW224057   3.409   3.317  15.132  0.2073  1.4263 -1.8938
 4199SOL     OW24058   3.216   0.987  10.149 -0.3494 -0.8035 -0.0146
 4199SOL    HW124059   3.180   0.929  10.217 -0.7981  0.1178  0.5346
 4199SOL    HW224060   3.136   1.038  10.135 -1.1029 -1.2574  2.4890
 4200SOL     OW24061   3.090   2.851   3.408  0.1277  0.8174 -0.2884
 4200SOL    HW124062   3.045   2.809   3.335  1.3462  1.2276 -1.2903
 4200SOL    HW224063   3.134   2.926   3.367  0.5733  0.6834 -0.0643
 4201SOL     OW24064   1.812   0.898   3.107  0.1685 -0.0237 -0.4083
 4201SOL    HW124065   1.878   0.842   3.148  1.8067  1.9094 -0.3840
 4201SOL    HW224066   1.743   0.910   3.173  1.4932  0.8512  0.8200
 4202SOL     OW24067   3.737   3.250  16.755 -0.0652 -0.3069  0.2713
 4202SOL    HW124068   3.737   3.337  16.717 -0.4208 -0.3558  0.1596
 4202SOL    HW224069   3.746   3.272  16.848 -0.2931 -1.1045  0.4910
 4203SOL     OW24070   4.154   1.142  12.231  0.2813  0.2231 -0.4840
 4203SOL    HW124071   4.065   1.131  12.265  1.4409 -2.7272  1.5995
 4203SOL    HW224072   4.193   1.156  12.318 -0.9953 -0.0553  0.1321
 4204SOL     OW24073   1.806   3.605   0.361 -0.1041 -0.4979  0.2665
 4204SOL    HW124074   1.726   3.628   0.315  0.6255  1.1837 -0.1676
 4204SOL    HW224075   1.834   3.691   0.393 -0.5373 -0.5623  0.8231
 4205SOL     OW24076   1.475   2.675  10.744 -0.6160 -0.5371 -0.1410
 4205SOL    HW124077   1.495   2.630  10.663  3.1225  0.1788  0.3639
 4205SOL    HW224078   1.447   2.760  10.711  2.5016  0.7562  0.5526
 4206SOL     OW24079   2.969   1.743   7.180 -0.6503 -0.1284 -0.4908
 4206SOL    HW124080   2.982   1.720   7.271 -0.7082 -1.0296 -0.7068
 4206SOL    HW224081   2.885   1.789   7.181  0.7927  2.3235  3.7316
 4207SOL     OW24082   2.425   3.491   0.834  0.1059  0.3209  0.1112
 4207SOL    HW124083   2.506   3.445   0.856 -2.0529 -1.9161  3.3350
 4207SOL    HW224084   2.455   3.582   0.834  1.2081 -0.0368 -1.5942
 4208SOL     OW24085   0.673   4.472   8.607 -0.3048 -0.5049 -0.1029
 4208SOL    HW124086   0.715   4.522   8.677  0.2696 -1.8191  0.4970
 4208SOL    HW224087   0.614   4.418   8.659 -1.0786 -0.1242 -0.5849
 4209SOL     OW24088   3.557   4.421   7.241  0.3971  0.0637  0.0122
 4209SOL    HW124089   3.484   4.481   7.258  0.4067 -0.0453  0.4447
 4209SOL    HW224090   3.609   4.469   7.177  0.2923  1.3927  0.9302
 4210SOL     OW24091   3.261   0.351  11.953 -0.3126 -0.0897 -0.6408
 4210SOL    HW124092   3.210   0.288  11.902 -0.1491 -0.5035 -0.2994
 4210SOL    HW224093   3.303   0.399  11.882 -0.7234  1.3671  0.0967
 4211SOL     OW24094   3.684   2.858   5.836  0.5958 -0.1686 -0.1920
 4211SOL    HW124095   3.751   2.815   5.890  1.4538  0.7506 -0.5121
 4211SOL    HW224096   3.648   2.929   5.889  2.9642  0.2499  0.8679
 4212SOL     OW24097   4.522   3.474   4.708  0.8467  0.2681  0.4415
 4212SOL    HW124098   4.577   3.403   4.740 -1.6761 -2.9158 -2.2685
 4212SOL    HW224099   4.588   3.543   4.710  1.0304  0.1316 -0.6626
 4213SOL     OW24100   3.339   3.942   7.374  0.1407 -0.2786  0.3375
 4213SOL    HW124101   3.300   4.014   7.424 -0.4710 -0.7385  0.5140
 4213SOL    HW224102   3.354   3.972   7.284  0.1858 -2.5697 -0.4114
 4214SOL     OW24103   2.104   0.929   8.665 -0.2938  0.4225 -0.0810
 4214SOL    HW124104   2.163   0.951   8.737 -0.5523 -0.4094  0.3907
 4214SOL    HW224105   2.022   0.919   8.715 -0.2844 -0.6135 -0.2604
 4215SOL     OW24106   1.972   4.129   0.566  0.0457 -0.2691  0.1952
 4215SOL    HW124107   2.001   4.216   0.594  0.7684  0.0714 -1.6338
 4215SOL    HW224108   2.031   4.121   0.492  2.8816 -2.2296  2.6575
 4216SOL     OW24109   2.943   1.620  12.949  0.2455 -0.2530  0.5899
 4216SOL    HW124110   3.038   1.612  12.950  0.2341 -0.6657 -0.8888
 4216SOL    HW224111   2.916   1.533  12.918 -0.1980 -0.3424  1.2363
 4217SOL     OW24112   2.119   1.042   5.711  0.2784 -0.1656  0.0361
 4217SOL    HW124113   2.028   1.047   5.682  0.9494 -0.4604 -2.1268
 4217SOL    HW224114   2.107   1.046   5.806 -0.1860  2.0059 -0.1312
 4218SOL     OW24115   2.898   2.363   0.363 -0.1637 -0.3410 -0.0503
 4218SOL    HW124116   2.924   2.303   0.294 -1.2884 -0.6613 -0.2096
 4218SOL    HW224117   2.978   2.414   0.370  0.6745 -1.5094 -1.2884
 4219SOL     OW24118   2.921   1.952   8.311  0.3027 -0.3266 -0.1419
 4219SOL    HW124119   2.946   1.861   8.327  1.3170  0.6128  3.7723
 4219SOL    HW224120   2.860   1.962   8.384  0.8604  0.0472  0.2721
 4220SOL     OW24121   3.043   2.746   2.113 -0.0705  0.0998  0.4477
 4220SOL    HW124122   3.031   2.741   2.208  0.2483  0.8795  0.5275
 4220SOL    HW224123   3.115   2.686   2.096 -0.3168 -0.0629 -0.0310
 4221SOL     OW24124   2.902   3.035   2.882  0.1423 -0.0300  0.3166
 4221SOL    HW124125   2.918   3.125   2.908  1.8330  0.0438 -0.9864
 4221SOL    HW224126   2.994   3.009   2.889  0.8475  2.1647 -0.7839
 4222SOL     OW24127   0.020   2.159   2.811 -0.1426  0.5966 -0.1335
 4222SOL    HW124128   0.111   2.142   2.790  0.1724  1.4640  0.5274
 4222SOL    HW224129   4.699   2.081   2.781  3.3899 -0.6830 -2.1473
 4223SOL     OW24130   3.750   0.108   8.582 -0.1371  0.2253 -0.0006
 4223SOL    HW124131   3.826   0.051   8.592 -1.0298 -1.0193 -0.3457
 4223SOL    HW224132   3.744   0.104   8.486  0.0050 -2.7944  0.1148
 4224SOL     OW24133   0.749   4.674   6.439 -0.4169  0.0802 -0.3472
 4224SOL    HW124134   0.781   4.715   6.359  0.9984 -2.5370 -1.0935
 4224SOL    HW224135   0.659   4.703   6.427 -1.0811 -3.2007 -3.0628
 4225SOL     OW24136   2.854   1.165   9.432 -0.0644 -0.1779 -0.1385
 4225SOL    HW124137   2.919   1.186   9.366  0.9074 -1.1920  0.5112
 4225SOL    HW224138   2.882   1.074   9.444 -0.5833 -0.2322  0.6593
 4226SOL     OW24139   2.559   0.243   0.005 -0.3546 -0.1485 -0.3661
 4226SOL    HW124140   2.537   0.262  17.613 -0.1371  1.0070 -0.1775
 4226SOL    HW224141   2.491   0.291   0.053 -1.3418  1.1086 -2.9454
 4227SOL     OW24142   1.823   0.893  11.044  0.5365  0.1744 -0.1710
 4227SOL    HW124143   1.900   0.837  11.049  0.9729  0.6422 -1.7330
 4227SOL    HW224144   1.866   0.978  11.033  0.0108  0.1709 -2.3039
 4228SOL     OW24145   3.216   3.386   1.171 -0.2353 -0.1444  0.3325
 4228SOL    HW124146   3.153   3.318   1.146 -0.6275 -0.3172  1.8126
 4228SOL    HW224147   3.226   3.445   1.096 -0.8564  0.8402  1.0292
 4229SOL     OW24148   4.605   4.458   3.346 -0.3645  0.3616 -0.5239
 4229SOL    HW124149   4.562   4.375   3.365 -0.9940  0.7644 -0.2152
 4229SOL    HW224150   4.632   4.442   3.255  0.9340 -0.7439  0.0485
 4230SOL     OW24151   4.433   2.042   7.196 -0.0305 -0.3412 -0.3783
 4230SOL    HW124152   4.519   2.035   7.238 -0.3735 -0.7407  0.2487
 4230SOL    HW224153   4.455   2.082   7.112 -1.3565 -1.0325 -1.0561
 4231SOL     OW24154   3.412   3.502   3.669  0.1468 -0.1851 -0.3468
 4231SOL    HW124155   3.372   3.573   3.618  0.4261  0.2943  0.0985
 4231SOL    HW224156   3.368   3.529   3.749 -1.0002 -1.3287 -0.5965
 4232SOL     OW24157   3.481   3.112   4.388  0.1730  0.7075 -0.0973
 4232SOL    HW124158   3.577   3.105   4.386  0.0110 -1.3141  0.1167
 4232SOL    HW224159   3.452   3.086   4.301 -0.9570  0.5359  0.3367
 4233SOL     OW24160   0.192   1.331   3.345  0.2055 -0.0607  0.1625
 4233SOL    HW124161   0.111   1.281   3.334 -1.9649  3.8849 -1.7979
 4233SOL    HW224162   0.267   1.274   3.364 -1.6371 -2.3065  0.6619
 4234SOL     OW24163   3.927   1.940   0.195  0.1727  0.0045 -0.5669
 4234SOL    HW124164   3.938   1.900   0.109  0.0262 -3.4097  0.9998
 4234SOL    HW224165   4.007   1.993   0.188 -0.1264  0.4161 -0.8091
 4235SOL     OW24166   0.380   3.033   3.091 -0.2367  0.5062 -0.4450
 4235SOL    HW124167   0.398   3.126   3.103  0.4557  0.3041  0.0735
 4235SOL    HW224168   0.434   3.011   3.015  1.0310 -0.7543  0.8219
 4236SOL     OW24169   4.504   1.994   2.741  0.2124  0.6305  0.7709
 4236SOL    HW124170   4.493   1.911   2.788 -1.5917 -0.8634 -2.2339
 4236SOL    HW224171   4.520   1.958   2.654 -0.1001 -1.4003  1.5460
 4237SOL     OW24172   2.908   3.364   7.459  0.3558 -0.6893 -0.5128
 4237SOL    HW124173   2.883   3.453   7.484 -0.7607 -1.3386  0.7166
 4237SOL    HW224174   2.872   3.312   7.531  1.5298 -1.9960 -0.8770
 4238SOL     OW24175   2.450   3.649   2.645  0.5846  0.2030 -0.3110
 4238SOL    HW124176   2.495   3.590   2.705  2.3067  0.9900 -0.8333
 4238SOL    HW224177   2.497   3.731   2.659 -1.2875  0.6468  3.3568
 4239SOL     OW24178   1.477   3.765   6.070 -0.0339 -0.5573 -0.0439
 4239SOL    HW124179   1.467   3.673   6.093  2.1653 -1.7968 -4.0720
 4239SOL    HW224180   1.474   3.761   5.974 -0.7696 -0.4175 -0.0229
 4240SOL     OW24181   2.006   3.605  11.767  0.1112 -0.2057  0.2054
 4240SOL    HW124182   2.090   3.590  11.725 -0.0864 -0.5680 -0.0637
 4240SOL    HW224183   2.002   3.528  11.824 -0.6312  0.2064  0.7159
 4241SOL     OW24184   2.069   0.266  14.897 -0.1792  0.2430  0.7067
 4241SOL    HW124185   2.095   0.277  14.989 -2.2164 -0.9702  1.4361
 4241SOL    HW224186   2.118   0.336  14.854 -1.4849  0.5696 -0.2249
 4242SOL     OW24187   1.323   1.886   8.181 -0.0846 -0.5129 -0.2988
 4242SOL    HW124188   1.304   1.979   8.171  0.2897 -0.4408 -0.3511
 4242SOL    HW224189   1.242   1.851   8.145 -0.0440 -0.6860 -0.2230
 4243SOL     OW24190   1.782   2.206   6.091  0.4215 -0.3520 -0.5859
 4243SOL    HW124191   1.703   2.240   6.131  1.4828  1.0368  0.3262
 4243SOL    HW224192   1.803   2.138   6.156  1.4580  0.7599  0.2410
 4244SOL     OW24193   3.170   2.128   3.776  0.0945  0.6056  0.0742
 4244SOL    HW124194   3.252   2.105   3.732  0.2203  0.6793  0.2694
 4244SOL    HW224195   3.177   2.223   3.787  3.0553  0.4945 -0.9421
 4245SOL     OW24196   2.570   4.701  12.658 -0.0491 -0.3208 -0.6599
 4245SOL    HW124197   2.593   4.610  12.640 -1.0004  0.0977 -4.1278
 4245SOL    HW224198   2.648   0.015  12.698  0.1952  0.1630 -1.6032
 4246SOL     OW24199   0.658   1.604   7.599 -0.2213 -0.0312 -0.1711
 4246SOL    HW124200   0.621   1.520   7.572 -0.4858 -0.1123  0.4451
 4246SOL    HW224201   0.641   1.652   7.518 -1.9078 -0.9072 -0.3318
 4247SOL     OW24202   0.061   2.018   7.713  0.6424 -0.1469  0.4676
 4247SOL    HW124203   0.088   2.055   7.797  0.5422 -2.0157  1.3423
 4247SOL    HW224204   0.053   2.100   7.665  0.0696 -1.1109 -1.1049
 4248SOL     OW24205   1.592   1.626   9.168  0.2528 -0.0637  0.2660
 4248SOL    HW124206   1.585   1.697   9.232  0.7345 -0.1852  0.4462
 4248SOL    HW224207   1.674   1.647   9.123  1.3413  0.8470  2.6757
 4249SOL     OW24208   2.564   2.592  16.098  0.6307 -0.0144  0.0061
 4249SOL    HW124209   2.502   2.545  16.042  0.5302  1.6128 -1.2613
 4249SOL    HW224210   2.520   2.600  16.182  0.3838  0.3335 -0.1531
 4250SOL     OW24211   3.676   4.152   7.321  0.2698 -0.1524  1.0121
 4250SOL    HW124212   3.637   4.237   7.301 -0.5003 -1.0343 -1.2630
 4250SOL    HW224213   3.769   4.167   7.341  0.1034  2.6907 -0.4143
 4251SOL     OW24214   2.723   0.921   7.118 -0.1391 -0.0946 -0.4478
 4251SOL    HW124215   2.787   0.991   7.114  0.2701 -0.3869  1.0588
 4251SOL    HW224216   2.730   0.865   7.040  0.5134 -0.8378  0.1497
 4252SOL     OW24217   0.908   0.091  17.677  0.6422 -0.6118 -0.3634
 4252SOL    HW124218   0.814   0.108  17.669  0.5348 -0.6575  0.7405
 4252SOL    HW224219   0.944   0.085  17.589 -0.2178  1.3565 -0.8449
 4253SOL     OW24220   2.876   1.068  14.998 -0.7777 -0.1893  0.6250
 4253SOL    HW124221   2.958   1.023  15.019 -0.9775 -0.6138  0.4931
 4253SOL    HW224222   2.856   1.012  14.922  0.3992  2.7291 -1.8171
 4254SOL     OW24223   2.418   1.959   5.466 -0.7419 -0.0344 -0.2348
 4254SOL    HW124224   2.362   2.036   5.476 -0.0928  0.7493 -2.6479
 4254SOL    HW224225   2.434   1.935   5.557  1.9574 -1.2551 -1.0333
 4255SOL     OW24226   3.893   2.221   8.042 -0.3192  0.4542  0.0073
 4255SOL    HW124227   3.896   2.241   7.948  1.6885 -0.4146 -0.0940
 4255SOL    HW224228   3.940   2.296   8.078 -0.0925  0.8673 -1.1440
 4256SOL     OW24229   0.241   1.762  11.305 -0.8390 -0.2101 -0.7809
 4256SOL    HW124230   0.221   1.833  11.243 -1.2455  0.6996  0.3829
 4256SOL    HW224231   0.220   1.803  11.389 -1.1687 -0.8352 -0.5614
 4257SOL     OW24232   2.712   0.931   8.323 -0.1913  0.4013 -0.0317
 4257SOL    HW124233   2.759   1.008   8.291 -0.2173 -0.2521 -1.6513
 4257SOL    HW224234   2.701   0.873   8.247  0.3094 -0.4814  0.5691
 4258SOL     OW24235   1.481   1.491   6.189  0.1687 -0.2932 -0.2259
 4258SOL    HW124236   1.432   1.496   6.107 -2.5092 -0.8725  1.3250
 4258SOL    HW224237   1.525   1.576   6.190  1.6590 -1.0695 -0.5233
 4259SOL     OW24238   2.339   3.026   6.437  0.0660  0.0452  0.0279
 4259SOL    HW124239   2.299   2.949   6.476  0.8384  0.2051  1.1343
 4259SOL    HW224240   2.322   3.012   6.344  0.1619 -1.0571  0.1752
 4260SOL     OW24241   4.505   1.943   8.942 -0.2251 -0.6670  0.5809
 4260SOL    HW124242   4.546   1.862   8.911  0.9331  1.1524 -2.6704
 4260SOL    HW224243   4.450   1.964   8.867  2.4959 -1.2878 -1.6033
 4261SOL     OW24244   2.376   1.302   6.402  0.0359 -0.0059 -0.2296
 4261SOL    HW124245   2.333   1.223   6.434  1.6088 -1.7995 -2.5372
 4261SOL    HW224246   2.419   1.271   6.323 -3.0879 -0.7786 -1.6283
 4262SOL     OW24247   0.284   0.486   0.815  0.0893 -0.7262 -0.0867
 4262SOL    HW124248   0.203   0.536   0.826  0.6820  0.4896 -1.2178
 4262SOL    HW224249   0.280   0.428   0.891  0.1991 -0.6247 -0.0030
 4263SOL     OW24250   4.186   3.802   7.404  0.5250 -0.4482  0.0830
 4263SOL    HW124251   4.274   3.763   7.406  0.4660 -0.4758  2.3186
 4263SOL    HW224252   4.131   3.740   7.451 -1.4415  0.6399 -0.8022
 4264SOL     OW24253   0.963   0.258  10.976 -0.1747 -0.0245  0.0627
 4264SOL    HW124254   1.012   0.211  11.043 -1.6834 -0.8040  0.6292
 4264SOL    HW224255   0.888   0.201  10.955 -0.0767  0.2956 -1.1300
 4265SOL     OW24256   1.142   4.102   7.215 -0.3031  0.4126  0.0003
 4265SOL    HW124257   1.187   4.155   7.149 -1.2562  0.8004 -0.3371
 4265SOL    HW224258   1.075   4.067   7.156  1.8749 -2.6085 -0.7138
 4266SOL     OW24259   0.620   2.151   4.530  0.3374 -0.0317  0.1169
 4266SOL    HW124260   0.574   2.227   4.496 -3.0238 -2.8126 -1.5527
 4266SOL    HW224261   0.697   2.193   4.568 -0.0662  0.1985  0.6846
 4267SOL     OW24262   0.850   1.080   5.831 -0.4587  0.7399  0.3093
 4267SOL    HW124263   0.814   1.168   5.841 -1.1442  0.2892  1.7581
 4267SOL    HW224264   0.773   1.028   5.810  0.1406  0.6440 -1.5810
 4268SOL     OW24265   2.181   0.130   8.252 -0.4188 -0.0296  0.3432
 4268SOL    HW124266   2.172   0.063   8.319  2.1879 -0.0919  0.6196
 4268SOL    HW224267   2.097   0.112   8.210 -0.8155  1.4818  0.5022
 4269SOL     OW24268   1.073   0.088  11.171 -0.1345  0.2796  0.2720
 4269SOL    HW124269   1.149   0.034  11.151  0.6006  1.1742  0.6201
 4269SOL    HW224270   1.047   0.076  11.263  0.4236  0.2089  0.4201
 4270SOL     OW24271   0.203   2.464   5.576 -0.1846 -0.2033  0.3559
 4270SOL    HW124272   0.157   2.533   5.625 -0.0423 -0.0417  0.2601
 4270SOL    HW224273   0.137   2.414   5.528 -0.4302  0.1737  0.3051
 4271SOL     OW24274   1.471   0.098   1.740  0.5820  0.1580 -0.2289
 4271SOL    HW124275   1.474   0.194   1.738 -0.3841  0.1485 -1.8424
 4271SOL    HW224276   1.504   0.075   1.654  0.0787  0.3047 -0.4640
 4272SOL     OW24277   3.125   0.873   2.564  0.0492  0.5655 -0.7559
 4272SOL    HW124278   3.054   0.811   2.578 -1.0773  1.4064 -2.6555
 4272SOL    HW224279   3.084   0.938   2.507 -1.2063  0.2908 -0.1587
 4273SOL     OW24280   4.680   0.225   2.357 -0.0580  0.1540 -0.3736
 4273SOL    HW124281   4.645   0.256   2.274 -1.5373  2.3518  1.0849
 4273SOL    HW224282   4.700   0.134   2.337  0.0386 -0.3249  1.9011
 4274SOL     OW24283   3.018   0.286   5.548  0.1494  0.0213  0.0736
 4274SOL    HW124284   3.060   0.318   5.628  1.6430 -2.2147  0.1973
 4274SOL    HW224285   3.085   0.307   5.483  1.0441 -2.6808  0.1197
 4275SOL     OW24286   2.086   2.466   8.970 -0.1124  0.1071  0.0718
 4275SOL    HW124287   2.071   2.528   9.041  0.2752  0.4901 -0.1774
 4275SOL    HW224288   2.014   2.407   8.992  1.4866 -3.0921 -3.1798
 4276SOL     OW24289   1.167   2.436  16.861  0.3824  0.3567  0.8548
 4276SOL    HW124290   1.180   2.407  16.951 -0.4394 -2.5677  0.0575
 4276SOL    HW224291   1.123   2.519  16.876 -0.6650 -0.0144 -0.1311
 4277SOL     OW24292   2.716   0.803   8.096  0.0546 -0.4882 -0.2230
 4277SOL    HW124293   2.795   0.801   8.043  0.2799  0.3960  0.0845
 4277SOL    HW224294   2.666   0.741   8.043 -0.0860 -0.0205 -0.6414
 4278SOL     OW24295   4.631   1.531  12.253 -0.3609  0.2118 -0.0151
 4278SOL    HW124296   4.564   1.464  12.267 -0.9629  0.8566  0.1728
 4278SOL    HW224297   4.640   1.572  12.339  0.8342  0.4389 -0.2489
 4279SOL     OW24298   2.469   3.027   9.075 -0.4223 -0.6294  0.8890
 4279SOL    HW124299   2.396   2.970   9.099 -0.7731 -0.3522  0.4769
 4279SOL    HW224300   2.437   3.064   8.993  0.4622 -0.0920  0.7878
 4280SOL     OW24301   1.709   1.414  12.646 -0.4852  0.1503  0.2224
 4280SOL    HW124302   1.659   1.377  12.574  0.9802  0.1020 -0.7750
 4280SOL    HW224303   1.736   1.339  12.700  0.1625  1.1011  1.2224
 4281SOL     OW24304   1.966   3.858   7.917 -0.4096 -0.5999  0.1632
 4281SOL    HW124305   1.947   3.766   7.934 -1.1519 -0.5349 -0.2929
 4281SOL    HW224306   1.969   3.894   8.006 -0.0061  2.3953 -1.0473
 4282SOL     OW24307   3.249   3.251   6.838 -0.2352  0.1529 -0.8609
 4282SOL    HW124308   3.231   3.157   6.844  1.7167 -0.1236  0.7284
 4282SOL    HW224309   3.296   3.265   6.920  0.8244 -0.5752 -1.3375
 4283SOL     OW24310   0.730   3.531   3.812  0.1299  0.1942  0.0898
 4283SOL    HW124311   0.792   3.555   3.742 -0.8345  2.6971  0.0763
 4283SOL    HW224312   0.777   3.574   3.884  0.3686 -0.7332  0.4854
 4284SOL     OW24313   0.592   3.672   7.968  0.2357 -0.3964  0.3598
 4284SOL    HW124314   0.684   3.667   7.943  0.3000 -1.2444  0.7578
 4284SOL    HW224315   0.604   3.660   8.063 -0.7396 -2.3006  0.2376
 4285SOL     OW24316   4.230   1.704   9.069 -0.3522 -0.3519 -0.4631
 4285SOL    HW124317   4.238   1.721   9.162  0.4553 -1.5021 -0.3274
 4285SOL    HW224318   4.307   1.753   9.040  0.9485 -1.8874  0.4132
 4286SOL     OW24319   1.402   2.697   5.329  0.2026 -0.5031  0.2421
 4286SOL    HW124320   1.448   2.630   5.278 -0.0673  0.0963 -0.7865
 4286SOL    HW224321   1.318   2.658   5.354  0.9195 -0.6701  2.4230
 4287SOL     OW24322   3.475   3.041   9.311  0.0643  0.2104  0.8156
 4287SOL    HW124323   3.485   3.136   9.310 -0.1645  0.2333  0.7674
 4287SOL    HW224324   3.561   3.000   9.297 -0.7135 -1.2766  0.3702
 4288SOL     OW24325   0.696   1.605  13.650 -0.0723  0.3672 -0.1683
 4288SOL    HW124326   0.668   1.573  13.736  0.6537  1.7133  0.5679
 4288SOL    HW224327   0.757   1.539  13.617 -0.2227  0.4167 -0.5459
 4289SOL     OW24328   0.315   2.901  10.656 -0.5301  0.8055  0.2268
 4289SOL    HW124329   0.263   2.894  10.735 -1.1190 -1.1448 -0.3385
 4289SOL    HW224330   0.252   2.925  10.588 -0.8210  1.3053  0.6781
 4290SOL     OW24331   4.164   1.142  14.475 -0.2601  0.2306 -0.6102
 4290SOL    HW124332   4.099   1.072  14.468 -0.5034  0.4150 -0.2195
 4290SOL    HW224333   4.198   1.140  14.386  1.9089  0.2964  0.2198
 4291SOL     OW24334   2.711   3.584  13.234 -0.2701 -0.1827 -0.7207
 4291SOL    HW124335   2.697   3.494  13.263 -0.7464 -0.4048 -1.6167
 4291SOL    HW224336   2.741   3.545  13.151  0.1432 -1.2030 -0.0947
 4292SOL     OW24337   2.156   3.840   4.424 -0.0751 -0.1275  0.1703
 4292SOL    HW124338   2.199   3.925   4.420  1.4935 -0.9043  0.3865
 4292SOL    HW224339   2.221   3.772   4.407 -0.5726 -0.9777  1.6535
 4293SOL     OW24340   0.045   1.956   9.779  0.3597  0.0135  0.3159
 4293SOL    HW124341   0.078   1.982   9.692 -2.7060  0.4872 -0.7068
 4293SOL    HW224342   0.065   1.863   9.780 -0.4823 -0.1701 -0.2392
 4294SOL     OW24343   3.727   4.200  11.129 -0.5412  0.1049  0.3551
 4294SOL    HW124344   3.693   4.156  11.206  0.9819  0.6858  1.3689
 4294SOL    HW224345   3.743   4.288  11.164 -1.1598  0.0515  0.7540
 4295SOL     OW24346   3.168   4.649   3.200  0.5643  0.0835 -0.6645
 4295SOL    HW124347   3.139   4.574   3.253  0.9736  1.5553  1.6510
 4295SOL    HW224348   3.118   4.645   3.119 -0.2178 -1.3736 -0.1267
 4296SOL     OW24349   3.093   0.015   2.435 -0.1121  0.3091  0.3361
 4296SOL    HW124350   3.188   0.007   2.427 -0.4786 -4.0025  0.0218
 4296SOL    HW224351   3.085   0.080   2.505  0.5601 -0.7213  1.3693
 4297SOL     OW24352   2.336   3.079   7.060 -0.1499  0.1529  0.0777
 4297SOL    HW124353   2.381   3.121   6.986  0.0059 -1.4177 -0.7342
 4297SOL    HW224354   2.288   3.150   7.102  0.9752  1.0591 -0.1482
 4298SOL     OW24355   2.671   3.970   4.918 -0.5819  0.0705 -0.0234
 4298SOL    HW124356   2.613   3.894   4.918  0.8105 -0.9951  2.1301
 4298SOL    HW224357   2.641   4.010   5.001  0.3422  0.5197  0.0934
 4299SOL     OW24358   2.829   2.645  16.089 -0.2913 -0.0616 -0.1329
 4299SOL    HW124359   2.823   2.729  16.133 -1.6537  0.7164 -1.8133
 4299SOL    HW224360   2.736   2.626  16.082  0.3197 -2.8817 -0.5434
 4300SOL     OW24361   3.336   0.182   6.937 -0.0923  0.5379  0.2302
 4300SOL    HW124362   3.353   0.274   6.915 -0.1423  0.3709 -0.5138
 4300SOL    HW224363   3.369   0.150   6.853 -0.7918 -3.8810  1.6487
 4301SOL     OW24364   1.877   4.593   3.374  0.5712  0.6867  0.2252
 4301SOL    HW124365   1.855   4.501   3.389 -2.1242  1.0359 -1.7019
 4301SOL    HW224366   1.888   4.595   3.279  1.2299  0.7200  0.3005
 4302SOL     OW24367   1.283   1.345   8.493  0.3938  0.6832  0.1964
 4302SOL    HW124368   1.343   1.389   8.553 -0.3876  2.5249 -0.3698
 4302SOL    HW224369   1.244   1.284   8.555  0.2873  0.3412 -0.2081
 4303SOL     OW24370   4.265   0.889   6.677 -0.6890 -0.0495  0.3590
 4303SOL    HW124371   4.295   0.838   6.752 -0.2827  0.4025  0.5056
 4303SOL    HW224372   4.284   0.828   6.605  2.1697  0.4604  0.6528
 4304SOL     OW24373   2.891   1.067   3.461  0.1891  0.0021 -0.0250
 4304SOL    HW124374   2.905   1.010   3.537 -0.1515 -2.0240 -1.4734
 4304SOL    HW224375   2.982   1.098   3.467  0.2225  0.2394 -1.6404
 4305SOL     OW24376   0.329   0.313  14.332 -0.5229  0.1865 -0.0431
 4305SOL    HW124377   0.402   0.267  14.291  1.0877  2.0156  0.7540
 4305SOL    HW224378   0.317   0.261  14.411  1.2911  2.1616  1.5229
 4306SOL     OW24379   1.971   0.476   2.034 -0.0933 -0.0101  0.4187
 4306SOL    HW124380   1.877   0.494   2.024 -0.4797 -3.0085 -1.3203
 4306SOL    HW224381   1.969   0.429   2.117 -2.7448  0.4092  0.6166
 4307SOL     OW24382   0.489   2.757   4.070  0.4535  0.2226 -0.4927
 4307SOL    HW124383   0.422   2.750   4.002 -1.1463  0.3034  1.0853
 4307SOL    HW224384   0.432   2.717   4.135  0.7675 -1.2227 -1.1044
 4308SOL     OW24385   4.050   2.838  15.125 -0.0245  0.2196  0.6836
 4308SOL    HW124386   4.115   2.778  15.088 -0.0923  0.3689  0.3243
 4308SOL    HW224387   4.041   2.800  15.212 -1.1174 -3.4216 -1.0147
 4309SOL     OW24388   2.494   4.063   4.183  0.5891  0.1053 -0.1576
 4309SOL    HW124389   2.505   3.972   4.154  0.3997 -0.0193  0.1695
 4309SOL    HW224390   2.582   4.074   4.219  0.3184  0.7185  0.3155
 4310SOL     OW24391   0.720   1.181   3.406 -0.5986  0.5173  0.3430
 4310SOL    HW124392   0.718   1.272   3.376  0.0733 -0.2557 -2.0711
 4310SOL    HW224393   0.782   1.135   3.349 -2.4123 -1.0986 -0.3343
 4311SOL     OW24394   3.670   0.361   7.032  0.2962 -0.0185  0.0270
 4311SOL    HW124395   3.716   0.392   6.953 -0.4713 -0.6683 -0.6747
 4311SOL    HW224396   3.623   0.284   7.000 -0.9851  1.3278 -1.2942
 4312SOL     OW24397   1.462   2.248   2.449 -0.7662 -0.0924 -0.8139
 4312SOL    HW124398   1.482   2.228   2.357 -0.7030 -0.1417 -0.7889
 4312SOL    HW224399   1.443   2.342   2.447 -1.8005 -0.2694  0.9157
 4313SOL     OW24400   2.594   0.718   1.940 -0.6479  0.5176 -0.6489
 4313SOL    HW124401   2.676   0.677   1.967 -1.4634 -0.8585 -0.2940
 4313SOL    HW224402   2.536   0.643   1.930 -1.3613  0.6380  2.6480
 4314SOL     OW24403   2.835   2.570  13.676  0.7682 -0.1192  0.7714
 4314SOL    HW124404   2.910   2.514  13.656  0.4971 -0.7667  1.5560
 4314SOL    HW224405   2.854   2.649  13.625  0.3924  0.7479  1.9879
 4315SOL     OW24406   2.128   3.560   3.847  0.6645 -0.1749 -0.5011
 4315SOL    HW124407   2.079   3.607   3.914  1.1165 -0.6887  0.1947
 4315SOL    HW224408   2.188   3.509   3.902 -0.6509 -1.0982  0.0778
 4316SOL     OW24409   0.868   1.387  15.473  0.3155  0.2307 -0.2165
 4316SOL    HW124410   0.822   1.325  15.529  0.3193  1.5753  1.2792
 4316SOL    HW224411   0.816   1.377  15.393 -0.0145  1.2636 -0.1261
 4317SOL     OW24412   0.700   1.432  16.950 -0.3085 -0.2698  0.1248
 4317SOL    HW124413   0.741   1.347  16.937  1.1117  0.2951  1.0013
 4317SOL    HW224414   0.622   1.397  16.993  0.6281 -1.3792  0.9156
 4318SOL     OW24415   2.650   4.201   9.573  0.1127 -0.1122 -0.3237
 4318SOL    HW124416   2.645   4.258   9.650  0.8312  0.8100 -0.9514
 4318SOL    HW224417   2.731   4.156   9.593  0.3375  0.6828  0.5534
 4319SOL     OW24418   3.896   3.588  11.270  0.7417  0.2094 -0.5096
 4319SOL    HW124419   3.834   3.516  11.257  1.8879 -0.9598  0.5785
 4319SOL    HW224420   3.971   3.547  11.227  0.4211 -0.7561 -0.1494
 4320SOL     OW24421   4.231   0.838   6.120  0.0566 -0.5713 -0.6103
 4320SOL    HW124422   4.233   0.761   6.177  1.1287  0.1416  0.3263
 4320SOL    HW224423   4.216   0.906   6.185 -2.6027 -1.2906 -0.4916
 4321SOL     OW24424   0.931   2.431   2.268  0.4053 -0.0785 -0.5393
 4321SOL    HW124425   1.010   2.399   2.311  0.4311  0.2132 -0.3700
 4321SOL    HW224426   0.931   2.519   2.307  0.5590  0.5498 -1.9596
 4322SOL     OW24427   1.656   4.594   2.906  0.4895  0.2214  0.3484
 4322SOL    HW124428   1.596   4.540   2.855 -0.8025 -0.1518  2.2421
 4322SOL    HW224429   1.598   4.670   2.902 -1.7322 -1.6055 -2.2839
 4323SOL     OW24430   4.684   1.765   3.937  0.2955  0.2393  0.4896
 4323SOL    HW124431   0.049   1.800   3.937  0.2857  0.2647  0.4573
 4323SOL    HW224432   4.696   1.670   3.935  0.2277  0.3000 -3.4071
 4324SOL     OW24433   1.596   0.489  11.175 -0.4068  0.1204  0.5870
 4324SOL    HW124434   1.545   0.522  11.101  1.0818  0.4342 -0.2945
 4324SOL    HW224435   1.580   0.558  11.239  0.7356  1.8349 -1.0037
 4325SOL     OW24436   2.389   4.293   0.464  0.2927 -0.0987 -0.0838
 4325SOL    HW124437   2.321   4.276   0.399 -0.3222 -0.9997  0.7962
 4325SOL    HW224438   2.335   4.283   0.543  1.2458  1.8344  0.8172
 4326SOL     OW24439   2.292   4.480   8.743 -0.3082 -0.3364 -0.2515
 4326SOL    HW124440   2.316   4.507   8.831  3.6398 -0.5086 -1.2632
 4326SOL    HW224441   2.207   4.523   8.747 -0.1250 -0.0234  0.2467
 4327SOL     OW24442   4.477   4.109   3.759  0.2757  0.4897  0.0807
 4327SOL    HW124443   4.513   4.043   3.699 -0.0294  0.3905  0.0085
 4327SOL    HW224444   4.532   4.182   3.731 -0.2430 -0.1745 -2.7082
 4328SOL     OW24445   1.928   1.085   3.760  0.3373 -0.2175  0.1903
 4328SOL    HW124446   1.870   1.053   3.691 -2.9543 -0.0824  2.9181
 4328SOL    HW224447   2.013   1.063   3.722  1.0499  1.6871  0.6677
 4329SOL     OW24448   2.358   1.425   5.805  0.4575 -0.1328  0.2121
 4329SOL    HW124449   2.301   1.482   5.856  0.3702  0.8672 -0.9954
 4329SOL    HW224450   2.440   1.473   5.819 -1.2797  2.8976  0.1278
 4330SOL     OW24451   2.234   2.274   2.925 -0.1756  0.5002 -0.4628
 4330SOL    HW124452   2.317   2.301   2.886 -0.1128  1.9855  0.6766
 4330SOL    HW224453   2.269   2.245   3.010 -0.8125 -4.0796 -1.7773
 4331SOL     OW24454   3.623   3.896   6.624  0.3782  0.3578 -0.1982
 4331SOL    HW124455   3.601   3.807   6.598 -1.2569  0.3311  1.2276
 4331SOL    HW224456   3.532   3.928   6.627  0.6531  1.1480 -0.1934
 4332SOL     OW24457   0.878   0.378   1.873  0.1418  0.3967 -0.1402
 4332SOL    HW124458   0.914   0.437   1.939 -0.1930  0.7284 -0.2548
 4332SOL    HW224459   0.937   0.403   1.801  0.1553 -0.3044 -0.3719
 4333SOL     OW24460   4.637   3.745   6.611 -0.6796 -0.0595 -0.0039
 4333SOL    HW124461   4.588   3.696   6.677  0.1612  1.4372  1.7332
 4333SOL    HW224462   4.641   3.683   6.538 -2.1940 -3.4147  2.7731
 4334SOL     OW24463   4.134   1.247   3.954 -0.1624  0.1240  0.2184
 4334SOL    HW124464   4.166   1.337   3.942 -0.4131 -0.1555 -2.5795
 4334SOL    HW224465   4.169   1.215   3.871 -0.0961  0.5082  0.0984
 4335SOL     OW24466   1.484   3.694   1.298 -0.7872 -0.0421  0.5754
 4335SOL    HW124467   1.542   3.695   1.374 -0.2658  0.8862  0.1713
 4335SOL    HW224468   1.447   3.782   1.306  0.4173  0.4751  0.4794
 4336SOL     OW24469   3.572   1.779   5.838 -0.1330  0.0130 -0.2954
 4336SOL    HW124470   3.521   1.745   5.912 -2.1059  0.9919 -1.2291
 4336SOL    HW224471   3.500   1.786   5.776 -1.4458 -1.3416  1.0817
 4337SOL     OW24472   0.830   4.150  17.600 -0.3614  0.3279  0.3282
 4337SOL    HW124473   0.816   4.066  17.556 -4.7412  2.0160 -1.4912
 4337SOL    HW224474   0.880   4.198  17.535 -1.1248 -1.2061 -1.4194
 4338SOL     OW24475   1.361   3.600   4.455  0.0924 -0.2368 -0.0182
 4338SOL    HW124476   1.383   3.507   4.455  1.1465  0.0121  0.2703
 4338SOL    HW224477   1.443   3.647   4.442  0.2436 -0.9186 -1.4854
 4339SOL     OW24478   4.332   3.479   6.416  0.6017 -0.0807  0.3256
 4339SOL    HW124479   4.251   3.516   6.380  1.6589 -0.4561 -2.4683
 4339SOL    HW224480   4.305   3.495   6.506 -1.3862  0.3717 -0.3482
 4340SOL     OW24481   4.207   4.124  10.019 -0.4695  0.0833 -0.2006
 4340SOL    HW124482   4.250   4.104   9.935  0.7838  0.5101  0.3426
 4340SOL    HW224483   4.116   4.123   9.988 -0.8190  0.0058  0.8548
 4341SOL     OW24484   4.701   1.397   5.012  0.8006  0.3440 -0.1925
 4341SOL    HW124485   4.607   1.412   5.021  0.9811  0.7904  0.9636
 4341SOL    HW224486   0.009   1.450   4.939 -0.6158  2.6245  0.8313
 4342SOL     OW24487   4.713   3.084   1.301  0.0556 -0.3008 -0.2656
 4342SOL    HW124488   4.658   3.122   1.232  0.2908  0.6318  0.0623
 4342SOL    HW224489   4.700   2.993   1.277 -1.0099 -0.0026 -0.8228
 4343SOL     OW24490   1.152   2.198   8.110 -1.2738 -0.2658 -0.5918
 4343SOL    HW124491   1.056   2.197   8.114 -1.1921 -0.3232  1.7177
 4343SOL    HW224492   1.166   2.226   8.201  4.1211 -1.8789 -0.9404
 4344SOL     OW24493   1.022   1.804   0.709  0.1102 -0.1504  0.4153
 4344SOL    HW124494   1.113   1.783   0.688  0.9194  0.5227  3.2169
 4344SOL    HW224495   0.992   1.816   0.619  3.1888 -0.2993 -0.6348
 4345SOL     OW24496   1.773   1.046  12.321 -0.3532 -0.6501  0.8521
 4345SOL    HW124497   1.778   0.971  12.262 -3.5653  0.6098 -1.0239
 4345SOL    HW224498   1.845   1.030  12.382 -1.0832 -0.9335  1.6305
 4346SOL     OW24499   3.062   0.207  12.358 -0.2488 -0.1317  0.3220
 4346SOL    HW124500   2.989   0.239  12.305 -2.1435 -0.2644  2.8522
 4346SOL    HW224501   3.020   0.204  12.444 -0.3114 -2.7618  0.2038
 4347SOL     OW24502   2.411   2.225  17.207  0.3537 -0.0328 -0.3851
 4347SOL    HW124503   2.470   2.259  17.274  0.8268 -1.6124 -0.0033
 4347SOL    HW224504   2.469   2.220  17.131  1.9046 -0.3388  0.8112
 4348SOL     OW24505   4.724   2.450  17.202 -0.2422 -0.0736  0.1481
 4348SOL    HW124506   4.692   2.494  17.123  2.9839 -0.5826 -1.4372
 4348SOL    HW224507   4.691   2.509  17.270  0.3703 -1.6493  1.8095
 4349SOL     OW24508   2.386   3.926   9.217  0.2730  0.1213 -0.5732
 4349SOL    HW124509   2.330   3.857   9.182  0.2128 -0.2894  0.3187
 4349SOL    HW224510   2.457   3.937   9.154  1.4749  1.5619  1.0395
 4350SOL     OW24511   0.559   3.964   8.715  0.3132  0.3389 -0.8197
 4350SOL    HW124512   0.607   4.030   8.664  0.3164  0.3295 -0.8288
 4350SOL    HW224513   0.614   3.886   8.706 -0.7687 -0.5277  0.1497
 4351SOL     OW24514   1.269   2.791  13.644  0.4170  0.0546  0.3102
 4351SOL    HW124515   1.252   2.770  13.553  0.3052 -1.2032  0.6188
 4351SOL    HW224516   1.270   2.702  13.679  2.4754  1.2033  3.2344
 4352SOL     OW24517   1.427   1.392   9.233 -0.0548  0.0215  0.0965
 4352SOL    HW124518   1.471   1.471   9.203 -0.8954  0.4476 -0.0200
 4352SOL    HW224519   1.491   1.327   9.262 -0.1192 -0.3313 -0.5508
 4353SOL     OW24520   2.490   0.813   4.679  0.7033  0.1277 -0.4518
 4353SOL    HW124521   2.408   0.783   4.640 -0.2543  0.2362  1.4707
 4353SOL    HW224522   2.555   0.794   4.611  0.3814  0.1292 -0.7589
 4354SOL     OW24523   1.763   1.152  13.788  0.1965  0.0505 -0.0499
 4354SOL    HW124524   1.745   1.139  13.694 -0.7643 -0.7890  0.2474
 4354SOL    HW224525   1.723   1.069  13.817 -0.6816  0.1680 -0.8985
 4355SOL     OW24526   4.194   1.186  11.060  0.1653 -0.2858 -0.1055
 4355SOL    HW124527   4.217   1.158  10.972  1.4193  0.2821  0.0438
 4355SOL    HW224528   4.099   1.174  11.054  0.1168 -0.7251  1.3912
 4356SOL     OW24529   2.703   1.715   8.447 -0.2007  0.0127 -0.4214
 4356SOL    HW124530   2.658   1.736   8.364  0.0479 -0.3188 -0.6394
 4356SOL    HW224531   2.671   1.782   8.507  2.4934  0.1870  0.8219
 4357SOL     OW24532   2.109   3.921   2.223  0.4658 -0.5761 -0.3645
 4357SOL    HW124533   2.022   3.899   2.257 -0.1583 -0.8150 -2.1249
 4357SOL    HW224534   2.158   3.847   2.258 -1.6782 -2.4558 -1.3131
 4358SOL     OW24535   4.676   3.623  17.258  1.1050  0.2422  0.4126
 4358SOL    HW124536   4.677   3.530  17.235 -1.9825  0.8644 -2.1146
 4358SOL    HW224537   4.588   3.633  17.293  0.5866 -0.9999 -0.5397
 4359SOL     OW24538   0.477   1.939   8.509 -0.1365  0.5614 -0.3204
 4359SOL    HW124539   0.421   2.016   8.516  1.1778  1.4565  0.4124
 4359SOL    HW224540   0.555   1.975   8.551  0.6451  2.5273 -3.4515
 4360SOL     OW24541   2.359   2.781   3.491  0.0419  0.3946  0.4061
 4360SOL    HW124542   2.435   2.723   3.483 -0.3652 -0.0723 -0.1020
 4360SOL    HW224543   2.284   2.721   3.490 -0.1905  0.7047 -1.2627
 4361SOL     OW24544   1.318   4.217   6.125  0.1430  0.0565 -0.0868
 4361SOL    HW124545   1.244   4.192   6.070  0.4716  0.1732 -0.5952
 4361SOL    HW224546   1.350   4.138   6.169  1.9286  0.5160 -0.5480
 4362SOL     OW24547   3.678   4.526   5.816  0.0755  0.4502  0.3260
 4362SOL    HW124548   3.651   4.442   5.780  1.5831  0.0017  0.2709
 4362SOL    HW224549   3.643   4.515   5.905  0.0149 -1.5261  0.0582
 4363SOL     OW24550   4.649   0.247   1.262  0.4712  0.1030  0.1407
 4363SOL    HW124551   4.708   0.304   1.311  1.1422  1.6742 -2.4963
 4363SOL    HW224552   4.583   0.241   1.331 -0.3463 -0.8534 -0.7237
 4364SOL     OW24553   1.852   3.380   6.275 -0.0477  0.3870  0.1637
 4364SOL    HW124554   1.871   3.288   6.260  0.9461  0.7993 -1.1132
 4364SOL    HW224555   1.935   3.418   6.303 -0.6809 -0.1148  2.7899
 4365SOL     OW24556   4.377   3.817   8.824  0.2525 -0.0900 -0.4927
 4365SOL    HW124557   4.361   3.896   8.877  1.0233  1.1802 -2.1580
 4365SOL    HW224558   4.341   3.752   8.884  0.2204  0.6855  0.3266
 4366SOL     OW24559   2.898   0.338   6.846 -0.3745  0.2104 -0.5977
 4366SOL    HW124560   2.866   0.300   6.928  0.9726 -2.0552 -1.0947
 4366SOL    HW224561   2.881   0.430   6.865  1.6037  0.4407  0.0242
 4367SOL     OW24562   3.439   0.544   1.585  0.1032  0.7921 -0.5019
 4367SOL    HW124563   3.375   0.614   1.598 -0.7643 -0.3773  1.4251
 4367SOL    HW224564   3.510   0.583   1.534  0.2812  0.1744 -0.7263
 4368SOL     OW24565   3.505   3.562   8.376 -0.4989  0.1794  0.1813
 4368SOL    HW124566   3.524   3.511   8.297 -0.6623  0.5352 -0.0859
 4368SOL    HW224567   3.429   3.615   8.352 -0.4049  0.0146 -0.4566
 4369SOL     OW24568   0.934   2.310   2.008  0.0181 -0.2479  0.1277
 4369SOL    HW124569   0.996   2.382   1.995  0.9977 -0.5019  3.2039
 4369SOL    HW224570   0.911   2.333   2.098  0.0143 -0.0317  0.0693
 4370SOL     OW24571   3.738   3.908   3.369  0.0146  0.2095 -0.7306
 4370SOL    HW124572   3.820   3.954   3.353  1.3412 -1.8162  0.3273
 4370SOL    HW224573   3.736   3.900   3.464  0.2327  0.3101 -0.7178
 4371SOL     OW24574   1.931   1.305   7.396 -0.5475  0.1991 -0.1206
 4371SOL    HW124575   1.991   1.348   7.335 -0.0816  0.3783  0.4591
 4371SOL    HW224576   1.985   1.263   7.462  0.5011  1.5088 -0.1372
 4372SOL     OW24577   3.758   1.022  15.943 -0.1762  0.7186 -0.2874
 4372SOL    HW124578   3.799   1.036  15.858 -0.9910 -1.1231 -0.9610
 4372SOL    HW224579   3.668   1.001  15.919  0.3920  0.0615 -1.8187
 4373SOL     OW24580   1.899   4.520   6.566  0.4292  0.0982 -0.0955
 4373SOL    HW124581   1.924   4.429   6.581  0.0339 -0.0068 -0.0756
 4373SOL    HW224582   1.957   4.540   6.493 -1.9820 -0.2493 -2.1249
 4374SOL     OW24583   0.994   1.805   1.619 -0.2402  0.0223 -0.0783
 4374SOL    HW124584   0.942   1.770   1.691  1.5736  0.8398  1.6382
 4374SOL    HW224585   0.988   1.746   1.544  2.1558  1.2963 -1.2905
 4375SOL     OW24586   0.476   1.617   8.787  0.1429  0.3793 -0.0843
 4375SOL    HW124587   0.523   1.533   8.786  1.7073  1.2086  2.3387
 4375SOL    HW224588   0.411   1.607   8.857  0.5179  2.6840  0.5943
 4376SOL     OW24589   1.683   1.442  15.147 -0.2879  0.1697 -0.1019
 4376SOL    HW124590   1.633   1.439  15.229 -1.2201  0.4289 -0.6681
 4376SOL    HW224591   1.765   1.476  15.184  0.4197 -0.3706 -1.1704
 4377SOL     OW24592   3.397   1.780   8.355  0.4305  0.2574 -0.0110
 4377SOL    HW124593   3.390   1.731   8.437  1.6375  0.3786  0.1716
 4377SOL    HW224594   3.418   1.868   8.385 -0.4221  0.5033 -0.1405
 4378SOL     OW24595   3.367   2.988   8.181  0.3700  0.0688  0.1941
 4378SOL    HW124596   3.431   3.053   8.154 -1.3795  0.7983 -2.1945
 4378SOL    HW224597   3.386   2.905   8.136 -1.5277  0.3392 -1.1004
 4379SOL     OW24598   4.375   0.929  13.906  0.0257 -0.7216  0.1836
 4379SOL    HW124599   4.280   0.946  13.909  0.4944  1.9349  0.0658
 4379SOL    HW224600   4.388   0.860  13.971  0.0677 -0.8124  0.0766
 4380SOL     OW24601   1.502   1.612  12.858  0.4315  0.5517  0.0267
 4380SOL    HW124602   1.597   1.601  12.854  0.5809  1.1234  2.2743
 4380SOL    HW224603   1.481   1.670  12.784 -0.2364  0.8817  0.4711
 4381SOL     OW24604   3.699   0.800   8.027 -0.0063  0.3244 -0.5315
 4381SOL    HW124605   3.709   0.768   8.117 -1.2295  1.0177 -0.1498
 4381SOL    HW224606   3.615   0.845   8.037 -0.6729 -1.1193  0.3970
 4382SOL     OW24607   3.917   2.867  15.700  0.3353 -0.2660  0.7440
 4382SOL    HW124608   3.968   2.933  15.747  0.2368 -0.7136  1.4850
 4382SOL    HW224609   3.974   2.792  15.712  2.3540  1.1699  0.1913
 4383SOL     OW24610   0.305   3.300   7.432  0.6358  0.2607  0.3181
 4383SOL    HW124611   0.284   3.209   7.410  1.7434  0.4343 -1.5297
 4383SOL    HW224612   0.312   3.295   7.527 -1.3735  0.4634  0.4699
 4384SOL     OW24613   4.556   3.121   0.820  0.2678 -0.5184  0.4004
 4384SOL    HW124614   4.501   3.167   0.756 -0.0742  0.7390  1.5812
 4384SOL    HW224615   4.562   3.037   0.776  1.3918  1.2412 -2.8290
 4385SOL     OW24616   1.627   1.212  12.464 -0.1752  0.1109  0.6783
 4385SOL    HW124617   1.667   1.133  12.428  1.1519  0.7181  0.7950
 4385SOL    HW224618   1.567   1.175  12.528  1.1354  0.8422  2.3540
 4386SOL     OW24619   1.197   4.242   5.245  0.0592  0.5938  0.6367
 4386SOL    HW124620   1.204   4.189   5.165  1.0360 -0.1593  1.2118
 4386SOL    HW224621   1.281   4.239   5.291 -0.6830 -0.4103  1.9392
 4387SOL     OW24622   1.147   4.571   7.828  0.4181 -0.0821 -0.2190
 4387SOL    HW124623   1.106   4.502   7.775 -0.6716  0.7046 -0.3969
 4387SOL    HW224624   1.238   4.558   7.799  0.0978 -2.0413 -0.3143
 4388SOL     OW24625   3.261   2.632   0.181  0.1817  0.7244 -0.2887
 4388SOL    HW124626   3.179   2.644   0.229 -0.2195 -1.8898 -0.3304
 4388SOL    HW224627   3.249   2.545   0.144  1.3119 -0.8838  3.0605
 4389SOL     OW24628   1.314   2.878  15.497 -0.2766  0.5211 -0.6915
 4389SOL    HW124629   1.342   2.969  15.485  1.0048  0.3267  0.9060
 4389SOL    HW224630   1.399   2.836  15.507 -0.3733 -0.0849 -2.4683
 4390SOL     OW24631   1.883   3.214   6.597 -0.5929 -0.0967 -0.1562
 4390SOL    HW124632   1.888   3.183   6.507  0.9733  0.0209 -0.1166
 4390SOL    HW224633   1.862   3.307   6.591  1.4565  0.4137  0.3991
 4391SOL     OW24634   2.323   2.609  15.075  0.5512 -0.4270  0.0097
 4391SOL    HW124635   2.385   2.592  15.146  0.9647  0.9593 -0.0215
 4391SOL    HW224636   2.302   2.700  15.096  2.4228 -0.3131  1.3926
 4392SOL     OW24637   1.691   0.630   4.766  0.8854  0.0416  0.0852
 4392SOL    HW124638   1.735   0.711   4.738 -0.1962  0.3052 -0.8350
 4392SOL    HW224639   1.675   0.636   4.860  0.0257 -1.1019 -0.0006
 4393SOL     OW24640   2.436   2.242  16.377 -0.8889  0.2783 -0.0078
 4393SOL    HW124641   2.348   2.280  16.383 -1.3648 -0.7001 -0.7588
 4393SOL    HW224642   2.445   2.234  16.282  0.7924  2.3687 -0.0351
 4394SOL     OW24643   1.178   0.389   7.764 -0.1217 -0.7333  0.4432
 4394SOL    HW124644   1.153   0.332   7.691 -0.2217  0.3702 -0.3978
 4394SOL    HW224645   1.160   0.330   7.837  0.3076  0.9286  1.9022
 4395SOL     OW24646   1.739   2.552   4.252 -0.1194 -0.6653  0.0100
 4395SOL    HW124647   1.689   2.609   4.192 -2.3000 -1.3514  1.1662
 4395SOL    HW224648   1.819   2.604   4.261 -0.2846 -0.4182  0.0505
 4396SOL     OW24649   2.733   4.581   0.049 -0.5380 -0.3710 -0.2218
 4396SOL    HW124650   2.657   4.568  17.692 -1.2822  0.9674  0.4801
 4396SOL    HW224651   2.708   4.658   0.099  0.3264 -0.5333  0.4672
 4397SOL     OW24652   1.446   1.616   7.510 -0.1072  0.5861  0.4683
 4397SOL    HW124653   1.399   1.564   7.444  0.0444  1.9694 -0.7250
 4397SOL    HW224654   1.456   1.699   7.463 -0.6105  1.0004  1.0935
 4398SOL     OW24655   2.789   1.523   7.565 -0.0119  0.2903 -0.5745
 4398SOL    HW124656   2.771   1.570   7.484 -1.4273  1.8909  0.6455
 4398SOL    HW224657   2.805   1.603   7.615  0.3642  0.9106 -1.6977
 4399SOL     OW24658   4.443   2.467   4.729 -0.1021 -0.4837 -0.0731
 4399SOL    HW124659   4.356   2.448   4.765  0.3001 -0.0488  1.1014
 4399SOL    HW224660   4.485   2.494   4.810 -2.6829  0.6037  0.9073
 4400SOL     OW24661   4.514   4.584   1.662 -0.4896 -0.6917  0.3298
 4400SOL    HW124662   4.457   4.660   1.675 -1.6847 -1.2103 -1.8614
 4400SOL    HW224663   4.577   4.629   1.606  0.4841  0.7363  2.5590
 4401SOL     OW24664   1.636   1.457   8.407  0.2819 -0.3638  0.4875
 4401SOL    HW124665   1.564   1.484   8.463 -0.6602 -0.6840 -0.5588
 4401SOL    HW224666   1.702   1.464   8.476  1.3541  0.5708 -0.6504
 4402SOL     OW24667   3.706   3.816   3.664 -0.4210 -0.3961 -0.1849
 4402SOL    HW124668   3.742   3.895   3.703 -0.8651 -1.1711  1.8028
 4402SOL    HW224669   3.768   3.745   3.685 -0.1031  0.0334  0.3399
 4403SOL     OW24670   2.970   3.946   0.986  0.0886 -0.1768  0.1768
 4403SOL    HW124671   2.936   3.862   1.018  0.0355  0.9625  3.1473
 4403SOL    HW224672   2.899   4.002   1.018  0.3331  2.5376 -4.0207
 4404SOL     OW24673   3.474   3.284   7.847 -0.3751 -0.1570 -0.1038
 4404SOL    HW124674   3.378   3.283   7.843 -0.3300 -2.4575 -0.7786
 4404SOL    HW224675   3.498   3.274   7.754 -2.0150 -0.0402 -0.5340
 4405SOL     OW24676   1.008   2.064   5.169  0.8987 -0.8299  0.6118
 4405SOL    HW124677   0.912   2.066   5.164  0.8301 -0.7725  1.8426
 4405SOL    HW224678   1.034   2.140   5.117 -1.2271 -0.5341 -0.0359
 4406SOL     OW24679   4.650   3.334   8.880  0.5133 -0.6058 -0.5206
 4406SOL    HW124680   4.688   3.265   8.935  0.7557  1.3874  1.7934
 4406SOL    HW224681   4.697   3.405   8.922  0.9830 -0.6565 -0.9472
 4407SOL     OW24682   0.323   0.379  10.120 -0.4782  0.8023 -0.7757
 4407SOL    HW124683   0.404   0.419  10.087  0.0230 -2.0368 -2.9663
 4407SOL    HW224684   0.308   0.306  10.060  0.8139  0.8502 -1.1680
 4408SOL     OW24685   4.341   2.645   6.164 -0.3675  0.0607 -0.3234
 4408SOL    HW124686   4.402   2.572   6.176  1.0625  1.6353  1.9110
 4408SOL    HW224687   4.345   2.688   6.249  1.9098 -3.1877  1.2302
 4409SOL     OW24688   0.218   0.097  16.733 -0.0745 -0.9322 -0.1394
 4409SOL    HW124689   0.296   0.059  16.692  0.3334  0.9367 -1.0685
 4409SOL    HW224690   0.145   0.040  16.709 -0.7245  1.0311 -2.7554
 4410SOL     OW24691   4.185   3.606   2.437 -0.0823 -0.1069 -0.7261
 4410SOL    HW124692   4.218   3.558   2.513  0.0148  0.6235 -0.3104
 4410SOL    HW224693   4.266   3.628   2.390 -1.5403 -1.1113 -3.7086
 4411SOL     OW24694   3.032   0.667   5.613 -0.6128 -0.0575 -0.1502
 4411SOL    HW124695   3.126   0.650   5.606 -0.3716  1.2468 -0.0873
 4411SOL    HW224696   3.001   0.577   5.611 -0.1475 -0.2028 -0.8421
 4412SOL     OW24697   0.784   3.522  16.318  0.5365  0.4571  0.0439
 4412SOL    HW124698   0.690   3.505  16.313  0.7561 -0.9798  0.9673
 4412SOL    HW224699   0.822   3.495  16.234  0.2770 -0.4715  0.2309
 4413SOL     OW24700   4.329   4.255   0.362  0.0291  0.1227 -0.7960
 4413SOL    HW124701   4.357   4.347   0.365 -0.8808  0.4012 -0.9440
 4413SOL    HW224702   4.375   4.230   0.281 -0.0190  0.2764 -0.8714
 4414SOL     OW24703   1.163   0.603   1.296 -0.0849 -0.2516 -0.3414
 4414SOL    HW124704   1.085   0.595   1.241  0.5201  0.0610 -1.2370
 4414SOL    HW224705   1.171   0.511   1.323  1.7762 -0.3457 -1.2297
 4415SOL     OW24706   2.815   2.388  10.803  0.3286 -0.3189  0.1227
 4415SOL    HW124707   2.771   2.443  10.868 -0.2187 -1.2094  0.5101
 4415SOL    HW224708   2.768   2.410  10.723  0.3233  0.7705  0.4344
 4416SOL     OW24709   4.173   2.491   9.309 -0.5047 -0.3338 -0.2591
 4416SOL    HW124710   4.084   2.514   9.284 -0.0649  2.6338  0.9195
 4416SOL    HW224711   4.221   2.535   9.238  1.4013 -1.7513  0.1547
 4417SOL     OW24712   1.154   3.018   5.356  0.3261  0.8581  0.1492
 4417SOL    HW124713   1.194   3.096   5.318  0.0550  0.3655 -1.1336
 4417SOL    HW224714   1.231   2.986   5.404  0.8280 -0.9660 -1.8825
 4418SOL     OW24715   1.436   4.582   1.881  0.2403  0.1735 -0.5648
 4418SOL    HW124716   1.493   4.511   1.850 -0.4927  0.0877 -1.7247
 4418SOL    HW224717   1.463   4.657   1.829 -0.0040  1.1658  0.7393
 4419SOL     OW24718   1.764   0.966   4.041  0.2713 -0.8581  0.4512
 4419SOL    HW124719   1.829   0.899   4.025 -0.6160 -0.9991 -2.5519
 4419SOL    HW224720   1.766   0.972   4.137 -2.6129 -0.1841  0.4851
 4420SOL     OW24721   0.878   1.528   0.286 -0.5747  0.0807  0.4090
 4420SOL    HW124722   0.892   1.483   0.202 -1.7183 -0.3462  0.4486
 4420SOL    HW224723   0.909   1.468   0.353 -0.5023 -1.3279 -0.8860
 4421SOL     OW24724   1.025   3.623   2.799 -0.0270 -0.0440 -0.3442
 4421SOL    HW124725   1.056   3.699   2.849  1.1075 -0.5391 -0.3010
 4421SOL    HW224726   0.999   3.666   2.718 -1.5811 -1.9753 -0.8777
 4422SOL     OW24727   4.112   0.265   7.070 -0.3639 -0.3281 -0.4387
 4422SOL    HW124728   4.129   0.170   7.069  3.8261  0.4107 -1.6526
 4422SOL    HW224729   4.141   0.281   6.980 -3.1690  0.1904 -1.2274
 4423SOL     OW24730   3.941   2.745  12.685  0.3791 -0.6003 -0.0705
 4423SOL    HW124731   3.982   2.778  12.605 -2.0074 -0.0942 -1.0888
 4423SOL    HW224732   3.930   2.655  12.655  0.8270 -0.5614 -0.3607
 4424SOL     OW24733   2.821   1.935   8.611 -0.4610  0.3117 -0.0182
 4424SOL    HW124734   2.778   1.909   8.693  0.0977  0.6782  0.3949
 4424SOL    HW224735   2.818   2.031   8.616 -0.8771  0.3207 -0.4076
 4425SOL     OW24736   3.792   0.431   1.740  0.3357 -0.0644 -0.5769
 4425SOL    HW124737   3.766   0.460   1.827 -3.1418 -0.5539 -1.4898
 4425SOL    HW224738   3.780   0.507   1.682 -0.0254 -0.0831 -0.5208
 4426SOL     OW24739   2.346   4.270   7.983  0.2365 -0.2240 -0.6427
 4426SOL    HW124740   2.301   4.240   8.062  2.7776 -0.7664  0.6058
 4426SOL    HW224741   2.437   4.265   8.014 -0.0693  3.1181  0.7040
 4427SOL     OW24742   1.455   3.001   6.492  0.7182  0.1111 -0.1396
 4427SOL    HW124743   1.500   2.976   6.573 -2.8901  0.9846  2.1123
 4427SOL    HW224744   1.362   2.991   6.509  0.2599 -0.0587 -2.7311
 4428SOL     OW24745   4.276   2.944   0.288  0.6005 -0.2531 -0.3333
 4428SOL    HW124746   4.285   3.032   0.251  0.7115 -0.1812 -0.1344
 4428SOL    HW224747   4.348   2.945   0.351 -0.2716  2.0841  0.6439
 4429SOL     OW24748   0.731   4.626   3.604 -0.0599  0.8298  0.6947
 4429SOL    HW124749   0.777   4.541   3.603  1.1607  1.5221 -1.7882
 4429SOL    HW224750   0.654   4.600   3.554  1.3831 -0.5292 -0.8552
 4430SOL     OW24751   3.353   3.187   3.300  0.3667  0.6999  0.7503
 4430SOL    HW124752   3.374   3.222   3.387  0.7273  2.1405  0.0776
 4430SOL    HW224753   3.424   3.223   3.246 -0.9271 -0.9376 -2.0564
 4431SOL     OW24754   0.728   3.191  15.379 -0.3687 -0.4524  0.1638
 4431SOL    HW124755   0.791   3.180  15.307 -0.8399  2.2439 -0.6531
 4431SOL    HW224756   0.668   3.122  15.350  0.2063 -1.3624  1.1210
 4432SOL     OW24757   2.665   3.342   9.470  1.0863 -0.0239 -0.1544
 4432SOL    HW124758   2.618   3.325   9.552  1.6437  2.5630  0.6763
 4432SOL    HW224759   2.640   3.268   9.415 -0.8491  1.2377 -0.9736
 4433SOL     OW24760   2.304   3.157   7.915  0.5579 -0.1734 -0.0394
 4433SOL    HW124761   2.279   3.224   7.979  1.3233 -0.8213  0.9311
 4433SOL    HW224762   2.399   3.161   7.910  0.5102  0.8528 -0.3143
 4434SOL     OW24763   2.402   2.425   6.622  0.0600  0.3479 -0.4733
 4434SOL    HW124764   2.463   2.458   6.557 -0.9257  2.1688 -0.4833
 4434SOL    HW224765   2.403   2.499   6.683  1.8783  0.6492 -0.8668
 4435SOL     OW24766   4.547   1.997   2.399  0.1901  0.8627 -0.0178
 4435SOL    HW124767   4.588   1.923   2.354 -0.5276  0.2414  0.3540
 4435SOL    HW224768   4.572   2.069   2.342 -0.1235 -0.1158 -1.3905
 4436SOL     OW24769   1.729   0.436   5.934  0.2334 -0.0316 -0.4988
 4436SOL    HW124770   1.694   0.463   6.019  2.1460 -1.3863  0.7316
 4436SOL    HW224771   1.746   0.525   5.902 -1.6549 -0.6169 -3.0476
 4437SOL     OW24772   1.973   4.248   1.808 -0.7382 -0.6164 -0.1100
 4437SOL    HW124773   2.016   4.287   1.731 -1.5898 -1.1183 -0.8441
 4437SOL    HW224774   2.051   4.221   1.855 -0.2605  1.3205  0.2389
 4438SOL     OW24775   3.645   3.819   0.443 -0.0078 -0.7207  0.4592
 4438SOL    HW124776   3.735   3.799   0.468  0.2308  0.3261  0.4030
 4438SOL    HW224777   3.616   3.764   0.516 -0.8308  0.1341  0.7636
 4439SOL     OW24778   1.044   1.439   4.890 -0.3055 -0.1875  0.5197
 4439SOL    HW124779   1.048   1.347   4.915  3.1760 -0.2150 -0.0973
 4439SOL    HW224780   1.121   1.471   4.937  1.3767  1.7179 -3.5482
 4440SOL     OW24781   2.835   4.084  17.668 -0.6875  0.0636  0.0737
 4440SOL    HW124782   2.891   4.020  17.624 -1.9302 -1.1431  0.2346
 4440SOL    HW224783   2.749   4.042  17.665 -1.6738  2.0036  1.4351
 4441SOL     OW24784   4.041   3.588   7.036  0.0224 -0.7724 -0.0156
 4441SOL    HW124785   4.087   3.654   7.089 -1.6953  1.0876 -0.8177
 4441SOL    HW224786   4.110   3.525   7.055 -0.1895 -1.1767 -0.5990
 4442SOL     OW24787   1.573   1.521   5.740  0.0622  0.2963 -0.4414
 4442SOL    HW124788   1.514   1.575   5.793  2.5091  2.2736  0.2235
 4442SOL    HW224789   1.652   1.574   5.742  0.2485 -0.0261  0.9531
 4443SOL     OW24790   3.498   2.559   5.881 -0.6107  0.0008 -0.3407
 4443SOL    HW124791   3.421   2.615   5.889 -1.4877 -1.1236 -0.8862
 4443SOL    HW224792   3.484   2.507   5.960  1.2018 -0.2136 -0.1459
 4444SOL     OW24793   3.851   2.028  10.247 -0.1018  0.0235 -0.6149
 4444SOL    HW124794   3.928   2.030  10.191  0.6815 -1.1805  0.4065
 4444SOL    HW224795   3.854   1.937  10.276  0.6387  0.6751  1.3323
 4445SOL     OW24796   4.629   1.596  14.933 -0.9775  0.7352  0.1253
 4445SOL    HW124797   4.607   1.520  14.879  1.5459  1.1859 -1.5735
 4445SOL    HW224798   4.681   1.646  14.870 -0.8897 -0.1156 -0.4861
 4446SOL     OW24799   3.051   0.228   4.505 -0.7650  0.3727  0.3439
 4446SOL    HW124800   3.125   0.286   4.492 -0.1683 -0.7845 -1.4412
 4446SOL    HW224801   2.984   0.263   4.564 -1.7278 -1.5601  0.4344
 4447SOL     OW24802   1.968   2.321   7.208 -0.0800 -0.3992  0.0510
 4447SOL    HW124803   1.992   2.228   7.199 -0.8006 -0.6364  0.5547
 4447SOL    HW224804   1.951   2.340   7.115  0.5435  3.4391  0.7254
 4448SOL     OW24805   1.027   3.410   2.610  0.0155  0.5037  0.0683
 4448SOL    HW124806   1.044   3.462   2.689  1.9845  2.1513 -1.4483
 4448SOL    HW224807   1.014   3.475   2.542 -1.5574  0.8944  0.7399
 4449SOL     OW24808   3.480   1.937   4.836  0.3650 -0.1115 -0.2990
 4449SOL    HW124809   3.392   1.900   4.835  0.3403 -0.0606  0.0803
 4449SOL    HW224810   3.533   1.865   4.872  1.0278  0.4187 -0.2121
 4450SOL     OW24811   4.509   1.670   6.142 -0.1969  0.5194 -0.4491
 4450SOL    HW124812   4.448   1.731   6.185  0.2404 -0.7243  1.9638
 4450SOL    HW224813   4.455   1.591   6.146 -2.5588  2.0627 -1.5765
 4451SOL     OW24814   3.739   0.217   9.051 -0.2856 -0.2704 -0.2071
 4451SOL    HW124815   3.829   0.191   9.073  0.8430  1.8364 -2.3005
 4451SOL    HW224816   3.752   0.293   8.995  1.3511 -0.1093  0.3928
 4452SOL     OW24817   2.585   0.357   9.880  0.0376 -0.3946  0.0719
 4452SOL    HW124818   2.514   0.292   9.885 -0.5532  0.3765  2.0759
 4452SOL    HW224819   2.574   0.374   9.787 -2.1486  2.3830  0.8274
 4453SOL     OW24820   2.916   3.589  10.331  0.1341 -0.1126  0.1416
 4453SOL    HW124821   2.828   3.624  10.316 -0.0872 -0.5720  0.3593
 4453SOL    HW224822   2.908   3.494  10.333  0.1695 -0.1077  0.4656
 4454SOL     OW24823   1.799   0.777  12.505  0.5658 -0.2127  0.2723
 4454SOL    HW124824   1.868   0.830  12.465  2.2833 -2.3260  0.4265
 4454SOL    HW224825   1.762   0.749  12.421 -1.6665 -0.3298  1.2977
 4455SOL     OW24826   1.358   0.577   5.777  0.3010  0.1998  0.6275
 4455SOL    HW124827   1.297   0.505   5.760  1.3888 -0.3741 -0.8415
 4455SOL    HW224828   1.316   0.623   5.849 -2.2271  2.7319 -2.4367
 4456SOL     OW24829   3.251   2.160   9.446 -0.3929 -0.1145 -0.0677
 4456SOL    HW124830   3.314   2.231   9.464 -1.9717  1.1895  0.3356
 4456SOL    HW224831   3.236   2.119   9.531 -0.3961  0.0172 -0.0047
 4457SOL     OW24832   0.112   1.204   2.242 -0.4695 -0.1712 -0.5017
 4457SOL    HW124833   0.036   1.165   2.199 -1.2242  2.7688 -1.8066
 4457SOL    HW224834   0.068   1.236   2.322  0.9620 -1.9088  0.9716
 4458SOL     OW24835   0.715   1.761  13.436  0.4668 -0.4192 -0.2527
 4458SOL    HW124836   0.683   1.708  13.509 -0.7663  2.1927  1.0742
 4458SOL    HW224837   0.634   1.809  13.417  0.1118 -0.5908  0.8465
 4459SOL     OW24838   3.236   1.965   4.497  0.2389 -0.6304  0.1446
 4459SOL    HW124839   3.240   2.044   4.551  0.1252 -0.1684 -0.5194
 4459SOL    HW224840   3.179   1.910   4.550 -2.8991  0.7170 -1.8031
 4460SOL     OW24841   3.216   3.257   7.783 -0.1607  0.2098  0.1032
 4460SOL    HW124842   3.204   3.288   7.694  2.0326 -0.1586 -0.3144
 4460SOL    HW224843   3.137   3.292   7.825  0.3419  0.0629  1.1903
 4461SOL     OW24844   4.663   0.271  10.609 -0.2761  0.0937  0.6861
 4461SOL    HW124845   4.724   0.320  10.554  0.6586 -2.5340 -0.6398
 4461SOL    HW224846   4.688   0.313  10.692 -1.2715  1.0839  0.4809
 4462SOL     OW24847   1.201   0.490   1.623  0.8972  0.1820 -0.1462
 4462SOL    HW124848   1.224   0.423   1.688 -0.7502 -0.2163  0.0245
 4462SOL    HW224849   1.189   0.441   1.542 -0.2390 -3.4934  2.2207
 4463SOL     OW24850   3.197   2.807   3.124 -0.0493  0.1313 -0.0416
 4463SOL    HW124851   3.174   2.898   3.141 -2.2611  0.0698 -2.6449
 4463SOL    HW224852   3.187   2.797   3.029  2.2230  1.5737 -0.4425
 4464SOL     OW24853   3.917   4.020   3.737  0.0731  0.0935 -0.7151
 4464SOL    HW124854   3.970   3.964   3.681  2.0604  0.5967  0.6846
 4464SOL    HW224855   3.988   4.070   3.778  0.1150 -0.8568  0.3526
 4465SOL     OW24856   4.294   2.525  17.282  0.3076  0.0344 -0.3477
 4465SOL    HW124857   4.297   2.590  17.353  2.0321 -1.1275  0.6172
 4465SOL    HW224858   4.209   2.484  17.297 -0.4418  1.4357 -0.7025
 4466SOL     OW24859   3.729   2.920   9.217  0.3079  0.1707  0.5699
 4466SOL    HW124860   3.689   2.860   9.155  1.0817 -0.4418  0.6748
 4466SOL    HW224861   3.744   3.000   9.166 -0.2590 -0.1793 -0.1379
 4467SOL     OW24862   3.489   3.914  10.190 -1.0381 -0.2496  0.1504
 4467SOL    HW124863   3.402   3.908  10.151  1.0120  1.5030 -4.6719
 4467SOL    HW224864   3.475   3.991  10.244  0.1675 -0.3397  0.5948
 4468SOL     OW24865   0.675   0.047  17.562  0.4703 -0.8421  0.5245
 4468SOL    HW124866   0.720   0.090  17.489  0.9433  0.4978  1.5963
 4468SOL    HW224867   0.586   0.080  17.548  1.3482  1.5820  0.7097
 4469SOL     OW24868   0.260   3.690  16.363 -0.3503 -0.0342 -0.6206
 4469SOL    HW124869   0.217   3.660  16.283 -1.0151  0.7547 -0.5544
 4469SOL    HW224870   0.345   3.717  16.329  0.0195 -0.4711 -0.0619
 4470SOL     OW24871   4.460   3.890   2.437 -0.2655 -0.4827 -0.4795
 4470SOL    HW124872   4.402   3.875   2.363  1.1420 -1.3847 -1.3904
 4470SOL    HW224873   4.492   3.804   2.462  0.3950  0.2435  1.2018
 4471SOL     OW24874   1.555   4.597   4.600 -0.0143 -0.3080  0.6413
 4471SOL    HW124875   1.526   4.585   4.691 -1.8779  1.4509  0.2534
 4471SOL    HW224876   1.565   4.508   4.567  2.0590 -0.2696  1.1387
 4472SOL     OW24877   4.431   3.198   4.059  0.0531  0.3902  0.1364
 4472SOL    HW124878   4.512   3.152   4.079  0.1076 -0.0561 -1.0856
 4472SOL    HW224879   4.429   3.277   4.113  2.3326  0.6458 -0.1669
 4473SOL     OW24880   1.859   1.098   6.200 -0.4176  0.2241  0.1988
 4473SOL    HW124881   1.951   1.079   6.183  0.1672  2.0577  1.3583
 4473SOL    HW224882   1.831   1.068   6.113  2.1118  0.4760 -0.6835
 4474SOL     OW24883   2.748   2.369   9.773 -0.7270 -0.3235 -0.1009
 4474SOL    HW124884   2.765   2.460   9.796  0.8704 -0.9541  1.2185
 4474SOL    HW224885   2.672   2.386   9.717  1.5889  3.5442 -2.0270
 4475SOL     OW24886   3.943   3.720   8.348  0.7422 -0.0870 -0.3849
 4475SOL    HW124887   3.934   3.660   8.274 -1.1074  0.4064 -0.5481
 4475SOL    HW224888   3.975   3.661   8.417 -0.1570 -1.1218 -0.8529
 4476SOL     OW24889   3.133   1.951   7.439  0.9393 -0.1896  0.7778
 4476SOL    HW124890   3.216   1.989   7.412  0.4830 -0.7237 -1.3987
 4476SOL    HW224891   3.158   1.858   7.433  1.2918 -0.1808  2.1013
 4477SOL     OW24892   1.485   3.111   8.007 -0.2153  0.1616  0.0044
 4477SOL    HW124893   1.537   3.055   7.949 -1.4141 -0.6370 -0.2960
 4477SOL    HW224894   1.546   3.185   8.007  2.5231 -2.0892  0.0377
 4478SOL     OW24895   1.559   4.137   8.189  0.6344  0.5558 -0.0668
 4478SOL    HW124896   1.612   4.153   8.267  0.4568  0.0252  0.1633
 4478SOL    HW224897   1.618   4.082   8.138 -0.2510  0.8267 -1.3768
 4479SOL     OW24898   1.610   1.897   6.433  0.0390  0.0058  0.3268
 4479SOL    HW124899   1.604   1.804   6.410  2.0234  0.2127 -0.9564
 4479SOL    HW224900   1.624   1.873   6.525  2.4412  2.1607  0.5086
 4480SOL     OW24901   1.295   0.290   2.455  0.2385 -0.2101  0.4761
 4480SOL    HW124902   1.372   0.238   2.431  0.4423  0.5564 -0.5149
 4480SOL    HW224903   1.287   0.256   2.544  0.9654 -1.1028  0.1998
 4481SOL     OW24904   3.134   3.176  11.258 -0.5085 -0.4924  0.4274
 4481SOL    HW124905   3.168   3.207  11.175  1.8186 -0.1591  1.5144
 4481SOL    HW224906   3.194   3.204  11.327 -0.5470  0.6864 -0.0232
 4482SOL     OW24907   3.963   3.663   9.247  0.6954  0.5757 -0.1936
 4482SOL    HW124908   3.989   3.576   9.216  2.4710  1.0813 -0.1081
 4482SOL    HW224909   3.871   3.648   9.271  1.4385 -0.0543  2.2226
 4483SOL     OW24910   4.334   4.164   4.172 -0.0407  0.1701 -0.2936
 4483SOL    HW124911   4.332   4.231   4.103  0.7773  0.2142 -0.2818
 4483SOL    HW224912   4.426   4.171   4.200  0.3016  3.1922 -2.1632
 4484SOL     OW24913   0.332   1.352   0.313  0.5313  0.0737  0.0820
 4484SOL    HW124914   0.416   1.396   0.329  1.1737 -0.7797 -0.8896
 4484SOL    HW224915   0.367   1.273   0.271 -0.6149  0.2010 -1.0778
 4485SOL     OW24916   1.452   3.880  12.888 -0.1425 -0.1071  0.1135
 4485SOL    HW124917   1.372   3.845  12.926 -0.1393  0.3134  0.5122
 4485SOL    HW224918   1.430   3.955  12.833 -1.8244 -0.8526 -0.2226
 4486SOL     OW24919   0.407   2.133   7.365 -0.0883  0.4675 -0.7653
 4486SOL    HW124920   0.416   2.191   7.290  0.6883 -0.6863 -1.5553
 4486SOL    HW224921   0.364   2.058   7.324  1.4391 -0.0329 -1.4379
 4487SOL     OW24922   3.778   4.246   8.240 -0.7076  0.6290 -0.0151
 4487SOL    HW124923   3.734   4.190   8.176  0.3464 -1.8201  1.4133
 4487SOL    HW224924   3.705   4.306   8.254 -2.4769 -1.7890  1.1684
 4488SOL     OW24925   0.781   1.893   9.123 -0.1757 -0.0434  0.3502
 4488SOL    HW124926   0.706   1.896   9.064  1.6983 -1.0248 -2.0467
 4488SOL    HW224927   0.823   1.811   9.098  0.1163  0.6366 -1.3735
 4489SOL     OW24928   1.321   4.041   5.032 -0.2085  0.4033  0.2974
 4489SOL    HW124929   1.268   4.072   4.959 -0.3907 -1.8097 -0.5175
 4489SOL    HW224930   1.267   3.965   5.053  1.0837 -0.7737 -0.6327
 4490SOL     OW24931   4.679   2.774  11.430 -0.3966 -0.2503  0.1718
 4490SOL    HW124932   4.688   2.773  11.525  0.2245 -0.1361  0.1175
 4490SOL    HW224933   0.030   2.822  11.396  2.7643 -4.1751  1.5936
 4491SOL     OW24934   3.184   0.994  15.796  0.3802 -0.0858  0.2823
 4491SOL    HW124935   3.251   0.945  15.748  1.1519  1.7029 -0.4438
 4491SOL    HW224936   3.221   1.080  15.779  1.0582 -0.8813 -2.3292
 4492SOL     OW24937   1.325   2.670   4.342  0.1154 -0.4224 -0.2187
 4492SOL    HW124938   1.331   2.731   4.414  2.6385  0.8199 -1.4894
 4492SOL    HW224939   1.348   2.725   4.267 -0.3464 -1.6103 -1.2565
 4493SOL     OW24940   1.231   2.166   3.096  0.4951  0.1707 -0.8218
 4493SOL    HW124941   1.292   2.148   3.025 -0.6128  0.6324 -1.8872
 4493SOL    HW224942   1.192   2.244   3.055 -1.5153  0.2035  1.1770
 4494SOL     OW24943   4.438   4.306  13.663 -1.0153  0.0784 -0.2700
 4494SOL    HW124944   4.345   4.313  13.684 -0.3970 -1.8737  3.0041
 4494SOL    HW224945   4.446   4.336  13.572 -0.9826 -0.3775 -0.4180
 4495SOL     OW24946   3.328   3.479  17.534  0.1385  0.4654  0.3232
 4495SOL    HW124947   3.268   3.405  17.529 -0.4988  1.1433 -1.9285
 4495SOL    HW224948   3.286   3.547  17.482 -0.2632  0.6542  0.8925
 4496SOL     OW24949   3.678   0.098   8.325  0.4066  0.2215  0.1667
 4496SOL    HW124950   3.678   0.165   8.257 -0.4076  0.9273  0.8678
 4496SOL    HW224951   3.676   0.013   8.281  0.6459  1.3034 -1.9465
 4497SOL     OW24952   4.381   2.023   1.893 -0.4329  0.1221 -0.5204
 4497SOL    HW124953   4.318   1.954   1.914  2.1776 -1.8642  0.7492
 4497SOL    HW224954   4.334   2.098   1.931 -1.6368 -0.4691 -0.8266
 4498SOL     OW24955   4.332   1.188   7.895 -0.3714 -0.3974 -0.2443
 4498SOL    HW124956   4.285   1.166   7.815 -2.1984 -0.6234  0.9077
 4498SOL    HW224957   4.363   1.275   7.869 -0.1598  0.1103  1.7383
 4499SOL     OW24958   0.241   3.323   6.725 -0.2506  0.2685  0.6316
 4499SOL    HW124959   0.335   3.313   6.708 -0.6355 -1.9543 -0.2382
 4499SOL    HW224960   0.231   3.414   6.699  2.3580 -0.0815 -1.7419
 4500SOL     OW24961   0.053   1.858   6.856  0.0463  0.0150  0.6078
 4500SOL    HW124962   0.109   1.841   6.780  0.0485 -2.6603  1.2390
 4500SOL    HW224963   0.087   1.790   6.913  0.3816 -0.6567 -0.4040
 4501SOL     OW24964   0.406   4.673  17.227  0.5459 -0.1093 -0.0365
 4501SOL    HW124965   0.404   0.022  17.289 -0.1472 -1.2407  1.2737
 4501SOL    HW224966   0.412   0.007  17.152  3.3208  0.2195  0.4045
 4502SOL     OW24967   3.844   0.111   3.767 -0.6043 -0.4016 -0.3307
 4502SOL    HW124968   3.785   0.073   3.701 -0.7920  1.6883 -1.3651
 4502SOL    HW224969   3.902   0.038   3.786  0.8335  0.1098 -2.7441
 4503SOL     OW24970   0.290   1.828   9.349 -0.2677  0.9816  0.5003
 4503SOL    HW124971   0.332   1.857   9.431 -1.1910  1.6135  0.7456
 4503SOL    HW224972   0.213   1.783   9.384  0.6841  0.6264  2.1459
 4504SOL     OW24973   1.874   2.058   5.027 -0.0524  0.0189 -0.0814
 4504SOL    HW124974   1.969   2.055   5.039 -0.1766  0.6161  1.0905
 4504SOL    HW224975   1.846   2.118   5.097  1.0174  1.0077 -0.4887
 4505SOL     OW24976   0.484   2.528  17.544  0.0587  0.4748 -0.6056
 4505SOL    HW124977   0.481   2.495  17.634 -1.3230  1.2966 -0.3468
 4505SOL    HW224978   0.528   2.612  17.560 -1.1871  1.3682 -1.9303
 4506SOL     OW24979   3.931   0.954   6.715  0.0730  0.3071 -0.3521
 4506SOL    HW124980   3.871   0.999   6.654 -0.7130 -0.0260  0.1759
 4506SOL    HW224981   4.001   0.933   6.653  0.2507 -2.3179  0.7453
 4507SOL     OW24982   4.604   2.267   9.931 -0.1346 -0.1107  0.7462
 4507SOL    HW124983   4.576   2.234  10.017 -2.1400 -0.4520 -0.0384
 4507SOL    HW224984   4.699   2.270   9.935 -0.0557 -0.8879 -0.3838
 4508SOL     OW24985   3.806   3.305   1.216 -0.6028 -0.2555  0.5848
 4508SOL    HW124986   3.857   3.362   1.158 -2.7746  1.4961  0.4298
 4508SOL    HW224987   3.854   3.224   1.198 -0.8936 -0.1202 -0.7818
 4509SOL     OW24988   4.359   1.693   3.408  0.0202  0.0898  0.4164
 4509SOL    HW124989   4.341   1.608   3.369  0.7438  0.2343 -0.2363
 4509SOL    HW224990   4.334   1.673   3.498  1.9249 -2.0364  0.4745
 4510SOL     OW24991   3.534   2.771   3.545  0.1547  0.1305 -0.1435
 4510SOL    HW124992   3.501   2.778   3.456 -0.2222  2.3534  0.1833
 4510SOL    HW224993   3.491   2.844   3.588  0.4710 -0.5455  1.3321
 4511SOL     OW24994   3.951   2.122   7.785 -0.2060  0.4996  0.6429
 4511SOL    HW124995   3.954   2.144   7.692 -2.0906  1.1647  0.7379
 4511SOL    HW224996   3.914   2.034   7.779 -0.4101  0.7045 -1.2603
 4512SOL     OW24997   3.401   3.064   4.144  0.1426 -0.3674  0.1084
 4512SOL    HW124998   3.353   2.985   4.119 -1.1828 -0.0150  1.5585
 4512SOL    HW224999   3.384   3.117   4.067 -1.0468 -0.0987  0.5674
 4513SOL     OW25000   3.486   3.014   8.664  0.1412  0.3762  0.6185
 4513SOL    HW125001   3.532   3.031   8.747 -0.1096  3.7621  0.0702
 4513SOL    HW225002   3.538   3.059   8.597 -0.0076 -1.2191 -0.5497
 4514SOL     OW25003   1.217   0.105   7.098 -0.2965 -0.0223  0.1722
 4514SOL    HW125004   1.213   0.137   7.188  1.4017 -1.1726  0.6552
 4514SOL    HW225005   1.200   0.012   7.109  1.3956 -0.3532  0.0656
 4515SOL     OW25006   2.655   4.264   6.719  0.2623  0.5137  0.3374
 4515SOL    HW125007   2.614   4.213   6.790  1.7796 -1.1194  0.0504
 4515SOL    HW225008   2.624   4.353   6.731 -1.3883  0.0198 -0.2762
 4516SOL     OW25009   1.356   3.888  10.687  0.1406 -0.2329  0.0055
 4516SOL    HW125010   1.393   3.862  10.603 -2.1578 -1.2815 -0.7008
 4516SOL    HW225011   1.266   3.915  10.669  0.4440 -1.0116 -2.6785
 4517SOL     OW25012   4.072   0.654   4.237  0.2836  0.2548 -0.1383
 4517SOL    HW125013   4.057   0.563   4.210 -2.0046 -0.0871  2.2931
 4517SOL    HW225014   4.118   0.682   4.158  0.9124  1.3542  0.6171
 4518SOL     OW25015   0.787   2.990   6.759  0.1260 -0.2013 -0.2565
 4518SOL    HW125016   0.701   3.028   6.778  0.7167  0.0520  1.8330
 4518SOL    HW225017   0.783   2.919   6.822 -2.0938  1.0278  0.9936
 4519SOL     OW25018   1.581   2.516  15.406  0.6450 -0.1767  0.5610
 4519SOL    HW125019   1.595   2.467  15.325  1.7271 -1.2444  1.3838
 4519SOL    HW225020   1.625   2.599  15.388  0.2505 -0.3951 -1.4099
 4520SOL     OW25021   2.583   0.750  16.030  0.8852  0.4908  0.5108
 4520SOL    HW125022   2.536   0.716  15.954  1.3017 -1.8374  1.2845
 4520SOL    HW225023   2.593   0.676  16.090  0.8346  1.5202  1.7797
 4521SOL     OW25024   2.496   1.738   7.579  0.6170  0.1227 -0.5920
 4521SOL    HW125025   2.536   1.801   7.640  1.5155 -0.1778 -0.8810
 4521SOL    HW225026   2.405   1.768   7.580  0.6474  0.2259 -1.8028
 4522SOL     OW25027   1.339   2.227   9.055 -0.7664 -0.3538 -0.7904
 4522SOL    HW125028   1.295   2.168   8.994 -1.8582 -0.7046  0.3295
 4522SOL    HW225029   1.341   2.178   9.137  0.6876  2.3724  0.7872
 4523SOL     OW25030   2.927   2.925   1.921  0.0968 -0.1868  0.1041
 4523SOL    HW125031   2.967   2.864   1.982 -0.9917 -1.5213 -0.5159
 4523SOL    HW225032   3.007   2.973   1.898  0.1139 -0.0636  0.4309
 4524SOL     OW25033   4.074   4.331   2.883  0.2389  0.3072  0.2825
 4524SOL    HW125034   4.032   4.324   2.798 -0.2267  0.5736  0.4893
 4524SOL    HW225035   4.149   4.271   2.881  0.6598  0.8470  0.1950
 4525SOL     OW25036   1.466   4.240   5.163 -0.1867 -0.3638  0.2355
 4525SOL    HW125037   1.444   4.160   5.116 -2.5685 -0.1811  1.0636
 4525SOL    HW225038   1.561   4.243   5.149 -0.3685  2.1543 -0.5828
 4526SOL     OW25039   1.329   2.163  11.702 -0.0068 -0.2242 -0.9028
 4526SOL    HW125040   1.263   2.226  11.672 -0.1034  1.5247  3.0305
 4526SOL    HW225041   1.368   2.122  11.624 -1.5075  1.1751 -2.3926
 4527SOL     OW25042   1.429   2.599   5.014  0.3609  0.0785 -0.0966
 4527SOL    HW125043   1.373   2.676   5.026  1.2758  0.3825  2.0547
 4527SOL    HW225044   1.428   2.611   4.919  0.7011 -0.3689 -0.1559
 4528SOL     OW25045   2.161   3.185   9.088  0.3957 -0.0145 -0.2177
 4528SOL    HW125046   2.225   3.215   9.153  1.2251  0.1321 -1.1017
 4528SOL    HW225047   2.173   3.245   9.014  2.1127  1.8804  1.6164
 4529SOL     OW25048   3.369   3.765   1.957 -0.5240 -0.4067 -0.2354
 4529SOL    HW125049   3.460   3.739   1.944  0.2584  1.5662  1.2493
 4529SOL    HW225050   3.370   3.792   2.049 -0.9432 -1.1300 -0.0225
 4530SOL     OW25051   0.002   2.527   7.503 -0.1255  0.0490  0.2688
 4530SOL    HW125052   4.636   2.533   7.471  0.1532  0.1491 -0.5154
 4530SOL    HW225053   4.716   2.550   7.595 -1.1290 -0.7656  0.3540
 4531SOL     OW25054   2.009   2.585   5.502 -0.2730  0.2889  0.6508
 4531SOL    HW125055   2.096   2.624   5.503  0.3582 -1.0952 -0.5653
 4531SOL    HW225056   1.984   2.613   5.414  0.8745 -0.8450 -0.0355
 4532SOL     OW25057   3.737   4.682   9.695 -0.4758  0.4061 -0.0602
 4532SOL    HW125058   3.642   4.682   9.710 -0.3975 -1.1925  0.4388
 4532SOL    HW225059   3.757   0.051   9.702 -3.0360  0.8012  2.4626
 4533SOL     OW25060   3.996   0.936  14.462 -0.0913 -0.1469  0.5703
 4533SOL    HW125061   4.002   0.911  14.370  0.2068 -1.6078  0.9803
 4533SOL    HW225062   4.019   0.856  14.510 -2.6389 -1.7495 -0.8628
 4534SOL     OW25063   3.209   0.617  14.361 -0.1585  0.3955 -0.1035
 4534SOL    HW125064   3.207   0.531  14.403  0.9027  0.4438  0.0406
 4534SOL    HW225065   3.243   0.589  14.276 -2.1371 -1.1124 -0.4107
 4535SOL     OW25066   1.245   1.993   4.535  0.3006  0.3060 -0.4286
 4535SOL    HW125067   1.275   2.009   4.446 -0.8241 -0.8041 -1.0154
 4535SOL    HW225068   1.326   2.000   4.585  0.6394  0.2300 -0.9624
 4536SOL     OW25069   2.223   0.251   5.599 -0.3872 -0.5086 -0.4290
 4536SOL    HW125070   2.194   0.250   5.508 -0.8192  0.6347 -0.2985
 4536SOL    HW225071   2.179   0.174   5.636  0.2557 -1.1268 -0.9497
 4537SOL     OW25072   0.831   2.974  10.306 -0.1525  0.2621  0.1743
 4537SOL    HW125073   0.759   3.038  10.299 -0.1965  0.1908 -0.0051
 4537SOL    HW225074   0.787   2.904  10.355 -0.0753 -0.3354 -0.6267
 4538SOL     OW25075   2.139   1.826   2.038  0.3847  0.6705 -0.0820
 4538SOL    HW125076   2.050   1.857   2.025  0.0326 -0.7804 -1.1074
 4538SOL    HW225077   2.153   1.780   1.956 -0.7242 -1.3691  0.8707
 4539SOL     OW25078   1.068   1.974  15.450  0.3787 -0.0699 -0.4022
 4539SOL    HW125079   1.092   1.883  15.434 -0.9277 -0.8721  2.2414
 4539SOL    HW225080   1.083   1.974  15.544  1.3343  3.1875 -0.5477
 4540SOL     OW25081   3.937   4.604   2.682 -0.1847 -0.1736  0.4029
 4540SOL    HW125082   4.000   4.577   2.616 -1.5697 -1.5044 -0.3904
 4540SOL    HW225083   3.852   4.571   2.653  0.2290 -0.9311  0.0534
 4541SOL     OW25084   0.255   0.373   0.555  0.0408 -0.2177  0.3962
 4541SOL    HW125085   0.264   0.345   0.646 -0.5449 -1.1311  0.1803
 4541SOL    HW225086   0.177   0.428   0.565  1.9751  2.4957  0.6222
 4542SOL     OW25087   3.126   3.503  14.629 -0.9219  0.0627  0.3224
 4542SOL    HW125088   3.120   3.487  14.723 -0.1618 -1.1507  0.1572
 4542SOL    HW225089   3.215   3.472  14.613 -0.0371  1.1071  3.2034
 4543SOL     OW25090   3.494   3.116  12.674  0.0090 -0.0633  0.1288
 4543SOL    HW125091   3.412   3.159  12.649  0.5468  1.4415  0.9394
 4543SOL    HW225092   3.556   3.188  12.667  0.7871 -0.7335  0.1533
 4544SOL     OW25093   4.692   1.178   3.347 -0.6693 -0.5784 -0.1260
 4544SOL    HW125094   4.695   1.082   3.341  1.5656 -0.5665  0.9384
 4544SOL    HW225095   4.697   1.198   3.253  0.2618 -0.5507 -0.0675
 4545SOL     OW25096   0.129   2.159  14.525  0.2582  0.4338  0.0746
 4545SOL    HW125097   0.117   2.065  14.514  0.2898  0.5728 -1.1065
 4545SOL    HW225098   0.159   2.180  14.437 -1.4045 -0.6469 -0.7547
 4546SOL     OW25099   3.302   1.021   5.334  0.5249 -0.2595  0.5678
 4546SOL    HW125100   3.245   0.963   5.385 -1.7697  0.3007 -1.3934
 4546SOL    HW225101   3.325   0.970   5.257 -2.5556 -1.2721  0.3229
 4547SOL     OW25102   4.088   4.086   2.212  0.1270  0.0598 -0.6072
 4547SOL    HW125103   4.002   4.053   2.239 -0.1954  2.1042  0.8621
 4547SOL    HW225104   4.147   4.016   2.241  0.3820  0.1971 -0.8030
 4548SOL     OW25105   1.114   4.176  14.875 -0.2758  0.3315  0.1297
 4548SOL    HW125106   1.138   4.095  14.920  0.2438 -0.4248 -1.5032
 4548SOL    HW225107   1.165   4.245  14.918  1.5010  0.3117 -1.8936
 4549SOL     OW25108   4.064   2.936   7.224  0.1154 -0.1328 -0.3944
 4549SOL    HW125109   4.145   2.986   7.226 -1.4709  2.4820 -1.7889
 4549SOL    HW225110   4.007   2.994   7.174 -1.8395 -0.0873  1.8693
 4550SOL     OW25111   0.111   2.294   7.269  0.8516 -0.5023 -0.2890
 4550SOL    HW125112   0.130   2.383   7.298 -3.4488  0.7400 -1.2863
 4550SOL    HW225113   0.190   2.264   7.224  1.8227 -0.1663  1.2249
 4551SOL     OW25114   3.681   1.726   2.401 -0.6934 -0.3422 -0.1668
 4551SOL    HW125115   3.630   1.790   2.351 -0.7930 -0.9105 -0.7813
 4551SOL    HW225116   3.689   1.777   2.481 -0.1841 -0.6247 -0.0370
 4552SOL     OW25117   0.644   1.033   4.028  0.6084 -0.1151 -0.0177
 4552SOL    HW125118   0.682   1.045   4.115  1.4066 -2.6495 -0.0156
 4552SOL    HW225119   0.588   1.111   4.034  0.0175 -0.4624 -0.9686
 4553SOL     OW25120   1.055   3.230   3.173  0.6411  0.1650  0.2016
 4553SOL    HW125121   1.087   3.217   3.083  0.1557  0.1131  0.0365
 4553SOL    HW225122   1.048   3.140   3.204 -0.0485 -0.0357 -0.5419
 4554SOL     OW25123   1.878   4.203  13.728 -0.2333 -0.0964  0.1514
 4554SOL    HW125124   1.895   4.282  13.677 -0.4876  0.2231  0.5553
 4554SOL    HW225125   1.966   4.180  13.759 -1.3780 -0.4492  3.1986
 4555SOL     OW25126   0.300   1.052  11.899 -0.1817 -0.0248  0.0083
 4555SOL    HW125127   0.257   1.064  11.983  1.4604 -1.9007  1.1179
 4555SOL    HW225128   0.373   1.001  11.934 -1.4401 -1.5383  0.4304
 4556SOL     OW25129   3.768   3.853  12.260  0.2247  0.0345  0.0434
 4556SOL    HW125130   3.684   3.831  12.300  0.9460 -1.7101  0.6152
 4556SOL    HW225131   3.819   3.897  12.328  2.3164  0.6680 -1.9255
 4557SOL     OW25132   1.635   0.405   7.299 -0.5711  0.3199  0.4964
 4557SOL    HW125133   1.620   0.418   7.392 -1.8657 -2.0135  0.6245
 4557SOL    HW225134   1.660   0.313   7.287 -2.0853 -0.0788  0.4288
 4558SOL     OW25135   0.331   3.362   3.974  0.0381 -0.1045 -0.1350
 4558SOL    HW125136   0.283   3.281   3.988  0.9093 -0.4695  0.6778
 4558SOL    HW225137   0.280   3.397   3.901  1.3394 -1.3692 -1.6662
 4559SOL     OW25138   2.392   2.177   7.624 -0.8100  0.3865 -0.3212
 4559SOL    HW125139   2.419   2.228   7.701  0.0586  0.5778 -0.7654
 4559SOL    HW225140   2.304   2.214   7.616 -0.4480  1.2076 -0.4387
 4560SOL     OW25141   0.074   0.187   4.625 -0.2002  0.4917 -0.7057
 4560SOL    HW125142   0.032   0.131   4.559  1.3237 -1.4513 -0.0451
 4560SOL    HW225143   0.147   0.133   4.656 -0.0008  1.6816  0.8825
 4561SOL     OW25144   3.915   2.430   2.571  0.2775 -0.3051  0.5081
 4561SOL    HW125145   3.975   2.373   2.618 -2.0684 -3.1889 -0.0079
 4561SOL    HW225146   3.927   2.391   2.484  1.0878 -0.4191  0.6706
 4562SOL     OW25147   4.170   1.509   3.938 -0.8173 -0.5464 -0.1763
 4562SOL    HW125148   4.100   1.573   3.956 -0.3348  0.1567 -0.8042
 4562SOL    HW225149   4.238   1.536   4.000 -1.3716 -1.2893  0.7533
 4563SOL     OW25150   0.173   3.357  10.342  0.2820 -0.2633  0.2407
 4563SOL    HW125151   0.171   3.264  10.363 -1.1447 -0.2518  0.1126
 4563SOL    HW225152   0.193   3.397  10.427  0.7893  0.3032 -0.1439
 4564SOL     OW25153   4.241   1.205   7.629 -0.2785 -0.4379  0.1240
 4564SOL    HW125154   4.321   1.202   7.577 -0.3269 -0.3705  0.0463
 4564SOL    HW225155   4.208   1.287   7.591  1.9564 -0.3866 -1.7212
 4565SOL     OW25156   1.295   0.558   8.026  0.2163 -0.1758 -0.0955
 4565SOL    HW125157   1.248   0.524   7.950 -2.0917  2.3425  0.1942
 4565SOL    HW225158   1.226   0.589   8.085  1.4248 -1.5877  2.0535
 4566SOL     OW25159   0.046   1.397   2.468 -0.2974  0.2514 -0.0034
 4566SOL    HW125160   0.066   1.490   2.454  0.7731  0.1691  1.0444
 4566SOL    HW225161   4.682   1.395   2.431 -0.1923  0.8014 -0.2977
 4567SOL     OW25162   2.704   2.868   9.118 -0.1820 -0.1109  0.2343
 4567SOL    HW125163   2.776   2.892   9.176 -0.4925 -1.0316  1.0011
 4567SOL    HW225164   2.664   2.955   9.113  1.5609  0.5819 -1.6969
 4568SOL     OW25165   0.936   0.427   5.234 -0.7340  0.0349 -0.3428
 4568SOL    HW125166   0.986   0.489   5.288 -0.4633  0.7684 -1.4450
 4568SOL    HW225167   0.865   0.395   5.289 -0.8680  1.1951  0.1584
 4569SOL     OW25168   3.000   1.837  14.809  0.0038  0.3813  0.5215
 4569SOL    HW125169   2.952   1.772  14.759 -0.8287  1.6915 -0.3780
 4569SOL    HW225170   3.072   1.855  14.748 -1.0698  2.9750  0.0024
 4570SOL     OW25171   3.587   2.584   8.164 -0.4905 -0.1977 -0.1078
 4570SOL    HW125172   3.553   2.532   8.091 -0.8953 -0.5822  0.3624
 4570SOL    HW225173   3.604   2.513   8.226 -1.6611 -0.8713 -0.5709
 4571SOL     OW25174   0.493   4.399  16.571 -0.1594 -0.2688  0.3009
 4571SOL    HW125175   0.472   4.427  16.660  0.5666  3.8777 -0.8341
 4571SOL    HW225176   0.406   4.409  16.531  0.5386 -0.3784 -1.2508
 4572SOL     OW25177   1.888   0.874   1.130 -0.3092  0.0929 -0.5359
 4572SOL    HW125178   1.819   0.927   1.169  0.4641  0.6480  0.0939
 4572SOL    HW225179   1.928   0.830   1.206  0.9557  1.7258 -0.2538
 4573SOL     OW25180   3.417   1.942   1.965 -0.0251  0.1109 -0.2595
 4573SOL    HW125181   3.370   1.860   1.981 -1.5497  0.8208 -1.0543
 4573SOL    HW225182   3.370   1.985   1.893 -2.5958 -0.5627  1.0031
 4574SOL     OW25183   4.020   1.304   8.041  0.2193 -0.0420  0.0716
 4574SOL    HW125184   4.029   1.387   7.993 -0.5876 -1.0747 -1.8963
 4574SOL    HW225185   4.041   1.239   7.974 -1.3888  0.8182 -1.2667
 4575SOL     OW25186   2.540   1.758   0.389 -0.1179  0.2129 -0.5360
 4575SOL    HW125187   2.458   1.750   0.438 -0.7698 -0.8399 -1.7869
 4575SOL    HW225188   2.594   1.689   0.429 -1.7813 -1.7921 -1.7172
 4576SOL     OW25189   0.108   0.529   4.728  0.3704  0.3159 -0.7019
 4576SOL    HW125190   0.081   0.615   4.760  2.4941  1.8704 -3.1158
 4576SOL    HW225191   0.084   0.530   4.636 -1.1583 -1.4517 -0.3172
 4577SOL     OW25192   4.151   4.343   2.299 -0.2283  0.3682 -0.3373
 4577SOL    HW125193   4.147   4.257   2.258  1.4610  0.5246 -0.8408
 4577SOL    HW225194   4.155   4.323   2.393  3.8854  1.4369 -0.2553
 4578SOL     OW25195   2.043   1.093  10.741 -0.2303  0.1535  0.4212
 4578SOL    HW125196   2.065   1.005  10.710  2.9355  0.6829  1.1872
 4578SOL    HW225197   1.958   1.076  10.783 -0.9886 -1.0187 -1.5671
 4579SOL     OW25198   3.339   1.819   8.964  0.3762 -0.4630 -0.0651
 4579SOL    HW125199   3.395   1.742   8.954  0.8708 -0.1791  0.4567
 4579SOL    HW225200   3.297   1.788   9.045  0.9018 -1.0675 -0.0239
 4580SOL     OW25201   1.088   4.526   9.117 -0.3704 -0.4507  0.5993
 4580SOL    HW125202   1.018   4.523   9.182 -0.5706 -0.9725  0.3547
 4580SOL    HW225203   1.045   4.587   9.057  1.1128  0.8765  0.8980
 4581SOL     OW25204   3.247   4.042   8.588  0.1563 -0.2565  0.3126
 4581SOL    HW125205   3.325   4.016   8.636 -1.0392 -0.7517  1.9913
 4581SOL    HW225206   3.277   4.017   8.500 -1.2250 -0.3434 -0.1401
 4582SOL     OW25207   0.875   4.161   5.374 -0.0899 -0.0372 -0.0928
 4582SOL    HW125208   0.809   4.101   5.339 -0.4109  0.5622 -0.4964
 4582SOL    HW225209   0.847   4.244   5.336  4.8430  1.9547  0.5939
 4583SOL     OW25210   2.439   1.302   9.220  0.4970  0.2725  0.1656
 4583SOL    HW125211   2.398   1.385   9.194 -2.0068 -0.7324  0.8902
 4583SOL    HW225212   2.389   1.238   9.168  1.8628  0.9933 -2.0451
 4584SOL     OW25213   0.362   2.066   1.812 -0.3628  0.5265 -0.2546
 4584SOL    HW125214   0.350   2.137   1.876 -0.5300 -1.2523  1.6876
 4584SOL    HW225215   0.291   2.010   1.843 -0.2485 -0.1142 -1.1664
 4585SOL     OW25216   3.932   1.527  16.093 -0.3699 -0.2837 -0.1428
 4585SOL    HW125217   3.957   1.469  16.165 -5.2679  0.0622  1.8094
 4585SOL    HW225218   3.839   1.541  16.109 -0.8883 -3.6879 -0.0507
 4586SOL     OW25219   1.663   1.092   3.359 -0.2341  0.0883 -0.1814
 4586SOL    HW125220   1.708   1.176   3.366 -1.3215  0.7085 -0.5236
 4586SOL    HW225221   1.718   1.027   3.403 -1.0705 -1.7597 -1.8426
 4587SOL     OW25222   3.499   1.907   2.277 -0.6531  0.7945 -0.0873
 4587SOL    HW125223   3.460   1.950   2.200  2.0701  2.8207 -0.3673
 4587SOL    HW225224   3.424   1.867   2.321 -0.7439 -1.1878 -2.0394
 4588SOL     OW25225   0.634   3.635   6.613  0.0276  0.0821  0.0233
 4588SOL    HW125226   0.609   3.684   6.691 -2.1951 -2.2671  0.7694
 4588SOL    HW225227   0.570   3.678   6.556 -1.1114 -1.0015  0.4883
 4589SOL     OW25228   2.519   2.321   6.172 -0.2121  0.3817 -0.2654
 4589SOL    HW125229   2.532   2.375   6.094 -1.2555 -0.1747 -0.8143
 4589SOL    HW225230   2.427   2.297   6.168 -0.6069  1.5314  1.7329
 4590SOL     OW25231   4.351   2.592  16.143 -0.1222 -0.4947 -0.0012
 4590SOL    HW125232   4.435   2.639  16.138  0.7117 -1.9613  0.1222
 4590SOL    HW225233   4.310   2.633  16.066 -1.8152 -1.8117  0.2194
 4591SOL     OW25234   3.049   2.407  13.716 -0.0311 -0.3184 -0.5244
 4591SOL    HW125235   3.123   2.451  13.674  0.0329 -0.8732 -1.0022
 4591SOL    HW225236   3.089   2.320  13.726 -0.0691 -0.6157 -2.8872
 4592SOL     OW25237   3.375   4.290  15.429  0.5026  0.6462 -0.2945
 4592SOL    HW125238   3.362   4.201  15.460  0.8128 -0.1647 -2.4694
 4592SOL    HW225239   3.454   4.304  15.482 -0.1156  0.1879  0.7405
 4593SOL     OW25240   4.719   2.836   4.602 -0.6491  0.2497 -0.1519
 4593SOL    HW125241   4.662   2.873   4.669 -0.3848  1.7594 -0.7649
 4593SOL    HW225242   4.661   2.773   4.559  0.5961 -0.3992 -0.9021
 4594SOL     OW25243   0.395   0.915   3.483 -0.0592  0.2172  0.3392
 4594SOL    HW125244   0.473   0.865   3.460  0.5271  0.2703  2.2202
 4594SOL    HW225245   0.374   0.972   3.408  0.9658  0.2893  0.1026
 4595SOL     OW25246   2.559   0.716   5.040 -0.2162  0.0143 -0.2491
 4595SOL    HW125247   2.538   0.631   5.078 -1.6317  0.9478  1.0850
 4595SOL    HW225248   2.552   0.781   5.110  0.7541 -0.8405  0.6527
 4596SOL     OW25249   1.048   3.970   5.506 -0.7731  0.9465  0.1486
 4596SOL    HW125250   1.122   4.029   5.518 -0.4834  0.8089 -1.0192
 4596SOL    HW225251   0.989   4.039   5.476 -0.6025 -0.3683 -3.2139
 4597SOL     OW25252   3.378   3.449  14.598 -0.3508  0.0227  0.8616
 4597SOL    HW125253   3.377   3.354  14.609 -0.0941 -0.2612 -1.4571
 4597SOL    HW225254   3.469   3.467  14.623 -0.0731  0.7593 -0.6773
 4598SOL     OW25255   1.865   1.675  10.980  0.2237  0.8875  0.2452
 4598SOL    HW125256   1.833   1.745  11.037 -2.1730 -2.1039  2.5613
 4598SOL    HW225257   1.788   1.664  10.924  1.5242 -1.5558 -1.0424
 4599SOL     OW25258   3.936   1.066  11.956 -0.3538 -0.5261 -0.5593
 4599SOL    HW125259   3.944   1.161  11.950 -0.0786 -0.7238 -3.0723
 4599SOL    HW225260   3.998   1.029  11.893 -0.9451 -0.7847 -0.9858
 4600SOL     OW25261   3.929   1.651   5.608  0.5795  0.3498 -0.2394
 4600SOL    HW125262   3.835   1.661   5.591  0.9962 -0.3673 -2.9864
 4600SOL    HW225263   3.960   1.627   5.521  1.7041 -0.5626  0.4110
 4601SOL     OW25264   2.139   4.699  10.955  0.0922 -0.5520  0.5993
 4601SOL    HW125265   2.179   0.059  10.974 -0.6685 -0.5422  2.0948
 4601SOL    HW225266   2.082   0.002  10.883 -3.7553 -1.5304  3.2905
 4602SOL     OW25267   2.433   0.252  13.311  0.2024  0.0270 -0.0634
 4602SOL    HW125268   2.453   0.314  13.241 -0.9301  1.6358  1.0360
 4602SOL    HW225269   2.476   0.183  13.261  2.2743  3.1752 -2.7062
 4603SOL     OW25270   3.079   3.077   4.977 -0.0760 -0.4906 -0.2177
 4603SOL    HW125271   3.040   2.998   5.016 -1.7548 -0.7963 -2.5713
 4603SOL    HW225272   3.170   3.077   5.007 -0.1826  0.5204  0.0803
 4604SOL     OW25273   3.733   1.692   0.198  0.0200  0.6658 -0.0256
 4604SOL    HW125274   3.684   1.745   0.260 -0.6043  1.7013 -1.4155
 4604SOL    HW225275   3.816   1.738   0.183  1.6162 -1.9178  0.9049
 4605SOL     OW25276   2.295   4.069   4.376 -0.2028  1.0201 -0.5737
 4605SOL    HW125277   2.286   4.163   4.365 -0.1586  0.9120 -1.5386
 4605SOL    HW225278   2.376   4.037   4.337 -1.4072  0.1126 -2.3539
 4606SOL     OW25279   1.725   4.135   8.415 -0.1650 -0.4603 -0.0800
 4606SOL    HW125280   1.762   4.221   8.436 -1.6338  0.0174  0.5675
 4606SOL    HW225281   1.787   4.075   8.456 -0.6603 -0.3806  0.7800
 4607SOL     OW25282   0.683   1.753  17.168  0.0652 -0.4310 -0.1799
 4607SOL    HW125283   0.666   1.660  17.152 -0.7402 -0.4146  0.6079
 4607SOL    HW225284   0.768   1.754  17.124  0.0186 -2.9765 -0.3125
 4608SOL     OW25285   1.825   3.734  13.943 -0.0244  0.3203  0.2205
 4608SOL    HW125286   1.876   3.652  13.942  1.0235  0.9795 -0.1483
 4608SOL    HW225287   1.819   3.758  14.035  1.5833 -0.3973  0.5072
 4609SOL     OW25288   1.601   1.878   2.878 -0.5037  0.4259  0.2239
 4609SOL    HW125289   1.640   1.833   2.954 -2.5964 -1.1849  0.3313
 4609SOL    HW225290   1.660   1.853   2.806  1.2841  1.0082  1.4774
 4610SOL     OW25291   1.242   0.927   6.281  0.5340 -0.1286 -0.4540
 4610SOL    HW125292   1.162   0.875   6.273  0.5196 -0.0122 -1.0828
 4610SOL    HW225293   1.216   0.986   6.352 -1.4200 -0.2765 -1.0419
 4611SOL     OW25294   3.225   4.621   4.835 -0.1499 -0.6002  0.2340
 4611SOL    HW125295   3.210   4.536   4.793 -2.0752 -0.7579  1.2402
 4611SOL    HW225296   3.186   4.607   4.921 -1.6241 -0.3448 -0.3895
 4612SOL     OW25297   1.695   2.995   3.289  0.4902  0.0723 -0.0514
 4612SOL    HW125298   1.606   3.007   3.258  0.5017 -0.2247 -0.1951
 4612SOL    HW225299   1.742   3.015   3.207  3.0276  0.6147  1.5281
 4613SOL     OW25300   4.053   2.731   7.492  0.0891  0.2095 -0.4843
 4613SOL    HW125301   4.022   2.655   7.541  1.4301  0.3911  0.6589
 4613SOL    HW225302   4.026   2.709   7.403 -0.1322 -3.1037  0.4220
 4614SOL     OW25303   1.383   3.458   9.528  0.5131 -0.1266  0.0167
 4614SOL    HW125304   1.300   3.415   9.551  1.3742 -1.9450 -0.2669
 4614SOL    HW225305   1.450   3.391   9.540  1.4182  0.8120  0.2040
 4615SOL     OW25306   2.822   0.422   1.758 -0.2298  0.2503 -0.3730
 4615SOL    HW125307   2.806   0.497   1.816 -0.5282 -0.6414  0.6968
 4615SOL    HW225308   2.818   0.464   1.672 -1.6372 -1.1646 -0.9874
 4616SOL     OW25309   0.143   4.617   7.599  0.1716  0.7021 -0.3684
 4616SOL    HW125310   0.185   4.532   7.585  2.4248  1.8087 -0.3275
 4616SOL    HW225311   0.159   4.638   7.691  1.7763  0.7470 -0.6558
 4617SOL     OW25312   3.289   3.214  11.491  0.4189  0.5920  0.4651
 4617SOL    HW125313   3.341   3.160  11.431  0.3554  1.9800 -0.8133
 4617SOL    HW225314   3.270   3.172  11.575 -3.4721 -1.5650 -1.4805
 4618SOL     OW25315   2.104   1.190   7.902 -0.3045 -0.0538  0.2283
 4618SOL    HW125316   2.175   1.137   7.939  0.2015  1.3636  1.2854
 4618SOL    HW225317   2.022   1.143   7.915  0.4399 -1.9821 -1.9405
 4619SOL     OW25318   0.057   1.045  12.465  0.3444  0.7884 -0.4044
 4619SOL    HW125319   4.720   0.973  12.448  1.8029 -0.3976 -0.6449
 4619SOL    HW225320   0.008   1.077  12.540  0.6682 -0.5627  0.3884
 4620SOL     OW25321   1.536   1.628   1.474 -0.4085  0.0523 -0.3477
 4620SOL    HW125322   1.455   1.679   1.471 -0.0484  0.6116 -0.4056
 4620SOL    HW225323   1.521   1.564   1.544  0.7489 -1.7103 -1.6876
 4621SOL     OW25324   3.501   1.905   9.603  0.1378 -0.5017 -0.1675
 4621SOL    HW125325   3.577   1.956   9.630 -1.5421  2.1183 -0.3483
 4621SOL    HW225326   3.536   1.819   9.623  1.3680  0.3503  1.3008
 4622SOL     OW25327   0.842   1.557   5.901  0.1666  0.0552  0.1976
 4622SOL    HW125328   0.806   1.526   5.818 -0.6660 -0.8969  0.9167
 4622SOL    HW225329   0.794   1.493   5.953 -0.3344 -0.6587 -1.1368
 4623SOL     OW25330   2.469   3.788   5.724  0.4235 -0.3304  0.1338
 4623SOL    HW125331   2.490   3.702   5.761  0.6381  0.1219  1.0713
 4623SOL    HW225332   2.385   3.761   5.688  0.5052 -0.8119  0.3007
 4624SOL     OW25333   1.217   2.080  13.345  0.6506 -0.1555 -0.5260
 4624SOL    HW125334   1.180   2.042  13.266 -2.6698  1.1247  0.4382
 4624SOL    HW225335   1.209   2.004  13.404  1.7641 -1.8722 -2.5811
 4625SOL     OW25336   3.448   0.060   1.498 -0.4886  0.3300 -0.7765
 4625SOL    HW125337   3.453   0.149   1.533 -1.4045 -0.9245  2.5504
 4625SOL    HW225338   3.539   0.029   1.491 -0.7096 -1.2588  3.4013
 4626SOL     OW25339   1.037   2.486   5.736  0.3189 -0.2779 -0.1252
 4626SOL    HW125340   1.112   2.543   5.719  0.9571 -1.1731 -0.3209
 4626SOL    HW225341   1.071   2.396   5.739  0.0258 -0.3401  1.2577
 4627SOL     OW25342   0.720   1.336  13.437  0.2146 -0.5518 -0.5287
 4627SOL    HW125343   0.755   1.257  13.396  0.8919 -0.5837  0.1049
 4627SOL    HW225344   0.764   1.349  13.521 -0.5219 -0.2592 -0.1939
 4628SOL     OW25345   3.505   2.405   9.048 -0.3610  0.3388 -0.6091
 4628SOL    HW125346   3.530   2.321   9.086  0.1228 -0.4481 -2.6650
 4628SOL    HW225347   3.411   2.414   9.060  0.3462  2.4883  3.4164
 4629SOL     OW25348   4.435   1.719   4.469 -0.6313 -0.3740  0.2621
 4629SOL    HW125349   4.465   1.689   4.555 -0.5894 -0.2434  0.2934
 4629SOL    HW225350   4.397   1.639   4.432 -1.1235  0.7681 -1.6719
 4630SOL     OW25351   2.330   2.662   7.925 -0.0256  0.4352  0.0217
 4630SOL    HW125352   2.241   2.654   7.891  0.1376  1.9525 -0.7483
 4630SOL    HW225353   2.380   2.728   7.877 -0.1959 -1.0345 -2.1596
 4631SOL     OW25354   3.990   2.217  13.288 -0.6911  0.3766  0.3507
 4631SOL    HW125355   4.051   2.277  13.332 -1.0195  0.1579  1.1028
 4631SOL    HW225356   3.921   2.230  13.352 -0.7320 -0.8271  0.5412
 4632SOL     OW25357   3.188   4.310   5.478  0.0410  0.2806  0.1984
 4632SOL    HW125358   3.144   4.263   5.407 -1.1713  0.4872  0.8215
 4632SOL    HW225359   3.216   4.390   5.432  2.7282 -0.3084  0.7796
 4633SOL     OW25360   0.990   4.720  15.473  0.4211  0.0985  0.1899
 4633SOL    HW125361   0.999   0.038  15.388 -2.7456 -1.4232 -0.9182
 4633SOL    HW225362   1.066   4.663  15.473  0.0187 -0.4466  1.4929
 4634SOL     OW25363   1.674   1.638   4.347  0.0864  0.5615 -0.2602
 4634SOL    HW125364   1.649   1.569   4.408 -1.8070  0.2011 -1.4643
 4634SOL    HW225365   1.701   1.587   4.271  1.9102 -0.1255  0.8330
 4635SOL     OW25366   2.143   1.262  16.304 -0.2909  0.0957 -0.4337
 4635SOL    HW125367   2.219   1.229  16.255  1.6026  1.9984  1.2544
 4635SOL    HW225368   2.132   1.189  16.364 -1.9150  1.0682  0.4379
 4636SOL     OW25369   0.337   0.309   5.845  0.2852 -0.1492  0.0441
 4636SOL    HW125370   0.374   0.340   5.763 -0.4949 -1.4044 -0.7896
 4636SOL    HW225371   0.399   0.345   5.909  0.1368  2.1161 -1.0857
 4637SOL     OW25372   0.818   4.171   4.851 -0.6153 -0.5592  0.4549
 4637SOL    HW125373   0.838   4.108   4.782 -0.7848 -0.9036  0.7229
 4637SOL    HW225374   0.790   4.116   4.924 -3.7213  0.3713 -0.0407
 4638SOL     OW25375   2.573   3.976   7.570  0.0852 -0.1125  0.1248
 4638SOL    HW125376   2.593   3.883   7.562 -0.6988 -0.2183 -0.5571
 4638SOL    HW225377   2.537   3.980   7.658 -0.1125 -0.1373  0.0436
 4639SOL     OW25378   3.622   0.707   9.044 -0.6518 -0.1565  0.2795
 4639SOL    HW125379   3.566   0.739   9.115 -1.0961  0.7909 -0.5034
 4639SOL    HW225380   3.666   0.787   9.016  1.1130 -1.5300 -0.8607
 4640SOL     OW25381   4.517   2.218   3.630  0.0458  0.2678 -0.2729
 4640SOL    HW125382   4.494   2.149   3.693  0.5630  0.5035  0.1702
 4640SOL    HW225383   4.534   2.294   3.686 -2.1042 -0.6839  1.6853
 4641SOL     OW25384   4.667   2.393  10.220 -0.1596 -0.2160  0.1448
 4641SOL    HW125385   0.001   2.404  10.145 -0.5861  1.7902  0.1102
 4641SOL    HW225386   4.710   2.322  10.267 -0.3939 -0.9094 -0.6933
 4642SOL     OW25387   0.555   4.713  14.157  0.0256  0.0736  0.2535
 4642SOL    HW125388   0.643   4.683  14.180 -1.3904 -1.6563  3.3604
 4642SOL    HW225389   0.563   0.081  14.180  1.7373  0.3679 -1.4591
 4643SOL     OW25390   0.677   1.030   2.142 -0.2371  0.6237 -0.2547
 4643SOL    HW125391   0.658   0.949   2.189  1.6691  0.0196 -0.5267
 4643SOL    HW225392   0.672   1.100   2.206 -2.2317 -0.8249  1.1971
 4644SOL     OW25393   0.798   1.545   1.301  0.0114 -0.2950  0.2149
 4644SOL    HW125394   0.877   1.497   1.279  1.0433  0.8004  1.5413
 4644SOL    HW225395   0.817   1.631   1.263  1.2662  0.0221  1.5698
 4645SOL     OW25396   3.554   2.498  10.592 -0.1078 -0.1628 -0.6322
 4645SOL    HW125397   3.460   2.483  10.587 -0.1713 -0.0505  0.3932
 4645SOL    HW225398   3.548   2.594  10.594  2.6641 -0.0315  1.9409
 4646SOL     OW25399   2.092   0.813  13.960 -0.3779  0.5243  0.1209
 4646SOL    HW125400   2.064   0.737  13.910 -1.3810 -0.5696  2.3771
 4646SOL    HW225401   2.113   0.876  13.890  2.0670 -0.1564  0.2204
 4647SOL     OW25402   4.180   4.514  12.732  0.2852  0.0380 -0.3104
 4647SOL    HW125403   4.213   4.453  12.798 -3.0240 -0.0108  1.2852
 4647SOL    HW225404   4.138   4.444  12.682 -0.1785 -0.4613  0.7841
 4648SOL     OW25405   4.163   1.921   6.044 -0.0295 -0.0819 -0.1008
 4648SOL    HW125406   4.231   1.974   6.001  1.4155 -1.7654  0.1187
 4648SOL    HW225407   4.094   1.930   5.979 -0.1508 -0.6809 -0.0559
 4649SOL     OW25408   2.846   4.052   3.550 -0.3090  0.6387 -0.1458
 4649SOL    HW125409   2.804   4.108   3.615 -1.3912  1.0262 -1.1931
 4649SOL    HW225410   2.890   3.987   3.605 -1.2497 -1.2637 -1.6353
 4650SOL     OW25411   3.548   3.201   9.898 -0.0423  0.0868  0.2330
 4650SOL    HW125412   3.600   3.208   9.818 -1.2021 -1.9599 -0.7066
 4650SOL    HW225413   3.470   3.163   9.858  0.1437  0.0566 -0.1006
 4651SOL     OW25414   3.254   0.811   3.157 -0.1977  0.1384 -0.4922
 4651SOL    HW125415   3.160   0.819   3.144 -0.5056  0.3355  1.8810
 4651SOL    HW225416   3.257   0.830   3.251  0.5653 -0.6857 -0.3478
 4652SOL     OW25417   1.426   0.873  10.785  0.0593 -0.3879  0.0320
 4652SOL    HW125418   1.493   0.831  10.839 -1.7172 -0.5040  2.1277
 4652SOL    HW225419   1.391   0.798  10.738  2.5954 -0.8730 -1.0711
 4653SOL     OW25420   1.160   1.814   3.717  0.6768 -0.1128 -0.0136
 4653SOL    HW125421   1.083   1.794   3.663  2.4569 -0.4548 -2.4019
 4653SOL    HW225422   1.207   1.731   3.704 -0.9278 -1.0522  0.1313
 4654SOL     OW25423   3.148   3.416   5.388  0.1820 -0.1921 -0.0202
 4654SOL    HW125424   3.083   3.479   5.358 -2.1785 -1.3268  2.8023
 4654SOL    HW225425   3.218   3.482   5.390  0.5364 -0.6209  1.8488
 4655SOL     OW25426   2.000   4.341   7.781  0.1332  0.6378 -0.3414
 4655SOL    HW125427   1.959   4.296   7.707 -0.9554 -0.7533  1.0890
 4655SOL    HW225428   2.030   4.268   7.836 -0.2948 -0.4584 -1.5736
 4656SOL     OW25429   1.910   0.858   0.851  0.0075 -0.3342  0.1899
 4656SOL    HW125430   1.943   0.880   0.938 -2.8968  0.3923  1.1362
 4656SOL    HW225431   1.894   0.764   0.860 -1.4737 -0.2319 -1.2695
 4657SOL     OW25432   0.427   1.087  14.390 -0.5699 -0.0295 -0.1053
 4657SOL    HW125433   0.379   1.017  14.436  0.9032 -1.9979 -1.5816
 4657SOL    HW225434   0.464   1.035  14.319 -0.5692 -1.3280  0.8410
 4658SOL     OW25435   0.093   3.906  10.740  0.3676  0.6584 -0.1708
 4658SOL    HW125436   0.130   3.979  10.691  0.9553 -1.3335 -2.6649
 4658SOL    HW225437   0.018   3.883  10.686  0.7046 -0.3915 -0.1887
 4659SOL     OW25438   1.151   3.553   8.866 -0.6064 -0.1451 -0.0866
 4659SOL    HW125439   1.242   3.525   8.854 -0.4632 -0.2275  1.1852
 4659SOL    HW225440   1.139   3.508   8.950  2.1673 -1.4391 -0.4105
 4660SOL     OW25441   3.713   1.204   2.479 -0.1897 -0.1762  0.0161
 4660SOL    HW125442   3.771   1.222   2.553  1.7561  1.2700 -1.9020
 4660SOL    HW225443   3.772   1.228   2.408  1.4780 -1.0219  1.1096
 4661SOL     OW25444   2.859   3.555  16.058  0.4217 -0.1275 -0.0987
 4661SOL    HW125445   2.917   3.505  16.001 -1.1414 -1.6094 -0.3730
 4661SOL    HW225446   2.820   3.493  16.120 -0.0146  1.4978  1.2602
 4662SOL     OW25447   3.263   4.233   3.751 -0.1041  0.1316  0.1737
 4662SOL    HW125448   3.336   4.260   3.695 -0.3051  0.1775 -0.0652
 4662SOL    HW225449   3.201   4.202   3.685 -1.7364  4.6041 -0.3574
 4663SOL     OW25450   3.106   1.656  15.590  0.1025 -0.4864  0.2614
 4663SOL    HW125451   3.187   1.701  15.611 -1.4429  1.2529  2.5548
 4663SOL    HW225452   3.084   1.635  15.681  0.5067  1.3930  0.7768
 4664SOL     OW25453   4.121   4.331   0.873  0.2749  0.2151 -0.3935
 4664SOL    HW125454   4.176   4.268   0.919 -0.5679  0.1539  0.5212
 4664SOL    HW225455   4.059   4.340   0.946  1.1584  1.4457  0.2086
 4665SOL     OW25456   3.070   0.707   0.489  0.3474  0.4508 -0.3611
 4665SOL    HW125457   3.120   0.788   0.494 -0.2047  0.6813  1.2791
 4665SOL    HW225458   3.085   0.666   0.404 -2.4221 -0.4320 -0.4360
 4666SOL     OW25459   3.563   2.365  13.449  0.5150  0.2186 -0.4147
 4666SOL    HW125460   3.524   2.365  13.537 -0.1707 -0.0845 -0.7268
 4666SOL    HW225461   3.501   2.416  13.398 -0.4415  2.4046  2.8943
 4667SOL     OW25462   2.555   1.579   0.676 -0.6718  0.2271 -0.4111
 4667SOL    HW125463   2.610   1.657   0.675 -0.4812  0.1111  1.1110
 4667SOL    HW225464   2.586   1.519   0.608 -1.0529 -0.5442  0.0888
 4668SOL     OW25465   3.194   0.321   1.161  0.4966  0.1083  0.6102
 4668SOL    HW125466   3.148   0.278   1.088 -0.0202  0.2018  0.8854
 4668SOL    HW225467   3.280   0.330   1.121  1.3217 -2.8156  1.7657
 4669SOL     OW25468   2.617   3.797   4.150 -0.2603 -0.0992  0.1019
 4669SOL    HW125469   2.658   3.744   4.082  0.0712 -0.6761  0.7590
 4669SOL    HW225470   2.685   3.778   4.214  0.0763  1.0338  0.0756
 4670SOL     OW25471   4.298   0.087  14.510 -0.4951  0.4386 -0.0993
 4670SOL    HW125472   4.376   0.070  14.457 -1.0156  3.8175 -1.9490
 4670SOL    HW225473   4.238   0.116  14.440  0.5291  1.0838 -0.7123
 4671SOL     OW25474   0.535   0.246   0.394  0.1486  0.1199  0.2484
 4671SOL    HW125475   0.585   0.164   0.390 -2.5560 -1.5982  0.9886
 4671SOL    HW225476   0.556   0.273   0.483 -0.6862 -1.0312  0.7993
 4672SOL     OW25477   0.806   2.781   3.431 -0.0406 -0.4811  0.2711
 4672SOL    HW125478   0.739   2.832   3.386 -1.0113 -1.6650  0.3873
 4672SOL    HW225479   0.838   2.722   3.362  1.3639 -0.8219  1.2108
 4673SOL     OW25480   3.157   1.347   7.103  0.2615 -0.3216 -0.1481
 4673SOL    HW125481   3.072   1.378   7.071  1.0320  1.5004 -0.4021
 4673SOL    HW225482   3.129   1.297   7.180 -2.4288  0.7095 -0.4561
 4674SOL     OW25483   4.160   1.032   5.331 -0.1921 -0.0259  0.6945
 4674SOL    HW125484   4.157   1.034   5.236  0.9124 -1.3148  0.6315
 4674SOL    HW225485   4.201   0.950   5.359  0.2846 -0.2694 -0.7224
 4675SOL     OW25486   3.755   3.881  11.992  0.2213  0.2397 -0.0108
 4675SOL    HW125487   3.735   3.883  12.086  2.1637 -0.0311  0.4254
 4675SOL    HW225488   3.811   3.804  11.979 -0.4459 -0.7280  2.6864
 4676SOL     OW25489   0.493   3.562   7.176 -0.0331 -1.0586  0.0187
 4676SOL    HW125490   0.574   3.522   7.145 -0.0999 -0.9502 -0.3047
 4676SOL    HW225491   0.430   3.501   7.135  0.5720 -2.9520  1.9268
 4677SOL     OW25492   0.103   3.718  16.601 -0.4523 -0.2634  0.2666
 4677SOL    HW125493   0.134   3.695  16.513 -1.6018 -0.5253 -0.0791
 4677SOL    HW225494   0.013   3.685  16.597 -0.7977  0.8233 -1.0876
 4678SOL     OW25495   0.351   4.544   4.594  0.4358 -0.7685 -0.6580
 4678SOL    HW125496   0.370   4.558   4.501  2.1147 -2.0620 -0.5142
 4678SOL    HW225497   0.440   4.522   4.622  0.7400  1.2089 -0.0542
 4679SOL     OW25498   1.561   1.435   6.884 -0.0978 -0.0407 -0.8996
 4679SOL    HW125499   1.523   1.439   6.797 -2.7699  0.7373  0.2802
 4679SOL    HW225500   1.653   1.443   6.862  0.3949 -1.1821  0.7620
 4680SOL     OW25501   3.975   4.707   8.086 -0.5294 -0.2943 -0.1205
 4680SOL    HW125502   4.067   4.722   8.063 -0.4688 -0.7554 -0.1815
 4680SOL    HW225503   3.966   0.027   8.170  0.7552  0.4045 -0.3509
 4681SOL     OW25504   3.397   2.018  13.562 -0.4447 -0.5709  0.3611
 4681SOL    HW125505   3.485   2.025  13.523 -1.4294  0.7377 -1.6429
 4681SOL    HW225506   3.358   2.069  13.491 -0.6892 -0.9409  0.2363
 4682SOL     OW25507   3.626   0.303   2.140 -0.1507  0.3630  0.0302
 4682SOL    HW125508   3.701   0.250   2.168 -1.0520 -1.3135 -0.6968
 4682SOL    HW225509   3.648   0.386   2.181  1.9581  0.5929 -1.5394
 4683SOL     OW25510   0.202   0.329   4.898 -0.2326  0.3244  0.8057
 4683SOL    HW125511   0.253   0.381   4.961  1.0455 -0.1283  0.1510
 4683SOL    HW225512   0.187   0.395   4.830  0.8737 -0.1980  0.0490
 4684SOL     OW25513   3.685   0.650   2.952  0.5951 -0.0568  0.3238
 4684SOL    HW125514   3.600   0.682   2.921  0.6245 -0.1450  0.1544
 4684SOL    HW225515   3.737   0.730   2.960 -0.7001  0.9881 -1.6740
 4685SOL     OW25516   3.061   4.156   9.875  0.4565 -0.1328 -0.0413
 4685SOL    HW125517   3.148   4.119   9.888  1.1691  0.1397 -3.9768
 4685SOL    HW225518   3.062   4.233   9.933 -0.7582 -0.6113  0.6127
 4686SOL     OW25519   1.870   2.333  16.714 -0.2916  0.2675 -0.1938
 4686SOL    HW125520   1.876   2.245  16.750 -1.3453  0.0663 -0.4878
 4686SOL    HW225521   1.955   2.346  16.674 -0.8645  2.6734 -0.6740
 4687SOL     OW25522   4.200   1.740   8.061  0.2555  0.6771 -0.1310
 4687SOL    HW125523   4.225   1.809   8.000  2.3332  0.1209  0.0892
 4687SOL    HW225524   4.193   1.792   8.141 -1.1967 -0.3906  0.4450
 4688SOL     OW25525   0.095   3.765   7.169  0.0838  0.0098 -0.3881
 4688SOL    HW125526   0.010   3.792   7.134 -0.7870 -0.8255  1.0557
 4688SOL    HW225527   0.098   3.831   7.238 -0.5360  0.5317 -0.8617
 4689SOL     OW25528   3.369   3.195   2.400  0.2385 -0.2209  0.2353
 4689SOL    HW125529   3.388   3.286   2.426  1.2879 -0.0397 -1.1569
 4689SOL    HW225530   3.292   3.203   2.344 -0.8948 -4.0125  1.2449
 4690SOL     OW25531   1.487   1.192   0.942 -0.6976  0.0563 -0.3830
 4690SOL    HW125532   1.412   1.133   0.933 -1.7347  0.8281  3.2221
 4690SOL    HW225533   1.554   1.123   0.945  1.2151  1.9113 -0.5400
 4691SOL     OW25534   2.359   1.084  15.357 -0.1476  0.2575  0.4861
 4691SOL    HW125535   2.299   1.097  15.430 -1.6740  1.7435 -1.0283
 4691SOL    HW225536   2.421   1.155  15.373  1.2355  0.1568 -4.5933
 4692SOL     OW25537   0.738   4.562   1.705 -0.5484 -0.0264 -0.1099
 4692SOL    HW125538   0.661   4.618   1.715 -0.8206 -0.3330 -0.4572
 4692SOL    HW225539   0.720   4.545   1.613  2.2208  0.7105 -0.7681
 4693SOL     OW25540   2.321   1.936   4.582  0.1356 -0.0977  0.2490
 4693SOL    HW125541   2.391   1.886   4.623  0.4060 -0.8321 -1.1132
 4693SOL    HW225542   2.262   1.865   4.556 -2.3315  1.5454  1.4070
 4694SOL     OW25543   2.628   3.719   3.409  0.7601 -0.0663  0.2395
 4694SOL    HW125544   2.542   3.759   3.420  1.0944  0.5818  0.4557
 4694SOL    HW225545   2.656   3.766   3.330  0.9629  1.2360  1.0937
 4695SOL     OW25546   0.350   3.371  10.601 -0.2977  0.4420 -0.5422
 4695SOL    HW125547   0.363   3.359  10.695  0.5702 -1.1276 -0.8664
 4695SOL    HW225548   0.390   3.458  10.595 -0.1968  0.5343  1.3602
 4696SOL     OW25549   4.421   1.371   8.844  0.2709 -0.1771  0.2216
 4696SOL    HW125550   4.445   1.388   8.935  1.1675  0.3149 -0.1118
 4696SOL    HW225551   4.383   1.455   8.819 -2.2704 -0.5799  2.6142
 4697SOL     OW25552   1.068   3.936   3.971  0.5652  0.4423 -0.0583
 4697SOL    HW125553   1.126   3.982   3.910  0.2179 -0.9326 -1.4415
 4697SOL    HW225554   0.994   3.996   3.977  0.3239 -0.2904  3.7245
 4698SOL     OW25555   0.993   3.621  15.699  0.2967  0.2384 -0.2495
 4698SOL    HW125556   1.064   3.642  15.759 -0.3053  1.3275  0.0772
 4698SOL    HW225557   0.934   3.669  15.757  0.3309 -0.2054  0.1506
 4699SOL     OW25558   3.013   2.965   6.562  0.1896 -0.3816 -0.0188
 4699SOL    HW125559   2.991   3.003   6.647  0.0189 -0.3267 -0.0861
 4699SOL    HW225560   2.967   2.882   6.572  0.5554 -0.4241  1.2113
 4700SOL     OW25561   3.466   0.552   0.119  0.0878  0.3561  0.1937
 4700SOL    HW125562   3.416   0.626   0.154  2.1310  2.6807 -1.7526
 4700SOL    HW225563   3.511   0.518   0.196 -1.1619  0.5365  1.0023
 4701SOL     OW25564   3.505   3.175   2.684  0.1982 -0.7471  0.7204
 4701SOL    HW125565   3.479   3.182   2.592 -0.6640  0.2154  1.0321
 4701SOL    HW225566   3.435   3.230   2.719  1.2527  1.5573 -0.7978
 4702SOL     OW25567   1.627   2.555   8.235  0.5190 -0.2864 -0.4725
 4702SOL    HW125568   1.715   2.581   8.209  0.4334  1.5211  1.0410
 4702SOL    HW225569   1.622   2.559   8.331  0.4108 -0.9506 -0.4477
 4703SOL     OW25570   3.857   2.599  10.868  0.1550 -0.1765  0.0403
 4703SOL    HW125571   3.801   2.639  10.935  0.6618  1.0682 -0.2805
 4703SOL    HW225572   3.807   2.566  10.793 -2.2727  2.0663  0.6284
 4704SOL     OW25573   3.192   1.761  14.554  0.1025 -0.2166 -0.0539
 4704SOL    HW125574   3.100   1.734  14.545 -0.2763  0.6331  1.1778
 4704SOL    HW225575   3.181   1.855  14.538 -1.1902 -0.2089  0.8690
 4705SOL     OW25576   0.270   0.791   6.728 -0.5651 -0.4968  0.0244
 4705SOL    HW125577   0.357   0.753   6.735 -0.5105 -0.0673  1.5919
 4705SOL    HW225578   0.233   0.722   6.782  0.3711 -0.6920  0.4162
 4706SOL     OW25579   1.862   0.359   3.854 -0.1166  0.1863 -0.0397
 4706SOL    HW125580   1.782   0.327   3.813 -1.0233  2.9133 -0.3801
 4706SOL    HW225581   1.872   0.315   3.938 -1.4363 -2.0553 -1.0770
 4707SOL     OW25582   2.541   0.040   5.159  0.7745  0.1109 -0.0123
 4707SOL    HW125583   2.585   0.015   5.240 -0.1231 -1.5127 -0.0322
 4707SOL    HW225584   2.453   0.040   5.195  0.7954 -0.4911  0.0252
 4708SOL     OW25585   2.496   1.235  15.901  0.0075 -0.6494  0.3945
 4708SOL    HW125586   2.460   1.244  15.812 -1.3263 -0.1669  0.9723
 4708SOL    HW225587   2.520   1.143  15.909 -0.1622 -0.5431  2.0707
 4709SOL     OW25588   1.543   1.260   5.804 -0.0092 -0.2288  0.4364
 4709SOL    HW125589   1.531   1.354   5.789 -4.2550 -0.9016 -0.5164
 4709SOL    HW225590   1.575   1.229   5.720 -0.7610 -1.3235  0.5510
 4710SOL     OW25591   4.302   4.482   6.511  0.0945  0.0229 -0.3550
 4710SOL    HW125592   4.258   4.399   6.528 -0.6468  0.3248 -0.8141
 4710SOL    HW225593   4.282   4.524   6.595 -0.8709 -0.9000 -0.1247
 4711SOL     OW25594   4.056   3.731   3.360  0.0638 -0.2490  0.1238
 4711SOL    HW125595   4.067   3.656   3.302  0.9896 -1.6282  2.1115
 4711SOL    HW225596   4.130   3.709   3.416 -0.1576  0.7056  0.7785
 4712SOL     OW25597   0.568   2.544   4.811  0.2404 -0.4069  0.4133
 4712SOL    HW125598   0.615   2.600   4.874 -1.3941 -0.4959  1.7077
 4712SOL    HW225599   0.571   2.457   4.850 -1.9481 -0.6500  0.0334
 4713SOL     OW25600   1.125   2.263   0.583  0.7457  0.2727  0.3709
 4713SOL    HW125601   1.106   2.301   0.669 -1.3472  0.9012 -0.3731
 4713SOL    HW225602   1.082   2.331   0.532  0.9465  1.1675  1.3945
 4714SOL     OW25603   1.263   3.975   5.787  0.0092  0.0828 -0.0530
 4714SOL    HW125604   1.229   4.000   5.701 -1.4801 -2.4340 -0.2163
 4714SOL    HW225605   1.350   3.944   5.762 -0.1104 -0.7403  0.5508
 4715SOL     OW25606   4.605   3.333   3.080 -0.3866  0.2241  0.0292
 4715SOL    HW125607   4.595   3.238   3.082 -1.5871  0.4182  2.6229
 4715SOL    HW225608   4.613   3.353   2.987  1.2984 -0.6092 -0.0114
 4716SOL     OW25609   0.475   3.901   2.186 -0.2741  0.2705  0.1441
 4716SOL    HW125610   0.409   3.832   2.185  0.1770 -0.1688  1.2021
 4716SOL    HW225611   0.502   3.909   2.095  1.7161 -0.3329  0.6841
 4717SOL     OW25612   3.676   4.581  10.540 -0.4247 -0.1833 -0.2357
 4717SOL    HW125613   3.757   4.608  10.496 -0.3651  2.3934  1.4826
 4717SOL    HW225614   3.699   4.546  10.626 -0.9579 -0.0594 -0.0428
 4718SOL     OW25615   1.471   0.443   3.708  0.5470 -0.0739  0.0637
 4718SOL    HW125616   1.485   0.527   3.751  0.0830  1.1896 -2.2612
 4718SOL    HW225617   1.454   0.392   3.787  0.9163  0.9302  0.7781
 4719SOL     OW25618   4.414   2.542   1.428 -0.1833  0.1302 -0.4989
 4719SOL    HW125619   4.330   2.570   1.465  1.1867  1.6969  1.4056
 4719SOL    HW225620   4.385   2.454   1.405  1.2583 -0.1838 -1.0839
 4720SOL     OW25621   1.330   3.361  16.310 -0.0747 -0.5490 -0.4085
 4720SOL    HW125622   1.291   3.274  16.309 -0.4424 -0.3908 -0.1886
 4720SOL    HW225623   1.416   3.350  16.270 -0.0130 -2.1301  0.1719
 4721SOL     OW25624   2.896   2.372   4.101 -0.1095  0.4447  0.0139
 4721SOL    HW125625   2.945   2.308   4.152 -3.2411 -0.9611  1.2349
 4721SOL    HW225626   2.964   2.435   4.074 -0.1292  0.5304  0.1627
 4722SOL     OW25627   0.397   1.868  12.210 -0.5022 -0.2574 -0.5456
 4722SOL    HW125628   0.370   1.924  12.282 -1.8137 -0.2683 -1.0228
 4722SOL    HW225629   0.482   1.907  12.191 -1.2132  1.8657  0.6844
 4723SOL     OW25630   3.746   3.059  16.020 -0.1066  0.0351 -0.1408
 4723SOL    HW125631   3.749   3.112  15.941 -2.4908  0.6896  0.2270
 4723SOL    HW225632   3.661   3.017  16.008 -0.1621  0.4815 -1.2061
 4724SOL     OW25633   1.089   2.635  14.641  0.0228 -0.4851  0.2538
 4724SOL    HW125634   1.106   2.659  14.731 -1.8292  2.5312 -0.1872
 4724SOL    HW225635   1.003   2.671  14.616  0.1003  1.0110  2.2169
 4725SOL     OW25636   1.163   1.000   3.342  0.2416  0.2509  0.1407
 4725SOL    HW125637   1.175   0.932   3.276 -2.4741  1.4611 -1.5977
 4725SOL    HW225638   1.252   1.032   3.359 -0.0963  2.3497 -1.9755
 4726SOL     OW25639   4.366   2.477   7.740 -0.1965 -0.2537  0.4710
 4726SOL    HW125640   4.417   2.438   7.669 -1.3882  0.1576 -0.6233
 4726SOL    HW225641   4.327   2.402   7.784  0.9825 -3.4720 -3.9650
 4727SOL     OW25642   1.606   1.238   6.680 -0.1958  0.1561 -0.0916
 4727SOL    HW125643   1.699   1.222   6.698  0.2338  2.2752 -0.4533
 4727SOL    HW225644   1.572   1.160   6.725  2.3425 -1.4951 -1.0361
 4728SOL     OW25645   0.531   3.170   3.371 -0.5693  0.2246  0.4581
 4728SOL    HW125646   0.612   3.207   3.405 -0.7325  2.6813 -1.8953
 4728SOL    HW225647   0.527   3.223   3.292 -2.2348  0.5616  0.7772
 4729SOL     OW25648   2.400   3.934   8.791  0.0234 -0.3997  0.5058
 4729SOL    HW125649   2.448   3.877   8.851  2.0827  0.5180 -0.2986
 4729SOL    HW225650   2.321   3.936   8.845 -0.8109 -1.4233 -0.6786
 4730SOL     OW25651   0.519   3.545   5.607 -0.8591  0.0458 -0.4581
 4730SOL    HW125652   0.558   3.631   5.588 -0.7601 -0.0361 -0.6291
 4730SOL    HW225653   0.480   3.570   5.691  0.4997 -1.1337  0.5408
 4731SOL     OW25654   2.855   0.921   7.571  0.0022 -0.5080 -0.2810
 4731SOL    HW125655   2.771   0.967   7.568 -0.3883 -1.3177 -1.4040
 4731SOL    HW225656   2.827   0.831   7.554 -1.5902 -0.1696  0.5040
 4732SOL     OW25657   0.721   2.741   1.346 -0.4966 -0.8236 -0.7322
 4732SOL    HW125658   0.756   2.750   1.435  2.0265  1.3793 -1.9417
 4732SOL    HW225659   0.805   2.710   1.311 -2.6949 -1.8232 -5.0539
 4733SOL     OW25660   2.307   1.245   8.873  0.6462 -0.1515 -0.2618
 4733SOL    HW125661   2.246   1.271   8.942 -2.0243  1.7529 -3.3565
 4733SOL    HW225662   2.385   1.301   8.879 -0.3633  1.1985  0.4339
 4734SOL     OW25663   2.625   3.031   3.881  0.4321 -0.0564  0.2818
 4734SOL    HW125664   2.572   2.952   3.884 -2.3557  1.7525 -1.1576
 4734SOL    HW225665   2.574   3.107   3.854  0.8036  0.2459  0.4194
 4735SOL     OW25666   2.946   0.636  10.606 -0.3809  0.1654 -0.0589
 4735SOL    HW125667   2.986   0.572  10.664  0.5621 -0.0199 -0.9132
 4735SOL    HW225668   2.869   0.663  10.656  0.0852 -0.1245  0.8085
 4736SOL     OW25669   2.414   1.666   5.049 -0.1307 -0.1323  0.2140
 4736SOL    HW125670   2.509   1.673   5.052 -0.1664  0.5805 -0.1570
 4736SOL    HW225671   2.407   1.675   5.144 -1.8836 -2.5985  0.3010
 4737SOL     OW25672   2.303   2.814   9.169 -0.1606 -0.4679  0.3801
 4737SOL    HW125673   2.222   2.765   9.151 -0.0169 -0.7727  0.5568
 4737SOL    HW225674   2.370   2.746   9.169  0.4629  0.1518  1.3639
 4738SOL     OW25675   4.505   4.214  14.836  0.3482  0.4724  0.2914
 4738SOL    HW125676   4.535   4.303  14.853  3.5425 -0.9188  2.0215
 4738SOL    HW225677   4.575   4.161  14.873 -0.5155 -0.8230  0.0613
 4739SOL     OW25678   2.491   3.174   7.289 -0.6078  0.7949  0.7511
 4739SOL    HW125679   2.442   3.104   7.245  1.2793  0.7357 -1.2472
 4739SOL    HW225680   2.578   3.136   7.303 -0.4059  0.1596 -2.2957
 4740SOL     OW25681   1.740   2.308  10.631  0.1722  0.2286 -0.3915
 4740SOL    HW125682   1.784   2.391  10.651 -0.8678  0.9075 -0.8878
 4740SOL    HW225683   1.684   2.338  10.559 -0.0337 -0.8099 -0.6532
 4741SOL     OW25684   0.242   3.453  11.682  0.2667  0.0660  0.4807
 4741SOL    HW125685   0.316   3.483  11.735  0.6014 -0.5527  0.3682
 4741SOL    HW225686   0.281   3.382  11.631 -0.8924 -0.8437  0.8605
 4742SOL     OW25687   2.273   2.707   4.611  0.0784  0.2160 -0.1670
 4742SOL    HW125688   2.301   2.616   4.612 -0.5518  0.0542  1.7804
 4742SOL    HW225689   2.219   2.713   4.532 -1.5027 -0.0497  0.8882
 4743SOL     OW25690   0.112   3.893   3.450  0.2049 -0.1592  0.4473
 4743SOL    HW125691   0.167   3.946   3.508  1.9206 -0.6522 -0.7181
 4743SOL    HW225692   0.124   3.939   3.367 -3.9480 -2.2990 -1.3265
 4744SOL     OW25693   0.460   2.807   0.952  0.2474  0.3694  0.2951
 4744SOL    HW125694   0.479   2.830   1.042  1.9200  0.4505 -0.0900
 4744SOL    HW225695   0.551   2.805   0.923  0.9415  0.1558  2.5583
 4745SOL     OW25696   0.367   0.625   5.443  0.1519 -0.6589  0.1850
 4745SOL    HW125697   0.418   0.619   5.362  1.4651 -0.9770  1.0316
 4745SOL    HW225698   0.366   0.719   5.461 -0.4044 -0.5806 -0.2294
 4746SOL     OW25699   2.337   3.847   1.025  0.2603  0.2875 -0.0224
 4746SOL    HW125700   2.317   3.822   1.115  2.7091 -0.5496  0.3014
 4746SOL    HW225701   2.290   3.930   1.025 -1.4589 -0.6921 -0.0695
 4747SOL     OW25702   1.506   3.304   6.553  0.0607 -0.1129  0.1692
 4747SOL    HW125703   1.543   3.318   6.466  0.2543 -0.2307  0.2320
 4747SOL    HW225704   1.472   3.215   6.550  0.7027 -0.3461 -0.2551
 4748SOL     OW25705   3.896   1.280  16.296  0.5672 -0.0474 -0.0329
 4748SOL    HW125706   3.874   1.264  16.204  0.0106  1.2314 -0.1312
 4748SOL    HW225707   3.888   1.189  16.322  0.2756 -0.4543 -1.5239
 4749SOL     OW25708   1.127   2.476   9.691 -0.3046  0.6870  0.6013
 4749SOL    HW125709   1.167   2.536   9.754  0.5321  1.1254 -0.3501
 4749SOL    HW225710   1.037   2.509   9.690 -0.5651  0.0645  2.8059
 4750SOL     OW25711   2.169   2.375   1.815  0.0483  0.2418 -0.1724
 4750SOL    HW125712   2.158   2.400   1.907  1.5418 -1.6822  0.5198
 4750SOL    HW225713   2.197   2.284   1.826  0.6381  0.2148 -1.7987
 4751SOL     OW25714   3.264   4.315  13.044  0.2380 -0.4068 -0.5400
 4751SOL    HW125715   3.195   4.250  13.036  0.2460 -0.5143  0.2716
 4751SOL    HW225716   3.313   4.286  13.120 -1.3734 -1.6688  0.0118
 4752SOL     OW25717   1.546   0.702   7.978  0.1356  0.3849 -0.1516
 4752SOL    HW125718   1.578   0.731   8.064 -2.4858  0.2219  0.8655
 4752SOL    HW225719   1.469   0.647   7.987  0.6920 -0.1911  1.1710
 4753SOL     OW25720   4.542   0.907   5.217  0.4773 -0.1126  0.1396
 4753SOL    HW125721   4.533   0.967   5.143 -0.8925 -1.2402 -0.6081
 4753SOL    HW225722   4.554   0.972   5.287  3.7898  0.8804 -1.3524
 4754SOL     OW25723   2.991   3.889   2.788 -1.2426 -0.3527 -0.2173
 4754SOL    HW125724   2.916   3.866   2.842 -2.2349  3.3907 -0.0033
 4754SOL    HW225725   3.057   3.833   2.830 -2.9877 -1.1317  1.4946
 4755SOL     OW25726   3.477   0.547   1.133 -0.5820  0.5256  0.5948
 4755SOL    HW125727   3.485   0.457   1.164 -0.7457  0.1772 -0.3838
 4755SOL    HW225728   3.533   0.553   1.056 -0.0967  1.1069  0.9939
 4756SOL     OW25729   2.426   3.117  12.418 -0.3638 -0.1088 -0.1640
 4756SOL    HW125730   2.456   3.151  12.502  0.0547 -0.4699 -0.1712
 4756SOL    HW225731   2.335   3.096  12.439 -0.5390  0.2436 -0.5574
 4757SOL     OW25732   3.917   1.462  10.949  0.0691  0.5800 -0.5120
 4757SOL    HW125733   3.877   1.538  10.908  1.0484  0.9070 -0.8519
 4757SOL    HW225734   3.991   1.494  11.000  0.8404  0.1234 -1.3322
 4758SOL     OW25735   3.779   3.039   4.027 -0.5213 -0.3347 -0.5210
 4758SOL    HW125736   3.865   3.055   4.067 -0.4439  0.2168 -0.8967
 4758SOL    HW225737   3.773   2.946   4.046 -2.6910  0.3302  2.0181
 4759SOL     OW25738   0.680   2.576   0.227 -0.3337  0.4115  0.0854
 4759SOL    HW125739   0.656   2.549   0.316 -1.9971  0.6757 -0.2773
 4759SOL    HW225740   0.751   2.639   0.235 -2.5394  2.9989 -1.0445
 4760SOL     OW25741   1.032   3.947  17.475  0.0111 -0.1003 -0.1942
 4760SOL    HW125742   0.969   3.989  17.417 -0.8831 -0.6033  0.4116
 4760SOL    HW225743   1.061   3.886  17.408 -0.3163  0.1058 -0.5273
 4761SOL     OW25744   4.334   1.145   5.854 -0.3352 -0.0607  0.1166
 4761SOL    HW125745   4.240   1.162   5.860 -0.2679  0.3760 -0.0999
 4761SOL    HW225746   4.321   1.055   5.822 -0.5213  0.1819 -0.4767
 4762SOL     OW25747   3.668   4.482  16.460 -0.5349  0.2226  0.0414
 4762SOL    HW125748   3.612   4.428  16.403  1.2942 -0.4944 -1.0572
 4762SOL    HW225749   3.744   4.494  16.404 -1.1786  2.7298 -0.2973
 4763SOL     OW25750   2.808   3.414   9.098  0.1435 -0.2242  0.0223
 4763SOL    HW125751   2.813   3.322   9.074 -2.5578 -0.4324  0.2675
 4763SOL    HW225752   2.807   3.459   9.013  0.6746  1.9015  1.1272
 4764SOL     OW25753   1.885   2.201   6.418  0.1185  0.2934 -0.0528
 4764SOL    HW125754   1.853   2.169   6.502 -1.5058  2.3102  0.0939
 4764SOL    HW225755   1.852   2.128   6.366  1.9501  0.2528 -1.1451
 4765SOL     OW25756   0.697   2.379  17.466 -0.0188 -0.0171 -0.4099
 4765SOL    HW125757   0.704   2.360  17.560 -2.4887  0.2178 -0.1798
 4765SOL    HW225758   0.611   2.421  17.468 -0.0866 -0.0164 -3.6421
 4766SOL     OW25759   0.150   3.742   8.987  0.9827 -0.0317  0.1361
 4766SOL    HW125760   0.227   3.694   8.958  0.5603  0.0476 -1.1124
 4766SOL    HW225761   0.103   3.751   8.904  0.5089 -1.3171  0.2718
 4767SOL     OW25762   2.945   3.505   1.169 -0.3985  0.4081 -0.3425
 4767SOL    HW125763   2.954   3.440   1.239 -0.1722  2.7065  1.7425
 4767SOL    HW225764   3.036   3.515   1.138 -0.9490  1.6040 -1.5776
 4768SOL     OW25765   0.941   0.809   6.897 -0.3519  0.0049 -0.2131
 4768SOL    HW125766   0.986   0.876   6.948  1.1663 -1.1556 -0.0340
 4768SOL    HW225767   0.893   0.765   6.967 -0.1454  1.1595  0.6526
 4769SOL     OW25768   4.513   3.624   8.457 -0.5569  0.1015  0.8687
 4769SOL    HW125769   4.466   3.558   8.407 -1.9352  1.6239  0.1495
 4769SOL    HW225770   4.551   3.577   8.532 -2.6815 -0.7812  1.3917
 4770SOL     OW25771   3.438   2.834   3.309  0.9593  0.2640 -0.0987
 4770SOL    HW125772   3.395   2.914   3.279  1.5858  0.7311  0.2406
 4770SOL    HW225773   3.397   2.771   3.250 -0.2917  1.6274 -0.6678
 4771SOL     OW25774   0.110   2.004   3.711  0.4739  0.0699  0.0498
 4771SOL    HW125775   0.166   1.927   3.701  0.8541  0.1670  1.4960
 4771SOL    HW225776   0.024   1.974   3.683  0.3730  0.1791  0.2424
 4772SOL     OW25777   4.204   0.756   7.799 -0.5303 -0.7857 -0.0368
 4772SOL    HW125778   4.237   0.666   7.802  0.6366 -0.4220 -2.2920
 4772SOL    HW225779   4.251   0.789   7.723 -2.1700 -2.2810 -1.6938
 4773SOL     OW25780   2.347   1.571   9.165  0.3767  0.0532  0.3184
 4773SOL    HW125781   2.438   1.598   9.154  0.4927 -0.1369  0.8388
 4773SOL    HW225782   2.329   1.591   9.257 -0.5511 -1.6179  0.4980
 4774SOL     OW25783   2.548   1.109   1.862  0.4818 -0.3782 -0.2605
 4774SOL    HW125784   2.488   1.098   1.936  2.8267 -0.7659  1.5581
 4774SOL    HW225785   2.520   1.192   1.823 -1.9788 -1.8431 -1.6300
 4775SOL     OW25786   3.387   0.544   3.417  0.2971 -0.0875  0.2397
 4775SOL    HW125787   3.296   0.570   3.433  0.5792  3.4510 -3.7946
 4775SOL    HW225788   3.431   0.609   3.362  2.9037 -1.2708  0.9207
 4776SOL     OW25789   4.591   4.177   3.423  0.6918  0.4620  0.1370
 4776SOL    HW125790   4.614   4.160   3.332 -2.1544  1.9836 -0.8931
 4776SOL    HW225791   4.636   4.114   3.478 -1.6559 -0.1821  1.3405
 4777SOL     OW25792   4.160   4.102   0.516  0.4648  0.3566 -0.0495
 4777SOL    HW125793   4.209   4.153   0.452  0.1288  2.2341  1.1890
 4777SOL    HW225794   4.068   4.122   0.499  0.0371 -2.7720 -1.4431
 4778SOL     OW25795   1.448   0.147  17.536 -0.1920  0.0346 -0.0650
 4778SOL    HW125796   1.367   0.194  17.555  0.7335  1.7501 -0.4147
 4778SOL    HW225797   1.509   0.191  17.594 -0.4973 -1.6497  1.5440
 4779SOL     OW25798   1.410   4.665   8.401  0.0682  0.5866 -0.5168
 4779SOL    HW125799   1.347   0.009   8.424  0.2016 -0.3809  2.6583
 4779SOL    HW225800   1.434   4.695   8.313 -1.5194 -1.0879 -1.4994
 4780SOL     OW25801   3.699   4.710   1.553 -0.1455  0.5314 -0.0265
 4780SOL    HW125802   3.775   4.672   1.507 -0.9026 -1.9532  0.7965
 4780SOL    HW225803   3.742   0.064   1.587  0.1737 -0.8424  2.7143
 4781SOL     OW25804   0.909   1.055   3.237 -0.4418 -0.3809 -0.1664
 4781SOL    HW125805   0.940   1.135   3.195  2.7033 -1.0342  0.8697
 4781SOL    HW225806   0.994   1.038   3.279  0.2857 -0.4344 -1.6756
 4782SOL     OW25807   2.018   1.847   3.931 -0.3888  0.1279  0.2704
 4782SOL    HW125808   1.951   1.906   3.965  0.4443  0.1273  1.8764
 4782SOL    HW225809   2.092   1.906   3.945 -1.0941  0.7104  1.5448
 4783SOL     OW25810   4.302   0.929   3.578  0.3401 -0.7115 -0.3505
 4783SOL    HW125811   4.277   0.903   3.489 -0.2357 -0.5808 -0.2302
 4783SOL    HW225812   4.376   0.874   3.599  0.9220  0.4866  0.7314
 4784SOL     OW25813   0.885   0.015   2.148 -0.2651 -0.0693  0.0536
 4784SOL    HW125814   0.823   4.713   2.216  0.1515  0.3236  0.5818
 4784SOL    HW225815   0.954   0.061   2.196  0.2850  0.2427 -1.0163
 4785SOL     OW25816   3.158   1.319   4.318 -0.1557 -0.0552 -0.0794
 4785SOL    HW125817   3.189   1.389   4.376 -1.3335  1.5721 -1.3923
 4785SOL    HW225818   3.237   1.279   4.284 -0.8946  0.4434 -2.4005
 4786SOL     OW25819   4.567   1.476  14.001  0.2028 -0.2734 -0.2612
 4786SOL    HW125820   4.500   1.416  13.968  2.3071 -2.2802 -0.8240
 4786SOL    HW225821   4.580   1.441  14.089 -3.7782 -0.3604  0.3033
 4787SOL     OW25822   0.078   0.969   2.689  0.3807  0.6604  0.3458
 4787SOL    HW125823   0.012   1.027   2.651 -0.6279  0.3258  1.5905
 4787SOL    HW225824   0.066   0.885   2.646  1.4961 -0.3041  1.9245
 4788SOL     OW25825   3.127   2.502   9.744 -0.4745 -0.0550 -0.9081
 4788SOL    HW125826   3.175   2.583   9.729  1.3384 -0.8179  0.7060
 4788SOL    HW225827   3.136   2.494   9.839  2.9122  0.1815 -1.2199
 4789SOL     OW25828   0.748   3.401  11.330 -0.0013  0.0419 -0.4617
 4789SOL    HW125829   0.749   3.444  11.245 -0.7400 -2.1762 -1.5790
 4789SOL    HW225830   0.825   3.436  11.376  0.1938  0.2099 -0.9211
 4790SOL     OW25831   1.809   1.217   8.056  0.0049 -0.1235 -0.0821
 4790SOL    HW125832   1.782   1.299   8.097  1.6914  0.0936  0.5976
 4790SOL    HW225833   1.743   1.223   7.987  0.5538  0.1820 -0.5836
 4791SOL     OW25834   3.287   3.292   6.243  0.6878 -0.5415 -0.0593
 4791SOL    HW125835   3.248   3.211   6.277  0.1294 -0.1495  0.2282
 4791SOL    HW225836   3.279   3.293   6.148 -1.0918 -1.0727  0.0897
 4792SOL     OW25837   0.442   3.753   1.816  0.0139  0.3387  0.4999
 4792SOL    HW125838   0.465   3.742   1.724  0.0506  1.7588  0.3280
 4792SOL    HW225839   0.489   3.681   1.857 -0.2877  0.5848  1.2681
 4793SOL     OW25840   0.848   0.371   6.203 -0.4897 -0.2826  0.7301
 4793SOL    HW125841   0.922   0.314   6.182 -1.1908 -1.8438  2.4243
 4793SOL    HW225842   0.872   0.458   6.173  0.4895 -0.0385  2.2165
 4794SOL     OW25843   2.817   3.052   3.692  0.0675 -0.5784  0.0495
 4794SOL    HW125844   2.751   3.057   3.761  0.1823  0.4790  0.0912
 4794SOL    HW225845   2.793   2.973   3.644 -0.2558 -0.9874  0.8897
 4795SOL     OW25846   2.591   4.174   6.958  0.2680  0.3211  0.1926
 4795SOL    HW125847   2.602   4.081   6.977 -0.6492 -0.1887 -1.7773
 4795SOL    HW225848   2.510   4.183   7.007  0.1123 -3.8760  0.7032
 4796SOL     OW25849   2.941   1.539   3.653  0.0380 -0.2169 -0.5227
 4796SOL    HW125850   2.916   1.602   3.585  2.2105  3.0385  1.6839
 4796SOL    HW225851   3.022   1.504   3.616  1.2486  0.4636  1.4406
 4797SOL     OW25852   1.884   1.962   4.215  0.1003  0.5198  0.0791
 4797SOL    HW125853   1.842   1.947   4.300  1.4217 -0.7654  0.5097
 4797SOL    HW225854   1.934   1.882   4.201 -0.2144  0.4747 -0.7667
 4798SOL     OW25855   3.003   3.871   3.952 -0.6540  0.7509 -0.3164
 4798SOL    HW125856   3.015   3.960   3.983 -2.8928 -0.1330  3.1012
 4798SOL    HW225857   2.999   3.829   4.038 -3.2570 -2.1183 -1.8482
 4799SOL     OW25858   2.027   0.173   9.678 -0.3331 -0.4474 -0.0229
 4799SOL    HW125859   2.024   0.094   9.624  0.1622 -0.4387 -0.0658
 4799SOL    HW225860   1.995   0.142   9.763  0.4997  0.9495  0.8014
 4800SOL     OW25861   1.841   4.614   4.888 -0.3042 -0.7785 -0.0521
 4800SOL    HW125862   1.862   4.675   4.817 -0.4114 -3.2054 -2.1947
 4800SOL    HW225863   1.913   4.551   4.897  0.4259  0.1199  0.3428
 4801SOL     OW25864   1.893   0.352   3.011  0.3725 -0.3339 -0.1855
 4801SOL    HW125865   1.907   0.411   3.085 -0.3353 -0.6761  0.2219
 4801SOL    HW225866   1.804   0.323   3.030  0.2353  0.8851  1.0315
 4802SOL     OW25867   2.305   3.418   4.861  0.0990 -0.0422 -0.0818
 4802SOL    HW125868   2.330   3.337   4.905 -0.0968 -0.5389 -0.9005
 4802SOL    HW225869   2.391   3.438   4.824  0.0835 -0.6080 -0.4246
 4803SOL     OW25870   1.396   0.118   3.528  0.0384 -0.0206  0.2081
 4803SOL    HW125871   1.414   0.068   3.449 -0.4445  0.3559 -0.1395
 4803SOL    HW225872   1.445   0.053   3.579 -1.3065 -1.2330 -0.0544
 4804SOL     OW25873   0.052   4.302  16.598 -0.2251 -0.4610 -0.2765
 4804SOL    HW125874   0.050   4.208  16.616 -0.9176 -0.1188  1.4299
 4804SOL    HW225875   4.701   4.304  16.539 -0.1563  1.6152 -0.2805
 4805SOL     OW25876   2.230   1.089  10.311  0.3879  0.1452 -0.3011
 4805SOL    HW125877   2.205   1.161  10.369 -0.0902  0.1931 -0.5685
 4805SOL    HW225878   2.203   1.014  10.365  6.5447 -1.4637  0.4837
 4806SOL     OW25879   0.780   2.562  14.011 -0.0336  0.4666 -0.6295
 4806SOL    HW125880   0.713   2.629  14.023 -0.7267 -0.2504 -0.5162
 4806SOL    HW225881   0.856   2.618  13.992 -1.8602  3.1657 -0.0151
 4807SOL     OW25882   1.418   2.581   2.890  0.1703 -0.8214 -0.4251
 4807SOL    HW125883   1.408   2.512   2.825 -0.7910 -0.4735 -0.6430
 4807SOL    HW225884   1.386   2.536   2.969  0.0180  0.4289  0.2236
 4808SOL     OW25885   2.109   1.977  10.777  0.1816 -0.2735  1.1166
 4808SOL    HW125886   2.155   2.061  10.767  2.7194 -1.9349 -0.9311
 4808SOL    HW225887   2.105   1.976  10.873  1.3452 -1.3920  1.1392
 4809SOL     OW25888   1.701   4.721   6.216 -0.0122  0.1892  0.3738
 4809SOL    HW125889   1.650   4.723   6.135  1.2572 -2.3287 -0.4887
 4809SOL    HW225890   1.774   0.054   6.192  1.3538 -1.3657  0.8201
 4810SOL     OW25891   4.221   1.207  12.496  0.0269 -0.0145 -0.0840
 4810SOL    HW125892   4.152   1.219  12.561 -0.5646 -2.2956 -0.2783
 4810SOL    HW225893   4.251   1.297  12.488  0.7483 -0.2541 -0.0883
 4811SOL     OW25894   1.985   0.358   5.294  0.0504  0.0679  0.3770
 4811SOL    HW125895   2.026   0.273   5.310  0.9768  0.3638 -0.3590
 4811SOL    HW225896   1.938   0.372   5.375  1.9244 -1.6554  1.7684
 4812SOL     OW25897   2.273   3.848   2.522 -0.1987 -0.1067  0.4706
 4812SOL    HW125898   2.331   3.793   2.576 -1.9179 -1.9778  0.4031
 4812SOL    HW225899   2.282   3.816   2.432  1.7578  1.7637  0.0148
 4813SOL     OW25900   2.955   2.495   8.191  0.0230 -0.3964  0.3686
 4813SOL    HW125901   2.961   2.554   8.266  2.2894  0.9691 -0.8866
 4813SOL    HW225902   2.925   2.416   8.235 -2.0088  0.7410  0.9904
 4814SOL     OW25903   2.951   0.971   5.043 -0.0436  0.2991 -0.3615
 4814SOL    HW125904   2.891   0.956   4.970  0.2801 -2.3728 -0.0605
 4814SOL    HW225905   2.969   0.879   5.063 -1.4087 -0.0214 -0.6011
 4815SOL     OW25906   3.889   4.211   3.479  0.1515 -0.7354 -0.6786
 4815SOL    HW125907   3.876   4.284   3.419  0.5079 -1.1508 -1.2563
 4815SOL    HW225908   3.944   4.151   3.429 -1.1504 -1.5664 -1.0907
 4816SOL     OW25909   1.639   2.376   7.679  0.4511 -0.3802  0.3411
 4816SOL    HW125910   1.610   2.449   7.624  0.7873 -1.6270 -1.4448
 4816SOL    HW225911   1.618   2.303   7.622 -3.2519 -1.2006  2.7164
 4817SOL     OW25912   0.286   2.068  10.088  0.1057 -0.4524  0.3582
 4817SOL    HW125913   0.367   2.101  10.126  0.6424 -1.9906  0.5266
 4817SOL    HW225914   0.304   2.028  10.003 -0.6742 -0.8221  0.3693
 4818SOL     OW25915   1.765   2.129   2.005 -0.4093 -0.1905 -0.0810
 4818SOL    HW125916   1.835   2.064   1.995 -0.9428 -0.5379 -1.5871
 4818SOL    HW225917   1.684   2.100   1.964 -0.2703  0.7347 -1.0117
 4819SOL     OW25918   1.102   1.678   5.862  0.7311 -0.4433  0.5199
 4819SOL    HW125919   1.097   1.725   5.778 -1.6083 -1.7047 -0.0321
 4819SOL    HW225920   1.014   1.643   5.871  0.8006 -0.5896  0.6238
 4820SOL     OW25921   3.986   2.113   9.516 -0.0038 -0.0270 -0.1887
 4820SOL    HW125922   3.964   2.201   9.547  1.0929 -0.4922  1.8619
 4820SOL    HW225923   4.029   2.140   9.434 -0.5953 -0.2046 -0.5584
 4821SOL     OW25924   1.167   4.225   3.517  0.5352  0.6202 -0.7432
 4821SOL    HW125925   1.259   4.237   3.492  1.1753 -0.5476  1.0436
 4821SOL    HW225926   1.122   4.170   3.454 -1.8091  1.0277  0.5707
 4822SOL     OW25927   4.371   1.969   5.513 -0.0570 -0.3545 -0.2177
 4822SOL    HW125928   4.275   1.963   5.511  0.0549 -1.3096 -2.0049
 4822SOL    HW225929   4.381   2.064   5.516 -0.6087 -0.2906 -0.2962
 4823SOL     OW25930   3.244   0.172  14.873 -0.1075  0.2417 -0.0455
 4823SOL    HW125931   3.312   0.134  14.818 -2.0956 -1.8904 -0.9997
 4823SOL    HW225932   3.287   0.176  14.959  0.7022 -1.2867 -0.3785
 4824SOL     OW25933   4.194   1.705   0.103  0.7319  0.4667  0.2039
 4824SOL    HW125934   4.239   1.702   0.019  1.2193  2.4411  0.4010
 4824SOL    HW225935   4.115   1.743   0.064  1.1779  0.7694 -0.4030
 4825SOL     OW25936   4.006   4.291   8.355 -0.2033  0.3048  0.2113
 4825SOL    HW125937   3.915   4.267   8.336 -0.4299  3.4036 -2.3870
 4825SOL    HW225938   4.037   4.200   8.362  0.7876  0.5890 -0.5995
 4826SOL     OW25939   0.470   3.377  12.980  0.5678  0.1390 -0.2989
 4826SOL    HW125940   0.490   3.303  12.923  0.8871  1.7069 -2.2283
 4826SOL    HW225941   0.548   3.381  13.035 -1.1906 -1.3764  2.3177
 4827SOL     OW25942   3.010   1.436  10.001  0.1635  0.4974  0.0433
 4827SOL    HW125943   3.022   1.423   9.907  0.6057 -1.4914  0.3808
 4827SOL    HW225944   3.002   1.344  10.023 -1.2778  0.7017  0.3823
 4828SOL     OW25945   2.309   3.103   3.016  0.2974  0.0548 -0.0426
 4828SOL    HW125946   2.352   3.131   2.935 -1.8706 -0.7103 -1.4376
 4828SOL    HW225947   2.284   3.014   2.990 -1.4210 -0.0347  1.9000
 4829SOL     OW25948   3.119   0.932   4.026  0.2564 -0.0146  0.6895
 4829SOL    HW125949   3.064   0.853   4.019  0.3435  0.0698 -0.8651
 4829SOL    HW225950   3.093   0.961   4.114 -0.6472 -1.3132  0.8666
 4830SOL     OW25951   3.202   3.684   3.326 -0.0698  0.2169  0.1476
 4830SOL    HW125952   3.164   3.763   3.363 -0.4395 -0.4970  1.2573
 4830SOL    HW225953   3.228   3.730   3.246  1.5030  0.9113  1.0445
 4831SOL     OW25954   0.723   3.838   2.911  0.7242 -0.1521  0.2861
 4831SOL    HW125955   0.754   3.757   2.951  1.5415 -0.2214 -0.5085
 4831SOL    HW225956   0.627   3.830   2.904  0.7495  2.7053 -3.0331
 4832SOL     OW25957   4.565   1.520   3.737 -0.0653  0.4203 -0.4516
 4832SOL    HW125958   4.598   1.518   3.827  0.2350 -1.6624 -0.6212
 4832SOL    HW225959   4.643   1.491   3.691 -0.9136  0.4656 -1.9146
 4833SOL     OW25960   1.962   0.945   9.479 -0.2965  0.6377 -0.0891
 4833SOL    HW125961   1.996   0.935   9.568  1.9067  2.7134 -0.7085
 4833SOL    HW225962   2.036   0.988   9.436  0.9008  0.0212  1.3493
 4834SOL     OW25963   2.325   0.496  10.703 -0.8672 -0.0319 -0.1958
 4834SOL    HW125964   2.375   0.542  10.635 -1.3588  1.6679  0.5856
 4834SOL    HW225965   2.272   0.439  10.648  1.1743 -2.0257 -0.0655
 4835SOL     OW25966   0.576   2.768   6.614 -0.5229 -0.7648 -0.2358
 4835SOL    HW125967   0.614   2.784   6.701 -1.1416  0.6658 -0.2313
 4835SOL    HW225968   0.638   2.709   6.570  0.1615 -0.3505  0.1715
 4836SOL     OW25969   0.351   0.127   1.657 -0.3728  0.4592  0.6278
 4836SOL    HW125970   0.268   0.116   1.704 -0.0492  1.4918  1.4466
 4836SOL    HW225971   0.330   0.123   1.564  2.2821  1.3294  0.0171
 4837SOL     OW25972   0.908   2.866  11.918 -0.0644  0.0874  0.0268
 4837SOL    HW125973   0.917   2.959  11.899  3.0999 -0.5116 -1.5193
 4837SOL    HW225974   0.902   2.876  12.013  3.3973 -1.9960  0.4810
 4838SOL     OW25975   3.785   4.474   8.007 -0.2373  0.3331 -0.6786
 4838SOL    HW125976   3.837   4.393   8.007 -0.9029 -0.0819  2.0461
 4838SOL    HW225977   3.813   4.512   8.090  0.3442 -0.4224 -0.5243
 4839SOL     OW25978   2.640   2.613   9.094 -0.1920 -0.4067  0.0423
 4839SOL    HW125979   2.650   2.707   9.085 -2.0828 -0.2930 -0.8088
 4839SOL    HW225980   2.729   2.596   9.124 -0.9045  2.3847  3.7217
 4840SOL     OW25981   3.738   1.518   5.844 -0.2029 -0.5417  0.2265
 4840SOL    HW125982   3.709   1.446   5.789  1.1270 -0.8156 -0.1039
 4840SOL    HW225983   3.690   1.589   5.801  1.7517 -0.6502 -2.1294
 4841SOL     OW25984   2.417   1.995  16.509 -0.3339 -0.0234  0.2262
 4841SOL    HW125985   2.450   2.067  16.454 -2.4483  0.7762  0.0215
 4841SOL    HW225986   2.403   1.934  16.437  1.5498  0.7277 -0.8024
 4842SOL     OW25987   0.278   3.861   5.526 -0.0208 -0.3856  0.2360
 4842SOL    HW125988   0.224   3.904   5.460  2.3300  0.0626 -1.3910
 4842SOL    HW225989   0.259   3.769   5.510  0.4424 -0.3338 -0.5916
 4843SOL     OW25990   1.257   2.365   7.638  0.3030 -0.0609 -0.4455
 4843SOL    HW125991   1.340   2.357   7.591  0.9699  0.0281  0.6968
 4843SOL    HW225992   1.278   2.351   7.731 -1.7320  1.5756  0.2578
 4844SOL     OW25993   2.588   2.226   9.419 -0.7356 -0.3157 -0.2293
 4844SOL    HW125994   2.569   2.197   9.330 -0.8090  1.0029 -0.6439
 4844SOL    HW225995   2.677   2.258   9.404 -2.2509  2.8453 -2.4369
 4845SOL     OW25996   2.312   3.275   9.315 -0.3978  0.1371  0.4407
 4845SOL    HW125997   2.384   3.336   9.298 -3.2494  3.6234  0.9676
 4845SOL    HW225998   2.332   3.244   9.403  0.2192  0.0663  0.2726
 4846SOL     OW25999   1.062   0.892   3.774  0.0603 -0.4594  0.1344
 4846SOL    HW126000   1.031   0.889   3.684  1.2760  2.0720 -0.3451
 4846SOL    HW226001   0.985   0.907   3.829  0.3856 -1.8650  0.9811
 4847SOL     OW26002   3.700   2.264  15.604  0.0830  0.3014  0.0563
 4847SOL    HW126003   3.751   2.242  15.682  0.0065  0.8448  0.2583
 4847SOL    HW226004   3.713   2.358  15.595 -1.7412  0.5975  0.4442
 4848SOL     OW26005   4.078   2.487   5.147 -0.4816  0.0951  0.4928
 4848SOL    HW126006   4.002   2.494   5.090  1.0528  3.9920 -1.0899
 4848SOL    HW226007   4.101   2.395   5.133 -1.6619  0.1213 -1.6461
 4849SOL     OW26008   3.262   0.783   1.206 -0.1611 -0.2033  0.1376
 4849SOL    HW126009   3.337   0.738   1.167  1.0991  2.3280 -0.3382
 4849SOL    HW226010   3.198   0.712   1.198 -2.4535  1.9679 -0.7558
 4850SOL     OW26011   1.676   1.041   6.456 -0.0781  0.4829 -0.0260
 4850SOL    HW126012   1.754   0.989   6.474 -0.8734 -0.7936 -0.2560
 4850SOL    HW226013   1.694   1.079   6.370 -1.3381  0.6110 -0.2442
 4851SOL     OW26014   1.206   3.739   7.021  0.3677 -0.8824  0.6573
 4851SOL    HW126015   1.213   3.760   6.928  0.0830 -1.4345  0.5124
 4851SOL    HW226016   1.177   3.648   7.010  1.7704 -1.2014 -0.5273
 4852SOL     OW26017   2.330   0.724   4.031 -0.9656  0.4893 -0.1924
 4852SOL    HW126018   2.290   0.668   4.098  0.1134  0.9989  0.8671
 4852SOL    HW226019   2.254   0.767   3.991 -0.9214 -1.5825 -2.5325
 4853SOL     OW26020   3.290   4.108   7.638 -0.4338 -0.0347 -0.7486
 4853SOL    HW126021   3.352   4.180   7.627 -1.0182  0.6914  0.7533
 4853SOL    HW226022   3.362   4.052   7.666 -1.0250  0.4842  1.8064
 4854SOL     OW26023   1.427   4.317   5.432  0.4754  0.1762  0.4026
 4854SOL    HW126024   1.444   4.299   5.339 -0.0540 -0.1217  0.3598
 4854SOL    HW226025   1.516   4.303   5.464  0.3912 -0.8226  0.2017
 4855SOL     OW26026   2.916   2.953   4.344  0.1438 -0.4302 -0.2253
 4855SOL    HW126027   2.878   2.884   4.290  1.2806 -0.4001 -1.0680
 4855SOL    HW226028   2.994   2.905   4.374 -0.5506 -2.1135 -1.0933
 4856SOL     OW26029   2.732   0.026   8.832 -0.2167 -0.1003  0.2743
 4856SOL    HW126030   2.651   4.711   8.865 -1.6848  0.2472 -2.8359
 4856SOL    HW226031   2.785   0.031   8.911  1.0045  1.1914 -0.6098
 4857SOL     OW26032   0.988   4.707  11.679  0.0396 -0.2866  0.1512
 4857SOL    HW126033   1.063   0.041  11.686  0.7354 -1.1976  0.3448
 4857SOL    HW226034   0.975   4.674  11.768 -0.7016  1.7357  0.7725
 4858SOL     OW26035   0.276   0.669  12.377 -0.4009  0.2197 -0.2715
 4858SOL    HW126036   0.305   0.760  12.371  0.0497 -0.0889 -2.6190
 4858SOL    HW226037   0.206   0.665  12.312 -2.1724 -0.1494  1.6579
 4859SOL     OW26038   0.149   1.593   7.519 -0.0161 -0.1351 -0.0891
 4859SOL    HW126039   0.091   1.550   7.582  0.0666  0.3962  0.3523
 4859SOL    HW226040   0.189   1.659   7.575  0.3009 -0.3963 -0.0038
 4860SOL     OW26041   2.235   1.564  14.606  0.0234  0.3207  0.1390
 4860SOL    HW126042   2.206   1.594  14.520  1.5293  0.6159 -0.2732
 4860SOL    HW226043   2.316   1.516  14.590 -0.9940 -0.7789 -1.7178
 4861SOL     OW26044   4.408   1.467   2.581 -0.9106 -0.1837 -0.8207
 4861SOL    HW126045   4.399   1.488   2.488 -3.5446  3.8804  0.3692
 4861SOL    HW226046   4.372   1.379   2.585 -0.9415 -0.1003  0.6563
 4862SOL     OW26047   2.480   1.671   5.975  0.1418  0.3053 -0.4492
 4862SOL    HW126048   2.473   1.668   6.070  2.0362  2.5275 -0.2561
 4862SOL    HW226049   2.499   1.763   5.958 -0.9608  0.8449  1.2515
 4863SOL     OW26050   3.296   3.370   2.801 -0.7946  0.6444 -0.1446
 4863SOL    HW126051   3.339   3.424   2.735  0.2808 -0.8974 -0.6919
 4863SOL    HW226052   3.318   3.418   2.881  1.7192 -0.1737 -0.3611
 4864SOL     OW26053   4.093   3.835   4.002 -0.0068  0.2014 -0.2625
 4864SOL    HW126054   4.144   3.910   3.972  0.3159  0.3960  0.7827
 4864SOL    HW226055   4.039   3.829   3.923  0.8466 -1.1598 -0.7552
 4865SOL     OW26056   1.837   3.858   7.565 -0.0057 -0.3712  0.1281
 4865SOL    HW126057   1.750   3.895   7.551 -1.1854 -2.6961  1.2943
 4865SOL    HW226058   1.815   3.790   7.628  0.9466 -1.3135 -0.5573
 4866SOL     OW26059   0.504   2.721   0.080 -0.2459 -0.7769 -0.4025
 4866SOL    HW126060   0.559   2.800   0.079  0.4307 -1.2789 -2.2807
 4866SOL    HW226061   0.566   2.672   0.133  0.2295  1.0054  0.7199
 4867SOL     OW26062   0.497   1.280  17.066  0.1728 -0.5989 -0.0815
 4867SOL    HW126063   0.456   1.252  16.984  2.2439 -2.0486 -0.6194
 4867SOL    HW226064   0.457   1.213  17.122  0.0824  0.2711  0.8869
 4868SOL     OW26065   3.916   2.001   8.975  0.2988  0.1653 -0.1304
 4868SOL    HW126066   3.880   1.921   8.936 -1.6388 -0.2353  2.4991
 4868SOL    HW226067   3.866   2.067   8.928  2.2256  0.2969 -2.0104
 4869SOL     OW26068   0.344   3.704  17.189 -0.8233 -0.5122  0.4125
 4869SOL    HW126069   0.282   3.688  17.260  0.4194  0.3995  1.6931
 4869SOL    HW226070   0.291   3.746  17.121 -1.8266 -0.8880  0.9633
 4870SOL     OW26071   4.454   2.000   1.271 -0.5047 -0.4207  0.0808
 4870SOL    HW126072   4.371   2.009   1.226 -1.3772 -3.4292  1.1089
 4870SOL    HW226073   4.422   1.959   1.351  0.3715  0.1086  0.7037
 4871SOL     OW26074   2.569   3.985  17.614 -0.8242  0.1494  0.1821
 4871SOL    HW126075   2.476   3.969  17.635 -1.0179  0.0450 -0.7733
 4871SOL    HW226076   2.587   3.929  17.538 -0.7258 -0.0678  0.3644
 4872SOL     OW26077   3.488   1.212   9.560  0.2294 -0.7333 -0.3350
 4872SOL    HW126078   3.498   1.198   9.466  0.2524 -2.1071 -0.1214
 4872SOL    HW226079   3.550   1.285   9.570 -0.6390  0.1888 -1.6757
 4873SOL     OW26080   1.783   1.921   1.251  0.0952 -0.6806 -0.1092
 4873SOL    HW126081   1.720   1.955   1.188  1.0116  0.8423 -0.1868
 4873SOL    HW226082   1.729   1.920   1.330  2.5561 -0.7491  1.5553
 4874SOL     OW26083   1.704   0.138   8.544 -0.0483 -0.4571  0.2851
 4874SOL    HW126084   1.701   0.092   8.628 -1.1652  1.7244  1.4485
 4874SOL    HW226085   1.673   0.222   8.576 -0.9670  0.4943 -3.0605
 4875SOL     OW26086   2.884   0.754   7.293  0.1949 -0.6893 -0.0081
 4875SOL    HW126087   2.808   0.800   7.257  0.2714 -1.3584 -1.0295
 4875SOL    HW226088   2.952   0.767   7.228  1.7762  0.5875  1.9046
 4876SOL     OW26089   4.109   1.659   2.381  0.1765  0.0608  0.0963
 4876SOL    HW126090   4.115   1.747   2.344  2.6323 -1.1482 -2.4478
 4876SOL    HW226091   4.030   1.662   2.435  0.8146 -3.1783  1.2360
 4877SOL     OW26092   0.317   2.723   8.599  0.4271  0.2003 -0.1798
 4877SOL    HW126093   0.280   2.791   8.656  0.4001  0.0543 -0.0240
 4877SOL    HW226094   0.390   2.704   8.659 -0.5756 -3.0554 -0.0255
 4878SOL     OW26095   1.089   1.161  13.087 -0.1053 -0.1120  0.4373
 4878SOL    HW126096   1.183   1.149  13.103  0.3428  1.1567 -1.1902
 4878SOL    HW226097   1.086   1.229  13.020  3.5715 -1.8653 -1.5367
 4879SOL     OW26098   3.556   2.935   2.365 -0.4649 -0.4925 -0.2286
 4879SOL    HW126099   3.554   3.031   2.358  0.4591 -0.5405 -1.0481
 4879SOL    HW226100   3.625   2.926   2.430  0.5254  1.9179 -0.9419
 4880SOL     OW26101   0.653   0.653   4.985  0.1118  0.0109 -0.4624
 4880SOL    HW126102   0.745   0.664   4.960  0.6575 -0.7541  1.1897
 4880SOL    HW226103   0.622   0.606   4.908 -0.1345  1.6350 -1.3465
 4881SOL     OW26104   2.593   0.406   9.624  0.3897 -0.5618 -0.1685
 4881SOL    HW126105   2.649   0.343   9.579  2.1904 -0.0239  1.3126
 4881SOL    HW226106   2.658   0.472   9.646  2.1700 -1.9954 -1.0706
 4882SOL     OW26107   1.633   3.423   2.405  0.0850  0.3884  0.5449
 4882SOL    HW126108   1.709   3.366   2.391 -2.9003 -3.0373 -1.7389
 4882SOL    HW226109   1.610   3.444   2.314  0.8929 -0.6369  0.1055
 4883SOL     OW26110   0.572   4.701  10.671 -0.2821  0.4247 -0.4821
 4883SOL    HW126111   0.555   0.007  10.582 -0.7807 -0.2694 -0.6301
 4883SOL    HW226112   0.545   4.611  10.652 -1.0097  0.1237  1.9807
 4884SOL     OW26113   0.886   0.735   2.784  0.5494  0.1688 -0.3446
 4884SOL    HW126114   0.829   0.800   2.742  0.6637  0.5023  0.0258
 4884SOL    HW226115   0.893   0.777   2.869 -3.9408 -0.6047  0.4210
 4885SOL     OW26116   1.882   2.791   7.330 -0.1935  0.4138  0.0666
 4885SOL    HW126117   1.855   2.828   7.414 -0.3007 -1.1034  0.6963
 4885SOL    HW226118   1.898   2.872   7.281  0.8668  0.1701  0.0077
 4886SOL     OW26119   0.021   0.403   8.341  0.4247 -0.5348  0.1306
 4886SOL    HW126120   0.080   0.435   8.273  0.6565 -1.2684 -0.0171
 4886SOL    HW226121   4.721   0.487   8.379  0.7365 -0.6255  0.5279
 4887SOL     OW26122   2.195   3.330   8.859  0.5155 -0.9313  0.2009
 4887SOL    HW126123   2.273   3.299   8.812  1.0341 -0.0144  0.4562
 4887SOL    HW226124   2.130   3.292   8.800  1.2208  0.2747 -1.3896
 4888SOL     OW26125   0.320   4.004   4.327  0.3451  0.0164  0.5960
 4888SOL    HW126126   0.242   4.040   4.286 -1.0977 -0.2714  3.1035
 4888SOL    HW226127   0.311   4.039   4.416  0.2306  0.0015  0.5907
 4889SOL     OW26128   2.038   2.475   8.424  0.1124  0.2300  0.7648
 4889SOL    HW126129   1.988   2.533   8.368 -1.0755 -1.5432  0.0002
 4889SOL    HW226130   1.977   2.466   8.497  0.6893  0.0198  1.2224
 4890SOL     OW26131   4.693   3.070   4.999 -0.0180  0.1546 -0.3243
 4890SOL    HW126132   0.035   3.073   5.068 -0.5233 -0.5571  0.1912
 4890SOL    HW226133   4.702   2.979   4.972 -1.7121  0.2970 -1.3372
 4891SOL     OW26134   3.500   1.354  15.554  0.1665  0.3220  0.6061
 4891SOL    HW126135   3.453   1.436  15.538  2.8319  1.8525  0.5814
 4891SOL    HW226136   3.496   1.316  15.466  0.7264  0.2477  0.6140
 4892SOL     OW26137   2.192   2.861   2.791 -0.2358  0.1187 -0.2094
 4892SOL    HW126138   2.155   2.844   2.704 -1.4957  0.6916  0.2128
 4892SOL    HW226139   2.282   2.891   2.777 -0.9459  0.8514 -3.3410
 4893SOL     OW26140   3.924   3.101  16.654 -0.0804  0.0577 -0.3224
 4893SOL    HW126141   3.854   3.163  16.671  0.9240  0.7696  1.1740
 4893SOL    HW226142   3.963   3.095  16.741  0.9613  1.1049 -0.7147
 4894SOL     OW26143   0.544   0.201   7.891 -0.0681  0.1664 -0.7645
 4894SOL    HW126144   0.572   0.114   7.863 -0.4651  1.0142 -3.8593
 4894SOL    HW226145   0.524   0.197   7.984  0.9699  0.1282 -0.5476
 4895SOL     OW26146   2.093   3.945   4.082  0.3146 -0.1240 -0.0317
 4895SOL    HW126147   2.130   4.031   4.062 -1.3695  0.1374 -2.0755
 4895SOL    HW226148   2.021   3.968   4.139  0.2055 -2.6923  0.8638
 4896SOL     OW26149   0.507   4.658  13.891 -0.1603 -0.1849  0.1687
 4896SOL    HW126150   0.491   4.668  13.985 -2.0687  0.1996 -0.1795
 4896SOL    HW226151   0.580   4.719  13.880  0.5553 -0.6979  2.0518
 4897SOL     OW26152   3.840   0.725   4.617  0.3656 -0.2846 -0.5993
 4897SOL    HW126153   3.756   0.687   4.644  0.7949  1.6421  3.3684
 4897SOL    HW226154   3.885   0.720   4.701 -1.7297 -1.7371  0.4290
 4898SOL     OW26155   3.385   2.338   6.927  0.8095 -0.2216  0.1408
 4898SOL    HW126156   3.472   2.331   6.965  0.4624  2.2325  1.3909
 4898SOL    HW226157   3.380   2.260   6.871 -4.5642  0.2396 -0.0465
 4899SOL     OW26158   2.301   0.329  17.079  0.3511 -0.1032  0.2758
 4899SOL    HW126159   2.377   0.327  17.136  0.4135 -0.6207  0.1709
 4899SOL    HW226160   2.336   0.370  17.000 -0.0732 -0.9063 -0.3285
 4900SOL     OW26161   0.786   1.927   3.178 -0.5390  0.1429 -0.1653
 4900SOL    HW126162   0.804   1.994   3.244 -1.5859  1.9888 -1.7844
 4900SOL    HW226163   0.849   1.944   3.109  0.8696 -2.6722  0.4312
 4901SOL     OW26164   3.883   0.469   7.275  0.0708 -0.7097  0.1017
 4901SOL    HW126165   3.933   0.502   7.201 -0.9880 -1.2641 -0.8501
 4901SOL    HW226166   3.856   0.559   7.292  0.5758 -0.5198 -0.0936
 4902SOL     OW26167   4.595   3.405  17.411 -0.0375 -0.3765 -0.8171
 4902SOL    HW126168   4.642   3.335  17.366  0.3118 -1.2973  1.0113
 4902SOL    HW226169   4.650   3.422  17.487 -1.6318 -0.2427  0.3151
 4903SOL     OW26170   1.591   3.735   4.548 -0.4852  0.0515  0.1223
 4903SOL    HW126171   1.556   3.714   4.634 -0.8073  0.3009  0.0526
 4903SOL    HW226172   1.684   3.752   4.557 -0.2940 -0.9006 -0.0776
 4904SOL     OW26173   0.268   4.173   6.316  0.0168  0.5846 -0.2014
 4904SOL    HW126174   0.352   4.148   6.355 -1.0505 -1.0853  1.0887
 4904SOL    HW226175   0.264   4.126   6.233 -0.4599 -0.3803  0.3555
 4905SOL     OW26176   4.320   2.622   2.500  0.3146 -0.2330  0.3411
 4905SOL    HW126177   4.409   2.622   2.534  0.4754  0.1417 -0.0873
 4905SOL    HW226178   4.325   2.686   2.430 -3.2790  0.1461  0.4133
 4906SOL     OW26179   3.876   1.215   0.648  0.0172  0.3621  0.0929
 4906SOL    HW126180   3.917   1.151   0.591 -1.9785 -0.8141 -0.0110
 4906SOL    HW226181   3.954   1.266   0.671 -0.6761  1.2809  0.4188
 4907SOL     OW26182   2.616   0.646   7.567  0.0633 -0.6210 -0.4028
 4907SOL    HW126183   2.608   0.562   7.522  0.5482 -1.5045  1.1252
 4907SOL    HW226184   2.705   0.635   7.602 -0.1651 -0.1231  0.3394
 4908SOL     OW26185   0.866   3.176   1.637  0.0994  0.3169  0.0902
 4908SOL    HW126186   0.791   3.124   1.664 -0.8813  1.6042 -0.1366
 4908SOL    HW226187   0.864   3.246   1.703  0.8736  0.7444 -0.3295
 4909SOL     OW26188   1.833   1.655  13.045  0.4882  0.8089  0.2515
 4909SOL    HW126189   1.856   1.597  12.972  0.8318 -1.4764  2.1638
 4909SOL    HW226190   1.846   1.741  13.004  1.0716  0.3571 -0.5365
 4910SOL     OW26191   3.871   2.576  12.082  0.3432  0.2022 -0.3159
 4910SOL    HW126192   3.869   2.609  12.172 -1.0296 -2.0349  0.4599
 4910SOL    HW226193   3.879   2.481  12.088 -1.4169  0.3170  3.4292
 4911SOL     OW26194   4.204   1.432  13.982  0.0110  0.1318 -0.2319
 4911SOL    HW126195   4.195   1.497  13.912 -0.6928  0.1269 -0.1398
 4911SOL    HW226196   4.203   1.492  14.058 -0.7105 -1.6134  1.1300
 4912SOL     OW26197   2.006   3.758   8.694 -0.2494  0.6999  0.3404
 4912SOL    HW126198   2.056   3.703   8.754  1.5811  1.4860 -0.4494
 4912SOL    HW226199   2.044   3.845   8.707  0.9781  0.3741 -1.0930
 4913SOL     OW26200   2.553   3.641   8.411  0.3939  0.6361 -0.0174
 4913SOL    HW126201   2.579   3.563   8.362  1.1068  0.9064 -0.0838
 4913SOL    HW226202   2.637   3.688   8.411 -0.5989  2.4618 -1.4103
 4914SOL     OW26203   0.217   1.973  16.130 -0.8848 -0.0128 -0.1726
 4914SOL    HW126204   0.150   2.037  16.105  0.4415  1.6037  0.4603
 4914SOL    HW226205   0.289   2.032  16.149 -0.9382  0.3332 -1.0368
 4915SOL     OW26206   2.277   2.883  16.450 -0.8347  0.8806 -0.2443
 4915SOL    HW126207   2.205   2.819  16.448  0.9975 -1.2417  1.6029
 4915SOL    HW226208   2.253   2.923  16.534 -1.8824  3.1877 -1.6394
 4916SOL     OW26209   0.930   0.942  15.555  0.0918 -1.0114  0.1500
 4916SOL    HW126210   0.885   0.882  15.495  0.6063 -0.6495 -0.6024
 4916SOL    HW226211   1.001   0.884  15.584  1.3271  0.8226  0.7503
 4917SOL     OW26212   1.182   3.366   7.805 -0.3156 -0.6928  0.0073
 4917SOL    HW126213   1.234   3.347   7.726  1.5512 -1.4073  1.4172
 4917SOL    HW226214   1.254   3.365   7.868  0.4543 -1.4234 -0.8745
 4918SOL     OW26215   3.241   2.243   5.548 -0.4855  0.2808  0.6633
 4918SOL    HW126216   3.274   2.154   5.563 -1.2282 -0.3623 -1.4761
 4918SOL    HW226217   3.168   2.217   5.491  0.3579  2.7834 -1.5837
 4919SOL     OW26218   1.833   3.942   5.457 -0.2402 -0.1984 -0.0890
 4919SOL    HW126219   1.792   4.028   5.469  1.2492  0.9596 -3.6104
 4919SOL    HW226220   1.815   3.928   5.365  1.5115 -2.0094 -0.1426
 4920SOL     OW26221   2.894   3.529   3.003 -1.0510 -0.0492 -0.4459
 4920SOL    HW126222   2.880   3.615   3.040 -2.3889 -0.1714 -0.6724
 4920SOL    HW226223   2.809   3.487   3.016 -1.1322  0.1166 -0.4490
 4921SOL     OW26224   2.379   0.946   9.647  0.3799  1.0145 -0.1023
 4921SOL    HW126225   2.362   0.852   9.653  2.1366  0.6184 -1.4726
 4921SOL    HW226226   2.471   0.942   9.674 -0.0275 -1.5012  0.8916
 4922SOL     OW26227   3.725   4.587   6.358 -0.5115  0.0025 -0.2667
 4922SOL    HW126228   3.803   4.546   6.322 -0.6335 -1.3442  1.0283
 4922SOL    HW226229   3.687   4.510   6.400  0.6566  0.1164  0.9909
 4923SOL     OW26230   3.846   3.022   2.170 -0.0808  0.3811 -0.1441
 4923SOL    HW126231   3.920   3.082   2.157  0.9839 -0.5312  1.7213
 4923SOL    HW226232   3.795   3.059   2.242  1.4471  0.8461  0.7131
 4924SOL     OW26233   1.563   2.491   1.557 -0.2609  0.6264 -0.2948
 4924SOL    HW126234   1.609   2.509   1.639 -0.5221  0.2229 -0.0578
 4924SOL    HW226235   1.611   2.546   1.495 -0.7530 -0.0394 -1.2747
 4925SOL     OW26236   1.615   2.192  11.103 -0.1731  0.4960  0.0862
 4925SOL    HW126237   1.591   2.281  11.126 -0.5864  0.8041 -1.5669
 4925SOL    HW226238   1.695   2.195  11.156 -0.1476  0.7953  0.0291
 4926SOL     OW26239   2.422   4.047  17.087 -0.0003  0.1054 -0.1720
 4926SOL    HW126240   2.365   4.033  17.011  1.2388 -3.9269 -0.3798
 4926SOL    HW226241   2.474   4.123  17.060 -1.2969  0.2571 -2.2255
 4927SOL     OW26242   4.459   3.282   0.601  0.0668  0.0124 -0.1450
 4927SOL    HW126243   4.518   3.357   0.613 -2.7204  2.3577 -1.1477
 4927SOL    HW226244   4.445   3.283   0.507 -1.4470 -1.2411  0.0607
 4928SOL     OW26245   2.245   1.560   2.409  0.2356  0.3566  0.4120
 4928SOL    HW126246   2.335   1.591   2.399  0.0279  0.5464 -0.8501
 4928SOL    HW226247   2.203   1.596   2.330  0.4730  0.9936  0.5755
 4929SOL     OW26248   2.057   3.770   3.082 -0.3399 -0.6152 -0.5128
 4929SOL    HW126249   2.117   3.807   3.017 -1.5328  0.0151 -1.2497
 4929SOL    HW226250   2.012   3.847   3.119 -0.7478 -0.9825 -0.2388
 4930SOL     OW26251   4.484   3.507   9.155  0.6827  0.2693 -0.0129
 4930SOL    HW126252   4.477   3.451   9.232 -0.1470  1.5787  0.8795
 4930SOL    HW226253   4.573   3.487   9.124 -0.6087 -2.1900 -2.1086
 4931SOL     OW26254   0.039   0.599   5.065  0.3268 -0.1988  0.1211
 4931SOL    HW126255   0.129   0.578   5.039 -0.2211 -0.8390 -1.2417
 4931SOL    HW226256   0.012   0.661   4.998  1.7632 -0.0616 -0.3377
 4932SOL     OW26257   3.742   2.929  10.574  0.0708  0.1421  0.2690
 4932SOL    HW126258   3.824   2.891  10.542  0.8988  2.3161 -0.1410
 4932SOL    HW226259   3.755   2.948  10.667 -0.3095 -2.0646  0.7744
 4933SOL     OW26260   1.442   4.572   9.066  0.2825  0.7479  0.8699
 4933SOL    HW126261   1.531   4.586   9.036  0.2540  0.4831  0.6557
 4933SOL    HW226262   1.436   4.481   9.096 -1.0899 -0.4602 -2.9891
 4934SOL     OW26263   2.990   4.332   5.857  0.1454 -0.4239 -0.4474
 4934SOL    HW126264   2.987   4.349   5.952 -1.2809 -0.6030 -0.4617
 4934SOL    HW226265   3.081   4.357   5.844 -0.6492  0.9528 -3.2922
 4935SOL     OW26266   1.355   3.641   2.733 -0.4284 -0.3520 -0.4493
 4935SOL    HW126267   1.319   3.676   2.652 -0.8300 -2.5169 -1.1859
 4935SOL    HW226268   1.431   3.589   2.707  1.3526  0.0799  3.7651
 4936SOL     OW26269   3.872   1.869   7.747  0.1125 -0.1850 -0.3890
 4936SOL    HW126270   3.797   1.909   7.703 -0.9092 -0.6656  0.9290
 4936SOL    HW226271   3.880   1.798   7.684 -0.2134 -1.8894  1.5070
 4937SOL     OW26272   2.389   0.381   3.236  0.1948 -0.0547  0.2596
 4937SOL    HW126273   2.381   0.413   3.146  0.3434 -0.3694  0.1346
 4937SOL    HW226274   2.473   0.338   3.225 -0.3227 -0.9588 -0.1750
 4938SOL     OW26275   0.944   3.341   4.750  0.1882 -0.2265  0.1623
 4938SOL    HW126276   1.008   3.292   4.802 -1.4375 -2.2725  0.2379
 4938SOL    HW226277   0.909   3.271   4.696  1.6163 -0.3475 -0.6213
 4939SOL     OW26278   3.409   2.465  10.026 -0.1223  0.1262  0.4649
 4939SOL    HW126279   3.396   2.432  10.115 -2.1547 -2.9413 -0.9775
 4939SOL    HW226280   3.326   2.511  10.012 -0.9377 -0.9896  1.5912
 4940SOL     OW26281   4.677   2.429   8.551  0.1230  0.2858 -0.6182
 4940SOL    HW126282   4.689   2.346   8.596  1.3527  0.4439 -0.6500
 4940SOL    HW226283   4.667   2.494   8.620  0.4611  0.4695 -0.7391
 4941SOL     OW26284   3.220   1.918   3.063 -0.8395  0.1207 -0.4814
 4941SOL    HW126285   3.204   1.828   3.092 -0.9860  0.2905 -0.0378
 4941SOL    HW226286   3.147   1.967   3.099 -1.7159 -2.1210  0.7792
 4942SOL     OW26287   1.129   0.950  12.397  0.0085  0.0476  0.1400
 4942SOL    HW126288   1.122   0.945  12.493 -0.4643 -1.7922  0.0066
 4942SOL    HW226289   1.042   0.921  12.371  0.5358 -1.3640 -0.0942
 4943SOL     OW26290   2.271   2.860  15.201 -0.1125 -0.2759 -0.0480
 4943SOL    HW126291   2.195   2.916  15.190 -0.2846 -0.7565 -1.3663
 4943SOL    HW226292   2.283   2.875  15.295  2.6687 -1.5132 -0.1846
 4944SOL     OW26293   3.828   1.730  14.401 -0.0249  0.2871 -0.3290
 4944SOL    HW126294   3.766   1.708  14.469  0.8336 -1.4290 -0.0985
 4944SOL    HW226295   3.791   1.809  14.362  0.5540  0.3485 -0.7669
 4945SOL     OW26296   3.273   1.784   3.817  0.6831 -0.3058  0.1439
 4945SOL    HW126297   3.270   1.690   3.834  0.7718 -0.0215  1.7342
 4945SOL    HW226298   3.366   1.805   3.811  0.8693 -1.3185 -0.5113
 4946SOL     OW26299   2.048   1.857   6.711  0.5968 -0.6577 -0.2220
 4946SOL    HW126300   2.082   1.768   6.724  0.5365 -0.6805 -0.2197
 4946SOL    HW226301   1.994   1.843   6.633  1.4523 -1.0023 -0.7562
 4947SOL     OW26302   0.440   1.686  16.985 -0.2377  0.0294  0.2347
 4947SOL    HW126303   0.402   1.600  16.965 -0.1201 -0.1788  0.9118
 4947SOL    HW226304   0.365   1.729  17.026 -0.4623 -1.3570  1.2822
 4948SOL     OW26305   4.208   1.408   7.378  0.4797 -0.0662 -0.0376
 4948SOL    HW126306   4.157   1.371   7.305  1.0190  0.9000 -0.8978
 4948SOL    HW226307   4.296   1.370   7.376  0.2871 -0.4226 -1.7190
 4949SOL     OW26308   1.879   0.319   5.741 -0.1779  0.7457  0.1821
 4949SOL    HW126309   1.813   0.344   5.805 -0.9348  0.0847 -0.3313
 4949SOL    HW226310   1.961   0.324   5.789  0.8199 -1.0140 -1.3335
 4950SOL     OW26311   3.498   2.721   3.950 -0.0440  0.0523 -0.1934
 4950SOL    HW126312   3.481   2.707   3.857 -0.1225 -0.6536 -0.0751
 4950SOL    HW226313   3.414   2.756   3.977  0.8907 -0.6934  3.6732
 4951SOL     OW26314   3.586   0.733  15.892 -0.4875 -0.0485  0.5110
 4951SOL    HW126315   3.674   0.747  15.857 -0.6203  0.4869  0.3890
 4951SOL    HW226316   3.606   0.699  15.979  0.0011  1.6574  1.0753
 4952SOL     OW26317   0.980   3.880   7.983  0.4471  0.3035 -0.2895
 4952SOL    HW126318   0.945   3.791   7.978  0.1032  0.4978 -1.4106
 4952SOL    HW226319   0.946   3.903   8.070 -2.3081 -0.9350 -1.0547
 4953SOL     OW26320   2.595   1.096  13.158 -0.1794  0.0542 -0.0214
 4953SOL    HW126321   2.667   1.158  13.146  1.0177 -1.1795  0.5978
 4953SOL    HW226322   2.624   1.023  13.103  1.0991  1.0264 -0.6425
 4954SOL     OW26323   0.822   1.122   7.729  0.6332  0.0061  0.0951
 4954SOL    HW126324   0.882   1.134   7.803 -1.6138 -0.5997  2.0518
 4954SOL    HW226325   0.825   1.212   7.696  0.7118  0.8717  2.3959
 4955SOL     OW26326   4.459   4.103  12.876 -0.4999 -0.5958  0.2724
 4955SOL    HW126327   4.420   4.148  12.802 -0.5484 -1.7224 -0.3946
 4955SOL    HW226328   4.394   4.113  12.946 -0.4292 -1.3765  0.4548
 4956SOL     OW26329   3.678   0.861   2.477  0.6105  0.0738  1.0207
 4956SOL    HW126330   3.639   0.848   2.390  0.6719 -0.6534  1.0992
 4956SOL    HW226331   3.699   0.953   2.487 -0.9046  0.3629  1.5378
 4957SOL     OW26332   1.104   0.476   2.652 -0.1434 -0.0036  0.1380
 4957SOL    HW126333   1.186   0.465   2.699  1.2953  0.9195 -2.1468
 4957SOL    HW226334   1.121   0.414   2.580 -1.8642 -1.1637  0.7191
 4958SOL     OW26335   2.353   2.867   0.795  0.5019  0.2950 -0.1917
 4958SOL    HW126336   2.442   2.887   0.765  0.7047 -1.9020 -1.0943
 4958SOL    HW226337   2.333   2.827   0.710  1.7475 -3.2721  1.1709
 4959SOL     OW26338   1.827   2.505  17.160  0.2883  0.2814  0.4064
 4959SOL    HW126339   1.887   2.545  17.097 -1.3185  0.6105 -0.9221
 4959SOL    HW226340   1.750   2.487  17.106  0.2594  1.6215 -0.0153
 4960SOL     OW26341   1.053   0.407   5.696  0.1899  0.7407  0.3582
 4960SOL    HW126342   0.964   0.374   5.688 -0.0273  1.1564  0.9919
 4960SOL    HW226343   1.060   0.447   5.609  0.7364  0.0446  0.0860
 4961SOL     OW26344   2.535   1.835   8.714 -0.0876  0.1858 -0.1914
 4961SOL    HW126345   2.499   1.910   8.762 -2.1233 -1.7670  1.3268
 4961SOL    HW226346   2.461   1.778   8.693  0.2389  0.0929 -1.0601
 4962SOL     OW26347   3.104   0.081   6.344 -0.7706  0.5105  0.3878
 4962SOL    HW126348   3.169   0.012   6.360 -0.0357  0.5053 -2.4497
 4962SOL    HW226349   3.073   0.057   6.256  0.5541 -1.8287  0.5543
 4963SOL     OW26350   4.665   2.559   7.786  0.2060 -0.1675  0.0411
 4963SOL    HW126351   4.629   2.506   7.857  2.6216 -2.3787 -0.4000
 4963SOL    HW226352   4.612   2.639   7.791  1.9202  1.0625 -1.4326
 4964SOL     OW26353   2.812   0.057   2.803  0.0169  0.2287 -0.0666
 4964SOL    HW126354   2.730   0.034   2.760  1.2301 -0.1755 -2.2315
 4964SOL    HW226355   2.841   0.122   2.738  1.3975 -1.3582 -1.0576
 4965SOL     OW26356   3.703   0.228   0.775  0.1865 -0.2138  0.7499
 4965SOL    HW126357   3.693   0.141   0.814  0.1616 -1.0507 -1.1259
 4965SOL    HW226358   3.741   0.281   0.845  0.9220 -0.9210  0.8889
 4966SOL     OW26359   3.573   3.434   8.073  0.0645 -0.1607  0.0346
 4966SOL    HW126360   3.512   3.376   8.027  0.4595 -0.9182  0.4707
 4966SOL    HW226361   3.612   3.476   7.996  0.3794  0.1621  0.3698
 4967SOL     OW26362   1.376   0.588   4.692 -0.4653 -0.2068 -0.0030
 4967SOL    HW126363   1.349   0.498   4.712  0.2960 -0.4169  0.1122
 4967SOL    HW226364   1.471   0.576   4.697 -0.1371  2.6747  0.3775
 4968SOL     OW26365   1.636   4.224  12.211  0.3425  0.2580  0.3044
 4968SOL    HW126366   1.671   4.174  12.136  0.6101 -0.3545  0.8385
 4968SOL    HW226367   1.711   4.213  12.270  0.5965  0.2511 -0.0165
 4969SOL     OW26368   0.349   4.050   3.926 -0.2540  0.5438 -0.2813
 4969SOL    HW126369   0.347   4.017   4.016  0.1227 -0.9314 -0.8034
 4969SOL    HW226370   0.257   4.076   3.924  0.4029  2.8691 -0.1210
 4970SOL     OW26371   4.363   3.185   7.574 -0.2667 -0.1161  0.0702
 4970SOL    HW126372   4.279   3.140   7.567  1.0654 -2.8162  1.4838
 4970SOL    HW226373   4.394   3.173   7.663 -0.0955 -2.6168 -0.3160
 4971SOL     OW26374   3.534   1.026   7.736  0.2487  0.3071  0.3412
 4971SOL    HW126375   3.569   1.105   7.777  0.9488  0.7333 -1.0802
 4971SOL    HW226376   3.501   0.972   7.809 -0.6140 -1.0469 -1.0406
 4972SOL     OW26377   0.162   4.432   6.082  0.4734  0.2465 -0.0708
 4972SOL    HW126378   0.127   4.425   6.170 -1.2660  1.8118 -0.6377
 4972SOL    HW226379   0.122   4.363   6.029  1.2486 -0.2631  0.0108
 4973SOL     OW26380   1.159   1.402   2.815  0.6386 -0.2020 -0.4820
 4973SOL    HW126381   1.102   1.446   2.878  1.7187  0.0379  0.3391
 4973SOL    HW226382   1.217   1.373   2.886 -0.5508 -2.0826 -0.2615
 4974SOL     OW26383   0.612   2.386   1.426 -0.7260 -0.6507 -0.6918
 4974SOL    HW126384   0.613   2.332   1.347 -0.2869 -2.9648  0.9036
 4974SOL    HW226385   0.539   2.444   1.406 -0.3286 -0.3217 -1.1886
 4975SOL     OW26386   1.730   2.876   2.796  0.4664 -0.1075 -0.2619
 4975SOL    HW126387   1.675   2.802   2.773 -0.0752  0.1935  0.0650
 4975SOL    HW226388   1.806   2.841   2.843  1.7485  1.7000 -0.9601
 4976SOL     OW26389   3.908   3.099   6.004  0.0409  0.3334  0.6507
 4976SOL    HW126390   3.871   3.119   5.918 -0.7346  1.1734  1.1702
 4976SOL    HW226391   3.892   3.186   6.041  5.5235  1.9380 -0.8045
 4977SOL     OW26392   1.867   1.691   6.038  0.2201  0.4056 -0.1819
 4977SOL    HW126393   1.872   1.688   5.942 -1.2283 -1.7592 -0.1871
 4977SOL    HW226394   1.957   1.720   6.051  0.5637  0.1823 -2.1070
 4978SOL     OW26395   0.563   1.680   5.298 -0.0057  0.1138  0.2691
 4978SOL    HW126396   0.534   1.743   5.364 -0.1493 -0.1469  0.4592
 4978SOL    HW226397   0.483   1.667   5.247  0.0178 -0.8461  0.4646
 4979SOL     OW26398   4.666   0.906   6.618 -0.3008  0.0267  0.0395
 4979SOL    HW126399   4.627   0.871   6.698 -0.5214  0.2120  0.0120
 4979SOL    HW226400   4.700   0.984   6.662 -0.0000 -1.7556  2.9164
 4980SOL     OW26401   3.700   1.597  16.174 -0.1779 -0.4461 -0.2356
 4980SOL    HW126402   3.611   1.597  16.208 -0.4812 -0.4585 -1.0262
 4980SOL    HW226403   3.676   1.579  16.083  1.4346 -1.2478 -0.5045
 4981SOL     OW26404   3.175   2.144  12.573 -0.2203 -0.1077 -0.3171
 4981SOL    HW126405   3.162   2.113  12.484 -0.7980 -0.5358 -0.0820
 4981SOL    HW226406   3.088   2.169  12.605  0.6743  1.1439  1.1877
 4982SOL     OW26407   2.276   2.679   7.191 -0.3385  0.7825 -0.0252
 4982SOL    HW126408   2.219   2.617   7.237 -2.5421  0.3825 -3.3283
 4982SOL    HW226409   2.257   2.766   7.227 -1.5894  0.2466  0.6158
 4983SOL     OW26410   0.816   4.330   1.179  0.0872  0.4264  0.3432
 4983SOL    HW126411   0.794   4.243   1.147 -0.4107  0.4911  0.5114
 4983SOL    HW226412   0.856   4.314   1.265  2.9331 -0.3872 -1.1365
 4984SOL     OW26413   2.410   3.827   3.172 -0.2530 -0.1323 -0.0510
 4984SOL    HW126414   2.399   3.888   3.246 -1.1283 -2.0234  1.3888
 4984SOL    HW226415   2.331   3.773   3.182 -0.5189  0.2994  0.1691
 4985SOL     OW26416   3.338   1.750   5.641  0.0480 -0.1343  0.2408
 4985SOL    HW126417   3.347   1.689   5.568 -1.1261 -0.8462  0.7030
 4985SOL    HW226418   3.265   1.720   5.696  0.3634 -0.9990  0.1716
 4986SOL     OW26419   0.392   4.614   4.343 -0.4551  0.1094  0.4842
 4986SOL    HW126420   0.409   4.708   4.341  1.3283 -0.2384 -0.2602
 4986SOL    HW226421   0.313   4.605   4.290 -0.0497 -0.3546 -0.0414
 4987SOL     OW26422   3.698   3.007   3.755 -0.3173  0.0926 -0.5736
 4987SOL    HW126423   3.712   3.035   3.845  0.3923 -0.4562 -0.5192
 4987SOL    HW226424   3.701   2.912   3.764 -2.5285  0.0112 -0.7841
 4988SOL     OW26425   3.021   3.885   0.612  0.2769 -0.4816  0.4657
 4988SOL    HW126426   2.930   3.880   0.641 -0.1166 -0.4141 -0.7668
 4988SOL    HW226427   3.025   3.913   0.520  1.2302  0.1702  0.7073
 4989SOL     OW26428   3.623   4.426   4.897  0.3523  0.7514  0.0520
 4989SOL    HW126429   3.673   4.344   4.894  0.3887  0.7879 -0.3618
 4989SOL    HW226430   3.639   4.482   4.821  0.7502  0.4225 -0.1085
 4990SOL     OW26431   3.891   0.709  10.589 -0.4150  0.3274  0.2104
 4990SOL    HW126432   3.958   0.739  10.528 -0.1813 -0.3580  0.1383
 4990SOL    HW226433   3.923   0.620  10.603  0.6637  0.4342 -1.5717
 4991SOL     OW26434   2.560   3.875  15.270 -0.1446  0.2260  0.1499
 4991SOL    HW126435   2.644   3.845  15.305 -0.7776  0.3958  1.8150
 4991SOL    HW226436   2.563   3.864  15.175 -0.4566  0.3623  0.1240
 4992SOL     OW26437   1.618   2.655   2.699  0.2994 -0.1874  0.1021
 4992SOL    HW126438   1.564   2.660   2.779  0.3991  1.9920  0.0547
 4992SOL    HW226439   1.558   2.618   2.635  0.6741  1.2618 -1.0922
 4993SOL     OW26440   1.557   1.305  17.222 -0.0024 -0.3085 -0.3435
 4993SOL    HW126441   1.609   1.225  17.224  0.6645  0.1206 -0.2634
 4993SOL    HW226442   1.554   1.334  17.131 -2.7239 -0.3269 -0.2553
 4994SOL     OW26443   3.657   2.852   7.432  0.3497  0.0609 -0.4025
 4994SOL    HW126444   3.584   2.791   7.442  0.3441  0.0041 -0.7704
 4994SOL    HW226445   3.691   2.856   7.521 -2.2448 -0.5023  0.6070
 4995SOL     OW26446   3.597   2.623   1.971  0.0309 -0.5139 -0.1741
 4995SOL    HW126447   3.564   2.634   2.060  0.7383  1.8628 -0.1956
 4995SOL    HW226448   3.620   2.713   1.948 -0.1362 -0.5117 -0.3390
 4996SOL     OW26449   3.323   0.802   2.188 -0.2765 -0.5941 -0.6409
 4996SOL    HW126450   3.415   0.789   2.168 -0.7069 -4.0028 -0.4022
 4996SOL    HW226451   3.331   0.789   2.282 -0.1029  1.5957 -0.3631
 4997SOL     OW26452   3.221   2.527   1.592 -0.4987 -0.4673 -0.6127
 4997SOL    HW126453   3.255   2.527   1.681 -0.2715 -2.0047 -0.6981
 4997SOL    HW226454   3.274   2.457   1.555  0.0647  0.1253 -0.9377
 4998SOL     OW26455   3.966   3.275   4.438  0.1441  0.0619  0.4312
 4998SOL    HW126456   3.888   3.328   4.423  1.2008  0.8276 -2.4869
 4998SOL    HW226457   3.989   3.285   4.530  1.6891  0.9735 -0.0534
 4999SOL     OW26458   0.382   4.669   9.469 -0.0485 -0.2124 -0.1607
 4999SOL    HW126459   0.343   0.002   9.403 -0.7710 -2.1996 -1.4537
 4999SOL    HW226460   0.330   4.589   9.454 -0.9963  0.3592  0.0448
 5000SOL     OW26461   0.944   2.602   3.281  0.3611 -0.0343 -0.5065
 5000SOL    HW126462   0.867   2.558   3.244  0.4668 -1.1355  0.5849
 5000SOL    HW226463   0.977   2.537   3.343 -0.0427  0.6884  0.4640
 5001SOL     OW26464   0.897   1.225   6.626  0.3601 -0.3339  0.1024
 5001SOL    HW126465   0.915   1.313   6.594 -1.7422 -0.6533 -2.0115
 5001SOL    HW226466   0.865   1.185   6.545 -4.2537  1.0636  1.2132
 5002SOL     OW26467   3.513   1.521   2.173 -0.4119  0.7813 -0.1938
 5002SOL    HW126468   3.516   1.429   2.147  3.3635 -0.0775  3.2815
 5002SOL    HW226469   3.583   1.560   2.121 -1.4220  2.0498 -0.6021
 5003SOL     OW26470   0.137   2.931   7.951 -0.0835  0.1284 -0.0144
 5003SOL    HW126471   0.222   2.894   7.927 -0.9581 -2.3504  0.6975
 5003SOL    HW226472   0.091   2.953   7.870 -0.9599  0.7537  0.6388
 5004SOL     OW26473   3.837   2.497  10.523 -0.8588 -0.2212 -0.1212
 5004SOL    HW126474   3.846   2.440  10.599 -1.0718  1.8872  1.4685
 5004SOL    HW226475   3.742   2.501  10.510 -1.2128 -2.3610  1.8478
 5005SOL     OW26476   4.307   1.187   4.364  0.2571  0.6283  0.4666
 5005SOL    HW126477   4.234   1.125   4.362  0.9494 -0.1768  0.0792
 5005SOL    HW226478   4.294   1.234   4.282 -0.1723  1.0504  0.7729
 5006SOL     OW26479   0.669   1.068   7.365  0.4159  0.4906 -0.2261
 5006SOL    HW126480   0.683   1.159   7.339 -1.2978  1.2828  1.6033
 5006SOL    HW226481   0.573   1.072   7.360  0.4293 -0.3032 -1.2711
 5007SOL     OW26482   3.703   0.459   8.933  0.1640 -0.8440 -0.0205
 5007SOL    HW126483   3.719   0.477   8.840  2.0968  0.6955  0.6119
 5007SOL    HW226484   3.689   0.548   8.965 -1.6222 -1.4468  0.9053
 5008SOL     OW26485   0.840   3.498   8.669 -0.3127  0.2670 -0.3074
 5008SOL    HW126486   0.901   3.572   8.669 -1.7886  1.4905 -2.2122
 5008SOL    HW226487   0.799   3.505   8.583 -0.3607 -0.0511 -0.3102
 5009SOL     OW26488   0.599   2.757  13.503  0.1724 -0.0423 -0.1890
 5009SOL    HW126489   0.620   2.664  13.494 -0.3299 -0.1084 -0.6522
 5009SOL    HW226490   0.676   2.806  13.473 -0.3056  1.8520  1.6802
 5010SOL     OW26491   0.069   2.610  11.223 -0.2020  0.0221  0.6117
 5010SOL    HW126492   4.722   2.568  11.174 -1.3426  0.5249  1.8455
 5010SOL    HW226493   0.030   2.664  11.292 -1.4621  1.1294 -0.9573
 5011SOL     OW26494   2.792   3.473   4.228 -0.2727 -0.3212 -0.2586
 5011SOL    HW126495   2.766   3.514   4.145 -1.6136  1.7735  1.1834
 5011SOL    HW226496   2.778   3.550   4.283 -1.9800  0.9575 -2.4727
 5012SOL     OW26497   0.994   1.015   0.516  0.0555  0.2410 -0.4114
 5012SOL    HW126498   0.952   0.929   0.516  0.5562 -0.0035 -0.4365
 5012SOL    HW226499   1.048   1.012   0.594  0.8521  0.4576 -0.9554
 5013SOL     OW26500   2.383   0.948   1.652  0.4081  0.5069  0.4309
 5013SOL    HW126501   2.375   0.958   1.747  1.0723 -0.2871  0.5721
 5013SOL    HW226502   2.384   0.854   1.634  2.0704  0.7336 -0.6732
 5014SOL     OW26503   1.081   1.359  17.050 -0.1412  0.2617 -0.0337
 5014SOL    HW126504   1.106   1.390  17.137  0.8916 -1.5234  0.3295
 5014SOL    HW226505   1.162   1.310  17.030 -0.4012 -0.7084  1.2520
 5015SOL     OW26506   3.922   4.543  16.547  0.1827  0.4016 -0.1864
 5015SOL    HW126507   3.881   4.588  16.474  0.8242  2.0164  0.4595
 5015SOL    HW226508   3.935   4.454  16.512  1.5323  0.1977  0.8318
 5016SOL     OW26509   1.097   0.247   8.959  0.1791  0.2095 -0.0426
 5016SOL    HW126510   1.182   0.205   8.968  0.5444  1.5431  2.6998
 5016SOL    HW226511   1.116   0.304   8.884  0.8094 -0.7509 -0.6074
 5017SOL     OW26512   4.645   2.041   5.320 -0.4234  0.3371  0.0956
 5017SOL    HW126513   4.593   2.055   5.399  1.7957 -0.4469  1.6781
 5017SOL    HW226514   0.007   2.026   5.358 -0.3634 -3.5148 -1.5204
 5018SOL     OW26515   2.358   1.417   7.231 -0.4815 -0.1792 -0.2114
 5018SOL    HW126516   2.416   1.401   7.305  0.8185  1.8135 -0.7851
 5018SOL    HW226517   2.289   1.355   7.255 -2.8331  1.8486 -1.6374
 5019SOL     OW26518   3.914   2.792   8.562 -0.2742 -0.2912  0.1868
 5019SOL    HW126519   3.885   2.702   8.576 -1.3448  0.0176 -0.0502
 5019SOL    HW226520   4.000   2.791   8.604 -0.3031  3.7732  0.3447
 5020SOL     OW26521   4.315   0.028   6.187 -0.1879 -0.1134 -0.0484
 5020SOL    HW126522   4.340   0.016   6.095  0.0414 -0.5519  0.0663
 5020SOL    HW226523   4.371   0.100   6.214 -0.2183 -0.2677  0.4256
 5021SOL     OW26524   4.343   1.592   9.838 -0.5934 -0.3898  0.1474
 5021SOL    HW126525   4.324   1.685   9.846 -1.5888 -0.4901 -1.1415
 5021SOL    HW226526   4.403   1.580   9.764 -1.0010 -0.5339 -0.1549
 5022SOL     OW26527   3.619   1.473   7.493 -0.0589  0.0749 -0.8814
 5022SOL    HW126528   3.575   1.415   7.430  1.6983 -3.2829  0.9777
 5022SOL    HW226529   3.549   1.480   7.558  1.5297 -0.5085  0.9174
 5023SOL     OW26530   0.989   0.366   4.985 -0.5711  0.3546 -0.1983
 5023SOL    HW126531   1.054   0.296   4.987 -1.2907 -0.2734  1.9091
 5023SOL    HW226532   0.970   0.373   5.079  0.6040  0.2439  0.0470
 5024SOL     OW26533   1.261   2.309   5.938 -0.3490 -0.3892 -0.3822
 5024SOL    HW126534   1.241   2.242   5.873 -0.6622 -3.0545  2.4270
 5024SOL    HW226535   1.356   2.317   5.927 -0.4343  2.0753  0.6610
 5025SOL     OW26536   0.333   4.400   2.640  0.4248 -0.2050 -0.2852
 5025SOL    HW126537   0.300   4.456   2.569  1.6521  3.6655  2.2253
 5025SOL    HW226538   0.423   4.387   2.609  0.9399  0.4154  0.9995
 5026SOL     OW26539   2.172   0.453   3.417  0.1660 -0.2056  0.0478
 5026SOL    HW126540   2.194   0.377   3.364  0.9487  0.1497 -0.1367
 5026SOL    HW226541   2.098   0.419   3.467  0.9971 -1.8623  0.1715
 5027SOL     OW26542   3.910   1.093  12.313  0.2039 -0.2311  0.0578
 5027SOL    HW126543   3.891   0.999  12.306 -0.2426  0.0402 -2.3149
 5027SOL    HW226544   3.825   1.135  12.302 -0.8866 -2.6316 -0.7841
 5028SOL     OW26545   1.931   0.711   6.825 -0.2452  0.1939 -0.0818
 5028SOL    HW126546   1.884   0.695   6.907  0.3729 -1.7015 -0.0793
 5028SOL    HW226547   1.968   0.624   6.808  0.0496  0.7948 -2.4676
 5029SOL     OW26548   2.663   1.624   5.181 -0.0303 -0.4686  0.3317
 5029SOL    HW126549   2.706   1.614   5.266 -0.1111  1.8653  0.6399
 5029SOL    HW226550   2.727   1.597   5.116 -0.4281 -2.0128  0.5678
 5030SOL     OW26551   2.380   0.589   3.511 -0.1405 -0.3689  1.3421
 5030SOL    HW126552   2.290   0.559   3.500  0.5612 -2.0701  0.0883
 5030SOL    HW226553   2.376   0.616   3.603 -0.9559  1.3675  0.7990
 5031SOL     OW26554   3.781   1.558   8.090 -0.1259 -0.0544 -0.0029
 5031SOL    HW126555   3.745   1.581   8.004 -0.4459  0.7386  0.3437
 5031SOL    HW226556   3.771   1.463   8.083  1.9805 -0.2624 -0.0707
 5032SOL     OW26557   1.330   3.479   1.370 -0.1299 -0.0218  0.5838
 5032SOL    HW126558   1.292   3.480   1.282  4.3194  2.1669 -1.3270
 5032SOL    HW226559   1.338   3.572   1.393 -1.3772 -0.1482  1.5191
 5033SOL     OW26560   3.872   4.567   8.366 -0.1477 -0.3608 -0.0793
 5033SOL    HW126561   3.784   4.542   8.393 -1.0793  1.2648 -1.6464
 5033SOL    HW226562   3.916   4.483   8.351 -0.9627 -0.4427 -2.0316
 5034SOL     OW26563   0.629   1.766   9.828 -0.1275  0.3202  0.3153
 5034SOL    HW126564   0.694   1.821   9.784  2.3456 -0.6944  2.6695
 5034SOL    HW226565   0.639   1.775   9.923  1.1107  2.9588 -0.0511
 5035SOL     OW26566   2.871   3.116   4.046  0.1949 -0.1073 -0.2931
 5035SOL    HW126567   2.784   3.093   4.014 -0.7112 -1.0479  2.7793
 5035SOL    HW226568   2.845   3.159   4.128  1.6592  0.0987  0.0534
 5036SOL     OW26569   2.213   3.403   3.010  0.2941 -0.7409  0.4561
 5036SOL    HW126570   2.208   3.311   3.035  0.7929 -0.7141  0.6473
 5036SOL    HW226571   2.125   3.435   3.033  0.5665  1.2013 -1.2188
 5037SOL     OW26572   4.646   4.465   2.014  0.1435  0.2682 -0.0024
 5037SOL    HW126573   4.625   4.423   2.098 -0.7097  2.2528  0.7738
 5037SOL    HW226574   4.660   4.552   2.051 -0.1518 -0.3286  1.5212
 5038SOL     OW26575   3.193   0.395   8.674 -0.5348 -0.0429 -0.2517
 5038SOL    HW126576   3.188   0.478   8.627 -0.6234 -0.6397 -1.2980
 5038SOL    HW226577   3.125   0.349   8.624 -1.2580  1.6548 -0.8515
 5039SOL     OW26578   2.938   2.779   2.389 -0.2161  0.3479  0.2254
 5039SOL    HW126579   2.967   2.749   2.475 -0.1315 -0.9273 -0.2329
 5039SOL    HW226580   2.854   2.735   2.380 -0.5544  0.6689  1.9320
 5040SOL     OW26581   0.306   3.940   0.174 -0.6168 -0.4093 -0.1442
 5040SOL    HW126582   0.337   3.918   0.086 -0.6770  2.4860 -0.9067
 5040SOL    HW226583   0.380   3.989   0.209  0.2482 -4.4771  3.7662
 5041SOL     OW26584   3.001   1.046   7.367 -0.1582 -0.0209 -0.2263
 5041SOL    HW126585   3.060   0.987   7.321  0.2128  0.7424 -0.7407
 5041SOL    HW226586   2.969   0.994   7.441  1.4880  0.4084  0.8007
 5042SOL     OW26587   2.408   3.209   3.271 -0.3608 -0.4180 -0.2938
 5042SOL    HW126588   2.404   3.303   3.249  1.2817 -0.4452 -0.6941
 5042SOL    HW226589   2.415   3.164   3.187 -0.6113  1.2414 -1.2174
 5043SOL     OW26590   0.517   2.010   3.970  0.1330 -0.0645  0.1830
 5043SOL    HW126591   0.493   2.087   4.022  1.8074  0.3273  0.3798
 5043SOL    HW226592   0.504   1.950   4.042  2.0970  0.2157  0.7577
 5044SOL     OW26593   2.631   4.202  11.999 -0.3182  0.3574 -0.5951
 5044SOL    HW126594   2.695   4.141  11.962  2.5171  1.8359  1.8983
 5044SOL    HW226595   2.612   4.241  11.914  0.5047  1.2073 -0.3837
 5045SOL     OW26596   3.672   0.986   6.278 -0.5304  0.6226 -1.1154
 5045SOL    HW126597   3.610   0.962   6.347 -0.7711 -0.4960 -1.7141
 5045SOL    HW226598   3.611   1.016   6.211  1.5361  1.9818 -2.4018
 5046SOL     OW26599   3.159   1.501   5.004 -0.4227 -0.4186  0.4796
 5046SOL    HW126600   3.111   1.476   5.083 -3.1706  0.0016 -1.0839
 5046SOL    HW226601   3.114   1.448   4.938  1.4392 -3.2302  1.4738
 5047SOL     OW26602   0.229   0.394   3.721 -1.1011 -0.2129 -0.1336
 5047SOL    HW126603   0.257   0.354   3.803 -0.3748 -0.4415 -0.4871
 5047SOL    HW226604   0.279   0.475   3.711 -0.3788 -0.8253 -1.5144
 5048SOL     OW26605   4.478   4.476   5.955  0.2068 -0.5736  0.7408
 5048SOL    HW126606   4.534   4.445   6.026  1.9662  2.3082  0.5845
 5048SOL    HW226607   4.393   4.441   5.983  0.8040  1.0073  4.4794
 5049SOL     OW26608   3.518   2.534   4.216  0.9517  0.7090 -0.6528
 5049SOL    HW126609   3.504   2.615   4.168  3.9361  0.0947 -2.5446
 5049SOL    HW226610   3.463   2.473   4.167 -1.2780  2.1476  0.0638
 5050SOL     OW26611   3.034   0.234  17.592  0.2691  0.5050 -0.1951
 5050SOL    HW126612   3.105   0.209  17.533  0.4447 -0.6905  0.5370
 5050SOL    HW226613   3.047   0.163  17.655 -0.4031 -0.3850 -1.0591
 5051SOL     OW26614   0.251   4.451   1.615 -0.1166  0.4392 -0.2630
 5051SOL    HW126615   0.290   4.370   1.649 -3.3256 -0.9019  0.1807
 5051SOL    HW226616   0.172   4.458   1.667 -0.4698  1.3582 -0.9285
 5052SOL     OW26617   2.255   1.088   6.586 -0.0790 -0.0499  0.3227
 5052SOL    HW126618   2.208   1.078   6.669  1.9000 -1.0299  1.3285
 5052SOL    HW226619   2.348   1.090   6.608  0.2743 -0.3225 -1.1598
 5053SOL     OW26620   0.160   2.622   5.318 -0.0974 -0.1639 -0.2750
 5053SOL    HW126621   0.203   2.553   5.369  0.3514  1.5166  1.6059
 5053SOL    HW226622   0.216   2.620   5.241 -0.5326 -1.5852 -0.5692
 5054SOL     OW26623   1.740   0.285   6.699  0.3764  0.7319 -0.2584
 5054SOL    HW126624   1.682   0.270   6.773  0.0768  0.3529 -0.5721
 5054SOL    HW226625   1.683   0.253   6.630 -0.0408  0.8037  0.0516
 5055SOL     OW26626   1.885   4.107   2.758 -0.3534 -0.2480 -0.4752
 5055SOL    HW126627   1.828   4.079   2.830 -2.8459  2.5137 -1.3760
 5055SOL    HW226628   1.939   4.032   2.732  0.9185  0.8482 -0.9441
 5056SOL     OW26629   3.936   3.670   0.315  0.1913  0.2478 -0.3147
 5056SOL    HW126630   3.975   3.661   0.402 -1.1293 -2.0620  0.0405
 5056SOL    HW226631   3.898   3.585   0.295 -2.2768  1.7325 -1.9449
 5057SOL     OW26632   4.198   1.321   1.542  0.2538  0.3675 -0.0729
 5057SOL    HW126633   4.262   1.361   1.483  1.0181  0.4972  0.8487
 5057SOL    HW226634   4.191   1.236   1.498  1.9594  1.5304 -2.5833
 5058SOL     OW26635   4.448   3.773   5.221  0.0595 -0.4345  0.4917
 5058SOL    HW126636   4.358   3.740   5.225  0.6769 -2.0987  0.8692
 5058SOL    HW226637   4.490   3.704   5.169  0.6465 -0.7737  1.4157
 5059SOL     OW26638   3.838   0.798  15.741 -0.2014 -0.2338  0.8246
 5059SOL    HW126639   3.877   0.881  15.713 -0.7004 -0.3552 -0.2680
 5059SOL    HW226640   3.911   0.755  15.784  1.3677 -0.0104 -1.5968
 5060SOL     OW26641   1.837   1.980   6.273  0.1160  0.3640  0.4072
 5060SOL    HW126642   1.897   1.934   6.331  1.4657  0.0330 -1.2639
 5060SOL    HW226643   1.750   1.950   6.298  0.3272 -0.5797  0.0021
 5061SOL     OW26644   1.417   1.868  17.313  0.4582  0.0822  0.1964
 5061SOL    HW126645   1.349   1.888  17.378 -0.5766  0.0104 -0.8613
 5061SOL    HW226646   1.392   1.940  17.255 -1.6049 -0.5821  0.2751
 5062SOL     OW26647   0.601   1.761   7.371  0.0054  0.4365  0.2485
 5062SOL    HW126648   0.577   1.818   7.444  2.8047  1.5122  0.3416
 5062SOL    HW226649   0.520   1.711   7.365 -0.9378  2.1806 -1.2088
 5063SOL     OW26650   3.551   1.661   7.915 -0.2271 -0.1657 -0.0736
 5063SOL    HW126651   3.585   1.750   7.912 -3.6937  1.1919  1.0351
 5063SOL    HW226652   3.480   1.663   7.980 -0.3698  0.3633 -0.2511
 5064SOL     OW26653   1.097   0.756  17.195  0.2588  0.5156 -0.6570
 5064SOL    HW126654   1.169   0.695  17.214 -0.5074 -0.4296 -0.7522
 5064SOL    HW226655   1.121   0.784  17.107  2.4408 -0.0262 -0.2566
 5065SOL     OW26656   4.247   0.894  15.731 -1.1094  0.1739  0.2182
 5065SOL    HW126657   4.289   0.922  15.650  0.1122 -1.2856  0.3349
 5065SOL    HW226658   4.301   0.816  15.743  1.5044  2.0283  0.4762
 5066SOL     OW26659   1.614   3.630   5.265  0.3329  0.0796 -0.1510
 5066SOL    HW126660   1.569   3.704   5.305  0.4186  0.3870 -0.6208
 5066SOL    HW226661   1.640   3.661   5.178 -0.8545 -1.2302 -0.9837
 5067SOL     OW26662   4.140   2.716   5.022  0.2529  0.1163 -0.1069
 5067SOL    HW126663   4.125   2.652   5.092 -0.7332 -0.4259 -0.8041
 5067SOL    HW226664   4.176   2.790   5.070  1.8412 -1.1842  0.6943
 5068SOL     OW26665   1.951   1.155   4.468  0.1754 -0.2030 -0.1426
 5068SOL    HW126666   1.943   1.122   4.557  1.2753 -2.4114 -0.8771
 5068SOL    HW226667   2.024   1.104   4.435 -0.3448 -0.0967 -1.4584
 5069SOL     OW26668   1.198   1.601   5.071 -0.0822 -0.2019  0.1415
 5069SOL    HW126669   1.266   1.664   5.044  1.9195 -1.9739  1.0206
 5069SOL    HW226670   1.200   1.603   5.167 -0.8742  1.0019  0.1396
 5070SOL     OW26671   1.757   4.553   8.706  0.2084 -0.1983  0.3286
 5070SOL    HW126672   1.668   4.516   8.704  0.8970 -1.7515 -1.2596
 5070SOL    HW226673   1.742   4.613   8.778  0.3456 -0.9971  1.0197
 5071SOL     OW26674   3.529   1.457   4.256 -0.2334 -0.7201 -0.1613
 5071SOL    HW126675   3.554   1.479   4.346  0.5157  0.4169 -0.6384
 5071SOL    HW226676   3.494   1.369   4.270  0.6950 -0.8432  1.2759
 5072SOL     OW26677   3.622   3.978   5.801  0.1309  0.4842 -0.8036
 5072SOL    HW126678   3.610   3.890   5.836  0.4949  1.5416  1.9396
 5072SOL    HW226679   3.581   3.960   5.716  0.5975  0.4485 -1.0185
 5073SOL     OW26680   0.240   1.067   4.565  0.2306 -0.4062 -0.1827
 5073SOL    HW126681   0.303   0.995   4.576  2.0677  0.9788 -1.6386
 5073SOL    HW226682   0.294   1.146   4.568  0.6114 -0.5706 -2.2016
 5074SOL     OW26683   4.093   2.147   3.062  0.4410  0.0026  0.5081
 5074SOL    HW126684   4.187   2.160   3.056  0.5069 -0.8312 -0.2305
 5074SOL    HW226685   4.066   2.234   3.090 -0.2887  0.4935 -1.7738
 5075SOL     OW26686   3.821   3.440  14.009  0.6253 -0.1391  0.3974
 5075SOL    HW126687   3.829   3.345  14.012  1.2999 -0.1409 -1.3564
 5075SOL    HW226688   3.890   3.459  13.945 -0.0505  0.5892 -0.1256
 5076SOL     OW26689   4.442   2.177  10.130 -0.8342 -0.8717 -0.8029
 5076SOL    HW126690   4.440   2.082  10.142  1.3163 -0.7331  0.7290
 5076SOL    HW226691   4.391   2.211  10.204 -2.3002  1.6161 -2.9594
 5077SOL     OW26692   2.137   4.488   0.841 -0.4561  0.1726 -0.0247
 5077SOL    HW126693   2.165   4.539   0.917 -1.2373 -1.1401  1.1462
 5077SOL    HW226694   2.101   4.410   0.883 -0.4815 -0.1070 -0.5652
 5078SOL     OW26695   2.699   1.195   8.869 -0.1744 -0.2224  0.0287
 5078SOL    HW126696   2.621   1.247   8.852 -1.4353 -2.3598 -0.6572
 5078SOL    HW226697   2.738   1.213   8.784 -0.6942 -1.4686 -0.4783
 5079SOL     OW26698   1.280   0.642   3.450  0.6374  0.3656  0.5970
 5079SOL    HW126699   1.317   0.707   3.511  0.3171 -0.0436  1.2222
 5079SOL    HW226700   1.221   0.591   3.504  0.5243  1.7940  1.8341
 5080SOL     OW26701   1.734   0.971   9.004 -0.4663 -0.6737  0.1033
 5080SOL    HW126702   1.718   1.065   9.001  2.8257 -0.1082 -0.1781
 5080SOL    HW226703   1.818   0.963   9.049 -0.0785 -0.9168 -0.6769
 5081SOL     OW26704   4.151   0.382   7.334 -0.3742 -0.4242  0.0228
 5081SOL    HW126705   4.073   0.438   7.333 -0.3815 -0.4439 -2.1073
 5081SOL    HW226706   4.150   0.357   7.241 -1.6266  0.9192 -0.3179
 5082SOL     OW26707   2.239   4.679   2.771 -0.2822  0.2216 -0.0524
 5082SOL    HW126708   2.165   0.014   2.782 -2.9699 -2.9021 -1.2528
 5082SOL    HW226709   2.228   4.660   2.678  0.1770  0.5159 -0.1631
 5083SOL     OW26710   0.889   2.590   2.896 -0.4551  0.4191 -0.0100
 5083SOL    HW126711   0.863   2.583   2.804 -1.4689  0.0079  0.3113
 5083SOL    HW226712   0.813   2.549   2.936  0.8337 -0.4412  1.5843
 5084SOL     OW26713   4.117   0.167   2.592 -0.2564 -0.4262 -0.7819
 5084SOL    HW126714   4.094   0.201   2.505 -1.8846 -0.4921 -0.3842
 5084SOL    HW226715   4.120   0.076   2.563  0.9280 -1.4763  2.6794
 5085SOL     OW26716   3.382   4.530   3.804  0.2366  0.1308  0.4600
 5085SOL    HW126717   3.290   4.555   3.814  0.2644  0.9410 -1.3219
 5085SOL    HW226718   3.369   4.464   3.735 -1.7248  2.1926 -1.1697
 5086SOL     OW26719   1.009   4.247  17.385  0.4763  0.0529 -0.1127
 5086SOL    HW126720   1.008   4.209  17.297  2.3783 -0.8834  0.2690
 5086SOL    HW226721   1.049   4.331  17.362 -1.2263  1.1384  0.8864
 5087SOL     OW26722   4.443   3.796   7.364 -0.0539  0.5426 -0.4979
 5087SOL    HW126723   4.527   3.749   7.363 -0.5023 -0.2451 -0.9136
 5087SOL    HW226724   4.449   3.879   7.410 -2.2480 -0.0524  0.8583
 5088SOL     OW26725   4.422   1.532   4.942  0.2369 -0.4262 -0.6370
 5088SOL    HW126726   4.359   1.600   4.916 -0.4477 -0.6835  0.3422
 5088SOL    HW226727   4.448   1.511   4.852  2.2629  0.1511 -0.1720
 5089SOL     OW26728   1.502   3.185   4.720  0.5901  0.3257 -0.1439
 5089SOL    HW126729   1.462   3.254   4.668  0.6158  1.0448  0.7831
 5089SOL    HW226730   1.503   3.220   4.809  0.5507 -0.9923  0.3859
 5090SOL     OW26731   2.477   0.982   7.277  0.0568  0.1677 -0.4829
 5090SOL    HW126732   2.484   0.932   7.358  2.1316  0.9815 -0.1506
 5090SOL    HW226733   2.550   0.957   7.221  2.2876  1.8330  1.6732
 5091SOL     OW26734   3.652   0.623  11.701 -0.4885  0.1589  0.5657
 5091SOL    HW126735   3.671   0.712  11.729  0.2314  0.5668 -1.2348
 5091SOL    HW226736   3.738   0.587  11.679 -0.3513 -0.6227  2.3648
 5092SOL     OW26737   1.604   4.510   5.301  0.3518 -0.3842  0.1886
 5092SOL    HW126738   1.578   4.558   5.380  0.8858  0.1058  0.0685
 5092SOL    HW226739   1.610   4.580   5.236  1.1527  0.6944  1.4151
 5093SOL     OW26740   3.906   0.503   9.642  1.1166 -0.1313 -0.4367
 5093SOL    HW126741   3.874   0.503   9.552  0.3654  2.1893 -0.1654
 5093SOL    HW226742   3.862   0.425   9.675  0.2675  1.8296  3.0392
 5094SOL     OW26743   0.540   3.993   3.216  0.2095  0.0432  0.1289
 5094SOL    HW126744   0.517   3.924   3.153 -0.9303  1.2116 -0.7349
 5094SOL    HW226745   0.628   4.019   3.188 -0.5638  0.3494 -2.0482
 5095SOL     OW26746   3.014   1.217   8.935 -0.3569 -0.1261  0.3036
 5095SOL    HW126747   3.062   1.299   8.938 -0.1895 -0.1959 -0.7339
 5095SOL    HW226748   2.943   1.239   8.874  0.6320  2.1341 -0.0260
 5096SOL     OW26749   4.679   1.417   5.965 -0.2586  0.3118  0.7474
 5096SOL    HW126750   4.695   1.380   5.878 -1.1758 -0.0591  0.7431
 5096SOL    HW226751   4.588   1.444   5.953  0.2771  1.2714 -1.2087
 5097SOL     OW26752   0.463   0.133  15.796  0.0306 -0.1826 -0.1710
 5097SOL    HW126753   0.425   0.194  15.733 -0.7716  1.0100  1.4718
 5097SOL    HW226754   0.467   0.184  15.877 -0.0976  1.1507 -1.0068
 5098SOL     OW26755   2.924   4.027   8.604  0.4096 -0.2389 -0.5317
 5098SOL    HW126756   2.943   4.080   8.526 -0.2972 -1.8606 -1.8147
 5098SOL    HW226757   3.011   4.000   8.634 -0.5537 -3.8900 -0.9728
 5099SOL     OW26758   0.356   1.247   3.118 -0.7113  0.2115  0.6085
 5099SOL    HW126759   0.344   1.265   3.211 -2.5608 -1.2178  0.6409
 5099SOL    HW226760   0.283   1.187   3.102 -0.2662 -0.6660  1.9312
 5100SOL     OW26761   1.360   2.080   2.654  0.2865 -0.2016 -0.5988
 5100SOL    HW126762   1.363   2.163   2.606  4.0193  1.1050  1.9362
 5100SOL    HW226763   1.386   2.015   2.589 -2.0612 -0.9618 -0.7769
 5101SOL     OW26764   2.455   2.401   9.812  0.2139  0.2855 -0.5417
 5101SOL    HW126765   2.487   2.423   9.724  0.2778 -1.0403 -0.8528
 5101SOL    HW226766   2.475   2.308   9.815 -0.7523 -0.0227 -3.3978
 5102SOL     OW26767   4.342   0.156   7.445  0.1015  0.1251  1.3229
 5102SOL    HW126768   4.316   0.065   7.456 -0.5806 -0.0444 -1.6223
 5102SOL    HW226769   4.314   0.177   7.534 -1.8737 -0.1305  0.7445
 5103SOL     OW26770   3.973   4.166  12.203 -0.4165 -0.2391  0.2715
 5103SOL    HW126771   3.945   4.200  12.118 -1.3164 -0.7439  0.3683
 5103SOL    HW226772   3.914   4.212  12.263  0.5833 -1.2862  2.0368
 5104SOL     OW26773   4.418   3.560  11.764 -0.0030 -0.2542  0.0350
 5104SOL    HW126774   4.396   3.617  11.838 -2.2922  1.4447 -1.9522
 5104SOL    HW226775   4.363   3.600  11.697 -1.4295 -1.1743  0.6495
 5105SOL     OW26776   0.693   2.540   3.893 -0.0053 -0.1143 -0.1195
 5105SOL    HW126777   0.691   2.623   3.845  0.3206  0.4974  0.9485
 5105SOL    HW226778   0.625   2.490   3.847  0.3384 -0.1673 -0.5743
 5106SOL     OW26779   4.282   2.879   3.855 -0.4715 -0.2178 -0.0109
 5106SOL    HW126780   4.202   2.881   3.802 -1.7050 -2.0759  1.7520
 5106SOL    HW226781   4.278   2.954   3.914 -0.1602 -0.6071  0.5078
 5107SOL     OW26782   4.321   1.492   5.470 -0.6704  0.0930 -0.5653
 5107SOL    HW126783   4.265   1.440   5.412  0.4120 -0.1040 -1.4399
 5107SOL    HW226784   4.284   1.474   5.556 -0.3524 -2.1049 -0.8751
 5108SOL     OW26785   2.084   2.868   7.016 -0.0838 -0.0543  0.5243
 5108SOL    HW126786   2.092   2.954   7.057 -0.6978 -1.1749  2.9339
 5108SOL    HW226787   2.177   2.867   6.992 -0.1564 -1.9618  0.3164
 5109SOL     OW26788   1.125   1.267  12.831 -0.2149  0.0586  0.2446
 5109SOL    HW126789   1.216   1.291  12.850  0.2024 -0.3864 -1.2171
 5109SOL    HW226790   1.071   1.346  12.831 -2.4435 -1.4540  0.3379
 5110SOL     OW26791   0.858   1.249   5.218 -0.5560  0.2397  0.6898
 5110SOL    HW126792   0.850   1.320   5.155 -1.1008  0.6046  1.1749
 5110SOL    HW226793   0.778   1.259   5.269 -0.5294  0.9140  0.5983
 5111SOL     OW26794   4.696   4.366   4.132 -0.1707  0.7898 -0.0857
 5111SOL    HW126795   4.679   4.396   4.043 -1.7699  0.4682  0.1185
 5111SOL    HW226796   4.664   4.448   4.171  1.5686  1.2206  0.4671
 5112SOL     OW26797   2.680   4.265   3.638  0.1490  0.1492  0.2074
 5112SOL    HW126798   2.634   4.292   3.558 -1.3148  3.4335  2.1613
 5112SOL    HW226799   2.726   4.348   3.643 -0.7886  0.9223 -4.0548
 5113SOL     OW26800   3.696   0.389  16.184 -0.0895 -0.6781  0.3642
 5113SOL    HW126801   3.623   0.451  16.189 -0.5723 -1.2735  0.6428
 5113SOL    HW226802   3.766   0.437  16.229 -0.9381 -1.3330  2.3833
 5114SOL     OW26803   4.698   0.780  17.529 -0.3862 -0.6644  0.0959
 5114SOL    HW126804   4.608   0.751  17.512 -0.4627 -0.8423  0.7654
 5114SOL    HW226805   0.012   0.695  17.553  0.1970 -0.1527  1.0011
 5115SOL     OW26806   0.925   2.773   0.300 -0.2867 -0.6857 -0.4110
 5115SOL    HW126807   0.924   2.864   0.270 -1.6489 -0.5203  0.1589
 5115SOL    HW226808   1.015   2.746   0.281  1.0261  1.4308  2.7930
 5116SOL     OW26809   4.724   3.943   0.653 -0.0374  0.3753 -0.3274
 5116SOL    HW126810   0.056   3.951   0.576 -1.4951 -1.2099 -1.5719
 5116SOL    HW226811   4.651   4.001   0.630  0.1165  0.1988 -1.2513
 5117SOL     OW26812   4.393   0.140   8.562  0.0142  0.6143  0.4291
 5117SOL    HW126813   4.412   0.053   8.526  0.8680  0.7349  0.5910
 5117SOL    HW226814   4.441   0.142   8.645 -0.0864 -3.8930  0.6103
 5118SOL     OW26815   1.418   4.215   3.429 -0.1060  0.1251 -0.1877
 5118SOL    HW126816   1.419   4.139   3.372 -1.3646 -0.3169  0.3806
 5118SOL    HW226817   1.474   4.188   3.501 -0.4638  2.4893  0.9951
 5119SOL     OW26818   1.590   4.498   7.029 -0.6857 -0.2503 -0.1065
 5119SOL    HW126819   1.563   4.548   7.106  4.7365  0.7157  1.2067
 5119SOL    HW226820   1.576   4.557   6.955  0.7068 -0.1024 -0.2647
 5120SOL     OW26821   4.008   4.368   7.212 -0.4008 -0.0099 -0.3355
 5120SOL    HW126822   4.026   4.286   7.167 -1.3609  0.2330 -1.1619
 5120SOL    HW226823   3.991   4.336   7.301 -0.6943 -1.4629 -0.9300
 5121SOL     OW26824   0.264   4.530   0.723 -0.2977  0.5442  0.1407
 5121SOL    HW126825   0.300   4.505   0.809  0.7621  1.4827 -0.0259
 5121SOL    HW226826   0.304   4.617   0.716 -3.2311  2.0680  2.3017
 5122SOL     OW26827   1.105   2.857  13.853 -0.3266 -0.3101 -0.2162
 5122SOL    HW126828   1.142   2.844  13.766 -0.0135 -0.6449 -0.0351
 5122SOL    HW226829   1.087   2.950  13.844 -3.7987 -0.9110  0.5705
 5123SOL     OW26830   0.701   4.481   1.447 -0.0622 -0.1923  0.4812
 5123SOL    HW126831   0.631   4.531   1.405 -1.0097  0.2218  2.5520
 5123SOL    HW226832   0.764   4.477   1.376 -1.5778 -0.9738 -0.8243
 5124SOL     OW26833   1.867   0.534   2.443  0.0005 -0.4100 -0.2460
 5124SOL    HW126834   1.869   0.612   2.388  0.4622  0.4093  0.9364
 5124SOL    HW226835   1.778   0.506   2.422 -1.0950  3.1069 -0.2012
 5125SOL     OW26836   1.166   2.155  13.907 -0.5557 -0.4765  0.0983
 5125SOL    HW126837   1.196   2.160  13.817 -0.8821 -0.2165  0.0053
 5125SOL    HW226838   1.131   2.067  13.895  0.8972 -0.7719 -1.9390
 5126SOL     OW26839   2.043   0.246  11.397  0.1255  0.2956 -0.0512
 5126SOL    HW126840   2.036   0.317  11.461 -0.1610 -0.9948  1.3552
 5126SOL    HW226841   2.138   0.232  11.404 -0.0568 -1.0240 -0.2597
 5127SOL     OW26842   3.099   3.117   1.104 -0.4140  0.1066  0.3786
 5127SOL    HW126843   3.126   3.041   1.155  2.4445  1.1019  0.3607
 5127SOL    HW226844   3.152   3.100   1.027  0.8551  0.0961  1.2562
 5128SOL     OW26845   4.101   2.931   2.600 -0.0162 -0.1516  0.0741
 5128SOL    HW126846   4.140   2.985   2.669 -0.0104  1.2315 -1.0073
 5128SOL    HW226847   4.170   2.933   2.534  1.0150  0.8024  1.1929
 5129SOL     OW26848   2.493   2.446   0.116 -0.4214  0.1096  0.3645
 5129SOL    HW126849   2.489   2.542   0.120  0.2594  0.2401 -2.2049
 5129SOL    HW226850   2.426   2.419   0.179  0.0292 -0.9595  0.3769
 5130SOL     OW26851   3.525   0.312  14.659  0.3437 -0.4814  0.7758
 5130SOL    HW126852   3.537   0.371  14.734 -2.1540  0.1810  0.6352
 5130SOL    HW226853   3.617   0.308  14.633  0.2573 -0.2104  0.4385
 5131SOL     OW26854   3.922   2.859   2.941  0.2449  0.3654  0.1425
 5131SOL    HW126855   4.010   2.853   2.904  0.4262 -2.9684  1.0316
 5131SOL    HW226856   3.871   2.812   2.875  1.5762  1.1731 -1.4164
 5132SOL     OW26857   3.746   0.086   7.905  0.1781 -0.3770 -0.6401
 5132SOL    HW126858   3.825   0.057   7.952 -1.2982  0.7710  2.5916
 5132SOL    HW226859   3.784   0.135   7.833  3.2189 -2.2938 -0.3715
 5133SOL     OW26860   0.549   3.151   2.558  0.5279  0.6100  0.2814
 5133SOL    HW126861   0.582   3.070   2.519  0.6300 -0.3890  2.4444
 5133SOL    HW226862   0.463   3.151   2.516  0.9560  1.5086 -0.5847
 5134SOL     OW26863   2.063   2.625   7.811 -0.1833 -0.1219 -0.6579
 5134SOL    HW126864   1.995   2.566   7.781 -0.1542 -1.3209  1.6176
 5134SOL    HW226865   2.095   2.643   7.723  1.1350  2.5633  0.3360
 5135SOL     OW26866   3.028   0.114   1.042 -0.3240  0.5290  0.5546
 5135SOL    HW126867   3.006   0.025   1.068  0.0979 -0.2318 -1.6462
 5135SOL    HW226868   3.056   0.103   0.951  2.0686  1.1306  1.2209
 5136SOL     OW26869   1.071   1.054   2.837  0.0568 -0.3083  0.1201
 5136SOL    HW126870   1.017   1.045   2.759 -1.3394 -1.2697  1.2027
 5136SOL    HW226871   1.144   1.000   2.807  1.6373  0.2965  2.8786
 5137SOL     OW26872   3.762   0.513   2.730 -0.0441  0.1451  0.0924
 5137SOL    HW126873   3.752   0.512   2.825  0.3265 -0.6139  0.1234
 5137SOL    HW226874   3.817   0.592   2.727  1.2137 -0.7214  0.1048
 5138SOL     OW26875   2.468   3.999   3.769 -0.3690  0.3733 -0.3496
 5138SOL    HW126876   2.413   3.947   3.828 -0.1824  1.0013  0.3752
 5138SOL    HW226877   2.400   4.056   3.732  0.0483  2.1019  1.5894
 5139SOL     OW26878   3.046   0.160  14.097  0.5317  0.5090  0.1245
 5139SOL    HW126879   3.010   0.161  14.186  0.7399 -1.9633  0.2380
 5139SOL    HW226880   3.128   0.116  14.115 -0.3462 -1.2661 -0.2350
 5140SOL     OW26881   0.353   3.086   0.408 -0.2339  0.0308  0.5093
 5140SOL    HW126882   0.338   3.107   0.500 -0.0440  0.6175  0.4071
 5140SOL    HW226883   0.436   3.039   0.413 -0.5204 -0.5066  0.2135
 5141SOL     OW26884   2.734   2.375   7.552  0.2654 -0.3462 -0.3930
 5141SOL    HW126885   2.783   2.405   7.476 -1.0198 -0.6485 -1.3491
 5141SOL    HW226886   2.655   2.352   7.503 -0.9724 -4.4269  3.5250
 5142SOL     OW26887   2.096   3.551   4.730 -0.0209 -0.4318 -0.3596
 5142SOL    HW126888   2.175   3.507   4.761 -0.0896  0.1157  0.5746
 5142SOL    HW226889   2.127   3.640   4.718  1.2299 -0.8457 -0.1592
 5143SOL     OW26890   1.302   0.844  11.284 -0.1242  0.0599  0.1061
 5143SOL    HW126891   1.331   0.917  11.340  0.9072 -1.1847  1.1849
 5143SOL    HW226892   1.247   0.794  11.344 -0.0424  1.0015  0.9726
 5144SOL     OW26893   0.751   0.517   5.907 -0.1344  0.1187  0.1655
 5144SOL    HW126894   0.733   0.597   5.957 -1.4407 -0.2754  0.3318
 5144SOL    HW226895   0.837   0.543   5.873 -0.4035  1.7459  0.6850
 5145SOL     OW26896   1.436   3.850   3.821 -0.1790  0.3089 -0.0749
 5145SOL    HW126897   1.348   3.887   3.832 -1.0869 -2.4089  1.8872
 5145SOL    HW226898   1.435   3.875   3.728 -1.0544  2.5240  0.5244
 5146SOL     OW26899   4.526   4.564   4.278  0.5637 -0.0854 -0.4262
 5146SOL    HW126900   4.537   4.656   4.304 -2.1164  0.4387 -1.1578
 5146SOL    HW226901   4.432   4.562   4.260  0.5783 -1.3478 -0.3686
 5147SOL     OW26902   3.108   2.495   6.407  0.0236  0.0217  0.4871
 5147SOL    HW126903   3.182   2.471   6.351 -0.0367 -0.5571  0.6494
 5147SOL    HW226904   3.034   2.460   6.358  1.3218 -0.5748 -1.0690
 5148SOL     OW26905   4.496   0.665   9.706 -0.9828  0.0683 -0.2912
 5148SOL    HW126906   4.526   0.606   9.775 -0.2004  0.3391 -0.4030
 5148SOL    HW226907   4.410   0.690   9.740 -0.2621 -0.0303  1.6162
 5149SOL     OW26908   3.442   0.704   4.525  0.6213 -0.0572 -0.5555
 5149SOL    HW126909   3.437   0.637   4.457  0.4664 -1.4277  0.7866
 5149SOL    HW226910   3.487   0.657   4.596  0.9556  0.2028 -0.5944
 5150SOL     OW26911   4.406   0.184   5.010  0.0997 -0.1485  0.0344
 5150SOL    HW126912   4.333   0.232   4.970 -0.1570 -1.1991 -0.7571
 5150SOL    HW226913   4.454   0.266   5.022 -0.3196  0.2205 -0.8009
 5151SOL     OW26914   4.005   2.711   4.426  0.0422 -0.5686  0.2020
 5151SOL    HW126915   3.910   2.718   4.417 -0.0197 -2.1110 -0.2851
 5151SOL    HW226916   4.015   2.708   4.521  0.6215 -0.5061  0.1413
 5152SOL     OW26917   1.487   2.431   1.885 -0.5163 -0.0428 -0.6275
 5152SOL    HW126918   1.577   2.456   1.866  0.3819 -1.8395  1.3456
 5152SOL    HW226919   1.491   2.426   1.980  1.6839  0.5855 -0.6972
 5153SOL     OW26920   3.653   1.306   0.776 -0.7146 -0.1801 -0.4001
 5153SOL    HW126921   3.711   1.349   0.839 -0.1466 -0.9594 -0.3772
 5153SOL    HW226922   3.720   1.259   0.726  0.1055 -1.2519  1.7179
 5154SOL     OW26923   1.837   0.231  13.971  0.3281 -0.3938 -0.3930
 5154SOL    HW126924   1.918   0.259  14.013 -0.3713  1.3245 -0.1873
 5154SOL    HW226925   1.861   0.143  13.940 -0.1140 -0.0381 -1.7236
 5155SOL     OW26926   0.510   0.156   6.176  0.8838 -0.5892  0.3888
 5155SOL    HW126927   0.469   0.099   6.112 -0.1203  1.9973 -1.2447
 5155SOL    HW226928   0.534   0.232   6.124 -0.1454 -0.6550 -0.1866
 5156SOL     OW26929   2.826   2.058   5.248 -0.1396 -0.1148 -0.3671
 5156SOL    HW126930   2.747   2.012   5.222 -0.1357 -0.5932  0.4682
 5156SOL    HW226931   2.807   2.066   5.341  2.3674 -1.7988  0.2983
 5157SOL     OW26932   2.526   2.444   3.968  0.0030  0.3938 -0.5163
 5157SOL    HW126933   2.586   2.369   3.968 -0.2292  0.2047 -0.4720
 5157SOL    HW226934   2.443   2.395   3.962 -1.0360  2.0258  0.7722
 5158SOL     OW26935   2.669   0.734   5.771  0.1370 -0.4320 -0.2342
 5158SOL    HW126936   2.691   0.659   5.825  2.9207  0.7018  0.1620
 5158SOL    HW226937   2.629   0.792   5.836 -1.0227 -0.9305 -0.5011
 5159SOL     OW26938   1.128   1.241   4.121  0.2619 -0.0515  0.0671
 5159SOL    HW126939   1.224   1.235   4.117  0.3332  0.8958  0.3666
 5159SOL    HW226940   1.100   1.151   4.102 -3.0982  0.1412  4.3111
 5160SOL     OW26941   0.410   3.106   5.158  0.4536  0.3836 -0.1275
 5160SOL    HW126942   0.403   3.017   5.194  0.4210  1.4010  2.4107
 5160SOL    HW226943   0.386   3.077   5.070 -0.2862 -1.5343  0.7047
 5161SOL     OW26944   0.858   3.471  16.624  0.3238  0.1635 -0.4415
 5161SOL    HW126945   0.800   3.486  16.550  0.0752  1.4683 -0.0020
 5161SOL    HW226946   0.922   3.411  16.586 -2.4906 -2.0094 -1.6922
 5162SOL     OW26947   3.852   3.978   5.457  0.3367  0.0976 -0.2928
 5162SOL    HW126948   3.936   3.990   5.411 -0.9391 -0.3901 -2.7457
 5162SOL    HW226949   3.819   4.067   5.461  0.6860  0.2489 -0.7449
 5163SOL     OW26950   3.987   0.399   4.199 -0.1551  0.2620 -0.4757
 5163SOL    HW126951   3.955   0.359   4.118  0.8600  1.0595 -1.2792
 5163SOL    HW226952   3.930   0.366   4.268 -0.1669 -0.5441 -0.8694
 5164SOL     OW26953   3.428   1.767   6.391  0.2189 -0.0961 -0.6898
 5164SOL    HW126954   3.473   1.763   6.475 -0.6220  0.6434 -0.1955
 5164SOL    HW226955   3.489   1.724   6.331 -0.6701 -1.4234 -0.6263
 5165SOL     OW26956   0.705   4.719   3.857 -0.7403  0.0859  0.5740
 5165SOL    HW126957   0.739   0.081   3.835 -1.0747 -0.0835 -0.6102
 5165SOL    HW226958   0.706   4.683   3.768 -3.7916  0.1834  0.5148
 5166SOL     OW26959   1.772   0.296   1.778 -0.3636  0.4895 -0.0032
 5166SOL    HW126960   1.728   0.249   1.707 -1.5199 -0.6251  1.4413
 5166SOL    HW226961   1.828   0.230   1.819  0.3488 -0.1674 -2.0073
 5167SOL     OW26962   0.771   4.187  14.470 -1.1322 -0.4352  0.2647
 5167SOL    HW126963   0.837   4.243  14.511 -1.9507  1.2738 -0.7018
 5167SOL    HW226964   0.813   4.135  14.402 -0.8641  2.9957 -2.1931
 5168SOL     OW26965   0.741   4.049  11.454 -0.4573 -0.1288  0.5119
 5168SOL    HW126966   0.819   4.056  11.399 -0.1251  1.8354  1.2186
 5168SOL    HW226967   0.719   3.967  11.410  0.7105  0.0130 -0.3454
 5169SOL     OW26968   0.553   4.400   6.849  0.1734 -0.1615 -0.4233
 5169SOL    HW126969   0.576   4.491   6.867  0.9592 -0.8031  1.8492
 5169SOL    HW226970   0.565   4.400   6.755  0.9729  1.3002 -0.3124
 5170SOL     OW26971   2.098   3.182   7.624  0.7044 -0.0235  0.0493
 5170SOL    HW126972   2.177   3.195   7.571  0.2230  1.7525 -0.2417
 5170SOL    HW226973   2.106   3.087   7.630 -0.5953 -0.0058  2.1064
 5171SOL     OW26974   0.991   2.280   7.067  0.4361  0.5937  0.0593
 5171SOL    HW126975   0.979   2.276   6.973 -0.9656 -2.0561  0.3403
 5171SOL    HW226976   0.976   2.191   7.098 -0.2328  0.7969  0.3324
 5172SOL     OW26977   3.275   3.878  13.615 -0.0166 -0.1174  0.1001
 5172SOL    HW126978   3.186   3.844  13.619 -0.2589  0.6037  0.7674
 5172SOL    HW226979   3.313   3.837  13.692  2.2260 -0.6730 -1.2973
 5173SOL     OW26980   0.432   2.358   6.785 -0.4081  0.6843  0.2846
 5173SOL    HW126981   0.447   2.274   6.741  1.6767  0.9047  0.5802
 5173SOL    HW226982   0.349   2.385   6.746 -1.1585 -0.0872  1.3424
 5174SOL     OW26983   2.113   2.625   4.093  0.3310  0.2391  0.5146
 5174SOL    HW126984   2.020   2.613   4.076 -0.4137  2.7296  2.8956
 5174SOL    HW226985   2.122   2.665   4.006  0.5838 -2.9256 -0.9121
 5175SOL     OW26986   1.717   0.087   5.764  0.2016  0.1197  0.6671
 5175SOL    HW126987   1.800   0.132   5.750  0.6270 -0.3916  1.5353
 5175SOL    HW226988   1.675   0.116   5.683 -3.0299  0.4383  2.4589
 5176SOL     OW26989   1.774   1.646   1.859  0.3195  0.1116  0.1838
 5176SOL    HW126990   1.858   1.608   1.832 -0.1486 -0.8424  0.0591
 5176SOL    HW226991   1.740   1.567   1.901  0.0752 -0.4437 -1.0570
 5177SOL     OW26992   0.100   2.473   4.597  0.2946  0.6925 -0.3570
 5177SOL    HW126993   0.113   2.564   4.625  0.8733  0.6013 -0.3277
 5177SOL    HW226994   0.172   2.429   4.643 -1.4787 -0.8636  0.9008
 5178SOL     OW26995   0.637   3.005  16.988 -0.2597 -0.3578 -0.2825
 5178SOL    HW126996   0.718   2.971  16.949 -0.8223  0.2604 -1.9782
 5178SOL    HW226997   0.629   2.928  17.044  0.9209 -0.8422 -0.7851
 5179SOL     OW26998   1.130   0.560   3.937 -0.7483 -0.7070 -0.3139
 5179SOL    HW126999   1.209   0.607   3.962 -0.6900 -0.6921 -0.5302
 5179SOL    HW227000   1.176   0.477   3.920  0.3150 -0.6391  2.2206
 5180SOL     OW27001   1.581   2.286   4.268 -0.4459 -0.0611  0.3771
 5180SOL    HW127002   1.494   2.326   4.264  0.7958  2.5482 -0.2920
 5180SOL    HW227003   1.642   2.358   4.281 -0.6166 -0.1290  1.5276
 5181SOL     OW27004   1.883   0.464   6.551  0.2021 -0.7953  0.2787
 5181SOL    HW127005   1.874   0.424   6.465 -0.2658  1.5909 -0.7795
 5181SOL    HW227006   1.817   0.417   6.602  0.6963 -0.4036  1.2849
 5182SOL     OW27007   4.462   4.347   2.594 -0.1966 -0.3975  0.2400
 5182SOL    HW127008   4.529   4.300   2.644 -1.6483 -1.8527  0.8047
 5182SOL    HW227009   4.448   4.285   2.522  0.9935  0.9215 -1.1173
 5183SOL     OW27010   3.060   2.671   3.641  0.0180  0.1221  0.2012
 5183SOL    HW127011   3.075   2.620   3.562  1.9452  0.2091  0.5141
 5183SOL    HW227012   3.111   2.750   3.622  0.1726  0.0125  0.1671
 5184SOL     OW27013   3.770   3.077  13.329  1.0435  0.5902  0.0655
 5184SOL    HW127014   3.682   3.052  13.356  0.0770  0.1471 -3.4210
 5184SOL    HW227015   3.766   3.062  13.234 -2.1433  0.7697  0.1676
 5185SOL     OW27016   3.923   0.724   8.845 -0.0159  0.7034 -0.0674
 5185SOL    HW127017   3.937   0.633   8.821 -2.5346  0.1466  0.5459
 5185SOL    HW227018   3.969   0.772   8.776  2.4447 -2.5112 -0.6532
 5186SOL     OW27019   1.852   0.802   8.364 -0.2642 -0.3653  0.7341
 5186SOL    HW127020   1.942   0.788   8.395  0.2616  1.7686  0.1824
 5186SOL    HW227021   1.836   0.895   8.380 -0.2998 -0.5421  1.7196
 5187SOL     OW27022   2.775   3.266   1.736  0.1268 -0.4613  0.4456
 5187SOL    HW127023   2.808   3.340   1.685 -0.2633 -0.6527 -0.0775
 5187SOL    HW227024   2.708   3.313   1.786  0.0446  1.0024 -1.0425
 5188SOL     OW27025   3.252   2.818   4.072  0.4683 -0.2455  0.1401
 5188SOL    HW127026   3.218   2.752   4.133  0.0513 -2.6539 -2.6590
 5188SOL    HW227027   3.173   2.858   4.036 -0.4042 -0.8258  1.4144
 5189SOL     OW27028   4.268   1.887   2.122  0.7318 -0.6434 -0.0904
 5189SOL    HW127029   4.318   1.950   2.174 -1.1468 -1.2030  2.3833
 5189SOL    HW227030   4.182   1.898   2.162  1.2146 -4.0942  1.9509
 5190SOL     OW27031   1.143   4.352   5.699 -0.0379 -0.4114  0.2960
 5190SOL    HW127032   1.182   4.426   5.745 -2.9809  0.8752  0.6797
 5190SOL    HW227033   1.093   4.401   5.635 -1.7412 -1.4156  0.8582
 5191SOL     OW27034   2.378   3.906  12.628  0.6039 -0.3947  0.3969
 5191SOL    HW127035   2.417   3.883  12.543 -1.6886 -1.3373 -0.4082
 5191SOL    HW227036   2.442   3.903  12.699  0.2140  0.0807  0.7669
 5192SOL     OW27037   4.682   2.565   8.814 -0.4079  0.0845  0.5892
 5192SOL    HW127038   0.026   2.505   8.844  0.1450  0.6634  0.4728
 5192SOL    HW227039   4.656   2.608   8.896 -1.5427 -0.9969  0.8002
 5193SOL     OW27040   2.839   2.161  16.014 -0.8894  0.2833 -0.1032
 5193SOL    HW127041   2.916   2.110  15.988 -0.5277 -0.3398  2.1549
 5193SOL    HW227042   2.874   2.244  16.046  0.0593 -0.7102  1.4605
 5194SOL     OW27043   4.654   1.953   3.219  0.1521 -0.2406  0.0450
 5194SOL    HW127044   4.664   1.877   3.277  1.0535  1.3788  2.0145
 5194SOL    HW227045   4.561   1.950   3.197 -0.0695 -2.8076  1.2632
 5195SOL     OW27046   0.744   1.730  17.686  0.1347 -0.9914 -0.3259
 5195SOL    HW127047   0.728   1.764  17.598 -3.1699  1.4527  1.2362
 5195SOL    HW227048   0.656   1.710   0.019 -0.6632 -0.8764 -2.4509
 5196SOL     OW27049   3.073   0.168   3.802 -0.3580 -0.1785 -0.0109
 5196SOL    HW127050   3.122   0.230   3.855  0.5845 -1.9959  1.2617
 5196SOL    HW227051   3.099   0.207   3.719 -0.0410  0.8032  0.5592
 5197SOL     OW27052   3.528   2.978  13.421  0.4206 -0.2088 -0.5302
 5197SOL    HW127053   3.486   3.053  13.379  0.6017 -0.5683 -1.3550
 5197SOL    HW227054   3.452   2.920  13.417  0.1452 -0.1057  2.7211
 5198SOL     OW27055   1.901   1.464   3.963  0.4059 -0.3051 -0.6254
 5198SOL    HW127056   1.814   1.441   3.995  0.0497  0.6824 -0.8991
 5198SOL    HW227057   1.925   1.522   4.036  0.8173 -0.7999 -0.3650
 5199SOL     OW27058   1.051   3.680  16.577  0.1084  0.5200 -0.2253
 5199SOL    HW127059   0.970   3.632  16.597 -0.4572  0.7694 -1.8942
 5199SOL    HW227060   1.021   3.721  16.496 -0.4010 -3.4268 -2.0354
 5200SOL     OW27061   2.310   3.235   7.475 -0.5379  0.4674 -0.0837
 5200SOL    HW127062   2.377   3.222   7.408 -0.1890  0.4343  0.2713
 5200SOL    HW227063   2.276   3.313   7.432 -1.7157 -0.8340 -1.4810
 5201SOL     OW27064   1.618   0.440   2.672  0.2565  0.2382 -0.3385
 5201SOL    HW127065   1.670   0.502   2.722  0.7226 -0.3245 -0.1215
 5201SOL    HW227066   1.668   0.358   2.668  0.7431  0.5068  0.2834
 5202SOL     OW27067   1.447   2.989   9.720 -0.1634  0.3259 -0.4605
 5202SOL    HW127068   1.494   2.962   9.799 -1.7295 -3.4406 -0.8010
 5202SOL    HW227069   1.377   3.042   9.760 -1.0272  1.6578 -3.7695
 5203SOL     OW27070   3.403   0.219   7.488  0.2136  0.0524 -0.4868
 5203SOL    HW127071   3.464   0.147   7.503  1.2819  1.0130 -0.2975
 5203SOL    HW227072   3.416   0.253   7.400  0.2988 -1.0205 -0.8854
 5204SOL     OW27073   2.527   3.435   6.166 -0.1824 -0.4957  0.1048
 5204SOL    HW127074   2.521   3.385   6.085  3.1478 -1.5575  0.5130
 5204SOL    HW227075   2.617   3.422   6.195 -0.9578 -0.3595  2.5327
 5205SOL     OW27076   1.834   1.690   5.218 -0.1375  0.2000  0.2662
 5205SOL    HW127077   1.923   1.726   5.211  0.2867 -0.9860 -0.5000
 5205SOL    HW227078   1.857   1.604   5.183 -1.0168  0.0562  0.0487
 5206SOL     OW27079   0.368   2.722   5.581 -0.8539  0.2931 -0.2508
 5206SOL    HW127080   0.318   2.645   5.609  0.2597 -0.4232 -0.2613
 5206SOL    HW227081   0.421   2.731   5.660  0.0121  2.2697 -1.0803
 5207SOL     OW27082   0.138   0.807   8.522 -0.0168 -0.7158  0.4235
 5207SOL    HW127083   0.063   0.750   8.506  0.6679 -1.4091 -0.2646
 5207SOL    HW227084   0.175   0.823   8.436  0.7590 -0.8101  0.7389
 5208SOL     OW27085   0.634   0.892   6.438  0.3599 -0.2457 -0.6747
 5208SOL    HW127086   0.672   0.805   6.425  1.9483 -0.1640  3.5506
 5208SOL    HW227087   0.631   0.893   6.533 -1.4605 -1.9625 -0.7115
 5209SOL     OW27088   2.060   2.893   0.812  0.0463 -0.1019  0.0086
 5209SOL    HW127089   2.027   2.803   0.817  0.0697 -0.1379 -0.5109
 5209SOL    HW227090   2.153   2.877   0.796 -0.1921 -0.1293 -1.3621
 5210SOL     OW27091   2.219   3.465   7.372  0.5220 -0.0081  0.2458
 5210SOL    HW127092   2.206   3.453   7.278  0.0781 -0.3742  0.3517
 5210SOL    HW227093   2.138   3.426   7.405 -1.3024  1.3483 -2.6741
 5211SOL     OW27094   2.333   1.074   4.327 -0.0980 -0.1963  0.7646
 5211SOL    HW127095   2.405   1.056   4.267 -0.5645  0.4561 -0.0045
 5211SOL    HW227096   2.263   1.034   4.274  1.4096  1.3505 -2.4102
 5212SOL     OW27097   0.164   0.796   2.340  0.1937 -0.6602  0.5090
 5212SOL    HW127098   0.236   0.736   2.362 -0.5333 -0.7680  2.5710
 5212SOL    HW227099   0.094   0.774   2.402  0.6031  1.8861  1.8753
 5213SOL     OW27100   3.433   0.406   5.765  0.3908 -0.1286  0.2234
 5213SOL    HW127101   3.512   0.430   5.716  0.3629 -1.2838 -0.3841
 5213SOL    HW227102   3.437   0.421   5.859  0.1785  1.4312 -0.0176
 5214SOL     OW27103   1.611   1.114  15.034 -0.3396 -0.1430  0.3335
 5214SOL    HW127104   1.569   1.189  15.077  0.9451 -0.0398  1.4207
 5214SOL    HW227105   1.563   1.105  14.952 -1.8451 -0.7311  1.2725
 5215SOL     OW27106   3.661   1.520  15.901 -0.1263 -0.1246  0.4742
 5215SOL    HW127107   3.733   1.478  15.854 -0.1219 -0.7684  1.0554
 5215SOL    HW227108   3.655   1.606  15.860 -0.6639 -1.1094 -1.5044
 5216SOL     OW27109   3.440   0.145   3.134 -0.3581 -0.1890  0.0900
 5216SOL    HW127110   3.463   0.094   3.211 -2.4694 -0.4602  0.5356
 5216SOL    HW227111   3.424   0.076   3.070  0.0634 -0.3352  0.1415
 5217SOL     OW27112   2.115   3.282  10.248  0.2758 -0.3805 -0.2836
 5217SOL    HW127113   2.127   3.374  10.224  0.6392 -0.6490 -1.1129
 5217SOL    HW227114   2.156   3.276  10.335 -2.5179 -3.0504  0.8245
 5218SOL     OW27115   3.025   0.259   7.402  0.2507 -0.3147  0.2996
 5218SOL    HW127116   2.951   0.239   7.458 -2.3437  1.8114 -2.3442
 5218SOL    HW227117   3.027   0.178   7.350  1.3409 -0.1659  0.1084
 5219SOL     OW27118   2.327   3.237   8.383 -0.2533  0.1490  0.6195
 5219SOL    HW127119   2.277   3.155   8.387 -0.9986  0.6239  0.9652
 5219SOL    HW227120   2.287   3.290   8.315  2.4003  2.0626  0.5642
 5220SOL     OW27121   4.387   3.539   3.109 -0.1445  0.4976 -0.2156
 5220SOL    HW127122   4.469   3.582   3.083 -0.0058  2.2690  3.1883
 5220SOL    HW227123   4.420   3.451   3.127  1.7949  1.1170 -0.6826
 5221SOL     OW27124   3.800   1.777   6.300 -0.4589 -0.3886 -0.1087
 5221SOL    HW127125   3.810   1.807   6.210 -0.0255  0.3326  0.1751
 5221SOL    HW227126   3.885   1.735   6.314 -0.2640  0.5945  1.6852
 5222SOL     OW27127   0.119   1.357   1.634 -0.5865 -0.1371  0.3807
 5222SOL    HW127128   0.212   1.333   1.635 -0.7436 -0.8089 -1.6902
 5222SOL    HW227129   0.089   1.301   1.563 -1.0027  0.0794  0.3899
 5223SOL     OW27130   0.282   2.415   4.246 -0.1840 -0.4425 -0.2337
 5223SOL    HW127131   0.292   2.407   4.151 -1.2107  2.8220 -0.6017
 5223SOL    HW227132   0.194   2.378   4.248  0.2981 -1.4711  2.0550
 5224SOL     OW27133   2.076   2.163   3.816 -0.0912  0.6909  0.5105
 5224SOL    HW127134   2.007   2.229   3.819  0.8801  1.8222 -1.4013
 5224SOL    HW227135   2.030   2.106   3.755  2.4036 -4.8547  3.7638
 5225SOL     OW27136   0.544   1.719   4.320 -0.0841  0.0751 -0.3982
 5225SOL    HW127137   0.579   1.665   4.390 -2.2051 -1.3624 -0.4386
 5225SOL    HW227138   0.491   1.651   4.277 -0.4251  0.2500 -0.2549
 5226SOL     OW27139   0.253   0.282   4.006  0.5203  0.2212 -0.0516
 5226SOL    HW127140   0.202   0.363   3.999  2.6190  1.4850 -0.4697
 5226SOL    HW227141   0.180   0.220   4.001  2.4608 -2.0016 -0.3194
 5227SOL     OW27142   0.497   4.634   1.697 -0.5488 -0.5248  0.1572
 5227SOL    HW127143   0.448   4.585   1.631 -0.7035  0.7436 -0.6684
 5227SOL    HW227144   0.442   4.713   1.693 -0.2877 -0.4079 -1.0938
 5228SOL     OW27145   3.496   0.259   7.216  0.4415 -0.0122  0.0490
 5228SOL    HW127146   3.421   0.317   7.205  1.0900  0.8625  0.2765
 5228SOL    HW227147   3.456   0.173   7.201  0.2232  0.0588  0.2297
 5229SOL     OW27148   4.533   2.572   4.992 -0.1424 -0.6860  0.0058
 5229SOL    HW127149   4.466   2.597   5.056 -0.0775 -1.5042  0.3940
 5229SOL    HW227150   4.570   2.494   5.033  0.7276 -0.0478  0.4178
 5230SOL     OW27151   0.249   1.790   7.668 -0.0524  0.4319 -0.0789
 5230SOL    HW127152   0.298   1.794   7.750 -2.7487 -0.4445  1.5627
 5230SOL    HW227153   0.191   1.865   7.677 -2.7845 -1.5688 -0.8992
 5231SOL     OW27154   3.290   3.996   2.796  0.0991  0.7654 -0.2209
 5231SOL    HW127155   3.231   3.930   2.759  0.5276  0.7680 -0.9265
 5231SOL    HW227156   3.324   4.039   2.717  0.5717  0.6137 -0.0993
 5232SOL     OW27157   3.742   2.015   9.576  0.0805  0.0092 -0.1983
 5232SOL    HW127158   3.746   1.935   9.524 -1.4820 -0.1881 -0.0208
 5232SOL    HW227159   3.833   2.041   9.562  0.7486 -2.1076  0.1535
 5233SOL     OW27160   1.296   0.931   2.759  1.1650 -0.0044 -0.2801
 5233SOL    HW127161   1.386   0.957   2.780  1.1357 -1.0360  1.1421
 5233SOL    HW227162   1.306   0.885   2.675  0.4132  1.7532 -1.3298
 5234SOL     OW27163   1.657   2.526  12.327 -0.5014  0.3238  0.0169
 5234SOL    HW127164   1.653   2.620  12.348 -1.1443  0.0030  1.3347
 5234SOL    HW227165   1.600   2.527  12.250 -1.7768  1.0715  0.9691
 5235SOL     OW27166   1.741   4.626  12.813 -0.0325  0.2464  0.1559
 5235SOL    HW127167   1.762   4.537  12.784  0.6108  0.4171  0.0999
 5235SOL    HW227168   1.817   4.650  12.866 -1.3944 -1.0808  2.6968
 5236SOL     OW27169   1.150   2.805   1.523 -0.5339 -0.1762  0.5331
 5236SOL    HW127170   1.226   2.781   1.577 -0.5840  0.9656  1.1126
 5236SOL    HW227171   1.150   2.737   1.456 -0.5461  0.5913 -0.2414
 5237SOL     OW27172   3.489   3.731  13.523 -0.2436  0.0718 -0.1817
 5237SOL    HW127173   3.404   3.765  13.550 -1.1167 -1.4271 -1.0564
 5237SOL    HW227174   3.481   3.637  13.538  0.9915  0.0965  0.6862
 5238SOL     OW27175   2.140   0.475   9.444 -0.1851 -0.0419 -0.3020
 5238SOL    HW127176   2.175   0.423   9.372 -0.5696  1.6094 -1.6874
 5238SOL    HW227177   2.212   0.452   9.502 -1.8553  0.1308  1.8674
 5239SOL     OW27178   3.467   0.004   8.597  0.3766 -0.1717  0.0626
 5239SOL    HW127179   3.558   0.028   8.616 -0.0230  1.4506 -0.0565
 5239SOL    HW227180   3.417   0.062   8.655  2.4447 -0.7358  2.4285
 5240SOL     OW27181   3.306   3.988   4.050 -0.3094 -0.0236 -0.1565
 5240SOL    HW127182   3.226   4.013   4.096 -0.6898  0.7200 -1.2408
 5240SOL    HW227183   3.361   3.969   4.126  0.7094 -2.8322 -1.5858
 5241SOL     OW27184   0.683   1.416   9.046  0.7175  0.2290  0.2396
 5241SOL    HW127185   0.622   1.416   8.973  1.9933 -0.0204 -0.8332
 5241SOL    HW227186   0.732   1.334   9.048 -1.0425 -0.7689  1.4765
 5242SOL     OW27187   3.064   4.507   8.020 -0.7153 -0.4321 -0.3864
 5242SOL    HW127188   3.085   4.515   7.927 -1.3661 -1.6640 -0.6390
 5242SOL    HW227189   3.075   4.595   8.056 -1.6926 -0.5795  0.2606
 5243SOL     OW27190   1.767   3.736   8.313  0.3487  0.0035 -0.4101
 5243SOL    HW127191   1.809   3.659   8.274  0.8502  1.8157 -3.4202
 5243SOL    HW227192   1.694   3.738   8.251  0.7848 -4.5047 -1.0587
 5244SOL     OW27193   3.311   2.764  14.748  0.6455  0.1064 -0.4755
 5244SOL    HW127194   3.293   2.857  14.764  4.3452  0.7442 -0.1890
 5244SOL    HW227195   3.344   2.760  14.658 -1.1328  1.4696 -1.2018
 5245SOL     OW27196   2.999   4.221  11.301 -0.0026 -0.0787  0.3969
 5245SOL    HW127197   2.948   4.189  11.227 -0.7930 -1.2448  1.4454
 5245SOL    HW227198   2.980   4.160  11.372  0.8615 -1.7934 -0.8725
 5246SOL     OW27199   2.489   2.764  16.328  0.2281 -0.5778 -0.1177
 5246SOL    HW127200   2.414   2.792  16.381 -0.9310  0.7738 -2.5019
 5246SOL    HW227201   2.461   2.797  16.243  2.5594  1.4411 -0.0876
 5247SOL     OW27202   2.839   4.654   1.800 -0.0413  0.5202 -0.2226
 5247SOL    HW127203   2.887   4.641   1.882  0.0124 -0.4170 -0.3964
 5247SOL    HW227204   2.911   4.657   1.738 -1.6833  0.0289 -2.1387
 5248SOL     OW27205   1.899   1.742  15.767  0.2904  0.0147 -0.7531
 5248SOL    HW127206   1.980   1.732  15.819  0.0281 -1.2783 -0.6024
 5248SOL    HW227207   1.915   1.693  15.687  0.3666 -0.3909 -0.4908
 5249SOL     OW27208   4.525   0.589   3.436  0.0485  0.1358 -0.1859
 5249SOL    HW127209   4.578   0.510   3.430  0.7199  0.6167 -0.6730
 5249SOL    HW227210   4.435   0.559   3.438 -0.5440  2.0676  2.7279
 5250SOL     OW27211   0.106   3.214   9.621 -0.2387  0.3352  0.2049
 5250SOL    HW127212   0.024   3.182   9.657 -1.0360 -0.2685 -2.2355
 5250SOL    HW227213   0.090   3.241   9.531  2.2623  0.7830 -0.1222
 5251SOL     OW27214   3.339   4.663   8.898 -0.1577  0.0805 -0.0493
 5251SOL    HW127215   3.433   4.669   8.913 -0.1734  1.8963 -0.6128
 5251SOL    HW227216   3.326   0.031   8.878  3.1923  0.4735 -0.3835
 5252SOL     OW27217   1.399   1.112   5.972 -0.1062 -0.3293 -0.1879
 5252SOL    HW127218   1.382   1.161   6.053 -0.7303  0.2956 -0.6965
 5252SOL    HW227219   1.442   1.172   5.911 -0.2606  0.9546  0.9573
 5253SOL     OW27220   2.690   0.101  11.588  0.3509 -0.3254  0.0903
 5253SOL    HW127221   2.784   0.084  11.581  0.6381  1.3980 -0.1194
 5253SOL    HW227222   2.686   0.182  11.639  1.9457 -0.7331  0.8778
 5254SOL     OW27223   3.408   3.733  12.836  0.0794 -0.1258 -0.1442
 5254SOL    HW127224   3.358   3.652  12.827  1.3582 -0.7244 -1.6383
 5254SOL    HW227225   3.493   3.705  12.868  0.7266 -0.0607 -1.8279
 5255SOL     OW27226   4.558   0.268   0.999 -0.8277 -0.1707 -0.3358
 5255SOL    HW127227   4.548   0.292   1.091  1.9701 -2.0294  0.4445
 5255SOL    HW227228   4.476   0.221   0.986 -2.3216  1.9225  1.3509
 5256SOL     OW27229   2.579   0.435   5.218  0.2501 -0.7532 -0.4241
 5256SOL    HW127230   2.492   0.432   5.258  0.5482 -2.0205  0.1235
 5256SOL    HW227231   2.607   0.351   5.252  3.3255 -0.9358 -3.4008
 5257SOL     OW27232   3.216   4.504   6.461  0.4064  0.3000  0.2054
 5257SOL    HW127233   3.220   4.434   6.396  2.6093  0.0376  0.5937
 5257SOL    HW227234   3.244   4.464   6.544  1.6538 -1.2816 -0.9690
 5258SOL     OW27235   0.758   1.034  14.192 -0.6043 -0.0955 -0.2247
 5258SOL    HW127236   0.735   0.996  14.277  1.9542 -0.5834  0.2627
 5258SOL    HW227237   0.675   1.020  14.148  0.0685 -1.1670 -1.1722
 5259SOL     OW27238   0.011   4.024   8.147  0.3241 -0.1926  0.2098
 5259SOL    HW127239   4.714   4.112   8.178  0.0122  0.5890 -2.2100
 5259SOL    HW227240   4.693   3.973   8.216 -0.0885 -0.3137 -0.1316
 5260SOL     OW27241   2.696   1.423  15.994  0.0267 -0.3252 -0.5304
 5260SOL    HW127242   2.602   1.410  15.980  0.2231 -2.7459  0.4312
 5260SOL    HW227243   2.698   1.413  16.089 -0.8431 -0.0399 -0.4860
 5261SOL     OW27244   4.591   4.215   4.930  0.6003  0.5489  0.0163
 5261SOL    HW127245   4.597   4.254   4.843 -0.8254 -0.3750 -0.5001
 5261SOL    HW227246   4.545   4.291   4.967 -1.2879  0.2220 -1.6408
 5262SOL     OW27247   2.911   0.134   4.802 -0.3211  0.2456  0.0143
 5262SOL    HW127248   2.900   0.160   4.894  0.6901  1.3976 -0.1914
 5262SOL    HW227249   2.895   0.212   4.749 -0.7201  0.8244  0.9867
 5263SOL     OW27250   1.887   2.244   5.549  0.6611 -0.3954  0.0775
 5263SOL    HW127251   1.928   2.212   5.629  0.5136  0.9819  0.6952
 5263SOL    HW227252   1.845   2.320   5.589  0.0998 -1.2197  1.0398
 5264SOL     OW27253   3.518   4.208   4.030 -0.3426 -0.3188 -1.3146
 5264SOL    HW127254   3.423   4.202   4.018 -0.6634  0.9343  0.5086
 5264SOL    HW227255   3.526   4.171   4.119  2.5346 -0.9273 -1.8379
 5265SOL     OW27256   2.005   1.192   5.491  0.3566 -0.6831 -0.5795
 5265SOL    HW127257   2.082   1.156   5.448  2.2644  1.9850  0.5460
 5265SOL    HW227258   2.001   1.284   5.464  0.4941 -0.8136 -1.0482
 5266SOL     OW27259   1.301   0.836   5.922  0.1425 -0.3235  0.4030
 5266SOL    HW127260   1.207   0.836   5.940 -0.1310  0.2838 -1.0367
 5266SOL    HW227261   1.328   0.927   5.914 -0.8825 -0.0825 -0.2842
 5267SOL     OW27262   4.321   0.808  15.048  0.3797 -0.1621 -0.3058
 5267SOL    HW127263   4.331   0.829  14.955  0.5726 -1.6183 -0.6271
 5267SOL    HW227264   4.231   0.840  15.055  1.6501  3.0678  1.0608
 5268SOL     OW27265   2.491   0.845   5.321 -0.0551  0.0929 -0.2097
 5268SOL    HW127266   2.558   0.832   5.388  0.6108 -1.5417 -1.2047
 5268SOL    HW227267   2.425   0.789   5.361 -0.5818  1.0789  0.3042
 5269SOL     OW27268   1.733   0.326  11.360  0.0148  0.3415  0.4099
 5269SOL    HW127269   1.684   0.374  11.426 -0.4217  3.4277 -2.1117
 5269SOL    HW227270   1.712   0.369  11.277  0.0344  1.5122  1.0064
 5270SOL     OW27271   3.092   0.199  11.770  0.4240 -0.0715  0.1165
 5270SOL    HW127272   3.030   0.239  11.830  0.1748  0.4245 -0.4783
 5270SOL    HW227273   3.038   0.182  11.693 -1.1728  0.2941  1.1433
 5271SOL     OW27274   0.822   3.122  17.209 -0.8515 -0.3781  0.7581
 5271SOL    HW127275   0.808   3.084  17.122 -2.0684  0.1120  0.7360
 5271SOL    HW227276   0.786   3.208  17.189 -0.8621 -0.7530 -0.8458
 5272SOL     OW27277   2.541   2.203  16.106 -0.2126 -0.2899 -0.2336
 5272SOL    HW127278   2.557   2.111  16.085 -0.9093  0.2049 -2.8928
 5272SOL    HW227279   2.626   2.233  16.138 -0.2613  0.3348 -0.6921
 5273SOL     OW27280   4.009   4.716   8.646 -0.4916 -0.0930  0.1979
 5273SOL    HW127281   4.051   4.629   8.651  1.9012  1.0366 -0.1860
 5273SOL    HW227282   4.066   0.044   8.701  0.7495 -0.0817 -1.0772
 5274SOL     OW27283   3.109   1.046   4.263  0.0951  0.1276  0.1920
 5274SOL    HW127284   3.110   1.141   4.272  0.1272  0.1627 -0.2174
 5274SOL    HW227285   3.159   1.029   4.343  1.0177  1.5359 -0.1037
 5275SOL     OW27286   0.826   3.134  16.362 -0.1088  0.5780  0.2090
 5275SOL    HW127287   0.838   3.069  16.431  1.2331  1.1315  0.5027
 5275SOL    HW227288   0.863   3.209  16.410  1.7466 -0.7547  0.8433
 5276SOL     OW27289   2.318   0.626   1.079  0.0193 -0.4164 -0.3305
 5276SOL    HW127290   2.339   0.573   1.156 -1.1993 -1.4541 -0.7209
 5276SOL    HW227291   2.301   0.712   1.117  0.2873  0.0576 -1.3105
 5277SOL     OW27292   2.175   3.539   6.091 -0.2864  0.0988  0.3686
 5277SOL    HW127293   2.260   3.562   6.054  0.6585 -1.4540  1.5705
 5277SOL    HW227294   2.140   3.623   6.119  0.4520  0.4463  0.2538
 5278SOL     OW27295   3.259   3.108  11.742 -0.0946  0.2587  0.1035
 5278SOL    HW127296   3.297   3.179  11.793 -1.8424  0.9437  0.4581
 5278SOL    HW227297   3.250   3.035  11.804 -1.3545 -0.9376 -1.5050
 5279SOL     OW27298   0.383   4.697   6.959 -0.3634  0.1913  0.6452
 5279SOL    HW127299   0.434   4.621   6.932  1.4809  1.2676  1.0823
 5279SOL    HW227300   0.430   0.039   6.908 -1.2255  0.3325  0.0424
 5280SOL     OW27301   1.422   3.927   2.489 -0.3486 -0.5116 -0.2890
 5280SOL    HW127302   1.430   3.834   2.467 -0.5803 -0.5798 -0.0772
 5280SOL    HW227303   1.328   3.936   2.501 -0.5129 -2.0661 -0.3589
 5281SOL     OW27304   3.541   2.735  11.306 -0.0877  0.2468  0.2453
 5281SOL    HW127305   3.480   2.666  11.331  0.9612 -0.4681  0.8395
 5281SOL    HW227306   3.561   2.747  11.399 -2.1981  0.4886  0.6574
 5282SOL     OW27307   1.300   3.980   9.178  0.1012  0.1339  0.3138
 5282SOL    HW127308   1.237   4.022   9.119 -0.7659 -0.9433  0.4791
 5282SOL    HW227309   1.283   4.034   9.255 -1.3790  0.1137  0.0025
 5283SOL     OW27310   3.329   1.211  15.762  0.3491 -0.3481 -0.5118
 5283SOL    HW127311   3.374   1.260  15.693 -0.9787  1.1959 -0.2756
 5283SOL    HW227312   3.246   1.258  15.772 -0.1073 -1.3512  0.5553
 5284SOL     OW27313   2.550   0.970   6.387 -0.0375 -1.1986 -0.4205
 5284SOL    HW127314   2.573   0.887   6.430  1.0534 -0.3110  0.7000
 5284SOL    HW227315   2.547   1.032   6.460 -1.4865 -1.5628 -0.1757
 5285SOL     OW27316   0.075   1.866   6.301 -0.0890  0.0765 -0.2347
 5285SOL    HW127317   0.063   1.889   6.209  0.6163 -2.1350 -0.8624
 5285SOL    HW227318   0.160   1.822   6.296 -1.1246 -1.8214 -0.6914
 5286SOL     OW27319   1.659   4.282   0.917  0.5224 -0.1341 -0.3672
 5286SOL    HW127320   1.703   4.365   0.937  0.1657  0.3620 -1.6736
 5286SOL    HW227321   1.726   4.243   0.861  0.9279 -1.4704  1.0421
 5287SOL     OW27322   2.840   3.441  14.137 -0.1545 -0.0385 -0.2140
 5287SOL    HW127323   2.769   3.380  14.156  0.4688 -0.2029  1.6523
 5287SOL    HW227324   2.800   3.489  14.065 -2.2692  0.9610  1.6021
 5288SOL     OW27325   1.768   0.637   4.041  0.1516  0.0603 -0.0092
 5288SOL    HW127326   1.755   0.559   4.095 -0.5645  1.1197  1.3221
 5288SOL    HW227327   1.676   0.649   4.020  0.1979  1.0517  0.3901
 5289SOL     OW27328   0.470   1.864   5.814 -0.0193 -0.3861 -0.8479
 5289SOL    HW127329   0.375   1.866   5.807  0.0954 -1.6214 -2.7811
 5289SOL    HW227330   0.478   1.769   5.804 -0.7027 -0.6218  0.9172
 5290SOL     OW27331   2.230   2.593   2.730 -0.0296 -0.3138  0.0035
 5290SOL    HW127332   2.314   2.594   2.684 -0.1988  0.2377 -0.2921
 5290SOL    HW227333   2.220   2.685   2.756 -1.0746 -0.9940  1.9651
 5291SOL     OW27334   2.080   0.069   9.305 -0.0548 -0.8576  0.6855
 5291SOL    HW127335   2.036   0.054   9.389  0.7535 -0.1239  1.2371
 5291SOL    HW227336   2.148   0.002   9.294  1.5174  0.8407  0.1529
 5292SOL     OW27337   1.480   2.566  10.490 -0.2399 -0.1566  0.0115
 5292SOL    HW127338   1.409   2.554  10.427 -0.4719  1.3059 -0.0011
 5292SOL    HW227339   1.524   2.484  10.470 -0.3684 -0.2723  0.2065
 5293SOL     OW27340   2.191   3.268   3.789 -0.0068  0.0424 -0.2230
 5293SOL    HW127341   2.244   3.346   3.770 -0.0369 -0.4461 -2.2828
 5293SOL    HW227342   2.157   3.233   3.707  1.1985 -0.2315 -0.6035
 5294SOL     OW27343   2.967   3.552   5.784  0.0847  0.0651 -0.1058
 5294SOL    HW127344   2.928   3.605   5.715 -1.0568 -1.5613 -0.6942
 5294SOL    HW227345   3.001   3.477   5.736  1.4818  0.3288  0.4410
 5295SOL     OW27346   3.058   0.278  15.680 -0.5382 -0.2718 -0.3162
 5295SOL    HW127347   3.144   0.317  15.667 -1.0461  0.8659 -0.2556
 5295SOL    HW227348   3.059   0.290  15.775  4.2730  0.9836 -0.5367
 5296SOL     OW27349   0.133   4.013   1.160  0.1786  0.4481  0.2811
 5296SOL    HW127350   0.139   3.917   1.152  0.9896  0.3309  2.3569
 5296SOL    HW227351   0.173   4.031   1.245  1.1610 -1.8350  0.3195
 5297SOL     OW27352   0.182   3.623  17.390  0.3083  0.1625 -0.1804
 5297SOL    HW127353   0.153   3.657  17.475  0.0918 -0.6621  0.0667
 5297SOL    HW227354   0.104   3.644  17.339 -1.2488 -0.9100  1.7730
 5298SOL     OW27355   4.592   2.612   2.622  0.3592  0.3132  0.0757
 5298SOL    HW127356   4.657   2.678   2.644  1.4507 -1.1184  1.1470
 5298SOL    HW227357   4.644   2.532   2.629 -2.3969 -1.4672  0.2672
 5299SOL     OW27358   0.013   3.507   9.106  0.1366 -0.0654  0.1455
 5299SOL    HW127359   0.063   3.493   9.186  0.7174  2.2884  0.1985
 5299SOL    HW227360   0.056   3.588   9.076  1.9238 -1.1783 -0.3056
 5300SOL     OW27361   2.710   3.117   1.959 -0.4129 -0.9720 -0.7454
 5300SOL    HW127362   2.746   3.176   1.893 -0.9122 -0.5120 -0.6026
 5300SOL    HW227363   2.766   3.039   1.950  0.2996 -0.6805  1.1289
 5301SOL     OW27364   1.019   0.718   9.515 -0.8252  0.0067  0.0510
 5301SOL    HW127365   1.103   0.758   9.491  1.5050 -4.1385  1.2816
 5301SOL    HW227366   0.968   0.748   9.440 -1.7562  3.1384  1.9890
 5302SOL     OW27367   2.115   4.636   7.008  0.8911  0.0726  0.5527
 5302SOL    HW127368   2.044   4.573   7.024  0.4179  1.0331  2.2389
 5302SOL    HW227369   2.159   4.628   7.093  0.8273  2.0447  0.7808
 5303SOL     OW27370   4.382   0.826   7.585 -0.0565 -0.0767 -0.1134
 5303SOL    HW127371   4.363   0.734   7.566  0.4685 -0.2247  0.0845
 5303SOL    HW227372   4.334   0.865   7.512 -1.1524  1.2228  1.2899
 5304SOL     OW27373   1.938   1.613  13.458  0.0329 -0.1090  0.5496
 5304SOL    HW127374   2.029   1.644  13.464 -0.0649  0.3275 -0.3406
 5304SOL    HW227375   1.929   1.611  13.553 -0.3405  0.2411  0.5224
 5305SOL     OW27376   3.715   2.357   8.480 -0.3126  0.3555 -0.5297
 5305SOL    HW127377   3.789   2.418   8.480 -1.0431  1.2534 -1.8348
 5305SOL    HW227378   3.681   2.374   8.567 -0.1074  1.5309 -0.6692
 5306SOL     OW27379   2.591   3.641  16.535  0.2562 -0.6593  0.1104
 5306SOL    HW127380   2.622   3.557  16.570  1.3918  0.2581  1.3253
 5306SOL    HW227381   2.607   3.695  16.612  0.4959  0.0766 -0.4614
 5307SOL     OW27382   4.399   2.495   0.166  0.5121 -0.2453 -0.2339
 5307SOL    HW127383   4.320   2.533   0.204  0.7658 -1.6090  1.6474
 5307SOL    HW227384   4.378   2.409   0.201  1.1936  0.0370  0.8672
 5308SOL     OW27385   2.322   4.547   8.989  0.5875  0.1681  0.4690
 5308SOL    HW127386   2.329   4.643   8.998 -0.8256  0.4911 -2.1664
 5308SOL    HW227387   2.409   4.530   9.025  1.0969  2.4965  0.3737
 5309SOL     OW27388   2.645   4.349  15.201  0.2006  0.9952 -0.0723
 5309SOL    HW127389   2.717   4.325  15.260 -1.1352  2.4397  2.1523
 5309SOL    HW227390   2.569   4.321  15.252 -0.2703  0.2277 -1.2108
 5310SOL     OW27391   0.806   3.484   5.501  0.3618 -0.0306 -0.0592
 5310SOL    HW127392   0.724   3.501   5.547  0.6882  2.7891 -0.5369
 5310SOL    HW227393   0.833   3.571   5.473 -0.4033  0.2147 -0.0367
 5311SOL     OW27394   0.561   4.443   6.584 -0.0734  0.2336  0.1554
 5311SOL    HW127395   0.559   4.539   6.581  1.1976  0.3223  1.9349
 5311SOL    HW227396   0.489   4.420   6.526 -2.3589  2.8606  1.9628
 5312SOL     OW27397   0.009   3.988  16.599  0.1577 -0.0841  0.5210
 5312SOL    HW127398   4.644   3.960  16.579 -0.2895 -0.0761  2.5475
 5312SOL    HW227399   0.050   3.902  16.608 -1.0678 -0.5880  1.3129
 5313SOL     OW27400   3.472   2.639   2.860  0.8453 -0.1200  0.0735
 5313SOL    HW127401   3.568   2.634   2.852  0.5695  1.4873 -4.3465
 5313SOL    HW227402   3.447   2.682   2.778  1.5680 -0.9239 -0.5773
 5314SOL     OW27403   1.490   2.091   3.712 -0.2082  0.0213 -0.3156
 5314SOL    HW127404   1.401   2.095   3.746 -1.0215  1.9529 -2.6378
 5314SOL    HW227405   1.515   2.006   3.748  1.5253  0.5845 -0.1964
 5315SOL     OW27406   4.052   0.833  15.909  0.6138  0.5422  0.2361
 5315SOL    HW127407   4.094   0.883  15.839 -1.0390  1.1399 -0.3465
 5315SOL    HW227408   4.119   0.769  15.932  1.3048  2.0909  2.5012
 5316SOL     OW27409   3.684   2.880   1.971 -0.4650  0.4433 -0.1782
 5316SOL    HW127410   3.673   2.962   1.924 -0.7801 -0.9313 -2.4703
 5316SOL    HW227411   3.737   2.908   2.046  1.2301 -2.3889 -0.3155
 5317SOL     OW27412   3.897   2.044   8.253  0.4922  0.7819 -0.3419
 5317SOL    HW127413   3.843   1.965   8.254  0.7441  0.5905 -1.6253
 5317SOL    HW227414   3.877   2.087   8.170  1.6269  3.5383  0.7901
 5318SOL     OW27415   3.709   3.783   8.879  0.2839 -0.2920  0.1049
 5318SOL    HW127416   3.614   3.791   8.894  0.0255  0.1905 -1.7902
 5318SOL    HW227417   3.712   3.710   8.818 -0.8082  0.9146 -1.4024
 5319SOL     OW27418   1.608   4.003   7.533 -0.6198  0.4799 -0.4071
 5319SOL    HW127419   1.601   4.043   7.619  0.8940  1.0937 -0.5712
 5319SOL    HW227420   1.520   4.023   7.499 -1.0006  0.9399  0.8322
 5320SOL     OW27421   1.941   1.020   9.152  0.2990 -0.0125  0.5300
 5320SOL    HW127422   1.989   0.940   9.134 -0.3639 -0.2764 -0.0511
 5320SOL    HW227423   1.996   1.061   9.219  0.3744 -0.9674  1.0496
 5321SOL     OW27424   3.840   4.339   2.073  0.5344  0.0282 -0.2027
 5321SOL    HW127425   3.929   4.319   2.043  0.3447 -0.5350 -0.4037
 5321SOL    HW227426   3.839   4.432   2.094 -1.8102  0.2449 -1.3837
 5322SOL     OW27427   2.830   0.556   7.718  0.4115  0.3142 -0.2902
 5322SOL    HW127428   2.802   0.468   7.693 -3.2735  1.0618  1.2824
 5322SOL    HW227429   2.911   0.541   7.767  0.6349  1.2282 -0.3869
 5323SOL     OW27430   2.555   1.112   6.168  0.3921  0.3900 -0.3232
 5323SOL    HW127431   2.569   1.049   6.097 -0.9604 -1.7861  1.3076
 5323SOL    HW227432   2.586   1.064   6.245 -1.4147  1.2366  0.9226
 5324SOL     OW27433   2.058   1.472   8.645  0.3605  0.2844 -0.4472
 5324SOL    HW127434   2.108   1.529   8.587  1.0399  2.2638  2.1308
 5324SOL    HW227435   2.075   1.384   8.609  0.8878  0.9166 -1.7557
 5325SOL     OW27436   2.627   0.935   2.889 -0.2355  0.2113 -0.0689
 5325SOL    HW127437   2.592   0.983   2.814  0.3019  0.2974 -0.2666
 5325SOL    HW227438   2.693   0.882   2.844  1.1752  1.6414  0.3381
 5326SOL     OW27439   3.263   1.439   6.023  0.3675 -0.4069  0.4154
 5326SOL    HW127440   3.226   1.352   6.012  0.2393 -0.5616  1.9901
 5326SOL    HW227441   3.188   1.488   6.057  1.3208  0.5292  1.1951
 5327SOL     OW27442   0.218   0.817  13.827 -0.2376  0.0667 -0.3025
 5327SOL    HW127443   0.305   0.777  13.836  0.1285  0.8385 -0.3827
 5327SOL    HW227444   0.247   0.893  13.776  1.6194  0.0854  0.7655
 5328SOL     OW27445   2.896   4.669  13.558  0.5418 -0.4832  0.1695
 5328SOL    HW127446   2.849   4.639  13.635 -0.1813  1.1623  0.3590
 5328SOL    HW227447   2.821   4.706  13.512  1.9625  0.6496 -1.2639
 5329SOL     OW27448   0.339   4.698  14.330  0.3251  0.0855  0.0257
 5329SOL    HW127449   0.419   4.719  14.283 -0.0983  1.9542  0.1436
 5329SOL    HW227450   0.361   0.015  14.413 -1.1870  2.4264 -0.7367
 5330SOL     OW27451   2.618   1.845  14.982 -0.3358 -0.4936  0.6114
 5330SOL    HW127452   2.688   1.904  15.012 -0.5445  0.4329 -0.7030
 5330SOL    HW227453   2.576   1.830  15.067  0.5580  2.4744  1.5921
 5331SOL     OW27454   4.641   1.205   5.436  0.6157 -0.3876  0.2325
 5331SOL    HW127455   4.602   1.272   5.491 -1.1054 -0.4582 -0.9235
 5331SOL    HW227456   4.657   1.150   5.513 -0.0348 -0.7271  0.1264
 5332SOL     OW27457   0.800   1.785   3.909  0.3525 -0.2172  0.1093
 5332SOL    HW127458   0.868   1.831   3.958 -0.6182  1.6593 -0.2933
 5332SOL    HW227459   0.754   1.855   3.863  2.1343  0.4476 -0.6488
 5333SOL     OW27460   0.365   1.594   2.308 -0.6027  0.1507 -0.3810
 5333SOL    HW127461   0.416   1.601   2.389 -2.6065 -1.2277  0.9840
 5333SOL    HW227462   0.383   1.505   2.280  1.8934  0.6719 -0.4658
 5334SOL     OW27463   2.523   2.758   9.563 -0.2137 -0.2502  0.3618
 5334SOL    HW127464   2.480   2.836   9.527 -2.3121 -1.9000 -0.6642
 5334SOL    HW227465   2.615   2.784   9.551  0.4951 -2.2065  1.5513
 5335SOL     OW27466   2.384   0.519   2.991  0.6378 -0.6375  0.4272
 5335SOL    HW127467   2.395   0.613   2.978 -2.9992 -0.3623 -0.7421
 5335SOL    HW227468   2.376   0.488   2.901 -1.3425 -1.0217  0.7397
 5336SOL     OW27469   2.126   4.710  10.582  0.3068  0.0234 -0.8606
 5336SOL    HW127470   2.057   0.015  10.642  1.8899  1.1586  0.3987
 5336SOL    HW227471   2.082   4.640  10.534 -0.4889 -0.7961  1.0402
 5337SOL     OW27472   1.064   3.829  12.693 -0.6698  0.7684 -0.0929
 5337SOL    HW127473   1.060   3.787  12.607 -0.0434  0.0364  0.2374
 5337SOL    HW227474   1.141   3.884  12.683 -0.8753  1.1717  0.5813
 5338SOL     OW27475   1.577   4.697   3.899  0.6198  0.1013 -0.2941
 5338SOL    HW127476   1.503   4.683   3.841 -0.0052 -0.3309  0.5948
 5338SOL    HW227477   1.632   4.620   3.888 -0.5932 -0.5223 -1.9113
 5339SOL     OW27478   3.588   2.180   2.780  0.5647 -0.1154  0.3592
 5339SOL    HW127479   3.681   2.170   2.804  0.8585  0.1389 -0.6823
 5339SOL    HW227480   3.545   2.139   2.855 -0.1267 -1.8873 -1.0220
 5340SOL     OW27481   2.338   1.071  10.882 -0.8379  0.0972  0.8085
 5340SOL    HW127482   2.365   1.119  10.960  0.1513  0.8724 -0.0191
 5340SOL    HW227483   2.295   0.993  10.918 -2.0059  0.5732  0.4454
 5341SOL     OW27484   0.935   0.055   4.079  0.1403  0.4698  0.6175
 5341SOL    HW127485   0.926   0.139   4.033 -1.8467  1.8228  3.4271
 5341SOL    HW227486   0.979   0.077   4.162  1.2268  1.4713 -0.2233
 5342SOL     OW27487   0.089   4.659   2.351 -0.5204 -0.2914  0.3459
 5342SOL    HW127488   0.039   4.579   2.368 -2.2579  1.0091  1.2781
 5342SOL    HW227489   0.162   4.619   2.303  0.6279 -0.0028  1.8289
 5343SOL     OW27490   1.094   2.418   2.622  0.8752 -0.3128 -0.1677
 5343SOL    HW127491   1.012   2.467   2.627  2.1999  1.9070 -0.3225
 5343SOL    HW227492   1.092   2.381   2.534  2.3331 -1.1061  0.1357
 5344SOL     OW27493   2.617   0.660   9.676 -0.2866 -0.0134 -0.3694
 5344SOL    HW127494   2.522   0.648   9.684 -0.4463  0.6011 -1.2885
 5344SOL    HW227495   2.638   0.733   9.735 -0.4509  0.7011 -1.1938
 5345SOL     OW27496   0.823   4.519  15.521 -0.2029 -0.3363 -0.2291
 5345SOL    HW127497   0.739   4.561  15.503 -0.3347 -0.3267  0.3824
 5345SOL    HW227498   0.884   4.592  15.524  1.2058 -1.5273  0.3810
 5346SOL     OW27499   4.156   3.011   7.518 -0.4217  0.2639 -0.0661
 5346SOL    HW127500   4.061   3.016   7.526 -0.4776 -1.6622  0.2872
 5346SOL    HW227501   4.161   2.945   7.449  5.0339  2.2243 -1.6182
 5347SOL     OW27502   3.461   2.013   3.004  0.6745 -0.5805 -0.7398
 5347SOL    HW127503   3.376   1.972   3.017 -0.0581  0.6233 -1.8485
 5347SOL    HW227504   3.497   1.948   2.943  0.0241 -2.0637  0.4527
 5348SOL     OW27505   0.703   1.365   6.044 -0.1234  0.5123 -0.6522
 5348SOL    HW127506   0.758   1.302   6.091 -0.8759 -1.2178 -2.0854
 5348SOL    HW227507   0.677   1.424   6.115  0.1645 -3.4749  2.7421
 5349SOL     OW27508   2.522   2.455   7.148 -0.0035 -0.1757 -0.4539
 5349SOL    HW127509   2.479   2.370   7.148 -1.5008  0.5596  1.8328
 5349SOL    HW227510   2.445   2.511   7.161  0.8886  1.1837 -0.9625
 5350SOL     OW27511   4.311   2.090  15.690  0.3942  0.4199  0.3806
 5350SOL    HW127512   4.278   2.179  15.674 -0.2488 -0.3667 -2.6546
 5350SOL    HW227513   4.404   2.113  15.694  0.7373 -0.8244 -0.4469
 5351SOL     OW27514   1.364   1.012   4.221  0.5743  0.1817  0.2428
 5351SOL    HW127515   1.373   1.106   4.204  1.0203 -0.0587 -0.8365
 5351SOL    HW227516   1.357   0.999   4.316 -0.8680 -1.5699 -0.1206
 5352SOL     OW27517   3.265   0.775   4.750  0.0576 -0.4108  0.3060
 5352SOL    HW127518   3.277   0.696   4.803  3.5124 -0.8663 -1.1633
 5352SOL    HW227519   3.308   0.762   4.666 -0.8827  0.0047 -0.2266
 5353SOL     OW27520   3.018   3.762   9.128 -0.9831 -0.5440  0.1917
 5353SOL    HW127521   2.943   3.810   9.093  0.6347  0.3650 -2.0256
 5353SOL    HW227522   3.076   3.767   9.052 -1.9647 -0.6698 -0.5699
 5354SOL     OW27523   1.188   2.555   5.411  0.3631  0.3187  0.2185
 5354SOL    HW127524   1.130   2.481   5.397 -0.8657  1.1954  0.6426
 5354SOL    HW227525   1.141   2.621   5.359  0.1615 -0.5276 -0.6563
 5355SOL     OW27526   3.095   4.146   7.329 -0.2918 -0.0262 -0.6171
 5355SOL    HW127527   3.130   4.204   7.396 -1.8035  0.7344 -0.4822
 5355SOL    HW227528   3.054   4.083   7.388  0.6487  1.5375  1.6999
 5356SOL     OW27529   3.117   4.691   5.107  0.3080 -0.0379 -0.5453
 5356SOL    HW127530   3.034   4.653   5.135  0.5154 -0.3055 -0.2919
 5356SOL    HW227531   3.151   4.713   5.193 -2.3941  1.7501  0.0662
 5357SOL     OW27532   0.357   3.196   4.388  0.3496 -0.3108  0.1577
 5357SOL    HW127533   0.314   3.111   4.390 -1.9152  0.7950 -1.9532
 5357SOL    HW227534   0.417   3.176   4.316  0.7961 -1.6558  0.9006
 5358SOL     OW27535   2.758   2.823   1.208 -0.2891 -0.5423  0.3567
 5358SOL    HW127536   2.809   2.743   1.217 -0.0564 -0.6939 -2.2528
 5358SOL    HW227537   2.740   2.826   1.113 -1.8847  1.0907  0.7103
 5359SOL     OW27538   1.550   2.478   5.231  0.0443 -0.2035 -0.0841
 5359SOL    HW127539   1.521   2.484   5.140 -0.9342  0.3965  0.2705
 5359SOL    HW227540   1.645   2.484   5.225 -0.0566  0.1963 -1.2057
 5360SOL     OW27541   3.017   0.738  15.483  0.3871  0.3952  0.6065
 5360SOL    HW127542   3.004   0.644  15.475 -1.5573  0.6505  0.8176
 5360SOL    HW227543   2.945   0.754  15.543  1.1167 -1.9993  2.0983
 5361SOL     OW27544   4.577   1.667  16.922  0.2132  0.2626 -0.5977
 5361SOL    HW127545   4.490   1.678  16.961 -0.0237 -1.3530 -0.6593
 5361SOL    HW227546   4.632   1.710  16.988  0.9069 -0.7512 -0.5140
 5362SOL     OW27547   2.918   1.389   2.449 -0.0193  0.5324 -0.4814
 5362SOL    HW127548   2.949   1.463   2.396 -1.7935  2.2087  0.8068
 5362SOL    HW227549   2.913   1.316   2.388  0.0061  0.8701 -0.8812
 5363SOL     OW27550   3.040   4.262   1.544 -0.3011  0.1728  0.2124
 5363SOL    HW127551   3.085   4.345   1.562 -0.4793  0.1643  0.6850
 5363SOL    HW227552   3.024   4.225   1.630 -0.3300  0.8728  0.5018
 5364SOL     OW27553   3.809   2.920   7.945 -0.0600 -0.0712 -0.3523
 5364SOL    HW127554   3.888   2.885   7.987  0.0976 -0.7463 -1.2092
 5364SOL    HW227555   3.831   3.013   7.947 -1.5297  0.2038  2.0688
 5365SOL     OW27556   3.575   3.230  13.899  0.6158  0.0149 -0.2819
 5365SOL    HW127557   3.577   3.302  13.836 -1.9801 -0.5159 -0.9831
 5365SOL    HW227558   3.580   3.160  13.835  4.0013 -0.5184  0.5723
 5366SOL     OW27559   3.886   0.471  12.273  0.5975 -0.1042  0.3900
 5366SOL    HW127560   3.862   0.385  12.307  0.9152 -0.0488  0.7466
 5366SOL    HW227561   3.869   0.529  12.347 -1.3642 -0.8711  0.5496
 5367SOL     OW27562   2.283   2.193   4.543  0.1666 -0.1031 -0.0735
 5367SOL    HW127563   2.210   2.180   4.482  1.4614 -0.7157 -1.4999
 5367SOL    HW227564   2.307   2.101   4.557  2.2502  0.3891 -0.4478
 5368SOL     OW27565   2.739   1.627  14.409  0.2827 -0.1305  0.2169
 5368SOL    HW127566   2.657   1.613  14.456 -0.8767 -1.6614 -2.2577
 5368SOL    HW227567   2.740   1.722  14.393  0.2948  0.2138  2.2181
 5369SOL     OW27568   4.574   3.348  14.281  0.3239 -0.3554 -0.0143
 5369SOL    HW127569   4.667   3.366  14.297 -0.0660  2.1952 -0.5496
 5369SOL    HW227570   4.532   3.382  14.360 -1.0732 -1.4513 -0.3058
 5370SOL     OW27571   4.293   3.079   9.007  0.1521 -0.2059 -0.4588
 5370SOL    HW127572   4.343   3.057   8.929  0.4035  2.3657 -1.0145
 5370SOL    HW227573   4.210   3.109   8.969  0.8562  1.0475 -1.0163
 5371SOL     OW27574   3.705   1.670   6.833  0.0114 -0.2620 -0.5484
 5371SOL    HW127575   3.732   1.762   6.836 -2.8087  0.5795 -1.0312
 5371SOL    HW227576   3.789   1.622   6.834 -1.1703 -2.2433  2.3877
 5372SOL     OW27577   0.982   2.648   7.609 -0.9431 -0.5531 -0.4542
 5372SOL    HW127578   0.941   2.607   7.685  1.1676  0.4590  1.2207
 5372SOL    HW227579   0.973   2.572   7.552 -0.0209 -1.7900  1.0804
 5373SOL     OW27580   1.861   2.533  10.657 -0.2262 -0.0438 -0.3091
 5373SOL    HW127581   1.938   2.582  10.686 -1.3748  2.0155 -0.7583
 5373SOL    HW227582   1.797   2.580  10.710  0.1035 -0.2898  0.3018
 5374SOL     OW27583   3.319   3.542   5.698 -0.5044  0.4169  0.0586
 5374SOL    HW127584   3.304   3.627   5.657 -0.0758  0.5537  0.1854
 5374SOL    HW227585   3.414   3.543   5.706 -0.3732  1.4602 -1.6861
 5375SOL     OW27586   4.288   4.248   4.474  0.2532 -0.6288 -0.2630
 5375SOL    HW127587   4.280   4.154   4.491  1.0524 -0.5450  0.5776
 5375SOL    HW227588   4.361   4.252   4.412 -0.0194 -1.1109 -0.6196
 5376SOL     OW27589   0.889   0.645   3.922 -0.1884  0.1942  0.0817
 5376SOL    HW127590   0.983   0.629   3.920 -0.3143 -0.5124 -0.2127
 5376SOL    HW227591   0.879   0.647   4.017  0.1938 -0.3013  0.1330
 5377SOL     OW27592   0.668   0.745   8.646  0.7759  0.2711  0.2614
 5377SOL    HW127593   0.678   0.764   8.553 -2.1190 -0.1202 -0.1384
 5377SOL    HW227594   0.659   0.650   8.639  0.6772  0.4535 -2.1246
 5378SOL     OW27595   4.315   4.233   8.048  0.0749 -0.3023  0.2356
 5378SOL    HW127596   4.406   4.262   8.036  0.4700 -2.7663 -2.4897
 5378SOL    HW227597   4.285   4.287   8.122 -0.2967  1.2590 -1.0444
 5379SOL     OW27598   1.334   1.757   6.727 -0.3228  0.0457  0.3919
 5379SOL    HW127599   1.298   1.699   6.794 -1.8763 -0.9600 -1.3281
 5379SOL    HW227600   1.384   1.824   6.774 -2.0189  1.4084  0.2263
 5380SOL     OW27601   0.940   4.686   5.621 -0.3877 -0.0333  0.0539
 5380SOL    HW127602   0.923   4.623   5.551 -1.1450  1.5179 -1.1564
 5380SOL    HW227603   0.961   0.037   5.566  2.1341 -0.7566  0.0414
 5381SOL     OW27604   3.365   4.514  14.853  0.6683 -0.2070 -0.3991
 5381SOL    HW127605   3.344   4.569  14.777  1.6910  1.7732  0.7574
 5381SOL    HW227606   3.460   4.520  14.846  0.4132  1.7703 -2.5518
 5382SOL     OW27607   0.880   3.200   8.070 -0.1004 -0.1805 -0.0337
 5382SOL    HW127608   0.975   3.200   8.072 -0.1122  0.0343  0.4845
 5382SOL    HW227609   0.855   3.135   8.136 -2.5576 -0.0346 -0.8215
 5383SOL     OW27610   1.127   0.268  16.966  0.5310 -0.3017 -0.2888
 5383SOL    HW127611   1.218   0.237  16.956 -0.4989 -2.8035 -1.9249
 5383SOL    HW227612   1.097   0.204  17.030  0.9803  2.1452  2.3629
 5384SOL     OW27613   2.760   1.931   7.355  0.9745  0.4005 -0.1036
 5384SOL    HW127614   2.750   1.977   7.272 -0.6747  0.3134  0.0361
 5384SOL    HW227615   2.671   1.900   7.373  1.2479 -0.5620 -0.3841
 5385SOL     OW27616   2.930   0.214   8.974 -0.7473 -0.2568 -0.2755
 5385SOL    HW127617   3.023   0.234   8.969 -1.0492  1.4578  0.7794
 5385SOL    HW227618   2.899   0.239   9.061  1.2736  0.6397  0.1710
 5386SOL     OW27619   2.623   0.863   9.851 -0.5472  0.4229  0.0098
 5386SOL    HW127620   2.687   0.933   9.868  0.9607 -0.7579 -0.8418
 5386SOL    HW227621   2.595   0.845   9.941  2.1553  0.3702  0.8471
 5387SOL     OW27622   1.616   2.737   4.089  0.0659  0.7227 -0.3116
 5387SOL    HW127623   1.631   2.831   4.091  0.4943  0.7080 -3.0716
 5387SOL    HW227624   1.520   2.746   4.093  0.1667  0.5056  2.4816
 5388SOL     OW27625   4.662   4.327   0.601 -0.3998 -0.2955 -0.1499
 5388SOL    HW127626   4.691   4.326   0.693 -0.6733 -2.0052 -0.0788
 5388SOL    HW227627   4.714   4.398   0.564  1.5795 -0.8885  1.4522
 5389SOL     OW27628   2.707   2.765   6.686 -0.3522 -0.3968  0.1164
 5389SOL    HW127629   2.725   2.809   6.769 -2.6282  0.5819  0.0999
 5389SOL    HW227630   2.664   2.842   6.647  0.0573 -0.7972 -1.1416
 5390SOL     OW27631   1.538   0.889   7.090  0.1625 -0.4699  1.0062
 5390SOL    HW127632   1.552   0.840   7.171 -0.9484 -1.4678  0.5812
 5390SOL    HW227633   1.465   0.949   7.103  0.0425 -0.4564  0.3020
 5391SOL     OW27634   2.746   3.861  15.504 -0.1173  0.1911  0.2744
 5391SOL    HW127635   2.747   3.937  15.563  1.5739  1.4890 -1.4368
 5391SOL    HW227636   2.801   3.796  15.548 -0.4448 -1.0829 -1.2366
 5392SOL     OW27637   3.429   0.884   9.169 -0.2605  0.2270 -0.2883
 5392SOL    HW127638   3.338   0.863   9.148  0.4421 -1.3520 -1.7566
 5392SOL    HW227639   3.437   0.957   9.109 -0.1158  1.4504  1.2043
 5393SOL     OW27640   3.705   0.489   6.141 -0.1256  0.4480 -0.3998
 5393SOL    HW127641   3.712   0.576   6.102 -1.6310  0.6339 -0.2466
 5393SOL    HW227642   3.706   0.506   6.235 -2.0945 -1.1448 -0.0950
 5394SOL     OW27643   3.401   4.233   4.633 -0.2069  0.2666 -0.0366
 5394SOL    HW127644   3.408   4.148   4.590  1.1919  1.3756 -1.9859
 5394SOL    HW227645   3.433   4.284   4.559  2.8658 -0.3836  0.8003
 5395SOL     OW27646   1.085   0.024   3.608  0.3563 -0.0762 -0.1530
 5395SOL    HW127647   1.164   0.059   3.567 -1.8443  0.0043 -4.3020
 5395SOL    HW227648   1.113   4.657   3.607 -0.4919 -0.3417  1.4539
 5396SOL     OW27649   1.025   0.138   4.572 -0.3712 -0.2170  0.3055
 5396SOL    HW127650   0.936   0.104   4.559 -0.2778 -0.7279  1.0033
 5396SOL    HW227651   1.052   0.141   4.480 -1.1059 -0.0896  0.0924
 5397SOL     OW27652   3.504   1.141   2.681  0.6691  0.2037  0.5431
 5397SOL    HW127653   3.599   1.149   2.669  0.4115 -0.5666 -2.0874
 5397SOL    HW227654   3.500   1.176   2.769 -1.2255 -0.3084  0.6537
 5398SOL     OW27655   3.836   1.065   8.712 -0.1563  0.1213 -0.1761
 5398SOL    HW127656   3.930   1.083   8.706 -0.2013  0.5023  0.3287
 5398SOL    HW227657   3.805   1.153   8.732  0.3327  0.4166 -0.7067
 5399SOL     OW27658   2.586   0.440  10.132 -0.2101 -0.0006  0.0970
 5399SOL    HW127659   2.527   0.514  10.128 -1.4009 -0.9822 -0.4880
 5399SOL    HW227660   2.601   0.427  10.038 -0.1049  2.2140 -0.1830
 5400SOL     OW27661   4.426   3.979   6.526  0.4255 -0.0969  0.2875
 5400SOL    HW127662   4.408   3.893   6.489 -0.0920 -0.2551  0.9138
 5400SOL    HW227663   4.414   3.952   6.617  1.9395  2.4283  1.2408
 5401SOL     OW27664   3.011   2.375   6.679 -0.3415 -0.4042 -0.0899
 5401SOL    HW127665   2.926   2.413   6.658  0.6386  0.7182 -2.1298
 5401SOL    HW227666   3.068   2.415   6.614 -1.5916  0.1084 -0.8675
 5402SOL     OW27667   4.030   3.155  10.389  0.3324 -0.3894  0.2311
 5402SOL    HW127668   3.965   3.091  10.360 -0.1658  0.1094  0.2468
 5402SOL    HW227669   3.976   3.233  10.403  1.5801  0.6063 -0.5044
 5403SOL     OW27670   4.352   2.196   3.407 -0.2480  0.5402  0.5314
 5403SOL    HW127671   4.409   2.212   3.482  0.7494  1.5029 -0.4324
 5403SOL    HW227672   4.268   2.188   3.453  0.1642  0.1569  1.2150
 5404SOL     OW27673   4.288   0.438   3.434 -0.0076  0.0320  0.1678
 5404SOL    HW127674   4.245   0.358   3.462 -0.2143  0.8463  2.1892
 5404SOL    HW227675   4.260   0.510   3.492 -1.2524 -0.2456 -0.0862
 5405SOL     OW27676   4.383   0.432  16.170 -0.2483  0.6655 -0.0802
 5405SOL    HW127677   4.355   0.386  16.090  0.3025 -1.4916  0.9827
 5405SOL    HW227678   4.368   0.360  16.231 -2.3084  0.2405 -1.0703
 5406SOL     OW27679   0.386   4.273   9.036  0.5317  0.0599  0.5236
 5406SOL    HW127680   0.345   4.209   8.977 -2.3788  2.3533  0.0271
 5406SOL    HW227681   0.329   4.259   9.111  0.1339  0.9298  0.3820
 5407SOL     OW27682   3.501   2.827  16.144  0.2962  0.3220  0.5095
 5407SOL    HW127683   3.490   2.879  16.064  1.2323  0.0870  0.2317
 5407SOL    HW227684   3.413   2.791  16.154 -0.1611  0.7161 -2.0316
 5408SOL     OW27685   1.870   4.441   9.205 -0.2700 -0.4681  0.7425
 5408SOL    HW127686   1.963   4.451   9.189 -0.4666  0.8341  0.3793
 5408SOL    HW227687   1.858   4.489   9.287  4.1831  0.7800  0.6280
 5409SOL     OW27688   2.171   2.582   3.488  0.4762 -0.2773  0.2209
 5409SOL    HW127689   2.225   2.510   3.522  1.1397  0.4026  0.5913
 5409SOL    HW227690   2.097   2.538   3.447  1.0246  0.1442 -1.2217
 5410SOL     OW27691   4.530   4.185   2.354  0.3610 -0.1128 -0.5587
 5410SOL    HW127692   4.529   4.092   2.376  0.4268  0.0026 -0.0630
 5410SOL    HW227693   4.583   4.179   2.275  1.4727 -0.1192  0.1949
 5411SOL     OW27694   4.195   0.450   5.249  0.1914 -0.0131  0.2932
 5411SOL    HW127695   4.265   0.513   5.236 -0.1465 -0.1029 -1.9428
 5411SOL    HW227696   4.220   0.420   5.336  0.2841  1.2164  0.6830
 5412SOL     OW27697   3.788   1.244   5.309 -0.3379  0.0348 -0.1316
 5412SOL    HW127698   3.820   1.268   5.396 -1.2370 -0.5020  0.3452
 5412SOL    HW227699   3.746   1.327   5.290  0.7200  1.1594  2.3849
 5413SOL     OW27700   0.511   3.458  16.299  0.1527  0.1791  0.3043
 5413SOL    HW127701   0.506   3.551  16.276  0.3580  0.2955  0.7290
 5413SOL    HW227702   0.431   3.433  16.344  0.8954 -1.4500  0.7391
 5414SOL     OW27703   0.282   4.215  15.312 -0.3425  0.7151  0.5092
 5414SOL    HW127704   0.276   4.120  15.316  0.7252  0.7172  2.0999
 5414SOL    HW227705   0.202   4.233  15.363 -2.3902 -2.5569 -1.5354
 5415SOL     OW27706   0.469   3.817   9.460  0.2250 -0.2753 -0.3099
 5415SOL    HW127707   0.488   3.739   9.513  0.9394 -0.0060 -0.1779
 5415SOL    HW227708   0.389   3.791   9.415 -0.6439 -0.3532  1.2476
 5416SOL     OW27709   4.258   2.373   3.802 -0.0972  0.0851  0.0301
 5416SOL    HW127710   4.215   2.391   3.719 -1.1478 -0.8604  0.3640
 5416SOL    HW227711   4.303   2.456   3.814  0.5303 -0.1909 -0.4372
 5417SOL     OW27712   2.431   0.961   8.556  0.4478  0.6577  0.0245
 5417SOL    HW127713   2.428   0.865   8.556 -0.5599  0.6977  1.4327
 5417SOL    HW227714   2.383   0.983   8.635 -0.3824  0.6236 -0.4717
 5418SOL     OW27715   4.482   4.524   5.260 -0.0971  0.0759  0.1420
 5418SOL    HW127716   4.446   4.464   5.325 -0.6251 -0.7593 -0.9020
 5418SOL    HW227717   4.548   4.560   5.320 -0.1451  2.4776 -1.2507
 5419SOL     OW27718   2.966   0.659   4.310 -0.4116 -0.3328  0.0037
 5419SOL    HW127719   2.926   0.706   4.383  1.0576 -0.3996  0.8523
 5419SOL    HW227720   3.060   0.669   4.326 -0.6303  0.3884  0.8542
 5420SOL     OW27721   1.028   4.264  13.787  0.1296 -0.3898  0.0256
 5420SOL    HW127722   1.108   4.259  13.840 -0.4066 -0.4476  0.8270
 5420SOL    HW227723   0.968   4.304  13.851  2.5454  1.4490  1.1845
 5421SOL     OW27724   0.486   2.726   7.745 -0.4861  0.5007  0.1120
 5421SOL    HW127725   0.557   2.779   7.710  1.0314 -2.0823 -0.7702
 5421SOL    HW227726   0.520   2.726   7.835  0.7242  0.1837 -0.3477
 5422SOL     OW27727   3.637   4.404   0.137  0.7102  0.0323 -0.4998
 5422SOL    HW127728   3.658   4.431   0.048  0.3423  1.1765 -0.2504
 5422SOL    HW227729   3.718   4.356   0.153 -0.3800 -1.0770  1.6943
 5423SOL     OW27730   2.503   3.238   7.672  0.2436 -0.4757  0.1285
 5423SOL    HW127731   2.468   3.182   7.742  2.6019  0.5659  2.1159
 5423SOL    HW227732   2.462   3.197   7.596  0.9714 -1.6128  0.3471
 5424SOL     OW27733   2.822   2.989  14.180  0.0163 -0.1094 -0.3143
 5424SOL    HW127734   2.770   2.973  14.102  0.3344  0.5743 -0.6700
 5424SOL    HW227735   2.874   2.908  14.186  0.8014  0.4465  0.5412
 5425SOL     OW27736   2.524   4.130   0.952  0.2586 -0.4033 -0.1667
 5425SOL    HW127737   2.432   4.132   0.925 -0.0137 -2.4421  0.6006
 5425SOL    HW227738   2.514   4.129   1.048  2.0717 -1.6981  0.0111
 5426SOL     OW27739   0.315   3.218   3.592  0.2869  0.0545  0.1293
 5426SOL    HW127740   0.385   3.154   3.607 -0.2988 -1.1046 -1.9962
 5426SOL    HW227741   0.369   3.294   3.610  0.8239 -0.4700  0.7395
 5427SOL     OW27742   1.471   0.860   1.657  0.1599 -0.9540  0.3588
 5427SOL    HW127743   1.564   0.873   1.636  0.0423 -0.1449  0.3540
 5427SOL    HW227744   1.457   0.776   1.613  1.2966 -0.8416 -0.2320
 5428SOL     OW27745   0.284   0.420   8.161 -0.2414 -0.4709  0.2946
 5428SOL    HW127746   0.274   0.385   8.249  3.6808 -3.5071 -0.4438
 5428SOL    HW227747   0.380   0.420   8.154 -0.3738 -2.9551 -1.5280
 5429SOL     OW27748   0.871   0.144   4.859 -0.6314 -0.0457  0.3970
 5429SOL    HW127749   0.890   0.223   4.909  0.7482  0.2662 -0.6171
 5429SOL    HW227750   0.776   0.149   4.845 -0.1641 -0.4463 -2.9075
 5430SOL     OW27751   1.451   0.611   3.959  0.3613 -0.0464 -0.3406
 5430SOL    HW127752   1.431   0.558   4.036  1.2275  0.0130 -0.0675
 5430SOL    HW227753   1.454   0.699   3.996 -1.4913 -0.2166  0.1833
 5431SOL     OW27754   3.058   2.333  14.127  0.1579  0.3133 -0.1611
 5431SOL    HW127755   3.009   2.393  14.070  0.7565  2.7644  1.9405
 5431SOL    HW227756   3.002   2.255  14.124  1.9836 -1.0812  1.9089
 5432SOL     OW27757   2.995   0.824   8.201  0.1531 -0.2423 -0.7365
 5432SOL    HW127758   2.923   0.761   8.194  0.1515 -0.0569 -2.4119
 5432SOL    HW227759   2.982   0.850   8.292  2.3159 -1.3158 -0.1171
 5433SOL     OW27760   2.981   0.886   1.955 -0.1823 -0.1025  0.0806
 5433SOL    HW127761   2.907   0.906   2.013 -0.3428 -0.1841 -0.0958
 5433SOL    HW227762   3.003   0.799   1.988 -0.7237 -0.2644  0.0260
 5434SOL     OW27763   3.442   0.759   2.932  0.4004  0.0827 -0.2823
 5434SOL    HW127764   3.444   0.852   2.907 -0.1994  0.1922  0.0906
 5434SOL    HW227765   3.376   0.771   2.999  1.5970  0.4689  0.8265
 5435SOL     OW27766   4.220   3.750   9.348  0.2093  0.0830 -0.0105
 5435SOL    HW127767   4.136   3.733   9.305 -0.1635  0.5711  0.5240
 5435SOL    HW227768   4.221   3.683   9.417 -1.0464 -0.2980 -0.3703
 5436SOL     OW27769   1.410   1.786   5.525 -0.2587 -0.0754 -0.0482
 5436SOL    HW127770   1.496   1.781   5.482 -1.0678  0.0769 -1.6965
 5436SOL    HW227771   1.412   1.873   5.563 -0.7676 -0.0914  0.0189
 5437SOL     OW27772   1.361   1.594   3.734  0.2144 -0.2525 -0.3367
 5437SOL    HW127773   1.449   1.596   3.772 -1.0548  3.2612  2.4349
 5437SOL    HW227774   1.312   1.542   3.797  1.7754 -1.8663 -0.4452
 5438SOL     OW27775   2.530   2.086   7.016 -0.2811  0.0683 -0.1624
 5438SOL    HW127776   2.613   2.104   7.061 -1.1827 -0.7704  1.8682
 5438SOL    HW227777   2.551   2.047   6.932  2.1917  0.3469  0.3309
 5439SOL     OW27778   2.957   0.500  15.255 -0.3764  0.1381 -0.2126
 5439SOL    HW127779   2.940   0.510  15.349  2.5893  3.8103 -0.1224
 5439SOL    HW227780   2.900   0.572  15.227 -1.0473 -1.3606 -2.7526
 5440SOL     OW27781   3.240   1.560   7.283  0.1753 -0.1564 -0.1892
 5440SOL    HW127782   3.287   1.491   7.237 -2.9963 -1.5432 -1.3012
 5440SOL    HW227783   3.148   1.541   7.269  0.4300 -1.5666  0.1119
 5441SOL     OW27784   2.969   4.266  17.517 -0.2138  0.2658  0.3974
 5441SOL    HW127785   2.905   4.202  17.549  1.4851 -1.8627 -0.4609
 5441SOL    HW227786   2.996   4.306  17.600 -1.2512 -1.0195  1.3550
 5442SOL     OW27787   2.314   3.162   5.298  1.1033  0.4821 -0.4825
 5442SOL    HW127788   2.393   3.182   5.248  2.4480 -1.0309  1.0470
 5442SOL    HW227789   2.319   3.068   5.317  1.6149  1.0609  2.2432
 5443SOL     OW27790   0.276   3.951   1.861  0.3991 -0.4130 -0.2150
 5443SOL    HW127791   0.337   4.022   1.882  0.9307 -1.0937  0.5144
 5443SOL    HW227792   0.334   3.876   1.873  0.8737  0.2206  1.4463
 5444SOL     OW27793   1.381   1.199   0.387  0.3198  0.9467  0.5479
 5444SOL    HW127794   1.473   1.219   0.402  1.5084 -1.9610 -2.9437
 5444SOL    HW227795   1.358   1.157   0.470  0.2678  0.3827  0.2535
 5445SOL     OW27796   4.652   1.604   9.828 -0.7557  0.7264 -0.3679
 5445SOL    HW127797   4.624   1.644   9.911 -3.5555 -1.2855 -0.3596
 5445SOL    HW227798   0.018   1.634   9.821 -0.7533  0.7814 -0.1228
 5446SOL     OW27799   3.361   0.951   3.633  0.4327  0.7029 -0.0130
 5446SOL    HW127800   3.423   0.997   3.575  1.0719  0.9528  0.8750
 5446SOL    HW227801   3.395   0.968   3.721 -2.9097 -0.5948  1.5318
 5447SOL     OW27802   4.045   0.419   1.354  0.1857  0.0396 -0.6334
 5447SOL    HW127803   4.087   0.434   1.269  0.2579  2.3803 -0.2026
 5447SOL    HW227804   4.118   0.401   1.414  0.9371 -0.5599 -1.7384
 5448SOL     OW27805   1.818   1.905   7.262  0.0403  0.0447 -0.7634
 5448SOL    HW127806   1.811   1.809   7.264  2.1304 -0.0771  0.4188
 5448SOL    HW227807   1.861   1.930   7.344  1.5268  0.1480 -1.5805
 5449SOL     OW27808   3.331   3.005  16.386 -0.2057 -0.1171  0.6987
 5449SOL    HW127809   3.405   2.979  16.441  0.9853 -0.6005 -1.1479
 5449SOL    HW227810   3.356   2.979  16.298  1.4447 -0.9612  1.3912
 5450SOL     OW27811   2.834   2.060   9.566 -0.2306  0.5190 -0.2341
 5450SOL    HW127812   2.882   2.143   9.557 -0.1752  0.6446  1.2325
 5450SOL    HW227813   2.808   2.059   9.658  0.3884 -0.7724 -0.0768
 5451SOL     OW27814   4.600   3.586   6.406  0.1887 -0.2170 -0.0125
 5451SOL    HW127815   4.512   3.576   6.441 -0.3359  0.7181 -1.0567
 5451SOL    HW227816   4.587   3.582   6.311  0.0484  0.3721 -0.0163
 5452SOL     OW27817   1.135   4.494  12.145  0.0554 -1.3024 -0.2524
 5452SOL    HW127818   1.228   4.482  12.126  0.6213 -1.5629  2.5879
 5452SOL    HW227819   1.133   4.567  12.207  1.6978 -1.6271  0.1701
 5453SOL     OW27820   0.190   0.532   3.245 -0.1616 -0.4850  0.0782
 5453SOL    HW127821   0.134   0.461   3.275 -2.1514  0.6502 -0.9215
 5453SOL    HW227822   0.173   0.597   3.314 -0.1167  3.3502 -3.5547
 5454SOL     OW27823   3.255   2.953   6.806  0.1499 -0.0036 -0.8882
 5454SOL    HW127824   3.162   2.973   6.814 -0.0642 -0.7134 -1.6207
 5454SOL    HW227825   3.252   2.867   6.849 -3.1811  0.4991 -0.1296
 5455SOL     OW27826   1.617   2.308   0.224 -0.0336  0.4084 -0.4182
 5455SOL    HW127827   1.582   2.320   0.312 -1.7621  0.3409 -1.0973
 5455SOL    HW227828   1.547   2.354   0.178 -2.0688 -1.3733  0.9368
 5456SOL     OW27829   3.353   1.679   8.123  0.2233  0.6597 -0.3433
 5456SOL    HW127830   3.308   1.759   8.096  1.9499  1.6329 -0.2726
 5456SOL    HW227831   3.383   1.707   8.209 -1.7435 -1.6018  1.0764
 5457SOL     OW27832   4.719   3.259   6.103 -0.6475 -0.1259  0.3825
 5457SOL    HW127833   0.048   3.209   6.042  0.3144  0.8304  0.4546
 5457SOL    HW227834   4.630   3.236   6.075  0.0455 -0.8016 -1.2852
 5458SOL     OW27835   3.137   4.555   4.448 -0.1908  0.4986 -0.0125
 5458SOL    HW127836   3.079   4.614   4.497  0.1217  1.5759 -0.9399
 5458SOL    HW227837   3.081   4.506   4.388 -1.2660  0.6355  0.8902
 5459SOL     OW27838   1.519   2.756  16.663 -0.1507  0.0709  0.1547
 5459SOL    HW127839   1.434   2.790  16.637 -1.3963 -0.9225  2.9159
 5459SOL    HW227840   1.484   2.686  16.718 -1.3885  1.1158  0.6942
 5460SOL     OW27841   0.484   3.766   3.861 -0.5256 -0.2556 -0.1251
 5460SOL    HW127842   0.480   3.703   3.789  2.0628 -1.3592  0.6852
 5460SOL    HW227843   0.467   3.718   3.942 -0.6729 -1.0860 -0.6451
 5461SOL     OW27844   2.995   4.244   8.915  0.6807 -0.1121  0.3254
 5461SOL    HW127845   3.041   4.167   8.948 -1.7086 -1.5744  0.2714
 5461SOL    HW227846   3.007   4.239   8.821 -0.8153 -1.9751  0.2418
 5462SOL     OW27847   1.564   3.915   2.726 -0.4388  0.1860 -0.3698
 5462SOL    HW127848   1.529   3.986   2.780 -1.6478 -0.2458 -0.5778
 5462SOL    HW227849   1.528   3.938   2.641 -0.8501  1.0412  0.0343
 5463SOL     OW27850   1.780   0.536  10.928  0.2835 -0.0711  0.7537
 5463SOL    HW127851   1.803   0.456  10.879 -0.2964 -1.6876  3.1039
 5463SOL    HW227852   1.794   0.508  11.019 -2.3770  0.2934  1.2654
 5464SOL     OW27853   1.927   0.356   3.494  0.3455 -0.5129  0.5045
 5464SOL    HW127854   1.954   0.386   3.580  1.0184  0.1838  0.0492
 5464SOL    HW227855   1.915   0.262   3.510 -0.6571 -0.5861 -0.6542
 5465SOL     OW27856   3.128   0.470   1.519  0.6171  0.0491  0.6211
 5465SOL    HW127857   3.211   0.498   1.559 -0.3056  3.5808  0.0809
 5465SOL    HW227858   3.073   0.549   1.517  1.2098  0.4524  0.1106
 5466SOL     OW27859   1.564   2.898   6.724 -0.2595 -0.1750 -0.0931
 5466SOL    HW127860   1.496   2.881   6.790  2.3096 -0.3927  2.5081
 5466SOL    HW227861   1.634   2.881   6.787  0.7198 -0.1631 -1.1922
 5467SOL     OW27862   0.375   2.867   5.308  0.5457  0.0712 -0.0618
 5467SOL    HW127863   0.407   2.781   5.279 -0.7841  0.1838 -1.8295
 5467SOL    HW227864   0.368   2.858   5.403 -0.3977  2.1985  0.0563
 5468SOL     OW27865   2.387   4.344   9.776  0.1784  0.6027  0.2849
 5468SOL    HW127866   2.476   4.320   9.803  0.7153  2.7367  0.4136
 5468SOL    HW227867   2.358   4.378   9.860  2.2926  1.1366  0.8051
 5469SOL     OW27868   3.405   2.407   5.408 -0.5058  0.4106  0.5726
 5469SOL    HW127869   3.336   2.386   5.471  0.8889  0.1782  2.0183
 5469SOL    HW227870   3.460   2.462   5.463 -0.1018 -0.1686  0.7440
 5470SOL     OW27871   0.767   4.613   8.827  1.2170 -0.2995  0.0577
 5470SOL    HW127872   0.828   4.673   8.870  2.3174 -2.5689  1.6106
 5470SOL    HW227873   0.714   4.580   8.900  2.1543  2.7299  2.1274
 5471SOL     OW27874   2.879   4.030   8.222 -0.0380 -0.3052 -0.0460
 5471SOL    HW127875   2.924   4.112   8.200  0.0634  0.5107  3.2972
 5471SOL    HW227876   2.947   3.965   8.235 -0.4089 -0.4699  1.0864
 5472SOL     OW27877   0.214   1.465   9.225 -0.2914 -0.6527 -0.8590
 5472SOL    HW127878   0.298   1.421   9.243 -0.0385 -0.6817 -2.1131
 5472SOL    HW227879   0.188   1.445   9.135  1.2782  1.2359 -1.7341
 5473SOL     OW27880   3.290   4.499  11.978 -0.6527  0.1333  1.0268
 5473SOL    HW127881   3.319   4.511  11.888 -3.2142 -1.9211 -0.0712
 5473SOL    HW227882   3.243   4.580  11.999 -1.4151 -0.2975  0.9931
 5474SOL     OW27883   3.075   4.156   5.275  0.4064  0.2016 -0.6390
 5474SOL    HW127884   3.082   4.080   5.333 -1.7900 -0.8434 -1.7423
 5474SOL    HW227885   3.086   4.114   5.189 -0.8236  1.9403 -1.6385
 5475SOL     OW27886   1.439   1.874   2.443  0.1389 -0.8718  0.2122
 5475SOL    HW127887   1.400   1.800   2.490 -0.0462 -1.6477 -1.1492
 5475SOL    HW227888   1.431   1.846   2.352 -3.3384 -2.8402  1.1405
 5476SOL     OW27889   0.635   0.842   2.908  0.8045  0.1986  0.2628
 5476SOL    HW127890   0.630   0.918   2.966 -1.0611  2.4627 -2.8589
 5476SOL    HW227891   0.626   0.770   2.969 -0.0082  1.9854  2.2529
 5477SOL     OW27892   1.491   3.918   8.447 -0.0742 -0.0387 -0.5274
 5477SOL    HW127893   1.488   4.013   8.462  1.8572  0.0091 -0.4266
 5477SOL    HW227894   1.577   3.899   8.485 -0.0983  0.9868  0.0272
 5478SOL     OW27895   2.005   4.276   5.896 -0.2378 -0.0924 -0.5225
 5478SOL    HW127896   2.090   4.252   5.861 -0.6316 -1.9056 -0.2284
 5478SOL    HW227897   1.991   4.194   5.942  1.5596  0.2554  0.6134
 5479SOL     OW27898   1.015   0.772   5.211 -0.3080 -0.0724  0.4782
 5479SOL    HW127899   1.060   0.856   5.216  2.0967 -1.2738 -1.1326
 5479SOL    HW227900   0.970   0.773   5.126  2.5336 -2.2352 -1.0358
 5480SOL     OW27901   3.841   2.261   4.260  0.0191  0.5349 -0.2119
 5480SOL    HW127902   3.885   2.336   4.220  1.5081 -0.8163 -1.0910
 5480SOL    HW227903   3.872   2.188   4.207  0.2663 -1.9731  3.3720
 5481SOL     OW27904   1.775   0.671   9.018  0.1364 -0.6069 -0.2034
 5481SOL    HW127905   1.807   0.679   8.928 -1.0655 -1.7236 -0.7364
 5481SOL    HW227906   1.839   0.725   9.064  0.5602 -1.8078  0.6287
 5482SOL     OW27907   1.500   3.939   5.605 -0.4333 -0.4134 -0.2580
 5482SOL    HW127908   1.463   3.903   5.524  0.8177 -0.4089 -0.8331
 5482SOL    HW227909   1.568   4.000   5.580 -0.0389 -0.7458  0.0050
 5483SOL     OW27910   2.226   2.570   6.399 -0.3558 -0.3236 -0.2393
 5483SOL    HW127911   2.198   2.486   6.435 -0.2935  0.2377  1.1300
 5483SOL    HW227912   2.172   2.580   6.320 -1.2187 -0.9622  0.2708
 5484SOL     OW27913   4.517   1.287   5.718  0.1511 -0.7757  0.3124
 5484SOL    HW127914   4.458   1.230   5.767 -0.3188  0.0329  0.6790
 5484SOL    HW227915   4.484   1.373   5.743  2.7967  0.0905  0.8948
 5485SOL     OW27916   1.334   0.801   1.365 -0.3300  0.1249  0.0307
 5485SOL    HW127917   1.278   0.738   1.320  1.7311  0.6008 -3.2045
 5485SOL    HW227918   1.287   0.884   1.362 -0.6261  0.0418  2.1575
 5486SOL     OW27919   0.298   3.540   8.019  0.1100  0.6807 -0.1691
 5486SOL    HW127920   0.298   3.564   8.112  0.9932  4.0676 -1.0198
 5486SOL    HW227921   0.253   3.618   7.986  1.4774  1.4200 -0.2954
 5487SOL     OW27922   2.162   3.374   9.860 -0.2689 -0.2769 -0.2592
 5487SOL    HW127923   2.213   3.455   9.853 -0.4792  0.0082  1.6175
 5487SOL    HW227924   2.238   3.316   9.862 -1.4536 -1.8533 -1.2851
 5488SOL     OW27925   0.500   4.548   5.059 -0.2980 -0.2593 -0.2882
 5488SOL    HW127926   0.413   4.508   5.063 -0.9529  1.5107  3.1757
 5488SOL    HW227927   0.508   4.583   5.148 -1.0499 -1.7840  0.3799
 5489SOL     OW27928   4.284   3.746   4.411 -0.0150 -0.2400 -0.1649
 5489SOL    HW127929   4.301   3.658   4.444 -1.1660 -0.9511 -1.4318
 5489SOL    HW227930   4.254   3.730   4.321  0.8573 -1.5444 -0.2244
 5490SOL     OW27931   1.382   3.315   7.587  0.0794  0.4278 -0.4739
 5490SOL    HW127932   1.393   3.253   7.515 -2.0694  1.1242 -1.4042
 5490SOL    HW227933   1.427   3.392   7.553  0.1812  0.2898 -0.6485
 5491SOL     OW27934   2.962   3.050  17.500 -0.3245  0.5261  0.4819
 5491SOL    HW127935   2.960   2.977  17.438 -0.6286  0.8903  0.0584
 5491SOL    HW227936   2.873   3.050  17.535 -0.1087 -0.2470  1.0124
 5492SOL     OW27937   3.360   4.132  17.666  0.0945 -0.4216 -0.1951
 5492SOL    HW127938   3.314   4.061  17.621  1.4034 -1.4465  0.0474
 5492SOL    HW227939   3.412   4.166  17.593  0.1705 -0.3714 -0.1168
 5493SOL     OW27940   1.620   4.436   4.910  0.5496  0.1896 -0.4413
 5493SOL    HW127941   1.685   4.506   4.914  1.8918 -1.1780  1.6669
 5493SOL    HW227942   1.540   4.481   4.937  1.1799  0.9654  0.1312
 5494SOL     OW27943   2.358   3.580   9.886 -0.0350 -0.2497 -0.7598
 5494SOL    HW127944   2.407   3.646   9.838  0.1024  0.8023  0.8261
 5494SOL    HW227945   2.435   3.538   9.925 -0.2943 -1.2031 -1.2548
 5495SOL     OW27946   2.327   3.790   9.543 -0.1933  0.2902  0.3858
 5495SOL    HW127947   2.291   3.767   9.629 -1.0434 -0.1822 -0.1023
 5495SOL    HW227948   2.418   3.810   9.566  0.3108  1.0294 -2.2332
 5496SOL     OW27949   4.048   2.925   3.699 -0.1474 -0.7661  0.0460
 5496SOL    HW127950   4.030   2.862   3.629 -0.5857  0.0641 -0.5920
 5496SOL    HW227951   3.996   3.002   3.679 -0.4876 -0.2807  2.8018
 5497SOL     OW27952   3.396   3.709   7.521  0.3140 -0.1204 -0.6243
 5497SOL    HW127953   3.303   3.690   7.532  0.2527  0.4562 -0.1837
 5497SOL    HW227954   3.385   3.785   7.464 -1.4063 -0.9509 -1.4116
 5498SOL     OW27955   1.454   2.338   8.846 -0.1388 -0.2107  0.0099
 5498SOL    HW127956   1.406   2.261   8.816 -0.6727  0.4504 -0.8333
 5498SOL    HW227957   1.419   2.335   8.935 -0.9222 -0.8951 -0.3192
 5499SOL     OW27958   0.909   4.048  13.175  0.0492  0.0864  0.2563
 5499SOL    HW127959   0.861   3.975  13.214  1.4133 -0.3502  1.0923
 5499SOL    HW227960   0.839   4.111  13.190  0.1871  0.8376 -2.1714
 5500SOL     OW27961   2.741   2.349  11.425  0.1270 -0.0574  0.1554
 5500SOL    HW127962   2.669   2.356  11.488  1.5721  2.0200  1.5218
 5500SOL    HW227963   2.769   2.259  11.443  0.3391  0.3430  1.8097
 5501SOL     OW27964   0.999   2.795   8.660 -0.1629  0.2247  0.6996
 5501SOL    HW127965   1.043   2.819   8.742 -0.2845  0.7858  0.6021
 5501SOL    HW227966   0.985   2.703   8.683  3.1855 -0.3106  0.6535
 5502SOL     OW27967   4.566   4.318   7.959  0.5995 -0.2839  0.7678
 5502SOL    HW127968   4.549   4.368   7.879 -2.5408 -1.3360  0.7701
 5502SOL    HW227969   4.622   4.246   7.929  3.2089  1.8113  0.6703
 5503SOL     OW27970   2.975   1.976   4.886 -0.0962  0.6569  0.0194
 5503SOL    HW127971   2.909   1.908   4.897 -1.2395  1.2283 -3.3406
 5503SOL    HW227972   2.924   2.055   4.897 -0.0373  0.7562 -0.4127
 5504SOL     OW27973   0.058   1.179   1.434 -0.1066  0.2690 -0.1853
 5504SOL    HW127974   0.117   1.106   1.451  0.9170  1.2405  0.4388
 5504SOL    HW227975   0.035   1.159   1.343 -0.9009 -1.1356  0.3233
 5505SOL     OW27976   1.883   2.840  10.337 -0.6984 -1.0876  0.2540
 5505SOL    HW127977   1.796   2.851  10.374 -0.7387  1.7511 -0.6983
 5505SOL    HW227978   1.883   2.744  10.331 -1.4138 -1.1161  0.7363
 5506SOL     OW27979   0.547   3.300   8.377 -0.4877 -0.2129 -0.5760
 5506SOL    HW127980   0.606   3.228   8.357 -2.3204 -1.9912  0.3833
 5506SOL    HW227981   0.529   3.329   8.288  1.0541 -0.7320 -1.0525
 5507SOL     OW27982   3.227   1.244   7.394 -0.2155 -0.0688 -0.5954
 5507SOL    HW127983   3.168   1.174   7.365  0.8628 -1.0606 -0.3950
 5507SOL    HW227984   3.247   1.205   7.479  2.4862 -0.7090 -1.5069
 5508SOL     OW27985   3.115   0.905  15.317 -0.2181  0.0961  0.2588
 5508SOL    HW127986   3.078   0.849  15.385  2.6955  0.9159  2.5102
 5508SOL    HW227987   3.078   0.991  15.340  0.8609 -0.0556  2.5395
 5509SOL     OW27988   3.854   3.938   2.265  0.1698 -0.3766  0.3851
 5509SOL    HW127989   3.902   3.855   2.256  1.6284  0.6955 -1.6661
 5509SOL    HW227990   3.784   3.930   2.200  0.6297  0.2775 -0.1833
 5510SOL     OW27991   4.593   2.366   4.503 -0.0336 -0.1943  0.7042
 5510SOL    HW127992   4.681   2.391   4.532  0.1574 -0.7352  0.5923
 5510SOL    HW227993   4.542   2.394   4.579  0.0265  0.3748  0.5358
 5511SOL     OW27994   2.834   1.679  13.180  0.6433 -0.8339 -0.2804
 5511SOL    HW127995   2.886   1.693  13.101  1.1172 -0.6183  0.0666
 5511SOL    HW227996   2.787   1.600  13.155  1.1923 -1.2027 -0.1614
 5512SOL     OW27997   1.671   0.953   9.372 -0.7541 -0.0041  0.3257
 5512SOL    HW127998   1.729   0.929   9.444  0.6508  1.5637 -0.2964
 5512SOL    HW227999   1.725   0.974   9.296  1.4125  1.4838  2.2770
 5513SOL     OW28000   0.303   4.196   8.296  0.0699  0.5471 -0.3999
 5513SOL    HW128001   0.297   4.254   8.220  0.2958  1.9323  0.6361
 5513SOL    HW228002   0.214   4.204   8.327  0.3077 -1.1840  0.6914
 5514SOL     OW28003   1.819   1.469  13.260  0.3638  0.7340 -0.2874
 5514SOL    HW128004   1.860   1.522  13.328  1.4879 -0.1067 -0.3053
 5514SOL    HW228005   1.842   1.521  13.183  0.3081  2.4821  0.8832
 5515SOL     OW28006   0.944   0.276   9.397 -0.8244 -0.4434  0.0268
 5515SOL    HW128007   0.968   0.333   9.470  2.1515  0.2033 -1.4599
 5515SOL    HW228008   0.970   0.334   9.325  0.8919  0.1733  1.1527
 5516SOL     OW28009   0.866   2.128  15.442  0.3671  0.1379 -0.2489
 5516SOL    HW128010   0.800   2.061  15.425  2.8172 -1.9531 -1.5363
 5516SOL    HW228011   0.946   2.077  15.429 -0.7284 -1.4474 -0.8234
 5517SOL     OW28012   1.418   1.964  15.606 -0.0411 -0.2683 -0.4676
 5517SOL    HW128013   1.498   1.918  15.633  0.6770 -0.2346 -2.5589
 5517SOL    HW228014   1.384   1.906  15.539 -1.4615 -0.4200  0.3768
 5518SOL     OW28015   1.904   1.650   9.722  0.6398  0.5498  0.5705
 5518SOL    HW128016   1.860   1.656   9.807 -2.5954  0.7126 -1.1061
 5518SOL    HW228017   1.928   1.742   9.711  0.7873  0.4072 -0.2915
 5519SOL     OW28018   4.694   1.369  11.586  0.3385  0.5966  0.0157
 5519SOL    HW128019   4.667   1.295  11.639  2.1634 -0.5932 -0.7078
 5519SOL    HW228020   4.672   1.441  11.645 -1.7386  0.4764 -0.6034
 5520SOL     OW28021   2.398   1.715   3.058  0.5982  0.1717  0.3076
 5520SOL    HW128022   2.461   1.649   3.028  0.3296  0.3321 -0.6275
 5520SOL    HW228023   2.311   1.676   3.042  0.0501  1.6307 -0.2933
 5521SOL     OW28024   1.728   2.618   7.504 -0.0663 -0.2226 -0.2767
 5521SOL    HW128025   1.772   2.533   7.510  0.1363  0.0158  1.7549
 5521SOL    HW228026   1.767   2.653   7.423  2.0244  2.0795  1.7105
 5522SOL     OW28027   2.695   3.352   0.610  0.4228  0.6765  0.5827
 5522SOL    HW128028   2.641   3.427   0.632 -0.0539  0.2330  0.9276
 5522SOL    HW228029   2.729   3.324   0.695  1.9965 -1.8567 -0.8902
 5523SOL     OW28030   4.383   0.890   9.972 -0.0142  0.1670 -0.1472
 5523SOL    HW128031   4.365   0.909   9.880 -0.2684 -1.1147 -0.3523
 5523SOL    HW228032   4.478   0.882   9.964 -0.3428 -2.1642 -1.4812
 5524SOL     OW28033   1.385   3.995   6.771  0.6905  0.0855 -0.3945
 5524SOL    HW128034   1.344   4.074   6.806  1.7619  0.4219  0.0839
 5524SOL    HW228035   1.426   3.947   6.843  0.7494  2.0574  0.8572
 5525SOL     OW28036   3.006   1.968   3.573  0.0990 -0.0184  0.1162
 5525SOL    HW128037   2.946   1.895   3.592  0.2836 -0.1077  0.3700
 5525SOL    HW228038   3.057   1.928   3.502 -0.0502 -0.3230  0.1791
 5526SOL     OW28039   0.101   3.580   5.873 -0.2959  0.5199  0.4354
 5526SOL    HW128040   0.080   3.670   5.845 -2.0355  0.1641  0.5755
 5526SOL    HW228041   0.023   3.533   5.845  0.5834 -0.6928  0.0584
 5527SOL     OW28042   0.634   2.522   2.992 -0.1724  0.0784 -0.0686
 5527SOL    HW128043   0.660   2.539   3.083  1.6575  0.4237 -0.6630
 5527SOL    HW228044   0.633   2.427   3.000 -1.8144  0.0235 -0.9697
 5528SOL     OW28045   0.105   0.428   2.450 -0.1627 -0.0391  0.6006
 5528SOL    HW128046   0.092   0.340   2.415  1.8745 -0.2997  0.5133
 5528SOL    HW228047   0.174   0.411   2.514 -0.0844 -0.2439  0.4633
 5529SOL     OW28048   1.089   3.032   1.695 -1.1468  0.0387 -0.3533
 5529SOL    HW128049   1.024   3.084   1.647 -0.0651  0.0652 -1.7722
 5529SOL    HW228050   1.096   2.957   1.636 -1.8673  0.3662 -0.8540
 5530SOL     OW28051   1.556   1.483   5.003  0.0127  0.5127  0.2576
 5530SOL    HW128052   1.605   1.565   5.003  1.3744 -0.3096  0.3171
 5530SOL    HW228053   1.509   1.485   5.086 -2.2259  0.5777 -1.0069
 5531SOL     OW28054   2.795   0.409   8.812  0.0706 -0.2606  0.0423
 5531SOL    HW128055   2.874   0.434   8.765  0.2809  0.5913  0.8504
 5531SOL    HW228056   2.826   0.335   8.864  0.8282 -0.7611 -1.1181
 5532SOL     OW28057   2.526   0.731   4.245 -0.1381  0.1124 -0.0286
 5532SOL    HW128058   2.461   0.750   4.176 -1.7923 -0.8254  1.2696
 5532SOL    HW228059   2.523   0.636   4.244 -0.4901  0.1332 -1.0228
 5533SOL     OW28060   0.646   0.424   0.934 -0.8839 -0.3069  0.5222
 5533SOL    HW128061   0.708   0.365   0.977  0.0185  2.0638  2.4573
 5533SOL    HW228062   0.660   0.500   0.991 -1.7261  0.3893 -0.1904
 5534SOL     OW28063   0.528   2.924   8.392 -0.3510 -0.3501 -0.2478
 5534SOL    HW128064   0.439   2.928   8.427  0.3496  2.3328  1.1969
 5534SOL    HW228065   0.582   2.936   8.470 -2.8039 -0.7804  1.5202
 5535SOL     OW28066   2.103   2.881   5.692  0.2747 -0.0874  0.4466
 5535SOL    HW128067   2.158   2.953   5.723 -0.5806  0.0733  1.6015
 5535SOL    HW228068   2.020   2.928   5.686  0.1671 -0.3605 -0.1971
 5536SOL     OW28069   3.825   3.518   4.671  0.3687  0.1192 -0.4729
 5536SOL    HW128070   3.789   3.454   4.608 -0.1015  1.7521 -1.8511
 5536SOL    HW228071   3.892   3.565   4.623  0.5291  0.5172  0.1514
 5537SOL     OW28072   1.227   1.536   6.566 -0.6428 -0.3163  0.7190
 5537SOL    HW128073   1.240   1.577   6.651 -3.6642 -4.4434  3.1545
 5537SOL    HW228074   1.248   1.445   6.589 -4.0585 -1.8656 -2.2178
 5538SOL     OW28075   4.622   4.133   7.196 -0.5388 -0.2529 -0.1050
 5538SOL    HW128076   4.657   4.197   7.258  0.0541 -1.1054  0.4401
 5538SOL    HW228077   4.559   4.182   7.143 -1.8795  1.4594  3.0852
 5539SOL     OW28078   4.210   2.348   6.668 -0.2273  0.3026  0.3165
 5539SOL    HW128079   4.225   2.374   6.577 -1.8530 -1.4878 -0.4487
 5539SOL    HW228080   4.277   2.279   6.672 -0.7697 -0.3532 -2.0630
 5540SOL     OW28081   1.646   4.064   2.296  0.1286  0.5564 -0.0242
 5540SOL    HW128082   1.632   4.155   2.269 -0.6668  0.2271 -0.7220
 5540SOL    HW228083   1.591   4.057   2.374 -0.6915  1.7666 -0.4943
 5541SOL     OW28084   0.690   2.340   7.153 -0.0106 -0.1740  0.5171
 5541SOL    HW128085   0.761   2.392   7.190 -0.4051  1.1811 -0.6506
 5541SOL    HW228086   0.724   2.344   7.063 -1.9273 -0.9165 -0.2273
 5542SOL     OW28087   1.389   1.327  12.887 -0.3842  0.3476 -0.7117
 5542SOL    HW128088   1.423   1.406  12.928  1.5337 -1.5680  1.4540
 5542SOL    HW228089   1.466   1.274  12.863 -0.4792 -0.3496  0.5450
 5543SOL     OW28090   2.869   0.987   4.501 -0.2858  0.1523  0.1133
 5543SOL    HW128091   2.842   1.054   4.563 -0.4409 -0.4579  0.7086
 5543SOL    HW228092   2.783   0.948   4.485 -0.8304  0.9555  1.0214
 5544SOL     OW28093   0.707   2.207   1.886  0.3224 -0.3460  0.4976
 5544SOL    HW128094   0.783   2.261   1.906 -1.2142  1.2332  1.9960
 5544SOL    HW228095   0.727   2.198   1.793 -2.8982 -0.0474 -0.2219
 5545SOL     OW28096   1.144   3.270  14.207  0.0912  0.5101 -0.0167
 5545SOL    HW128097   1.197   3.210  14.155  1.1346  0.5042  1.0823
 5545SOL    HW228098   1.105   3.209  14.269  1.0011 -1.5277 -1.4514
 5546SOL     OW28099   3.279   0.411  15.627  0.4757  0.8857 -0.7127
 5546SOL    HW128100   3.318   0.455  15.552 -0.4766  0.4747 -1.4400
 5546SOL    HW228101   3.291   0.477  15.696  1.2964 -1.3605  1.3230
 5547SOL     OW28102   2.401   0.784   6.958  0.6375  0.1755  0.6495
 5547SOL    HW128103   2.488   0.785   6.917 -1.1436  2.0854 -3.0999
 5547SOL    HW228104   2.425   0.744   7.042  2.7301  1.6037  0.7183
 5548SOL     OW28105   3.403   0.382   4.806 -0.3149 -0.4851  0.0245
 5548SOL    HW128106   3.356   0.303   4.783  0.6008 -0.6125 -1.3931
 5548SOL    HW228107   3.459   0.349   4.876  1.7235  0.3158 -1.2134
 5549SOL     OW28108   0.335   0.737   9.135 -0.1101 -0.1741  0.4316
 5549SOL    HW128109   0.289   0.677   9.194 -0.1263 -0.0681  0.5291
 5549SOL    HW228110   0.333   0.698   9.048  2.0830  1.0915 -0.1757
 5550SOL     OW28111   0.857   0.421   6.496  0.2275 -0.0138  0.3077
 5550SOL    HW128112   0.906   0.409   6.577  2.4121  2.1328 -0.6955
 5550SOL    HW228113   0.885   0.347   6.442 -1.4297 -0.4268  0.0041
 5551SOL     OW28114   2.293   1.875   2.563  0.1785  0.4322 -0.2385
 5551SOL    HW128115   2.225   1.892   2.498 -0.2673 -2.3183 -0.4976
 5551SOL    HW228116   2.248   1.922   2.633 -0.1218  0.0553 -0.1741
 5552SOL     OW28117   0.687   3.424   4.544  0.0416 -0.2611  0.2589
 5552SOL    HW128118   0.779   3.419   4.572  0.4077  0.9112 -0.7636
 5552SOL    HW228119   0.703   3.482   4.469  1.0316 -0.5547  0.2391
 5553SOL     OW28120   4.415   2.725   5.208 -0.0963 -0.0792 -0.2937
 5553SOL    HW128121   4.507   2.737   5.230  0.1537 -1.0337 -0.7936
 5553SOL    HW228122   4.400   2.796   5.146 -0.6918  0.3744  0.3736
 5554SOL     OW28123   1.871   2.461   2.361 -0.1557  0.0350  0.0728
 5554SOL    HW128124   1.906   2.457   2.272 -1.0953 -0.9720 -0.2489
 5554SOL    HW228125   1.788   2.414   2.352 -0.0021 -0.6313  2.1685
 5555SOL     OW28126   0.525   1.301  13.156  0.6315  0.3107 -0.3243
 5555SOL    HW128127   0.436   1.313  13.121  0.4090 -1.9418 -0.4956
 5555SOL    HW228128   0.550   1.389  13.186  1.6716 -0.0159 -0.2399
 5556SOL     OW28129   1.784   4.553   2.286 -0.5988 -0.0496  0.3580
 5556SOL    HW128130   1.771   4.638   2.244 -1.0138 -0.9769 -1.3787
 5556SOL    HW228131   1.868   4.526   2.249 -0.0998  1.1053  0.6623
 5557SOL     OW28132   3.730   0.957   9.005 -0.0986 -0.0256 -0.5236
 5557SOL    HW128133   3.750   1.018   8.934  0.0082  1.7702  1.0485
 5557SOL    HW228134   3.655   0.989   9.055  1.1304  1.1175  0.5832
 5558SOL     OW28135   2.344   1.288   3.383 -0.1677  0.0937  0.4323
 5558SOL    HW128136   2.427   1.250   3.413 -0.4633 -0.1695  0.9020
 5558SOL    HW228137   2.358   1.374   3.424 -2.1377  0.3705  0.5226
 5559SOL     OW28138   1.276   3.884  15.024  0.0082 -0.1582  0.5139
 5559SOL    HW128139   1.331   3.824  15.074  2.1905  1.4817  0.0731
 5559SOL    HW228140   1.201   3.830  14.998 -1.0698  0.6844  1.8937
 5560SOL     OW28141   0.439   2.960   6.451  0.2321  0.1364  0.7815
 5560SOL    HW128142   0.487   2.995   6.376 -0.2870  2.4125  1.5087
 5560SOL    HW228143   0.496   2.891   6.483 -0.5354 -0.2323  1.3707
 5561SOL     OW28144   1.590   3.654   3.106  0.0325  0.5795  0.3133
 5561SOL    HW128145   1.628   3.711   3.039 -0.2915  4.1726  3.2033
 5561SOL    HW228146   1.579   3.569   3.064  2.3155  1.6567 -2.4801
 5562SOL     OW28147   0.023   0.088  15.357 -0.6335 -0.4376 -0.5033
 5562SOL    HW128148   0.110   0.086  15.395 -0.6553 -1.0576 -0.4886
 5562SOL    HW228149   4.708   0.155  15.414  1.2764  0.2269  0.0332
 5563SOL     OW28150   1.331   0.788   2.494 -0.0806 -0.5690  0.2359
 5563SOL    HW128151   1.387   0.728   2.446  0.3842  0.5460 -0.6081
 5563SOL    HW228152   1.343   0.861   2.434 -0.8965 -0.1878  0.5348
 5564SOL     OW28153   3.032   2.352  16.194 -0.2486  0.0920  0.4850
 5564SOL    HW128154   3.015   2.381  16.104  0.0990 -1.4468 -0.0759
 5564SOL    HW228155   3.013   2.435  16.238 -0.0161  2.2725 -3.4806
 5565SOL     OW28156   3.704   1.611  12.655 -0.4652 -0.6316  0.5973
 5565SOL    HW128157   3.629   1.550  12.655  0.3815 -1.6805  2.6939
 5565SOL    HW228158   3.736   1.612  12.565  1.8820  0.4625  1.4660
 5566SOL     OW28159   1.495   3.794   0.977 -0.1264  0.1778 -0.7740
 5566SOL    HW128160   1.422   3.832   0.927  0.5956  1.9077 -0.5329
 5566SOL    HW228161   1.564   3.820   0.917  0.6681 -1.9508 -0.7731
 5567SOL     OW28162   2.336   2.737   5.991  0.2914  0.2068  0.5272
 5567SOL    HW128163   2.393   2.793   6.044  0.3883 -0.7408  1.4384
 5567SOL    HW228164   2.257   2.741   6.045  1.9525  0.5635  2.9048
 5568SOL     OW28165   3.914   4.424  17.109 -0.3068 -0.7415 -0.3206
 5568SOL    HW128166   3.822   4.419  17.132  0.0222 -0.5168  1.0480
 5568SOL    HW228167   3.904   4.456  17.020  0.3243 -1.2897 -0.5911
 5569SOL     OW28168   2.091   4.066   7.102  0.1674  0.3003  0.5018
 5569SOL    HW128169   2.092   3.971   7.088 -1.6560  0.2313  0.7747
 5569SOL    HW228170   1.997   4.078   7.112  0.4129  1.9383  0.8387
 5570SOL     OW28171   3.724   4.447  11.294 -0.5357 -0.5302  0.2664
 5570SOL    HW128172   3.759   4.532  11.268  0.5752 -0.6270  1.4802
 5570SOL    HW228173   3.658   4.467  11.360 -0.2774 -1.6904  0.8651
 5571SOL     OW28174   4.569   1.970   8.593 -0.2267  0.2290 -0.0201
 5571SOL    HW128175   4.522   1.978   8.510  0.6890  3.5877 -0.2399
 5571SOL    HW228176   4.495   1.926   8.636 -0.8142  0.1392 -1.1332
 5572SOL     OW28177   2.904   4.148   7.899  0.5527  0.0271 -0.1767
 5572SOL    HW128178   2.812   4.171   7.910  0.0928 -1.5222 -0.7658
 5572SOL    HW228179   2.959   4.191   7.964 -0.2782 -0.0381  0.5681
 5573SOL     OW28180   2.722   0.863   9.495  0.8503 -0.1969 -0.3514
 5573SOL    HW128181   2.809   0.847   9.458  1.6345 -0.5427  1.6326
 5573SOL    HW228182   2.709   0.785   9.548  0.4990  0.6375  0.7951
 5574SOL     OW28183   2.593   4.638   5.407  0.7278  0.2653 -0.1779
 5574SOL    HW128184   2.675   4.612   5.448 -1.1972 -4.2011  0.8742
 5574SOL    HW228185   2.537   4.581   5.460  0.1586 -0.5481 -1.6399
 5575SOL     OW28186   0.510   4.444  17.421  0.0504  0.3419  0.6847
 5575SOL    HW128187   0.577   4.503  17.387  1.9601 -1.7623  0.8523
 5575SOL    HW228188   0.568   4.392  17.476 -0.1683  0.5683  1.1338
 5576SOL     OW28189   3.465   1.473  12.578  0.2562  0.5716  0.4741
 5576SOL    HW128190   3.399   1.404  12.584  0.7256 -0.0771 -1.5755
 5576SOL    HW228191   3.455   1.493  12.484  2.7395 -2.1650 -0.3692
 5577SOL     OW28192   4.043   3.452   5.733  0.2378  0.6846  0.5769
 5577SOL    HW128193   4.001   3.439   5.818  1.9457 -0.8776  1.1720
 5577SOL    HW228194   4.092   3.370   5.724 -3.1937 -1.1398 -1.7178
 5578SOL     OW28195   3.183   0.157   7.708 -0.0681 -0.3080 -0.2688
 5578SOL    HW128196   3.265   0.115   7.732 -0.1019 -0.7557 -0.9517
 5578SOL    HW228197   3.188   0.156   7.613  2.9214 -3.6585 -0.0469
 5579SOL     OW28198   4.232   1.886   7.271  0.2593 -0.5698 -0.5684
 5579SOL    HW128199   4.311   1.937   7.255 -0.1188 -0.2180 -1.3357
 5579SOL    HW228200   4.265   1.828   7.339  0.9091  0.8074  0.2811
 5580SOL     OW28201   1.693   4.003   7.997  0.2912  0.3269 -0.1335
 5580SOL    HW128202   1.785   3.987   7.974  0.2954 -0.1861  0.2566
 5580SOL    HW228203   1.652   3.917   8.004  0.7345 -0.0707 -2.4015
 5581SOL     OW28204   1.294   4.313   6.384 -0.2335  0.6524 -0.6322
 5581SOL    HW128205   1.268   4.310   6.292 -3.1330 -1.9228  0.2652
 5581SOL    HW228206   1.227   4.375   6.410 -1.2206 -0.2070 -1.0878
 5582SOL     OW28207   3.101   1.102   1.593 -0.3092 -0.2758  0.1010
 5582SOL    HW128208   3.071   1.119   1.683 -0.7310 -0.6318  0.0317
 5582SOL    HW228209   3.018   1.067   1.560  0.0558  0.4349 -1.5627
 5583SOL     OW28210   1.057   1.748   8.397  0.2920  0.5363  0.1603
 5583SOL    HW128211   0.999   1.706   8.460  0.6354  1.3449  1.0157
 5583SOL    HW228212   1.008   1.827   8.371 -1.1179 -1.4148 -3.0981
 5584SOL     OW28213   3.542   1.244   2.121  0.2500  0.1854  0.1318
 5584SOL    HW128214   3.614   1.208   2.173 -1.3754 -0.9100  1.6467
 5584SOL    HW228215   3.518   1.167   2.071  3.8192 -1.3547  0.7943
 5585SOL     OW28216   1.097   0.031   3.100  0.6476  0.0739 -0.2802
 5585SOL    HW128217   1.029   0.082   3.056 -1.2677 -1.5421  0.8003
 5585SOL    HW228218   1.065   4.719   3.182  0.9393  1.3440  0.4079
 5586SOL     OW28219   0.907   4.015  11.685 -0.0860 -0.0335 -0.0792
 5586SOL    HW128220   0.992   4.004  11.642 -0.7782  1.0907 -1.7319
 5586SOL    HW228221   0.851   4.041  11.612 -1.1595  2.3634  1.6072
 5587SOL     OW28222   3.262   1.703   7.535  0.6389 -0.0424  0.2085
 5587SOL    HW128223   3.281   1.639   7.603 -1.4037 -1.3280 -0.4294
 5587SOL    HW228224   3.238   1.647   7.461 -1.7728 -0.7040  1.4745
 5588SOL     OW28225   1.756   0.537   4.452  0.4126 -0.0124 -0.2618
 5588SOL    HW128226   1.774   0.477   4.379  1.8721 -1.3040  1.1441
 5588SOL    HW228227   1.712   0.480   4.515 -1.1317  0.3958 -0.9723
 5589SOL     OW28228   4.619   2.897   6.347  0.5848 -0.9413  0.1061
 5589SOL    HW128229   4.679   2.824   6.357  0.7953 -0.6122  1.2219
 5589SOL    HW228230   4.667   2.970   6.385 -1.0941  0.2597 -0.0732
 5590SOL     OW28231   0.491   4.567   5.325  0.0783 -0.7256  0.1735
 5590SOL    HW128232   0.396   4.556   5.315 -0.4647  2.0817  2.3938
 5590SOL    HW228233   0.494   4.593   5.417  2.3977 -0.4387  0.0285
 5591SOL     OW28234   4.051   4.577  15.069  0.2740 -0.6946  0.2223
 5591SOL    HW128235   4.142   4.557  15.093 -0.4626 -2.3531  1.6987
 5591SOL    HW228236   4.034   4.502  15.011  0.5849 -2.2033  2.0643
 5592SOL     OW28237   2.225   1.522   2.956  0.3442 -0.3207  0.0736
 5592SOL    HW128238   2.276   1.455   3.001  0.1077 -0.5811 -0.0476
 5592SOL    HW228239   2.211   1.473   2.875 -0.6483  0.6300 -0.3307
 5593SOL     OW28240   0.620   0.084   8.643  0.2266 -0.5046 -0.8776
 5593SOL    HW128241   0.676   0.009   8.663  0.8489 -0.1299 -1.2288
 5593SOL    HW228242   0.672   0.151   8.688  1.3762 -0.6123 -2.0466
 5594SOL     OW28243   4.654   1.861   4.630  0.1213  0.9052 -0.4860
 5594SOL    HW128244   0.008   1.912   4.613 -0.5933  1.7038 -1.4076
 5594SOL    HW228245   4.601   1.878   4.552  1.3919  0.9395 -1.3303
 5595SOL     OW28246   2.862   2.477   6.137 -0.3853  0.6317  0.2451
 5595SOL    HW128247   2.852   2.388   6.170 -0.4751  0.7600  0.5556
 5595SOL    HW228248   2.786   2.488   6.080 -0.1972  1.5594  0.1751
 5596SOL     OW28249   1.973   0.037   1.387  0.5012 -0.0240  0.0394
 5596SOL    HW128250   1.979   0.129   1.362  0.9389  0.0674  0.4862
 5596SOL    HW228251   1.891   0.014   1.342  0.4869  1.0080 -0.4484
 5597SOL     OW28252   2.282   0.162   6.691 -0.6563 -0.0351  0.2793
 5597SOL    HW128253   2.194   0.199   6.686 -1.1126 -1.6876 -4.3324
 5597SOL    HW228254   2.290   0.094   6.624 -1.4108  3.1961 -3.0680
 5598SOL     OW28255   4.370   2.246   5.587 -0.1711 -0.2494  0.1706
 5598SOL    HW128256   4.331   2.324   5.549  0.6181 -0.7039 -1.5342
 5598SOL    HW228257   4.439   2.290   5.637  1.0523 -1.3553 -0.5370
 5599SOL     OW28258   4.505   2.177   4.038 -0.2132 -0.0070  0.6016
 5599SOL    HW128259   4.465   2.243   4.095 -1.0097 -1.6992  1.9854
 5599SOL    HW228260   4.596   2.175   4.067  0.3828 -1.7221 -1.3566
 5600SOL     OW28261   1.880   0.700   3.817  0.4378 -0.0502 -0.7213
 5600SOL    HW128262   1.791   0.721   3.787  1.5608  3.2279 -1.8099
 5600SOL    HW228263   1.852   0.664   3.901  0.7051 -0.0625 -0.6404
 5601SOL     OW28264   0.227   1.501   3.710 -0.1751  0.2767 -0.1223
 5601SOL    HW128265   0.286   1.572   3.736 -0.0647  0.3192 -0.4839
 5601SOL    HW228266   0.245   1.496   3.616 -1.1795 -0.3111 -0.2863
 5602SOL     OW28267   3.603   1.959   4.259 -0.2338 -0.4998  0.2875
 5602SOL    HW128268   3.583   1.988   4.170  3.0310 -2.0861 -0.9524
 5602SOL    HW228269   3.529   1.907   4.290 -1.2255  0.7006 -0.0953
 5603SOL     OW28270   3.820   0.026   6.564  0.5834 -0.0328 -0.1893
 5603SOL    HW128271   3.800   4.710   6.479  0.2352 -0.2562 -0.0014
 5603SOL    HW228272   3.883   0.088   6.526  0.9434 -0.1236  0.2622
 5604SOL     OW28273   3.956   4.467   5.737 -0.1263  0.1170 -0.3652
 5604SOL    HW128274   3.872   4.510   5.718 -0.0452  1.7879  3.1237
 5604SOL    HW228275   3.931   4.434   5.823  0.5602 -2.1452 -1.0390
 5605SOL     OW28276   3.842   1.714   2.113 -0.4095 -0.1347  0.3698
 5605SOL    HW128277   3.759   1.712   2.064  0.2062 -2.7783 -0.5207
 5605SOL    HW228278   3.823   1.659   2.189  1.8237 -0.1264  0.9368
 5606SOL     OW28279   0.087   3.312   4.286  0.6614 -0.3547 -0.4319
 5606SOL    HW128280   0.063   3.242   4.347 -0.7584 -0.4279 -1.0840
 5606SOL    HW228281   0.090   3.268   4.201  0.2954 -0.4709 -0.3852
 5607SOL     OW28282   3.852   4.608  16.273 -0.6562 -0.1506  0.9111
 5607SOL    HW128283   3.824   4.669  16.204 -0.7692  1.5120  2.4086
 5607SOL    HW228284   3.861   4.525  16.227  0.1403  0.7815 -0.6259
 5608SOL     OW28285   4.472   1.553  17.193 -0.1136  0.8186 -0.1652
 5608SOL    HW128286   4.423   1.625  17.234  0.8759 -0.1138  2.7013
 5608SOL    HW228287   4.561   1.586  17.181  0.1401  0.2511  0.1791
 5609SOL     OW28288   0.408   3.672   6.493 -0.4553 -0.1161 -0.5134
 5609SOL    HW128289   0.323   3.629   6.490 -0.3316 -0.3668 -0.3901
 5609SOL    HW228290   0.420   3.692   6.400 -3.0223  1.4303 -0.5190
 5610SOL     OW28291   2.998   4.144   5.664  0.4162  0.0282  0.7874
 5610SOL    HW128292   3.022   4.202   5.591  1.8969  1.6921  2.5895
 5610SOL    HW228293   2.992   4.203   5.739  0.0295  2.7282 -1.3266
 5611SOL     OW28294   0.941   2.842   7.353  0.0987  0.3466  0.1391
 5611SOL    HW128295   0.911   2.788   7.426 -0.5329  1.1916  0.5001
 5611SOL    HW228296   1.012   2.789   7.316  1.0856  0.6300  1.5928
 5612SOL     OW28297   0.096   2.171   5.905  0.0743  0.1472 -0.2959
 5612SOL    HW128298   0.179   2.129   5.929 -0.9713 -1.6248  0.2178
 5612SOL    HW228299   0.025   2.116   5.939 -0.1411 -0.4837 -1.7359
 5613SOL     OW28300   2.190   2.674   8.715  0.3635  0.0437 -0.2553
 5613SOL    HW128301   2.143   2.730   8.653  0.0353 -0.6505 -0.6417
 5613SOL    HW228302   2.137   2.696   8.792  1.5829 -0.6564  0.7931
 5614SOL     OW28303   1.825   2.552   9.798  0.2936 -0.2465  0.4507
 5614SOL    HW128304   1.905   2.604   9.788  0.2436 -0.0903  0.8533
 5614SOL    HW228305   1.863   2.466   9.819 -3.7974 -1.4162  3.0086
 5615SOL     OW28306   1.733   0.633   1.375 -0.0300 -0.4318 -0.0227
 5615SOL    HW128307   1.803   0.699   1.378 -1.4241  1.0162  0.3839
 5615SOL    HW228308   1.659   0.686   1.347  1.3020  0.9591 -0.9333
 5616SOL     OW28309   2.839   0.659  14.804  0.1938 -0.3412 -0.3413
 5616SOL    HW128310   2.823   0.747  14.769  0.9990 -0.3829 -0.8137
 5616SOL    HW228311   2.926   0.641  14.769 -0.1468  1.1953 -1.9628
 5617SOL     OW28312   3.017   3.761   1.414 -0.6848 -0.1617  0.5465
 5617SOL    HW128313   3.083   3.697   1.441 -1.2807 -1.3793 -0.8927
 5617SOL    HW228314   2.931   3.720   1.427 -0.0452 -2.1786 -1.6319
 5618SOL     OW28315   2.239   4.697  11.266  0.0236 -0.1697  0.1519
 5618SOL    HW128316   2.296   0.040  11.230 -0.7666  0.6432  0.4150
 5618SOL    HW228317   2.287   4.632  11.317  2.0427 -0.2451 -1.8429
 5619SOL     OW28318   0.691   4.014   5.253 -0.5781 -0.2677 -0.1178
 5619SOL    HW128319   0.609   4.020   5.301 -0.3490  1.9245 -0.0035
 5619SOL    HW228320   0.663   4.055   5.171 -1.6895  2.0001  1.4223
 5620SOL     OW28321   0.677   3.186   7.341  0.3429  0.3098  0.4974
 5620SOL    HW128322   0.638   3.155   7.260 -0.3392 -0.4763  1.1344
 5620SOL    HW228323   0.768   3.158   7.333  0.4970 -0.3170  4.2897
 5621SOL     OW28324   0.177   4.297   5.482  0.1933  0.1864  0.4440
 5621SOL    HW128325   0.088   4.271   5.504  0.3618  0.2008  1.1400
 5621SOL    HW228326   0.226   4.223   5.517 -2.4392 -1.5079  0.5706
 5622SOL     OW28327   0.356   3.097   5.527  0.4595  0.4930 -0.1015
 5622SOL    HW128328   0.433   3.152   5.517  0.5754  0.2230 -0.7199
 5622SOL    HW228329   0.284   3.156   5.507 -1.6575 -2.3454 -0.8831
 5623SOL     OW28330   3.979   3.018   5.259  0.1819 -0.2010 -0.3349
 5623SOL    HW128331   3.970   3.112   5.244 -1.6506 -0.4535 -0.8476
 5623SOL    HW228332   4.036   2.996   5.185 -1.8623 -2.0316 -1.3790
 5624SOL     OW28333   3.569   4.038  14.461 -0.4712 -0.6875  0.4656
 5624SOL    HW128334   3.546   4.021  14.370 -0.1685 -0.1486  0.2891
 5624SOL    HW228335   3.578   4.132  14.449  2.4695 -0.9946  0.3105
 5625SOL     OW28336   0.741   4.023   2.269 -0.3984  0.0932  0.7671
 5625SOL    HW128337   0.776   3.934   2.264  2.5436  1.0702  3.2868
 5625SOL    HW228338   0.657   3.998   2.231  0.0741  0.9684 -0.8524
 5626SOL     OW28339   4.502   0.730   4.931  0.1239  0.0429 -0.5120
 5626SOL    HW128340   4.490   0.825   4.931  0.7712  0.1050  1.7502
 5626SOL    HW228341   4.553   0.736   4.850  2.1653 -0.0742  0.7557
 5627SOL     OW28342   1.387   0.317   1.368  0.4493  0.0268 -0.4231
 5627SOL    HW128343   1.294   0.305   1.387  0.2997  0.6442 -0.7633
 5627SOL    HW228344   1.424   0.347   1.451  1.2769 -0.7132 -0.5160
 5628SOL     OW28345   4.363   0.523   7.810  0.5284  0.5168 -0.0602
 5628SOL    HW128346   4.424   0.469   7.760 -1.6890 -1.8582 -0.2044
 5628SOL    HW228347   4.421   0.597   7.825 -1.5306  2.4290 -1.4071
 5629SOL     OW28348   0.510   0.416   6.020  0.4340  0.6192 -0.0689
 5629SOL    HW128349   0.602   0.441   6.012  0.4296 -0.1939 -2.9633
 5629SOL    HW228350   0.471   0.484   6.075 -2.2405 -1.9408  1.2413
 5630SOL     OW28351   3.264   1.773   9.728  0.0389 -0.2614  0.8314
 5630SOL    HW128352   3.342   1.790   9.675  0.1311 -2.1808  0.3208
 5630SOL    HW228353   3.209   1.851   9.719  0.4255 -0.4964 -4.0661
 5631SOL     OW28354   0.930   0.677   3.417  0.2712  0.6636  0.3209
 5631SOL    HW128355   0.940   0.584   3.436 -0.6631  0.3362 -0.7399
 5631SOL    HW228356   0.964   0.676   3.327  2.5127  1.1104  1.1770
 5632SOL     OW28357   3.751   2.232   3.199 -0.5049 -0.0398 -0.0596
 5632SOL    HW128358   3.748   2.328   3.193 -1.2115 -0.0384  0.3157
 5632SOL    HW228359   3.805   2.211   3.123 -2.0011  1.0165 -1.4213
 5633SOL     OW28360   4.226   2.964   5.085 -0.4649 -0.1749  0.3612
 5633SOL    HW128361   4.247   3.009   5.003 -0.8129  1.9184  1.4507
 5633SOL    HW228362   4.299   2.987   5.142 -0.1035 -1.1825  0.3112
 5634SOL     OW28363   3.502   1.267   7.350  0.3850 -0.1999 -0.1643
 5634SOL    HW128364   3.542   1.181   7.352  1.8378  0.4370 -1.7051
 5634SOL    HW228365   3.410   1.254   7.373  0.7486  1.2462  2.1217
 5635SOL     OW28366   4.292   3.636   7.720  0.8960  0.1337 -0.5619
 5635SOL    HW128367   4.236   3.563   7.693 -3.3928  2.4589  1.8725
 5635SOL    HW228368   4.228   3.684   7.773  0.7786 -1.3414  0.6428
 5636SOL     OW28369   2.930   3.179   3.419  0.3585  0.3546  0.3599
 5636SOL    HW128370   2.994   3.126   3.372 -0.5189  0.6584 -1.1811
 5636SOL    HW228371   2.910   3.128   3.498  1.5794 -1.2617 -0.3821
 5637SOL     OW28372   1.891   4.245   0.794 -0.0395 -0.5067  0.2359
 5637SOL    HW128373   1.969   4.252   0.849  1.2095  0.1001 -1.6234
 5637SOL    HW228374   1.911   4.179   0.728  1.2779  0.8565 -0.7089
 5638SOL     OW28375   2.505   3.739   0.827 -0.0290 -0.5109 -0.2187
 5638SOL    HW128376   2.459   3.782   0.899  0.0186 -1.9590  0.6743
 5638SOL    HW228377   2.588   3.787   0.828 -1.1521  1.3638  1.6638
 5639SOL     OW28378   2.034   4.153  10.220 -0.1579  0.6525  0.0306
 5639SOL    HW128379   2.098   4.224  10.222 -1.4131  1.7110  2.3790
 5639SOL    HW228380   1.961   4.185  10.167  0.7499 -0.4152 -1.9074
 5640SOL     OW28381   0.138   4.661   3.328  0.1602 -0.1105  0.1039
 5640SOL    HW128382   0.189   0.017   3.321  0.1388 -0.0676  0.4094
 5640SOL    HW228383   0.050   4.699   3.323 -0.3092 -0.7314  3.2206
 5641SOL     OW28384   0.810   0.198   8.306 -0.6413 -0.0065 -0.6972
 5641SOL    HW128385   0.725   0.176   8.343 -0.6247  0.7694 -0.1770
 5641SOL    HW228386   0.838   0.258   8.376 -0.8721  0.0912 -0.6897
 5642SOL     OW28387   2.143   0.261   7.151  0.5638 -0.7105 -0.3030
 5642SOL    HW128388   2.107   0.225   7.070  0.6995 -0.4080 -0.5006
 5642SOL    HW228389   2.076   0.249   7.218 -0.3212 -0.4619 -1.1369
 5643SOL     OW28390   2.452   0.390   2.187  0.0565  0.4010  0.7787
 5643SOL    HW128391   2.420   0.340   2.112 -0.9095 -0.4099  1.7331
 5643SOL    HW228392   2.487   0.320   2.241  0.4617 -0.5214 -0.6819
 5644SOL     OW28393   1.684   0.000   8.889 -0.4467 -0.1491  0.3030
 5644SOL    HW128394   1.738   0.024   8.965 -0.1166  0.5901 -0.1690
 5644SOL    HW228395   1.630   0.078   8.878 -1.9227 -1.2225  0.0376
 5645SOL     OW28396   0.680   3.425  13.155 -0.5615 -0.4211  0.1150
 5645SOL    HW128397   0.666   3.466  13.241 -0.5172 -0.3711  0.0980
 5645SOL    HW228398   0.768   3.453  13.131  0.6817 -1.0748  3.8615
 5646SOL     OW28399   1.183   2.079  12.023  0.2603 -0.7703  0.1937
 5646SOL    HW128400   1.141   2.103  12.105  1.8566  3.1015 -0.1104
 5646SOL    HW228401   1.143   2.000  11.987  3.8841 -2.9606  1.0210
 5647SOL     OW28402   1.569   1.229  10.084  0.2098 -0.2464  0.4262
 5647SOL    HW128403   1.601   1.139  10.085  2.5460  0.5777  0.7175
 5647SOL    HW228404   1.612   1.268  10.160  1.1049  1.7530 -1.1068
 5648SOL     OW28405   4.199   4.444   4.831 -0.1118 -0.5490 -0.0154
 5648SOL    HW128406   4.274   4.392   4.804  0.1876  0.5766 -1.3364
 5648SOL    HW228407   4.241   4.499   4.897 -0.2996  0.8638 -1.0926
 5649SOL     OW28408   2.181   0.964   7.482  0.0766  0.3542  0.1802
 5649SOL    HW128409   2.111   0.920   7.434  1.3030 -0.8702 -0.4697
 5649SOL    HW228410   2.258   0.917   7.451  0.0006  1.1603 -1.2786
 5650SOL     OW28411   4.460   2.263   2.673 -0.4353  0.0487  0.1778
 5650SOL    HW128412   4.552   2.285   2.691 -0.3745 -1.8517  2.0996
 5650SOL    HW228413   4.459   2.170   2.696  1.1416  0.1277  0.5756
 5651SOL     OW28414   0.097   0.665   5.621  0.1418  0.5482 -0.0490
 5651SOL    HW128415   0.173   0.723   5.625  1.2992 -0.9078 -0.6267
 5651SOL    HW228416   0.056   0.697   5.541  2.4487 -1.9303 -2.2430
 5652SOL     OW28417   4.443   1.673   2.107  0.3513 -0.1407  0.5022
 5652SOL    HW128418   4.380   1.741   2.085  0.5243 -0.2156 -0.2162
 5652SOL    HW228419   4.505   1.688   2.035  0.0629  0.5931  0.4057
 5653SOL     OW28420   3.964   2.391   3.094  0.1862  0.4755  0.1210
 5653SOL    HW128421   3.988   2.441   3.016  0.5825 -0.4712 -0.3693
 5653SOL    HW228422   3.877   2.427   3.111 -0.3574 -0.1569 -1.3740
 5654SOL     OW28423   4.305   4.689   5.916 -0.6677  0.3131 -0.0014
 5654SOL    HW128424   4.253   4.694   5.836  0.8487 -0.8527 -1.0536
 5654SOL    HW228425   4.392   4.663   5.887 -1.3077  0.1700 -1.7549
 5655SOL     OW28426   0.759   0.283  12.952 -0.1054  0.4209  0.0539
 5655SOL    HW128427   0.716   0.220  12.894 -0.5969  0.6693  0.1519
 5655SOL    HW228428   0.852   0.278  12.928 -0.4273  1.0961 -1.2574
 5656SOL     OW28429   4.473   3.880  12.266  0.7603 -0.9430  0.0520
 5656SOL    HW128430   4.402   3.891  12.329  1.6230  0.6852  0.7312
 5656SOL    HW228431   4.478   3.785  12.264 -1.6980 -1.0815  0.9782
 5657SOL     OW28432   4.368   2.104   5.873 -0.3401  0.1657 -0.2128
 5657SOL    HW128433   4.463   2.114   5.870 -0.4739  1.7557  0.7527
 5657SOL    HW228434   4.351   2.109   5.779 -1.1523  3.1679  0.0956
 5658SOL     OW28435   1.107   1.536  16.368 -0.0109  0.2167 -0.1365
 5658SOL    HW128436   1.044   1.538  16.297 -1.0499 -0.0748  0.7766
 5658SOL    HW228437   1.077   1.460  16.418 -2.8557  1.5854  0.2341
 5659SOL     OW28438   2.568   3.790   9.010 -0.0032  0.4540  0.0518
 5659SOL    HW128439   2.652   3.756   9.042  0.5735  1.3366 -0.5013
 5659SOL    HW228440   2.531   3.706   8.983 -0.0572  0.0048  1.5443
 5660SOL     OW28441   4.250   4.393  14.889  0.3061 -0.4266  0.0382
 5660SOL    HW128442   4.260   4.463  14.825 -1.4441  1.3280  1.6973
 5660SOL    HW228443   4.267   4.436  14.972  0.5253  0.7775 -0.6348
 5661SOL     OW28444   1.522   1.148   4.778 -0.1034 -0.1230  0.4121
 5661SOL    HW128445   1.570   1.193   4.848 -0.5929  0.1473  0.5793
 5661SOL    HW228446   1.522   1.216   4.711 -0.0212 -2.1921 -1.6651
 5662SOL     OW28447   3.265   3.268  12.345  0.2377  0.2734  0.0478
 5662SOL    HW128448   3.271   3.360  12.371 -1.5582  0.7832 -1.3376
 5662SOL    HW228449   3.220   3.228  12.419 -0.9338 -0.3780 -1.0224
 5663SOL     OW28450   4.503   4.103   0.570 -0.4301 -0.1409 -0.2427
 5663SOL    HW128451   4.441   4.132   0.503  0.6712 -2.1408 -2.1495
 5663SOL    HW228452   4.557   4.182   0.571  2.2849 -1.9651 -1.3185
 5664SOL     OW28453   0.054   4.418   6.348 -0.3610  0.0845  0.4000
 5664SOL    HW128454   0.005   4.337   6.359  0.9697 -0.8079 -0.3817
 5664SOL    HW228455   0.066   4.441   6.441 -0.1633  1.9870 -0.0815
 5665SOL     OW28456   0.116   0.452   6.657  0.5364 -0.7846 -0.4362
 5665SOL    HW128457   0.195   0.433   6.708  0.1342  0.2671  0.5868
 5665SOL    HW228458   0.060   0.493   6.723  0.3196 -3.0355  0.7933
 5666SOL     OW28459   1.549   3.440   2.666  0.6792  0.4962 -0.5981
 5666SOL    HW128460   1.488   3.367   2.656  2.7815 -1.0995 -1.5854
 5666SOL    HW228461   1.570   3.455   2.574 -0.7664 -0.8852 -1.1447
 5667SOL     OW28462   0.938   1.168   4.645 -0.0744 -0.4152  0.0191
 5667SOL    HW128463   0.948   1.116   4.565  0.2397  0.0267 -0.2297
 5667SOL    HW228464   1.003   1.138   4.708 -1.8254 -0.6565  1.6739
 5668SOL     OW28465   4.061   0.869   9.041  0.4801 -0.0429  0.0709
 5668SOL    HW128466   3.994   0.855   8.974  0.8648  2.2180 -0.7770
 5668SOL    HW228467   4.120   0.808   8.996 -0.1053  0.3096 -1.1652
 5669SOL     OW28468   0.839   0.322  13.843 -0.0519  0.0160 -0.3627
 5669SOL    HW128469   0.746   0.317  13.822 -0.1365  2.2326 -0.4806
 5669SOL    HW228470   0.844   0.326  13.939  2.2877 -0.2080 -0.4798
 5670SOL     OW28471   0.504   2.284  16.410  0.6087  0.0786  0.2405
 5670SOL    HW128472   0.417   2.245  16.406 -0.0992  1.6562  0.6056
 5670SOL    HW228473   0.555   2.206  16.435  0.5640 -0.5896 -1.7629
 5671SOL     OW28474   3.226   3.918  16.644  0.4202  0.1818 -0.0750
 5671SOL    HW128475   3.267   3.843  16.601  0.9627  2.2391 -3.1331
 5671SOL    HW228476   3.300   3.970  16.673  0.8687  0.3225 -1.4865
 5672SOL     OW28477   0.760   1.017   2.738  0.2932  0.6475  0.5818
 5672SOL    HW128478   0.682   1.060   2.702  0.3710  0.9540  0.7856
 5672SOL    HW228479   0.712   0.958   2.796  2.6877 -1.3667  0.5311
 5673SOL     OW28480   0.714   1.855  17.429  0.4073 -0.1501 -0.6142
 5673SOL    HW128481   0.708   1.825  17.338  1.1547  0.4044 -0.8464
 5673SOL    HW228482   0.718   1.950  17.418  0.5437 -0.0770  0.0372
 5674SOL     OW28483   4.304   0.679   6.522  0.3218 -0.3033  0.2810
 5674SOL    HW128484   4.382   0.697   6.469  1.4725 -0.0527  2.0811
 5674SOL    HW228485   4.242   0.654   6.453 -1.1544 -0.3057  1.6302
 5675SOL     OW28486   3.802   4.348   5.409  0.7056  0.7496  0.6601
 5675SOL    HW128487   3.834   4.437   5.421 -1.7263  1.5536  1.3041
 5675SOL    HW228488   3.748   4.346   5.330  1.1410  0.9980  0.3635
 5676SOL     OW28489   3.879   0.129   6.291 -0.3568 -0.5003  0.0626
 5676SOL    HW128490   3.839   0.086   6.216  1.3274 -5.1980  1.8815
 5676SOL    HW228491   3.964   0.085   6.298  1.0713  2.5256  1.8977
 5677SOL     OW28492   4.389   2.439   2.928 -0.7407  0.0695 -0.4987
 5677SOL    HW128493   4.406   2.407   3.016  0.4502 -2.6051 -1.6855
 5677SOL    HW228494   4.404   2.359   2.878  0.5890  1.3744 -2.2131
 5678SOL     OW28495   4.032   1.959  13.210  0.1004 -0.2357 -0.3655
 5678SOL    HW128496   4.098   1.987  13.146  0.2600 -0.7627 -0.4295
 5678SOL    HW228497   4.005   2.048  13.232  0.3655 -0.3687  0.4800
 5679SOL     OW28498   3.634   2.654  15.291 -0.2039  0.6248  0.3652
 5679SOL    HW128499   3.693   2.724  15.320  0.4603  0.0176  0.4870
 5679SOL    HW228500   3.650   2.660  15.197 -1.3348  1.9579  0.2588
 5680SOL     OW28501   2.905   2.743   4.936 -0.0829  0.2527  0.0969
 5680SOL    HW128502   2.922   2.792   4.856 -0.0102 -0.7457 -0.4919
 5680SOL    HW228503   2.837   2.683   4.904  0.8140 -0.1964 -0.9678
 5681SOL     OW28504   1.309   0.428   1.920  0.3172 -0.4641  0.2324
 5681SOL    HW128505   1.342   0.339   1.933 -0.2682 -0.9919 -1.8919
 5681SOL    HW228506   1.245   0.440   1.991 -1.1217 -0.0801 -1.1324
 5682SOL     OW28507   0.386   3.324   8.650  0.9143 -0.4652 -0.0644
 5682SOL    HW128508   0.432   3.317   8.567  0.0855  2.7898 -0.7960
 5682SOL    HW228509   0.318   3.256   8.647  0.5142 -0.0904  0.4168
 5683SOL     OW28510   3.495   0.412   4.381 -0.5559  0.0349  0.0761
 5683SOL    HW128511   3.490   0.332   4.329  0.8410  0.0502 -0.0694
 5683SOL    HW228512   3.587   0.436   4.387 -1.6606  4.0821  0.4314
 5684SOL     OW28513   0.742   3.816   7.119 -0.2311  0.3233 -0.0886
 5684SOL    HW128514   0.763   3.905   7.090  1.9071 -0.7307 -1.7188
 5684SOL    HW228515   0.648   3.806   7.103 -0.5634 -1.5354  3.0476
 5685SOL     OW28516   1.818   1.335  12.316  0.1387 -0.1788 -0.5373
 5685SOL    HW128517   1.852   1.249  12.291  1.7579 -0.1828  1.7229
 5685SOL    HW228518   1.735   1.306  12.354  0.9731 -1.0917  0.5647
 5686SOL     OW28519   4.646   0.115   9.353 -0.1997  0.3808  0.0285
 5686SOL    HW128520   4.615   0.033   9.314 -0.9938  0.5630  0.2719
 5686SOL    HW228521   4.614   0.114   9.443 -0.8734 -1.5797 -0.2451
 5687SOL     OW28522   2.623   1.299   4.923 -0.4367  0.1688  0.3787
 5687SOL    HW128523   2.583   1.353   4.856 -0.6178 -0.5360 -0.0881
 5687SOL    HW228524   2.712   1.328   4.905  0.3993 -1.7473  1.3604
 5688SOL     OW28525   3.041   1.528   1.697  0.2517  0.1886  0.0375
 5688SOL    HW128526   2.955   1.553   1.664  0.8214 -0.1577 -1.7341
 5688SOL    HW228527   3.078   1.494   1.616  0.4752  0.9417 -0.1735
 5689SOL     OW28528   1.550   0.678  16.072  0.3758  0.3322 -0.7591
 5689SOL    HW128529   1.611   0.747  16.045 -2.2948  2.6190 -0.8585
 5689SOL    HW228530   1.584   0.642  16.154 -2.2364 -0.4228 -0.0391
 5690SOL     OW28531   3.810   3.865   6.840  0.5002  0.5295  0.0518
 5690SOL    HW128532   3.770   3.884   6.925 -2.2476 -1.5246 -0.7849
 5690SOL    HW228533   3.739   3.877   6.778 -0.6304  3.3995  1.9092
 5691SOL     OW28534   4.598   4.275   6.121 -0.0521 -0.2252  0.4692
 5691SOL    HW128535   4.558   4.191   6.099 -0.8890  0.2354  0.1938
 5691SOL    HW228536   4.579   4.298   6.212 -1.4329  0.2801  0.0657
 5692SOL     OW28537   1.316   1.301  10.090  0.3022  0.4735  0.2162
 5692SOL    HW128538   1.406   1.270  10.086  0.3226  0.4406  1.0251
 5692SOL    HW228539   1.290   1.292   9.998 -0.4253  1.1565  0.3576
 5693SOL     OW28540   3.075   2.861   5.891  0.0314 -0.3147  0.0332
 5693SOL    HW128541   3.055   2.780   5.938  1.8770  0.2131  1.7065
 5693SOL    HW228542   2.993   2.899   5.858  0.8260  2.2893  1.0559
 5694SOL     OW28543   3.654   4.547   6.094  0.7932  0.1144 -0.0798
 5694SOL    HW128544   3.694   4.627   6.060 -0.1276  0.0514 -1.3056
 5694SOL    HW228545   3.673   4.565   6.186 -0.0451 -0.9747  0.3008
 5695SOL     OW28546   4.654   3.835   8.335  0.0774  0.4819 -0.1790
 5695SOL    HW128547   4.616   3.752   8.363  1.4446 -0.2042 -0.3850
 5695SOL    HW228548   4.632   3.889   8.411  1.4263  0.9703 -0.1269
 5696SOL     OW28549   3.632   0.865  16.396 -0.0703  0.7018 -0.5326
 5696SOL    HW128550   3.558   0.807  16.381 -0.5462  0.8349  1.2768
 5696SOL    HW228551   3.693   0.814  16.449 -0.7909  1.6279  1.1788
 5697SOL     OW28552   1.390   3.312   4.444 -0.9364  0.6406 -0.1135
 5697SOL    HW128553   1.310   3.268   4.473 -0.1050 -1.9002 -1.6794
 5697SOL    HW228554   1.425   3.244   4.386  0.6525  0.7980  0.6580
 5698SOL     OW28555   2.693   1.605   7.284 -0.1444  0.1339 -0.0420
 5698SOL    HW128556   2.646   1.530   7.245  1.7963 -0.8771 -0.4116
 5698SOL    HW228557   2.650   1.663   7.220 -0.6366  0.6525  0.7536
 5699SOL     OW28558   4.504   1.571   9.328 -0.4452 -0.1293  0.4680
 5699SOL    HW128559   4.431   1.624   9.361  0.8735  1.9951 -0.0320
 5699SOL    HW228560   4.539   1.532   9.408  1.6501 -1.0268 -0.9110
 5700SOL     OW28561   1.737   3.445   4.052  0.0292  0.0005  0.7914
 5700SOL    HW128562   1.668   3.379   4.057  0.4645 -0.7780 -3.4312
 5700SOL    HW228563   1.805   3.407   3.997 -1.6268 -0.8368 -0.6816
 5701SOL     OW28564   0.724   0.765   2.213 -0.2034  0.0822 -0.2906
 5701SOL    HW128565   0.801   0.767   2.157 -0.0570  0.9918 -0.0608
 5701SOL    HW228566   0.744   0.682   2.256  0.9560  0.8804  0.7150
 5702SOL     OW28567   3.168   1.766   8.738 -0.2443  0.2212 -0.6475
 5702SOL    HW128568   3.169   1.855   8.703  1.9970  0.2894 -0.4248
 5702SOL    HW228569   3.237   1.783   8.803 -1.1420 -1.2150  0.6886
 5703SOL     OW28570   4.302   1.871   9.774 -0.3392  0.6962  0.3708
 5703SOL    HW128571   4.372   1.933   9.753  0.1642  0.3097  0.8740
 5703SOL    HW228572   4.238   1.900   9.709 -2.7567  1.2247  2.9945
 5704SOL     OW28573   2.813   1.865   9.365  0.0918  0.4463 -0.2228
 5704SOL    HW128574   2.810   1.946   9.416 -0.6163  0.2302  0.0936
 5704SOL    HW228575   2.899   1.825   9.370  0.1142  0.8746  3.0820
 5705SOL     OW28576   2.585   3.151   9.306 -0.4354  0.6188  0.3386
 5705SOL    HW128577   2.497   3.121   9.327  0.8908 -2.7384  0.9968
 5705SOL    HW228578   2.582   3.123   9.215 -0.7970  2.0846 -0.1141
 5706SOL     OW28579   0.546   1.618   1.211  0.1113  0.3606  0.2182
 5706SOL    HW128580   0.602   1.694   1.194  0.5837  0.0752  0.5191
 5706SOL    HW228581   0.601   1.575   1.276 -0.3986 -1.3576 -0.4885
 5707SOL     OW28582   1.269   0.564  17.267  0.1493 -0.1963  0.1488
 5707SOL    HW128583   1.350   0.520  17.240 -0.3976  0.1469 -2.0143
 5707SOL    HW228584   1.251   0.530  17.355 -0.6630  0.7945  0.3553
 5708SOL     OW28585   2.450   2.311   2.754  0.0869 -0.1184  0.4960
 5708SOL    HW128586   2.432   2.387   2.698  0.6485  0.8940  1.6722
 5708SOL    HW228587   2.531   2.339   2.796  0.2229 -0.1810  0.2728
 5709SOL     OW28588   4.347   2.020   7.728  0.0818 -0.5252 -0.4245
 5709SOL    HW128589   4.378   1.998   7.640 -1.1423  0.2154 -1.0440
 5709SOL    HW228590   4.415   1.974   7.778 -2.1939 -0.7761  2.4053
 5710SOL     OW28591   0.057   0.813   4.848 -0.0672  0.1694  0.3358
 5710SOL    HW128592   0.114   0.877   4.889 -0.5584  1.1798 -0.5722
 5710SOL    HW228593   0.010   0.869   4.786 -1.3089 -0.4426  0.7160
 5711SOL     OW28594   4.086   2.061   5.642  0.0118  0.0759 -0.1748
 5711SOL    HW128595   4.128   2.121   5.580  0.3180 -0.9830 -0.9770
 5711SOL    HW228596   4.059   2.133   5.700  0.6751 -0.0314  0.2708
 5712SOL     OW28597   0.052   3.933   6.464  0.3248  0.4348 -0.1017
 5712SOL    HW128598   0.128   3.957   6.517 -0.8670  0.5686  1.5184
 5712SOL    HW228599   0.009   3.870   6.522 -0.3277 -0.0100 -1.0569
 5713SOL     OW28600   4.570   0.963   5.680  0.1426  0.0159 -0.6317
 5713SOL    HW128601   4.479   0.980   5.655  0.6499  2.3165 -0.9505
 5713SOL    HW228602   4.588   0.880   5.638  0.2370  0.0446 -0.6473
 5714SOL     OW28603   4.360   2.040   3.831  0.0638 -0.1297  0.1299
 5714SOL    HW128604   4.282   2.095   3.826  0.3702  0.2326 -0.5701
 5714SOL    HW228605   4.415   2.082   3.897 -2.1688  0.8438  1.3874
 5715SOL     OW28606   0.510   0.079  10.137  0.0651 -0.1068  0.1169
 5715SOL    HW128607   0.573   0.143  10.103  0.4920  0.2956  1.6617
 5715SOL    HW228608   0.429   0.123  10.110  0.0228 -0.0926  0.2685
 5716SOL     OW28609   4.108   3.721   4.875 -0.2298 -0.2439 -0.3544
 5716SOL    HW128610   4.040   3.656   4.894 -0.2014 -0.2343 -0.2205
 5716SOL    HW228611   4.173   3.669   4.829  0.7887  1.8260 -1.2495
 5717SOL     OW28612   2.450   3.155   6.819 -0.2177 -0.3183  0.1650
 5717SOL    HW128613   2.424   3.224   6.757  0.6722  1.2874  1.5784
 5717SOL    HW228614   2.514   3.110   6.765  0.6202  0.5250  0.4512
 5718SOL     OW28615   3.352   2.910   3.719 -0.5672 -0.5028  0.1019
 5718SOL    HW128616   3.264   2.935   3.747  1.0521  1.2490  3.6675
 5718SOL    HW228617   3.402   2.992   3.718 -0.7622 -0.4381 -2.2486
 5719SOL     OW28618   1.724   0.179  14.246  0.0435  0.5379  0.0043
 5719SOL    HW128619   1.721   0.213  14.157  2.7617  1.9940  0.4507
 5719SOL    HW228620   1.762   0.092  14.238  0.0174  0.5788 -0.5081
 5720SOL     OW28621   3.066   1.235   6.063  0.2339 -0.0259 -0.0322
 5720SOL    HW128622   3.084   1.249   6.156 -3.4250 -0.1611  0.6871
 5720SOL    HW228623   3.084   1.141   6.059 -0.6576 -0.1559 -0.8182
 5721SOL     OW28624   0.906   1.278   0.435 -0.1817  0.0251 -1.1345
 5721SOL    HW128625   0.939   1.189   0.450  2.8272  1.2688 -0.2953
 5721SOL    HW228626   0.854   1.279   0.515  0.7382  2.0583 -0.5659
 5722SOL     OW28627   3.682   3.239   5.522 -0.6267 -0.1257  0.2346
 5722SOL    HW128628   3.757   3.198   5.566 -0.3760 -0.4788 -0.5300
 5722SOL    HW228629   3.607   3.193   5.560  0.3640 -0.8671  1.2927
 5723SOL     OW28630   2.717   3.366   3.651 -0.4352 -0.4821  0.3983
 5723SOL    HW128631   2.660   3.306   3.700 -0.8216  0.8655  1.6133
 5723SOL    HW228632   2.677   3.451   3.672 -0.9852 -0.6563  0.0536
 5724SOL     OW28633   1.803   1.350   3.369 -0.1872 -0.1748 -0.1726
 5724SOL    HW128634   1.797   1.427   3.425 -1.8537  0.0119 -0.6187
 5724SOL    HW228635   1.894   1.324   3.386  0.7411  3.7647  0.9301
 5725SOL     OW28636   2.692   3.483   7.920  0.5033  0.7384 -0.4213
 5725SOL    HW128637   2.597   3.487   7.933  0.0609 -1.2775 -2.9858
 5725SOL    HW228638   2.722   3.511   8.006 -2.9876  0.8465  0.7912
 5726SOL     OW28639   2.843   1.882   5.580  0.5373 -0.6733  0.1403
 5726SOL    HW128640   2.923   1.904   5.532  0.6891 -0.4823  0.4822
 5726SOL    HW228641   2.800   1.965   5.560 -0.2220 -1.0969  0.0174
 5727SOL     OW28642   2.024   1.257   8.488  0.2042 -0.2140 -0.0565
 5727SOL    HW128643   2.083   1.186   8.515 -0.7436 -0.6193  0.9485
 5727SOL    HW228644   2.030   1.245   8.394  3.7994 -1.0996  0.2777
 5728SOL     OW28645   2.619   2.212  12.969 -0.1128  0.0127  0.4693
 5728SOL    HW128646   2.566   2.280  13.010  0.2875  0.5642  0.0772
 5728SOL    HW228647   2.622   2.156  13.046  0.8076 -1.4355 -0.6234
 5729SOL     OW28648   2.090   2.554   7.325  0.1524 -0.1592 -0.8357
 5729SOL    HW128649   2.024   2.484   7.321  0.2668 -0.3392  0.4766
 5729SOL    HW228650   2.041   2.630   7.294 -1.0688 -0.5849  0.0500
 5730SOL     OW28651   1.239   3.499  16.606  0.7552  0.1642 -0.4763
 5730SOL    HW128652   1.283   3.520  16.524  3.0512  0.6597  0.8544
 5730SOL    HW228653   1.174   3.568  16.615 -1.5505 -2.2656  1.3338
 5731SOL     OW28654   3.888   1.265   4.403 -0.2288  0.5473  0.4763
 5731SOL    HW128655   3.793   1.276   4.396 -0.0489  2.0271  0.5391
 5731SOL    HW228656   3.904   1.287   4.494  0.1979 -0.6197  0.6875
 5732SOL     OW28657   0.434   0.616  14.145 -0.0231 -0.2889 -0.4155
 5732SOL    HW128658   0.380   0.574  14.077 -0.3071 -2.7279  1.3243
 5732SOL    HW228659   0.503   0.553  14.166  1.7987  1.6953 -0.4613
 5733SOL     OW28660   4.462   2.620   3.435 -0.1336  0.5920 -0.0826
 5733SOL    HW128661   4.438   2.588   3.348 -0.1589 -0.6391  0.3886
 5733SOL    HW228662   4.374   2.638   3.468 -0.2729  3.6085 -2.0887
 5734SOL     OW28663   4.297   1.794   5.160  0.4978 -0.0357  0.1885
 5734SOL    HW128664   4.368   1.736   5.188  2.1897  1.0205 -1.8492
 5734SOL    HW228665   4.286   1.758   5.072  0.0943 -0.9442  0.6130
 5735SOL     OW28666   1.238   1.581   6.940  0.3666  0.2205  0.0151
 5735SOL    HW128667   1.214   1.490   6.959 -0.6165  0.3547 -0.5456
 5735SOL    HW228668   1.147   1.612   6.934  0.9357  1.7358 -0.7604
 5736SOL     OW28669   2.278   1.875   0.765 -0.5575  0.4735  0.1125
 5736SOL    HW128670   2.302   1.863   0.857  1.2438 -1.1114 -0.5655
 5736SOL    HW228671   2.265   1.970   0.766  2.3146  0.8466  1.2342
 5737SOL     OW28672   0.805   2.395   5.316 -0.7809  0.6963 -0.2110
 5737SOL    HW128673   0.807   2.344   5.397  0.7764 -0.9136 -1.2570
 5737SOL    HW228674   0.821   2.478   5.361 -1.9084 -0.1879  1.8111
 5738SOL     OW28675   3.355   0.168  15.502  0.4999 -0.0032  0.5608
 5738SOL    HW128676   3.409   0.184  15.425  0.6556 -0.3434  0.5985
 5738SOL    HW228677   3.346   0.253  15.546  0.6371  0.8112 -0.9881
 5739SOL     OW28678   3.823   0.321   0.999 -0.0827  0.2104 -0.0512
 5739SOL    HW128679   3.799   0.413   1.010  2.7324  1.0892 -1.4700
 5739SOL    HW228680   3.908   0.348   0.965 -0.4932  1.0041 -0.4649
 5740SOL     OW28681   3.355   4.683   4.020 -0.0559  0.0938  0.4982
 5740SOL    HW128682   3.427   0.021   4.018 -0.1556  0.1792 -0.4787
 5740SOL    HW228683   3.375   4.632   3.941 -0.4791  1.5606 -0.5606
 5741SOL     OW28684   4.252   3.491   4.792  0.1107  0.4434  0.2667
 5741SOL    HW128685   4.342   3.464   4.772  0.5279  0.5081  2.0526
 5741SOL    HW228686   4.198   3.417   4.765  0.9286  0.6135 -1.8145
 5742SOL     OW28687   2.739   2.548   2.115  0.6928 -0.5319  0.8464
 5742SOL    HW128688   2.813   2.540   2.175  1.0737 -1.4348  0.2506
 5742SOL    HW228689   2.779   2.604   2.049 -2.5282  1.0408  0.2490
 5743SOL     OW28690   0.164   0.120   5.703  0.1830 -0.5330 -0.2125
 5743SOL    HW128691   0.082   0.169   5.697  1.6531  2.0209  0.3405
 5743SOL    HW228692   0.215   0.175   5.763  1.6159 -0.3665 -1.5790
 5744SOL     OW28693   1.674   4.092   1.577 -0.2600 -0.2067  0.2098
 5744SOL    HW128694   1.632   4.116   1.659 -0.8876 -1.3201  0.2246
 5744SOL    HW228695   1.634   4.006   1.559  1.9478 -0.8292 -1.8048
 5745SOL     OW28696   2.259   0.982   4.581  0.4829  0.1431 -0.0841
 5745SOL    HW128697   2.303   1.010   4.501 -1.1507 -0.0273 -1.0553
 5745SOL    HW228698   2.291   1.050   4.640 -0.7763  0.4864  0.2119
 5746SOL     OW28699   4.012   3.872   7.203  0.2091 -0.0627 -0.1485
 5746SOL    HW128700   3.965   3.890   7.284  0.1895 -1.3292  0.1241
 5746SOL    HW228701   4.100   3.849   7.232  0.2473 -0.3273 -0.4724
 5747SOL     OW28702   2.620   0.913   4.422  0.0253  0.2060  0.6347
 5747SOL    HW128703   2.644   0.977   4.355 -0.8229 -1.0351 -0.8476
 5747SOL    HW228704   2.564   0.852   4.374 -0.2247  2.1447 -1.5173
 5748SOL     OW28705   0.466   1.788   0.932  0.1356 -0.1423 -0.6203
 5748SOL    HW128706   0.405   1.728   0.973  1.5197 -2.7401 -2.3787
 5748SOL    HW228707   0.480   1.849   1.004  0.0667  0.0591 -0.7772
 5749SOL     OW28708   2.398   0.045   5.944 -0.0690  0.4010 -0.1606
 5749SOL    HW128709   2.393   0.141   5.935 -0.5118  0.6745  2.8018
 5749SOL    HW228710   2.325   0.041   6.006  0.5374  0.4457  0.5559
 5750SOL     OW28711   0.867   3.130  14.770 -0.1685 -0.5952 -0.1750
 5750SOL    HW128712   0.772   3.142  14.767 -0.1153  0.0621  0.6608
 5750SOL    HW228713   0.893   3.216  14.735 -1.4899  0.7228  2.0726
 5751SOL     OW28714   4.089   2.499   7.656  0.1952 -0.4470  0.2238
 5751SOL    HW128715   4.118   2.429   7.714  0.5074  0.2695  0.9286
 5751SOL    HW228716   4.177   2.536   7.642 -0.8881  1.0053 -2.8876
 5752SOL     OW28717   0.183   2.767  13.435  0.2631 -0.1805  0.1904
 5752SOL    HW128718   0.202   2.715  13.514 -1.1761 -0.7695  0.1599
 5752SOL    HW228719   0.269   2.775  13.394 -0.0288 -0.3773 -0.4685
 5753SOL     OW28720   3.116   4.184   3.524  0.5003  0.1084 -0.1394
 5753SOL    HW128721   3.142   4.190   3.432 -2.4035 -2.5278 -1.1404
 5753SOL    HW228722   3.030   4.141   3.526 -0.4922  2.1087  0.4755
 5754SOL     OW28723   4.529   3.050   5.420 -0.1193 -0.3624 -0.9231
 5754SOL    HW128724   4.483   3.121   5.464  3.9966  1.3172  0.5931
 5754SOL    HW228725   4.575   3.017   5.496  1.4889  0.3961 -1.5732
 5755SOL     OW28726   2.813   0.549   5.301  0.0905 -0.1527  0.3990
 5755SOL    HW128727   2.803   0.542   5.396 -0.7165  0.1382  0.3345
 5755SOL    HW228728   2.724   0.537   5.267  0.0588  0.0097  0.4267
 5756SOL     OW28729   3.879   3.153   7.139 -0.4494 -0.3168  0.7351
 5756SOL    HW128730   3.795   3.164   7.096 -0.7692 -1.9524  0.9411
 5756SOL    HW228731   3.935   3.210   7.086  0.5912 -0.4077  1.7329
 5757SOL     OW28732   2.555   0.353  13.065 -0.2514  0.6443  0.2510
 5757SOL    HW128733   2.645   0.385  13.062  0.0994 -0.4491 -1.1340
 5757SOL    HW228734   2.523   0.358  12.975 -0.4508  0.5061  0.3140
 5758SOL     OW28735   3.224   3.102   6.428  0.4953 -0.2791 -0.4432
 5758SOL    HW128736   3.164   3.100   6.502 -1.6737  1.7538 -2.1726
 5758SOL    HW228737   3.306   3.064   6.462  0.9566  0.4734 -0.7018
 5759SOL     OW28738   2.999   4.724   0.073  0.8707 -0.1672 -0.2295
 5759SOL    HW128739   2.926   4.665   0.090  0.9007  0.0037  0.4747
 5759SOL    HW228740   3.055   4.680   0.010 -0.8690  0.0516 -1.9444
 5760SOL     OW28741   4.246   3.214   4.463  0.0467 -0.8029  0.0623
 5760SOL    HW128742   4.212   3.192   4.376 -2.4423  0.5008  0.7055
 5760SOL    HW228743   4.290   3.135   4.494 -1.7983 -0.7362  2.8181
 5761SOL     OW28744   4.611   2.214   2.244 -0.2658 -0.2698  0.9779
 5761SOL    HW128745   4.611   2.254   2.157 -1.7710 -2.4780 -0.0548
 5761SOL    HW228746   4.558   2.270   2.300  0.6998  0.0544  1.5689
 5762SOL     OW28747   2.299   4.229   4.035  0.2923 -0.1936  0.2924
 5762SOL    HW128748   2.302   4.319   4.068 -1.3040 -0.2806  0.7145
 5762SOL    HW228749   2.368   4.184   4.084  0.8664  0.0859 -0.2647
 5763SOL     OW28750   2.977   0.161  13.278  0.4263  0.1247  0.5036
 5763SOL    HW128751   2.963   0.184  13.370 -1.4521  3.9172 -0.7349
 5763SOL    HW228752   3.053   0.104  13.290  0.3768 -0.1550 -0.4974
 5764SOL     OW28753   1.507   3.697  11.400 -0.0411 -0.6386 -0.2276
 5764SOL    HW128754   1.600   3.718  11.413 -0.6676  1.1678  1.3336
 5764SOL    HW228755   1.488   3.738  11.316 -0.5591 -0.2512  0.0790
 5765SOL     OW28756   1.697   0.485   9.330 -0.4393 -0.0092  0.1616
 5765SOL    HW128757   1.736   0.442   9.406  1.2393  1.5366  0.1900
 5765SOL    HW228758   1.760   0.558   9.335  0.0844 -0.6369  3.1572
 5766SOL     OW28759   3.836   1.011   3.338 -0.6055 -0.0458 -0.8269
 5766SOL    HW128760   3.840   1.107   3.347  0.3080 -0.1351 -0.3040
 5766SOL    HW228761   3.884   1.002   3.256  0.9866 -0.3639  0.1312
 5767SOL     OW28762   2.075   0.973   6.397 -0.1384  0.2363  0.1687
 5767SOL    HW128763   2.022   0.923   6.459 -0.5369  1.4484  0.8093
 5767SOL    HW228764   2.125   1.029   6.456  0.2443  0.2736 -0.1926
 5768SOL     OW28765   4.095   3.269  15.844 -0.2946  0.1399  0.0949
 5768SOL    HW128766   4.063   3.179  15.844 -0.6767  0.2719 -1.1360
 5768SOL    HW228767   4.161   3.270  15.913 -0.7808  0.0739  0.5573
 5769SOL     OW28768   2.593   3.706   3.007  0.4793  0.1765 -0.3799
 5769SOL    HW128769   2.524   3.748   3.058  1.7787 -1.0819  2.4272
 5769SOL    HW228770   2.589   3.619   3.047  0.4478  0.5929  0.5148
 5770SOL     OW28771   3.033   3.303  11.981 -0.0477 -0.0524 -0.1962
 5770SOL    HW128772   3.065   3.255  12.058 -0.9795  1.5427  1.1661
 5770SOL    HW228773   2.939   3.303  11.994  0.4293  2.3220  3.2829
 5771SOL     OW28774   0.837   0.229  14.103 -0.7839  0.0511 -0.0972
 5771SOL    HW128775   0.778   0.277  14.162  0.4599  1.5646 -0.0832
 5771SOL    HW228776   0.814   0.143  14.136 -0.8128 -0.1878 -0.7412
 5772SOL     OW28777   2.030   0.371  14.109 -0.5548  0.2654  0.6708
 5772SOL    HW128778   1.963   0.407  14.168  0.8949  0.7809  2.0280
 5772SOL    HW228779   2.022   0.434  14.038  1.4618 -1.8994 -1.4377
 5773SOL     OW28780   1.117   1.344   7.036  0.1213  0.5838 -0.4209
 5773SOL    HW128781   1.183   1.284   7.072 -0.6199  1.1049  1.7692
 5773SOL    HW228782   1.069   1.364   7.116 -1.1834  1.2623 -1.3725
 5774SOL     OW28783   3.868   2.984   8.369  0.4531 -0.1207 -0.0225
 5774SOL    HW128784   3.839   2.929   8.296  1.6883  1.2169 -1.4842
 5774SOL    HW228785   3.923   2.924   8.419 -1.3280 -2.4160 -0.8111
 5775SOL     OW28786   2.204   3.596   0.966 -0.3668  0.2448  0.8737
 5775SOL    HW128787   2.232   3.685   0.983 -1.7912  0.8633  0.0152
 5775SOL    HW228788   2.279   3.560   0.918 -3.0090 -1.2158 -2.1487
 5776SOL     OW28789   4.641   4.163   5.491 -0.0664  0.5493 -0.4293
 5776SOL    HW128790   4.599   4.148   5.406  1.1727  0.4707 -1.0296
 5776SOL    HW228791   4.558   4.184   5.534 -0.9168 -0.6153 -1.4623
 5777SOL     OW28792   2.438   4.306  12.689 -0.5050 -0.3852 -0.4214
 5777SOL    HW128793   2.474   4.330  12.775 -0.6251 -0.6900 -0.2847
 5777SOL    HW228794   2.494   4.351  12.625 -0.1738 -1.6138 -0.9965
 5778SOL     OW28795   1.791   3.838  14.185 -0.4694  0.6931 -0.4871
 5778SOL    HW128796   1.837   3.906  14.234 -1.7500  1.3895 -0.2553
 5778SOL    HW228797   1.755   3.795  14.264  0.8023  2.3363  0.9742
 5779SOL     OW28798   2.809   2.732   4.224  0.4113 -0.1098  0.6508
 5779SOL    HW128799   2.826   2.650   4.272 -2.1451 -2.2238 -2.1340
 5779SOL    HW228800   2.721   2.713   4.194  1.6845 -0.3281 -2.9483
 5780SOL     OW28801   1.754   1.056  16.972 -0.0802 -0.1958  0.5976
 5780SOL    HW128802   1.697   1.063  17.049 -1.1624  1.8697 -0.3772
 5780SOL    HW228803   1.811   1.129  16.994  0.0507  0.2393 -1.1516
 5781SOL     OW28804   4.297   0.363  17.487 -0.2214  0.0832 -0.4933
 5781SOL    HW128805   4.249   0.399  17.562  1.5365 -1.6147  1.4278
 5781SOL    HW228806   4.383   0.395  17.513 -0.0563 -0.8889  0.1423
 5782SOL     OW28807   2.728   2.684   7.047 -0.3539  0.3943 -0.8906
 5782SOL    HW128808   2.760   2.726   7.127 -0.5629 -0.9287 -0.1186
 5782SOL    HW228809   2.705   2.762   6.998  0.6726 -0.5505 -2.8581
 5783SOL     OW28810   1.425   4.078   3.015 -0.2057  0.5003 -0.1227
 5783SOL    HW128811   1.389   4.145   3.074 -1.2904 -1.0738  1.0253
 5783SOL    HW228812   1.404   4.112   2.928 -0.5143 -0.1375 -0.3004
 5784SOL     OW28813   3.953   2.476   3.369  0.4606  0.7957 -0.0985
 5784SOL    HW128814   3.976   2.437   3.285 -1.6644 -0.2574 -0.1805
 5784SOL    HW228815   3.890   2.547   3.354 -0.0229  0.5575  0.7797
 5785SOL     OW28816   4.175   3.975  10.232  0.5304 -0.0210  0.4700
 5785SOL    HW128817   4.184   4.049  10.171 -0.8411  0.2278  0.5734
 5785SOL    HW228818   4.111   3.927  10.180  0.6440 -1.7775  1.9785
 5786SOL     OW28819   3.821   2.248  16.719 -0.4674  0.3330 -0.6113
 5786SOL    HW128820   3.853   2.213  16.637 -1.5585 -0.2939 -0.7779
 5786SOL    HW228821   3.898   2.237  16.774  0.8116 -0.1330 -2.5156
 5787SOL     OW28822   0.564   0.590   3.573 -0.3637 -0.1680  0.6021
 5787SOL    HW128823   0.605   0.675   3.556 -0.1930 -0.0139  1.7764
 5787SOL    HW228824   0.632   0.524   3.559 -1.0285 -0.6357 -0.4485
 5788SOL     OW28825   2.706   4.396  10.099 -0.7248  0.2729 -0.0345
 5788SOL    HW128826   2.721   4.486  10.127  0.6510  0.6807 -2.0040
 5788SOL    HW228827   2.700   4.351  10.183  0.5627 -2.6018 -1.4835
 5789SOL     OW28828   4.451   1.152   6.107 -0.3166 -0.6150  0.4851
 5789SOL    HW128829   4.535   1.133   6.066 -0.3782  0.9854 -0.3415
 5789SOL    HW228830   4.394   1.128   6.034 -1.5944  1.6939  0.7231
 5790SOL     OW28831   0.229   4.135   6.997 -0.0321  0.3016  0.3109
 5790SOL    HW128832   0.322   4.151   6.981 -0.0392  1.1062  1.0823
 5790SOL    HW228833   0.228   4.142   7.092  1.5901  1.2947  0.2541
 5791SOL     OW28834   3.439   4.236  13.921  0.4032  0.4272 -0.0743
 5791SOL    HW128835   3.499   4.307  13.897  0.4339  0.1108 -0.9307
 5791SOL    HW228836   3.444   4.237  14.017  0.9156  1.5393 -0.1186
 5792SOL     OW28837   0.175   1.881   1.874 -0.7326  0.5362  0.3235
 5792SOL    HW128838   0.189   1.832   1.955 -0.0670  0.2410  0.0236
 5792SOL    HW228839   0.084   1.907   1.890 -1.3659 -0.7062 -1.2382
 5793SOL     OW28840   4.221   1.779  15.172 -0.2732 -0.3366  0.8411
 5793SOL    HW128841   4.269   1.714  15.120 -0.3155  0.4848 -0.2319
 5793SOL    HW228842   4.286   1.850  15.183 -1.6441  0.9926  0.3581
 5794SOL     OW28843   4.204   3.532   6.687 -0.0488  0.5316 -0.4449
 5794SOL    HW128844   4.154   3.451   6.684  1.4453 -0.2778 -3.1812
 5794SOL    HW228845   4.134   3.583   6.729  2.4186  1.0912  3.0042
 5795SOL     OW28846   3.572   4.670   7.511  0.0600 -0.4793 -0.5387
 5795SOL    HW128847   3.667   4.672   7.517 -0.0139  1.7961 -0.1234
 5795SOL    HW228848   3.554   4.620   7.591  1.2716  1.6929  1.1084
 5796SOL     OW28849   3.660   4.237   1.878  0.1710 -0.2585  0.0547
 5796SOL    HW128850   3.686   4.297   1.948  0.3871 -0.3379  0.0412
 5796SOL    HW228851   3.729   4.175   1.857 -0.9000 -0.7457 -2.0272
 5797SOL     OW28852   4.720   0.239  13.676  0.0756  0.7681 -0.7200
 5797SOL    HW128853   4.683   0.164  13.629 -0.5160  1.1578 -0.8796
 5797SOL    HW228854   4.661   0.304  13.639 -0.8330  0.3596  0.0034
 5798SOL     OW28855   2.687   1.800   2.970 -0.0672 -0.0632 -0.4644
 5798SOL    HW128856   2.614   1.862   2.970  1.5798  1.8759  2.6840
 5798SOL    HW228857   2.646   1.749   2.901 -0.7437  0.1697 -0.2315
 5799SOL     OW28858   1.964   4.275   5.483  0.0691  0.0534  0.8777
 5799SOL    HW128859   2.001   4.197   5.525 -1.0022 -0.3363  1.1008
 5799SOL    HW228860   2.016   4.339   5.531  2.0548 -1.1568  0.3280
 5800SOL     OW28861   3.907   1.412   6.863  0.2562 -0.1398 -0.1534
 5800SOL    HW128862   3.993   1.385   6.831 -0.0289  0.4881 -1.4770
 5800SOL    HW228863   3.920   1.393   6.956 -1.2674 -1.5428 -0.2257
 5801SOL     OW28864   4.389   4.083  14.554 -0.2161  0.1499 -0.0247
 5801SOL    HW128865   4.337   4.060  14.631 -0.5144 -0.4281 -0.4043
 5801SOL    HW228866   4.336   4.157  14.523 -1.5340 -0.8016 -0.0222
 5802SOL     OW28867   0.634   3.507  15.435 -0.1004 -0.2394 -0.1020
 5802SOL    HW128868   0.553   3.508  15.485  0.6198 -1.6087  1.0949
 5802SOL    HW228869   0.641   3.412  15.426 -0.4001 -0.3635  0.9972
 5803SOL     OW28870   3.411   4.653   5.566 -0.6241  0.1287  0.3564
 5803SOL    HW128871   3.353   4.601   5.621 -1.0208 -0.6794 -0.8366
 5803SOL    HW228872   3.359   4.681   5.491 -0.2576 -0.1239  0.0089
 5804SOL     OW28873   0.326   1.668   5.163 -0.3445 -0.2302  0.3563
 5804SOL    HW128874   0.231   1.674   5.151 -0.1972 -1.0086 -1.2054
 5804SOL    HW228875   0.334   1.599   5.097  0.7996 -0.7426  1.0313
 5805SOL     OW28876   2.567   0.986  15.850  0.0567  0.2111 -0.2863
 5805SOL    HW128877   2.565   0.946  15.937  0.4967  2.1589  0.6137
 5805SOL    HW228878   2.620   0.929  15.794  1.1595  1.7196 -0.7695
 5806SOL     OW28879   2.211   3.287  10.493  0.0539 -0.3578 -0.2710
 5806SOL    HW128880   2.227   3.265  10.585  0.0588 -1.4586 -0.5410
 5806SOL    HW228881   2.204   3.382  10.496  2.8936 -0.1061 -0.9374
 5807SOL     OW28882   3.065   3.225   1.831 -0.2447 -0.0048 -0.0963
 5807SOL    HW128883   2.981   3.211   1.786 -0.4558 -0.5144  0.4586
 5807SOL    HW228884   3.083   3.317   1.809 -2.4665  0.3985 -0.2298
 5808SOL     OW28885   0.227   0.294   2.677  0.3297  0.3635 -0.1491
 5808SOL    HW128886   0.185   0.229   2.620  0.1295  1.7554 -1.5791
 5808SOL    HW228887   0.168   0.300   2.753  2.3428 -0.2426  1.4743
 5809SOL     OW28888   0.890   2.497  10.293  0.3295 -0.0305  0.0242
 5809SOL    HW128889   0.923   2.460  10.375 -0.2460  0.4110  0.4550
 5809SOL    HW228890   0.915   2.588  10.308 -0.9509 -0.0021  2.0212
 5810SOL     OW28891   1.417   2.055   7.183  0.1799 -0.2894  0.2843
 5810SOL    HW128892   1.393   2.140   7.146  0.4686 -1.1131 -1.7831
 5810SOL    HW228893   1.336   2.012   7.155  0.5809  1.0932 -2.9923
 5811SOL     OW28894   3.124   2.750  10.861 -0.5137 -0.1809  0.1565
 5811SOL    HW128895   3.076   2.710  10.934  0.2937 -1.2653  0.0989
 5811SOL    HW228896   3.052   2.787  10.810 -1.0852  1.1070  1.9172
 5812SOL     OW28897   2.877   1.304   7.951 -0.6877  0.4056 -0.8485
 5812SOL    HW128898   2.836   1.227   7.991  3.1648 -0.8033  0.8109
 5812SOL    HW228899   2.804   1.366   7.949 -1.7232 -0.7677  0.7231
 5813SOL     OW28900   3.314   2.805  10.691  0.0911  0.0057 -0.1729
 5813SOL    HW128901   3.244   2.772  10.747 -0.6728  1.1865 -0.4138
 5813SOL    HW228902   3.382   2.809  10.758 -0.4700 -0.4740  0.4239
 5814SOL     OW28903   3.320   3.160  13.973  0.4484  0.8028  0.0143
 5814SOL    HW128904   3.267   3.232  14.007 -1.1592 -0.6884  0.6633
 5814SOL    HW228905   3.404   3.206  13.974 -0.6411  2.6765  3.3340
 5815SOL     OW28906   4.453   1.835   9.465  0.0457  0.0470  0.3566
 5815SOL    HW128907   4.524   1.885   9.425 -1.0822  0.8686 -0.5937
 5815SOL    HW228908   4.488   1.835   9.554 -1.2237 -1.8659  0.8590
 5816SOL     OW28909   4.003   3.187  13.410 -0.3047 -0.1907  0.4545
 5816SOL    HW128910   3.999   3.268  13.359 -2.2286  0.8314  2.2419
 5816SOL    HW228911   3.910   3.174  13.428 -0.4484  0.0544 -0.1207
 5817SOL     OW28912   2.675   4.603  17.119 -0.3705  0.1201 -0.0346
 5817SOL    HW128913   2.756   4.650  17.097 -0.0405  0.8123  2.6705
 5817SOL    HW228914   2.683   4.573  17.209  0.5910  2.5165  0.6915
 5818SOL     OW28915   4.161   1.695   3.187 -0.2594  0.0346 -0.3593
 5818SOL    HW128916   4.218   1.671   3.260 -1.7928 -1.8513  0.2159
 5818SOL    HW228917   4.168   1.791   3.186 -2.1410  0.1879 -0.6043
 5819SOL     OW28918   4.322   4.177   7.343 -0.2134 -0.1618 -0.1105
 5819SOL    HW128919   4.280   4.147   7.263  1.8038 -2.7358 -0.1910
 5819SOL    HW228920   4.346   4.266   7.316  3.6912 -1.3489 -0.5648
 5820SOL     OW28921   3.923   4.676  11.660 -0.6912  0.2092  0.0923
 5820SOL    HW128922   3.994   4.720  11.614  0.5200 -1.1280  0.6579
 5820SOL    HW228923   3.850   0.002  11.624 -1.4988 -2.2822 -1.7298
 5821SOL     OW28924   1.638   2.358   7.046 -0.9332  0.0831 -0.0886
 5821SOL    HW128925   1.661   2.288   6.985  0.3881  2.0540 -1.8659
 5821SOL    HW228926   1.637   2.320   7.134  2.1670  1.7046  0.6731
 5822SOL     OW28927   1.650   2.628   9.136  0.3683 -0.3708  0.1121
 5822SOL    HW128928   1.644   2.709   9.187 -1.1635  0.4372 -1.3812
 5822SOL    HW228929   1.590   2.647   9.064  0.0224  1.1924  0.8222
 5823SOL     OW28930   3.819   0.670  16.546 -0.0352  0.5387 -0.0189
 5823SOL    HW128931   3.889   0.662  16.611  0.2159  0.7795 -0.2595
 5823SOL    HW228932   3.856   0.629  16.468  0.9897 -0.9557  1.2241
 5824SOL     OW28933   0.213   0.635  10.218 -0.1332 -0.2127  0.1665
 5824SOL    HW128934   0.210   0.547  10.180 -1.1841  0.4380 -1.2103
 5824SOL    HW228935   0.121   0.652  10.239  0.7537  3.0322  1.4900
 5825SOL     OW28936   1.123   1.098   2.205  0.1923  0.5133 -0.6720
 5825SOL    HW128937   1.079   1.183   2.201  1.5316  1.2701  0.5594
 5825SOL    HW228938   1.130   1.060   2.118 -0.3866  0.3893 -0.6619
 5826SOL     OW28939   1.403   1.196   5.294  0.3486 -0.0052 -0.2521
 5826SOL    HW128940   1.450   1.113   5.281  1.3828  0.0894  3.0730
 5826SOL    HW228941   1.412   1.215   5.387 -0.8260 -2.6351  0.3715
 5827SOL     OW28942   0.866   2.920   8.134 -0.3742 -0.2908 -0.1152
 5827SOL    HW128943   0.875   2.911   8.039  0.9428  0.4258 -0.0593
 5827SOL    HW228944   0.900   2.837   8.168 -0.9780  0.0691  1.3747
 5828SOL     OW28945   4.633   1.574   7.344 -0.2682  0.3981  0.2547
 5828SOL    HW128946   4.608   1.659   7.308  1.1753  1.0993  0.9361
 5828SOL    HW228947   4.696   1.594   7.413  0.8266  1.0462 -0.9340
 5829SOL     OW28948   4.151   2.433  16.148 -0.6808 -0.4655 -0.1299
 5829SOL    HW128949   4.081   2.488  16.111  0.6674  0.8008 -0.8406
 5829SOL    HW228950   4.226   2.493  16.148 -0.7049 -0.4383  0.0933
 5830SOL     OW28951   1.634   2.872   9.278 -0.1035 -0.1880  0.2773
 5830SOL    HW128952   1.573   2.934   9.320 -1.8000 -2.0772  0.5916
 5830SOL    HW228953   1.709   2.928   9.258  0.7980 -1.1145  1.0564
 5831SOL     OW28954   2.510   3.066   5.729  0.3459  0.4769 -0.0751
 5831SOL    HW128955   2.544   3.078   5.818  0.1805 -0.0450  0.0564
 5831SOL    HW228956   2.419   3.094   5.744  0.3601  0.0016  0.9151
 5832SOL     OW28957   3.618   1.747   4.996  0.4598 -0.3111  0.5638
 5832SOL    HW128958   3.694   1.791   5.033  1.1629 -1.5587  0.6036
 5832SOL    HW228959   3.563   1.735   5.073  0.4316  0.4338  0.6617
 5833SOL     OW28960   0.992   3.427   1.117  0.6488 -0.0884 -0.0246
 5833SOL    HW128961   1.085   3.436   1.095  0.7512 -1.6471 -0.2359
 5833SOL    HW228962   0.978   3.474   1.199 -1.5333 -2.9946  1.2830
 5834SOL     OW28963   0.328   3.566   4.315  0.4441  0.1371 -0.4781
 5834SOL    HW128964   0.381   3.630   4.362 -3.0027  1.9416  0.9981
 5834SOL    HW228965   0.358   3.574   4.225  3.3625 -3.5890  0.1757
 5835SOL     OW28966   0.377   3.330   5.312 -0.3040  0.7026  0.3838
 5835SOL    HW128967   0.389   3.256   5.252  1.2470  0.6488  0.7569
 5835SOL    HW228968   0.451   3.388   5.293  0.2028  0.5066  1.8082
 5836SOL     OW28969   4.558   2.351   5.774  0.7925  0.2158  0.3107
 5836SOL    HW128970   4.557   2.446   5.758 -4.0371  0.0314 -0.3946
 5836SOL    HW228971   4.600   2.346   5.860 -0.3308  0.2133  0.8608
 5837SOL     OW28972   4.006   3.990   3.342  0.0549 -0.5804  0.2542
 5837SOL    HW128973   4.001   3.991   3.247  2.2101 -0.4774  0.1435
 5837SOL    HW228974   4.015   3.896   3.355  2.0437 -0.5233 -0.7849
 5838SOL     OW28975   2.992   2.676   1.276 -1.0201 -0.4819 -0.4464
 5838SOL    HW128976   2.960   2.657   1.364 -1.0462 -1.6198 -0.6991
 5838SOL    HW228977   3.008   2.587   1.244  0.9328 -1.3027  2.8801
 5839SOL     OW28978   0.074   0.051   6.486  0.2536  0.4611 -0.1068
 5839SOL    HW128979   4.723   4.717   6.496  0.6305  0.6280  3.8075
 5839SOL    HW228980   0.084   0.079   6.577 -1.4451 -1.2075  0.6083
 5840SOL     OW28981   3.739   4.049   7.787 -0.0779  0.0080 -0.0382
 5840SOL    HW128982   3.833   4.035   7.788 -0.2169 -0.8138  1.2002
 5840SOL    HW228983   3.721   4.125   7.731 -0.6454  0.0036  0.1313
 5841SOL     OW28984   2.429   0.547   6.406  0.0996  0.3969 -0.3026
 5841SOL    HW128985   2.406   0.516   6.493  0.4665 -0.6859 -0.5966
 5841SOL    HW228986   2.412   0.473   6.348 -0.0765 -0.5463  0.9500
 5842SOL     OW28987   4.106   3.772   2.988 -0.4836  0.4596  0.3072
 5842SOL    HW128988   4.151   3.724   2.919 -1.0604  2.0871 -1.2253
 5842SOL    HW228989   4.104   3.699   3.049  4.0218 -0.5149 -0.7442
 5843SOL     OW28990   1.192   0.744  13.344 -0.5522 -0.5204 -0.4046
 5843SOL    HW128991   1.099   0.743  13.318 -0.9468  1.1313  0.9295
 5843SOL    HW228992   1.192   0.743  13.439 -2.9756 -0.7288 -0.4012
 5844SOL     OW28993   2.998   2.219   9.344 -0.2110 -0.0315  0.6601
 5844SOL    HW128994   3.010   2.146   9.282 -2.2607  0.9543 -0.9086
 5844SOL    HW228995   3.085   2.212   9.382 -0.0220  1.0255  0.4184
 5845SOL     OW28996   2.056   1.659   2.227 -0.1589 -0.8704 -0.3274
 5845SOL    HW128997   1.984   1.715   2.254  1.3033  0.9741 -0.2756
 5845SOL    HW228998   2.108   1.718   2.173 -0.7509 -0.1155 -0.0728
 5846SOL     OW28999   3.311   2.330   8.162 -0.1406  0.0076 -0.1786
 5846SOL    HW129000   3.391   2.301   8.206  0.5699 -1.1056 -2.2180
 5846SOL    HW229001   3.271   2.243   8.159  1.8170 -0.8230 -2.4231
 5847SOL     OW29002   1.014   2.454   7.822 -0.1097  0.6364 -0.4089
 5847SOL    HW129003   1.025   2.523   7.887  0.2945  0.1130  0.0796
 5847SOL    HW229004   1.092   2.458   7.767 -0.7655  1.3520 -1.2913
 5848SOL     OW29005   2.668   1.254   4.014  0.2077 -0.5573 -0.2379
 5848SOL    HW129006   2.658   1.349   4.026  3.5506 -0.1384 -0.7371
 5848SOL    HW229007   2.761   1.236   4.009  1.0863  3.3816  1.8367
 5849SOL     OW29008   0.455   4.079   9.456 -0.0863 -0.6538 -0.3757
 5849SOL    HW129009   0.456   3.984   9.454  1.7494 -0.6121 -2.4200
 5849SOL    HW229010   0.548   4.088   9.477 -0.2232 -0.1468  0.0068
 5850SOL     OW29011   3.820   1.850   4.599  0.1428  0.0806  0.4381
 5850SOL    HW129012   3.873   1.854   4.519  1.0289  1.4908  1.0969
 5850SOL    HW229013   3.760   1.924   4.595 -0.8842 -0.7536  0.3722
 5851SOL     OW29014   1.642   2.808  10.464  0.3399  0.0021  0.3068
 5851SOL    HW129015   1.589   2.867  10.410  0.8906 -1.1257 -1.4613
 5851SOL    HW229016   1.592   2.726  10.468 -0.7198  0.6930  1.3820
 5852SOL     OW29017   4.568   2.360   1.254  0.3472  0.1123  0.7678
 5852SOL    HW129018   4.494   2.414   1.227  3.1508  2.1074 -2.8317
 5852SOL    HW229019   4.597   2.430   1.313 -1.7325  1.2773  0.4153
 5853SOL     OW29020   2.121   1.530   1.425  0.4186 -0.3629  0.3309
 5853SOL    HW129021   2.041   1.548   1.376  0.3797  0.5459  0.7256
 5853SOL    HW229022   2.148   1.620   1.445  1.5119 -0.7027  0.3646
 5854SOL     OW29023   0.977   3.557   5.964  0.2583  0.6059 -0.3222
 5854SOL    HW129024   1.031   3.509   6.027  0.5837  2.1279  0.5682
 5854SOL    HW229025   1.040   3.623   5.935  1.2033  0.7227  1.9572
 5855SOL     OW29026   2.103   2.847   3.194 -0.4079  0.3946  0.0354
 5855SOL    HW129027   2.194   2.876   3.197 -0.0941 -0.3617 -2.5931
 5855SOL    HW229028   2.074   2.919   3.251 -1.1161 -0.9814  1.4390
 5856SOL     OW29029   0.253   2.645  11.493  0.1504  0.1379 -0.0788
 5856SOL    HW129030   0.235   2.580  11.425  1.6702 -0.1147 -0.2351
 5856SOL    HW229031   0.243   2.727  11.443 -0.3687 -0.2862 -0.6681
 5857SOL     OW29032   1.910   2.152  14.672 -0.4769 -0.3621  0.4415
 5857SOL    HW129033   1.881   2.182  14.758 -0.0165 -1.4405  0.9673
 5857SOL    HW229034   1.831   2.147  14.618  0.4142  0.1719 -0.9157
 5858SOL     OW29035   1.097   0.756  11.486 -0.1316  0.5475 -0.4720
 5858SOL    HW129036   1.041   0.817  11.534  2.1419  3.0266 -0.9830
 5858SOL    HW229037   1.046   0.677  11.469  0.1686 -0.0009  1.1940
 5859SOL     OW29038   0.613   3.998   3.821  0.6556  0.6121  0.0574
 5859SOL    HW129039   0.557   3.921   3.830  0.6763  0.9631  3.1897
 5859SOL    HW229040   0.547   4.051   3.866  1.6181  2.7709 -1.1030
 5860SOL     OW29041   0.557   4.182   6.078  0.4422 -0.5019 -0.0161
 5860SOL    HW129042   0.547   4.256   6.138 -0.7520 -0.4252 -0.2991
 5860SOL    HW229043   0.639   4.151   6.115  0.0449  0.3913  1.6142
 5861SOL     OW29044   0.228   1.942   4.489 -0.3467  0.4749 -0.1536
 5861SOL    HW129045   0.177   1.962   4.410  1.6687 -0.3944 -1.6742
 5861SOL    HW229046   0.248   2.029   4.525 -0.4373  0.0166  0.9981
 5862SOL     OW29047   0.220   4.403  12.536  0.2544  0.6457 -0.8569
 5862SOL    HW129048   0.312   4.431  12.528  1.3609 -2.2622  1.9737
 5862SOL    HW229049   0.195   4.455  12.612 -2.9763 -0.4320 -1.2091
 5863SOL     OW29050   3.959   0.796  14.771  0.2760 -0.3960  0.2423
 5863SOL    HW129051   3.974   0.754  14.686 -0.9705  0.4559 -0.3905
 5863SOL    HW229052   3.867   0.778  14.789  0.3163 -1.5429 -0.6482
 5864SOL     OW29053   4.398   0.547   7.484  0.0593 -0.2276  0.0588
 5864SOL    HW129054   4.479   0.510   7.518  0.7631  1.2711  0.0181
 5864SOL    HW229055   4.357   0.470   7.444  0.7133  0.2426 -1.5204
 5865SOL     OW29056   3.599   3.302   5.269  0.2089  0.3950 -0.2895
 5865SOL    HW129057   3.631   3.288   5.358  0.7197 -1.4071 -0.7560
 5865SOL    HW229058   3.518   3.251   5.274  0.5436 -0.0313  0.7882
 5866SOL     OW29059   1.131   0.984   1.225 -0.3656  0.1645  0.0352
 5866SOL    HW129060   1.186   1.059   1.246  1.1446 -1.3836  1.6160
 5866SOL    HW229061   1.075   0.984   1.303  0.2343 -0.6179  0.4563
 5867SOL     OW29062   4.543   0.874   7.857  0.5412  0.0223 -0.2933
 5867SOL    HW129063   4.496   0.899   7.936  1.2621  1.4289 -0.2996
 5867SOL    HW229064   4.558   0.783   7.882 -0.5333  0.3384  1.5047
 5868SOL     OW29065   3.311   0.822   6.217 -0.5047 -0.1705  0.3299
 5868SOL    HW129066   3.297   0.870   6.298 -1.5540  1.1262 -0.6146
 5868SOL    HW229067   3.294   0.733   6.248 -0.4729 -0.2755  0.0432
 5869SOL     OW29068   1.145   1.749   8.752  0.4600  0.3733  0.1893
 5869SOL    HW129069   1.200   1.771   8.677  0.3674 -2.8568 -0.8080
 5869SOL    HW229070   1.054   1.759   8.725 -0.1479 -0.5765  1.9365
 5870SOL     OW29071   2.132   3.826   4.720  0.1979 -0.0685  0.1593
 5870SOL    HW129072   2.092   3.909   4.744  1.9752  0.3095  1.8201
 5870SOL    HW229073   2.135   3.832   4.625  0.3167 -2.1235  0.0221
 5871SOL     OW29074   3.161   3.757   2.514  0.0861 -0.2161 -0.3595
 5871SOL    HW129075   3.112   3.680   2.484 -0.9218  0.4359 -0.3722
 5871SOL    HW229076   3.248   3.758   2.474  1.6249 -1.2419  2.9651
 5872SOL     OW29077   3.295   2.081  14.877  0.2750 -0.2501  0.2727
 5872SOL    HW129078   3.341   2.115  14.800 -2.0656  0.0043 -1.0218
 5872SOL    HW229079   3.354   2.011  14.904 -0.1462 -0.0679  1.6469
 5873SOL     OW29080   2.991   4.418   6.122  0.3203  0.2220 -0.3591
 5873SOL    HW129081   2.995   4.511   6.148  3.4057 -0.0060  0.0481
 5873SOL    HW229082   3.070   4.383   6.165  0.3240 -1.3702 -1.6914
 5874SOL     OW29083   1.321   4.652  16.759  0.1244  0.4631  0.3380
 5874SOL    HW129084   1.374   0.007  16.753  1.6350 -0.4865  1.0557
 5874SOL    HW229085   1.387   4.585  16.737  0.4071  1.1324 -0.8605
 5875SOL     OW29086   2.451   2.117   2.518  0.4980  0.1222 -0.6034
 5875SOL    HW129087   2.416   2.036   2.556 -0.8244  0.4149 -1.1933
 5875SOL    HW229088   2.442   2.174   2.595  1.0207  0.6940 -0.9698
 5876SOL     OW29089   1.643   1.719   5.423  0.1988  0.0943 -0.0827
 5876SOL    HW129090   1.708   1.704   5.355  1.0624 -0.0865  0.7787
 5876SOL    HW229091   1.684   1.710   5.509  1.2693  2.3235 -0.3651
 5877SOL     OW29092   1.551   4.517   6.176 -0.1548 -0.2872  0.1110
 5877SOL    HW129093   1.501   4.570   6.114  0.0376  0.1098  0.2971
 5877SOL    HW229094   1.617   4.580   6.206 -1.0978  1.0396 -0.6270
 5878SOL     OW29095   0.521   4.065  16.843 -0.6013  0.2888  0.2173
 5878SOL    HW129096   0.477   4.107  16.769 -0.6125  0.4471  0.3143
 5878SOL    HW229097   0.445   4.013  16.870  1.6183 -2.4765  1.0833
 5879SOL     OW29098   3.257   1.550   2.305 -0.0218  0.5786  0.4416
 5879SOL    HW129099   3.269   1.455   2.307 -0.9721  0.3894 -3.1047
 5879SOL    HW229100   3.331   1.560   2.245 -0.4625 -2.5947 -0.6591
 5880SOL     OW29101   4.592   0.005   3.372 -0.4564  0.1304  0.0067
 5880SOL    HW129102   4.534   0.046   3.436 -0.1025 -0.8862  0.9700
 5880SOL    HW229103   4.556   4.641   3.369 -1.0559  0.3887 -0.6107
 5881SOL     OW29104   0.321   3.024   7.696  0.0528 -0.1489 -0.6783
 5881SOL    HW129105   0.368   3.063   7.621  1.2481  0.8175  0.5767
 5881SOL    HW229106   0.351   2.933   7.699  1.9362  0.5214  1.0811
 5882SOL     OW29107   3.777   2.928   3.474 -0.1093 -0.3312  0.2235
 5882SOL    HW129108   3.749   3.010   3.513  0.9843 -1.5693  3.5623
 5882SOL    HW229109   3.709   2.878   3.519  0.0178  0.7587  1.6274
 5883SOL     OW29110   2.527   3.741   7.019  0.4158 -0.8927  0.0727
 5883SOL    HW129111   2.483   3.775   7.097  0.1688 -1.9922  0.4094
 5883SOL    HW229112   2.460   3.762   6.953  1.6973 -3.1089 -1.9047
 5884SOL     OW29113   4.612   0.476   5.479  0.3307 -0.0088  0.1545
 5884SOL    HW129114   4.589   0.403   5.422 -0.0332 -0.1556  0.4827
 5884SOL    HW229115   4.705   0.455   5.478  0.3640  0.1672 -0.3328
 5885SOL     OW29116   1.012   1.374   2.591  0.3801  0.3520 -0.3430
 5885SOL    HW129117   1.053   1.379   2.678 -0.6804  1.7448  0.0833
 5885SOL    HW229118   1.071   1.308   2.555 -0.4539 -0.7823  0.3591
 5886SOL     OW29119   3.346   0.090  17.237 -0.0539  0.2615 -0.2962
 5886SOL    HW129120   3.317   0.157  17.299  2.5781  0.6930  0.4648
 5886SOL    HW229121   3.348   0.143  17.157 -0.1145 -0.3656 -0.7130
 5887SOL     OW29122   1.101   3.895  11.538 -0.4266  0.2817  0.5055
 5887SOL    HW129123   1.172   3.834  11.522 -1.1985  0.3487 -3.2812
 5887SOL    HW229124   1.097   3.946  11.456  0.6936 -0.0447  0.2441
 5888SOL     OW29125   1.583   1.185  14.770 -0.2831  0.3018 -0.0020
 5888SOL    HW129126   1.668   1.153  14.742 -0.0418  0.5020  0.5066
 5888SOL    HW229127   1.608   1.257  14.827  1.7892 -0.2642 -0.2183
 5889SOL     OW29128   4.545   3.961  11.914 -0.3181 -0.6589 -0.0102
 5889SOL    HW129129   4.555   3.953  11.819 -1.8804  0.3507 -0.2597
 5889SOL    HW229130   4.528   4.054  11.930 -0.3788 -0.1632 -2.9004
 5890SOL     OW29131   3.393   0.562  11.806 -0.2667 -0.2815  0.0374
 5890SOL    HW129132   3.485   0.554  11.781 -0.1261  1.5395 -0.0267
 5890SOL    HW229133   3.356   0.634  11.756 -0.5513 -1.4687 -1.4814
 5891SOL     OW29134   1.745   0.093   5.297  0.1337 -0.2052 -0.2320
 5891SOL    HW129135   1.781   0.108   5.209 -0.0399 -2.0708 -0.6311
 5891SOL    HW229136   1.822   0.109   5.351  0.9951 -0.9736 -1.2153
 5892SOL     OW29137   0.928   2.211   8.528  0.1714  0.6341 -0.1997
 5892SOL    HW129138   0.992   2.251   8.469  2.0259 -3.9360 -1.3483
 5892SOL    HW229139   0.970   2.224   8.613  1.0791 -2.1467 -0.2344
 5893SOL     OW29140   0.901   3.880   8.394  0.0774  0.4544 -0.1281
 5893SOL    HW129141   0.847   3.897   8.317  0.0125  0.5468 -0.0618
 5893SOL    HW229142   0.848   3.889   8.474  2.0125  1.9405  0.9947
 5894SOL     OW29143   1.533   2.197   3.224 -0.3944  1.1379  0.3132
 5894SOL    HW129144   1.488   2.146   3.157  0.5437  1.3570 -0.4922
 5894SOL    HW229145   1.539   2.134   3.295  0.4854 -1.6558 -2.2289
 5895SOL     OW29146   0.030   1.314   4.207  0.2629  0.3918 -0.0528
 5895SOL    HW129147   0.055   1.272   4.289 -1.3965 -1.5577 -0.5590
 5895SOL    HW229148   0.060   1.240   4.153  0.6745  0.2286  0.3960
 5896SOL     OW29149   1.900   4.698  14.176 -1.2077 -0.1340  0.2486
 5896SOL    HW129150   1.915   4.673  14.085  0.7419  1.7078  0.0642
 5896SOL    HW229151   1.978   0.014  14.214 -1.2299  0.1308  0.0164
 5897SOL     OW29152   3.528   1.304   1.091 -0.3604  0.0248 -0.0188
 5897SOL    HW129153   3.606   1.315   1.037 -1.6712  2.2667 -1.4702
 5897SOL    HW229154   3.542   1.215   1.123  0.5003  0.1268 -0.1051
 5898SOL     OW29155   0.497   0.362   4.069 -0.4385  0.1268  0.1339
 5898SOL    HW129156   0.561   0.329   4.006 -0.6309 -1.3678  0.7188
 5898SOL    HW229157   0.414   0.330   4.033 -0.8475 -0.7092  1.7805
 5899SOL     OW29158   2.802   0.598   2.052 -0.2000 -0.8882 -0.2722
 5899SOL    HW129159   2.776   0.558   2.136 -1.5255  1.3119  0.3833
 5899SOL    HW229160   2.892   0.623   2.074  0.2152 -0.6191 -2.2828
 5900SOL     OW29161   3.966   0.653   2.297 -0.1687  0.3123 -0.0530
 5900SOL    HW129162   3.882   0.622   2.332  0.2777 -0.8824 -0.0409
 5900SOL    HW229163   3.969   0.749   2.291 -1.7864  0.3334 -0.3189
 5901SOL     OW29164   1.610   2.596   9.997  0.0853  0.1930  0.3040
 5901SOL    HW129165   1.682   2.593  10.061  1.3747 -3.6989 -1.3441
 5901SOL    HW229166   1.667   2.598   9.920  1.8531 -1.1051  1.5795
 5902SOL     OW29167   0.810   3.957   4.383  0.4239  0.3902  0.0376
 5902SOL    HW129168   0.824   3.984   4.293  0.1715 -0.4629 -0.2531
 5902SOL    HW229169   0.749   4.025   4.414 -0.7246 -0.1339 -1.1064
 5903SOL     OW29170   1.612   4.433   3.138  0.2498 -0.0196  0.1897
 5903SOL    HW129171   1.639   4.489   3.065 -0.3922  0.7381  0.5351
 5903SOL    HW229172   1.674   4.360   3.133  3.0341  2.3750 -0.3252
 5904SOL     OW29173   3.926   1.015   5.967 -0.4319  0.1911  0.5329
 5904SOL    HW129174   3.835   1.045   5.963 -1.6566 -3.4032  1.3492
 5904SOL    HW229175   3.915   0.920   5.975  0.5788  0.0226  0.0154
 5905SOL     OW29176   0.317   1.242  15.700 -0.0338 -0.7740 -0.2760
 5905SOL    HW129177   0.368   1.305  15.751  1.1404 -2.2507  0.3590
 5905SOL    HW229178   0.241   1.298  15.683  1.3655  0.3544 -2.9726
 5906SOL     OW29179   1.015   2.828   2.455 -0.2985 -0.1993  0.1008
 5906SOL    HW129180   1.088   2.773   2.430  0.5717  0.6517  0.7772
 5906SOL    HW229181   0.936   2.778   2.434  0.4313 -0.2681 -2.4587
 5907SOL     OW29182   2.687   2.696   2.924  0.0473  0.2415 -0.5964
 5907SOL    HW129183   2.666   2.690   2.831 -3.1067 -1.4225  0.2485
 5907SOL    HW229184   2.681   2.790   2.942  3.7628  0.3712 -0.0520
 5908SOL     OW29185   4.083   3.293   6.678  0.3189 -0.2397  0.3971
 5908SOL    HW129186   4.006   3.243   6.649  0.0544  1.0037 -1.0520
 5908SOL    HW229187   4.153   3.249   6.630  1.3683  0.7149  1.0670
 5909SOL     OW29188   0.185   3.305  14.127  0.5249 -0.0871 -0.4867
 5909SOL    HW129189   0.133   3.347  14.059  1.8252  0.9071 -0.8645
 5909SOL    HW229190   0.275   3.304  14.096  0.8128 -0.9832  0.3884
 5910SOL     OW29191   0.322   4.610  12.952  0.0412  0.5474  0.8007
 5910SOL    HW129192   0.393   4.659  12.911  1.3006 -3.6840 -2.0592
 5910SOL    HW229193   0.340   4.525  12.913 -0.1546  1.3958 -1.1216
 5911SOL     OW29194   2.154   4.633   8.426 -0.6110  0.0548  0.4717
 5911SOL    HW129195   2.122   4.606   8.512  2.0064 -2.1040  0.7749
 5911SOL    HW229196   2.154   4.548   8.382 -1.0258  0.5207 -0.4348
 5912SOL     OW29197   0.719   3.371  11.779  0.8158  0.7748 -0.1130
 5912SOL    HW129198   0.795   3.417  11.743  0.5469  2.2385  1.1870
 5912SOL    HW229199   0.734   3.281  11.751  0.8347  0.3342  1.3569
 5913SOL     OW29200   1.296   3.386   2.933 -0.4651  0.1784  0.0125
 5913SOL    HW129201   1.201   3.372   2.937 -0.0476 -2.3556  1.2081
 5913SOL    HW229202   1.306   3.481   2.941  0.7354  0.0231  0.3248
 5914SOL     OW29203   2.182   3.321   7.127  0.0898 -0.2259 -0.2928
 5914SOL    HW129204   2.233   3.382   7.074  0.6698 -0.2684  0.2249
 5914SOL    HW229205   2.115   3.298   7.061 -1.7079 -1.6873  2.0401
 5915SOL     OW29206   4.412   4.376   2.183 -0.3264  0.2145 -0.4210
 5915SOL    HW129207   4.318   4.360   2.175 -0.4751 -0.0380  1.8735
 5915SOL    HW229208   4.433   4.332   2.265 -2.1878  1.1782  0.5639
 5916SOL     OW29209   2.060   4.261   7.445 -0.4637 -0.1245 -0.5700
 5916SOL    HW129210   2.075   4.351   7.475 -2.6990 -0.1968  0.7175
 5916SOL    HW229211   2.139   4.251   7.390  1.0197 -0.2485  1.5995
 5917SOL     OW29212   4.236   2.470   5.515  0.3795  0.2811 -0.2277
 5917SOL    HW129213   4.238   2.565   5.507 -0.8896  0.2346 -1.1156
 5917SOL    HW229214   4.206   2.462   5.606  1.2249 -2.3257 -0.1711
 5918SOL     OW29215   4.537   4.647   7.640  0.6185  0.5764 -0.1740
 5918SOL    HW129216   4.485   4.568   7.628  0.7677  0.4075  0.2960
 5918SOL    HW229217   4.580   4.647   7.554 -2.8264 -0.6076 -1.9378
 5919SOL     OW29218   1.981   2.089   8.620  0.0967 -0.1282 -0.5555
 5919SOL    HW129219   1.980   2.005   8.667  0.6894  0.3994  0.4170
 5919SOL    HW229220   2.020   2.142   8.690 -0.3395  0.3139 -0.6522
 5920SOL     OW29221   1.800   1.402   1.411  0.2326 -0.2005  0.1479
 5920SOL    HW129222   1.848   1.321   1.429 -1.5122 -0.6858  2.5831
 5920SOL    HW229223   1.809   1.408   1.316 -1.1418 -0.3332  0.0109
 5921SOL     OW29224   2.678   2.374  14.038  0.6837 -0.2133 -0.3829
 5921SOL    HW129225   2.704   2.435  14.107 -0.5150 -0.7979  0.5955
 5921SOL    HW229226   2.677   2.285  14.075  2.9727 -0.9119 -1.9934
 5922SOL     OW29227   3.387   3.210   4.778 -0.1713  0.1806  0.5138
 5922SOL    HW129228   3.330   3.219   4.854 -0.1780 -0.5715  0.5985
 5922SOL    HW229229   3.471   3.190   4.820  0.5901  0.3011 -0.9512
 5923SOL     OW29230   2.188   2.632   7.567 -0.1167 -0.1222  0.1767
 5923SOL    HW129231   2.170   2.595   7.480 -2.7116  0.0413  0.6401
 5923SOL    HW229232   2.255   2.570   7.594  0.3440 -0.6598 -2.1482
 5924SOL     OW29233   2.027   0.034   7.809 -0.2673 -0.2135  0.0484
 5924SOL    HW129234   2.108   0.056   7.763 -0.7957  1.5203 -0.0624
 5924SOL    HW229235   2.058   4.684   7.860 -2.7263 -0.2738  1.4808
 5925SOL     OW29236   0.143   2.417   8.918  0.2230 -0.0856 -0.4018
 5925SOL    HW129237   0.177   2.332   8.891 -0.9808 -0.0387 -2.0305
 5925SOL    HW229238   0.189   2.418   9.002 -1.5846 -0.5931  0.6088
 5926SOL     OW29239   4.170   2.050  13.806  0.5145  0.2422 -0.2183
 5926SOL    HW129240   4.110   2.112  13.849  1.1213  1.6992 -1.4901
 5926SOL    HW229241   4.154   2.076  13.716 -1.3003 -0.6592 -0.1649
 5927SOL     OW29242   0.736   2.620   6.410  0.0991  0.0378  0.2309
 5927SOL    HW129243   0.820   2.584   6.381 -0.8017 -0.4542 -1.8266
 5927SOL    HW229244   0.736   2.700   6.357 -0.1565  0.2089  0.4927
 5928SOL     OW29245   3.044   3.841  10.449  0.3379 -0.3620 -0.5068
 5928SOL    HW129246   2.981   3.781  10.488  1.0689 -1.1321 -0.5002
 5928SOL    HW229247   3.098   3.775  10.404  0.0575 -0.7171 -0.3166
 5929SOL     OW29248   1.656   4.216   6.561 -0.1078 -0.4813 -0.3049
 5929SOL    HW129249   1.604   4.290   6.530  1.4680  0.6754 -0.2281
 5929SOL    HW229250   1.740   4.256   6.583  0.1754 -1.1015 -0.2500
 5930SOL     OW29251   3.009   3.657   9.917 -0.0016 -0.6871  0.0037
 5930SOL    HW129252   2.986   3.570   9.949 -1.2041 -0.8204 -1.2381
 5930SOL    HW229253   2.949   3.705   9.975 -1.4124 -0.5896 -1.5147
 5931SOL     OW29254   1.951   1.869  13.230 -0.1300 -0.0325 -0.2524
 5931SOL    HW129255   1.957   1.817  13.150 -0.8334 -0.6540  0.0964
 5931SOL    HW229256   1.868   1.843  13.271  1.4700 -2.0735  1.6948
 5932SOL     OW29257   0.649   2.085   7.199 -0.0411 -0.1475  0.1524
 5932SOL    HW129258   0.589   2.061   7.269  0.7311 -1.2650  0.4302
 5932SOL    HW229259   0.650   2.181   7.201  1.1981 -0.1424 -0.7612
 5933SOL     OW29260   1.641   3.329   7.912 -0.0903 -0.8136 -0.6784
 5933SOL    HW129261   1.732   3.325   7.940 -0.2840 -2.1662 -0.2479
 5933SOL    HW229262   1.653   3.335   7.817  0.2536 -2.2328 -0.7272
 5934SOL     OW29263   0.098   1.396   6.219  0.4603  0.1454 -0.1283
 5934SOL    HW129264   0.073   1.462   6.284  1.5373 -0.0329  0.4604
 5934SOL    HW229265   0.039   1.423   6.148 -1.4689 -2.1251  0.5995
 5935SOL     OW29266   2.560   4.175   2.007  0.1234  0.4053  0.1265
 5935SOL    HW129267   2.651   4.204   1.998  0.7219 -1.6366 -0.3126
 5935SOL    HW229268   2.584   4.090   2.044 -0.1155  0.3877  0.2413
 5936SOL     OW29269   0.987   4.284   6.598 -0.0150 -0.2904 -0.4481
 5936SOL    HW129270   0.950   4.336   6.527 -0.9836 -2.2722 -1.3966
 5936SOL    HW229271   1.041   4.217   6.556 -0.1209 -2.2694  2.5432
 5937SOL     OW29272   1.441   0.958  13.655  0.3762  0.5521  0.4595
 5937SOL    HW129273   1.505   0.987  13.590  0.2118  1.2233  0.5988
 5937SOL    HW229274   1.507   0.935  13.722 -1.5663 -1.0046  1.8242
 5938SOL     OW29275   1.681   3.327   1.984  0.5475 -0.4299  0.1267
 5938SOL    HW129276   1.633   3.356   2.062 -2.3730  0.1663 -1.9131
 5938SOL    HW229277   1.771   3.354   2.003 -0.4081  1.4383  1.9616
 5939SOL     OW29278   1.691   1.788  17.389  1.2412  0.5848 -0.1998
 5939SOL    HW129279   1.612   1.830  17.355 -0.3113 -1.4737  0.8795
 5939SOL    HW229280   1.647   1.720  17.439  1.8170  1.0759  0.9657
 5940SOL     OW29281   0.427   2.049   5.596 -0.2172 -0.0802  0.5590
 5940SOL    HW129282   0.439   1.998   5.676  1.0137  2.0379  1.7209
 5940SOL    HW229283   0.436   2.135   5.638 -1.4426  1.7649 -2.9463
 5941SOL     OW29284   4.459   3.362   1.866 -0.2906 -0.1320 -0.2025
 5941SOL    HW129285   4.411   3.430   1.819  0.4869  2.5333  2.7865
 5941SOL    HW229286   4.405   3.285   1.856  2.0218 -1.4230 -2.6493
 5942SOL     OW29287   0.089   1.785  15.843  0.3050 -0.4004  0.1884
 5942SOL    HW129288   0.046   1.856  15.891  0.5873 -1.0483  1.3850
 5942SOL    HW229289   0.162   1.765  15.901  0.3009  0.3740  0.4609
 5943SOL     OW29290   3.444   3.055   7.364 -0.0185 -0.1629 -0.4213
 5943SOL    HW129291   3.441   3.020   7.275  0.8876 -2.2112  0.3599
 5943SOL    HW229292   3.483   2.981   7.410 -2.2705 -0.7480  0.5773
 5944SOL     OW29293   4.046   3.294   6.950 -0.1601 -0.6935 -0.4727
 5944SOL    HW129294   4.121   3.347   6.976  0.0571 -0.8755 -0.7403
 5944SOL    HW229295   4.055   3.305   6.856 -1.0612  2.2873 -0.1972
 5945SOL     OW29296   0.105   3.502   3.856  0.1644 -0.0901  0.4548
 5945SOL    HW129297   0.092   3.498   3.950 -2.0239  2.9168  0.2911
 5945SOL    HW229298   0.115   3.597   3.846  0.3146 -0.0032  1.4540
 5946SOL     OW29299   2.879   2.452   7.259 -0.6521 -0.3168  0.2673
 5946SOL    HW129300   2.922   2.536   7.271 -0.6219 -0.1350 -1.1644
 5946SOL    HW229301   2.950   2.388   7.266 -0.3144  0.0901  0.5520
 5947SOL     OW29302   1.436   1.469  11.691  0.1579 -0.2622  0.2575
 5947SOL    HW129303   1.424   1.489  11.784 -1.0845 -0.8192  0.2108
 5947SOL    HW229304   1.401   1.550  11.655  0.2603 -1.6797 -2.9918
 5948SOL     OW29305   2.351   1.531   2.009 -0.5013 -0.8936  0.0146
 5948SOL    HW129306   2.260   1.545   1.984 -0.4702  1.2381  1.1474
 5948SOL    HW229307   2.366   1.593   2.080 -1.2060 -2.3274  1.3872
 5949SOL     OW29308   4.595   4.020  10.111 -0.3448 -0.3582  0.2023
 5949SOL    HW129309   4.547   4.018  10.028 -0.2693  0.1471  0.1457
 5949SOL    HW229310   4.525   3.989  10.168 -0.6019  2.3400  1.3681
 5950SOL     OW29311   1.687   2.481   6.556  0.1487  0.1315  0.1179
 5950SOL    HW129312   1.780   2.502   6.564  0.6106 -0.9840 -2.3775
 5950SOL    HW229313   1.641   2.555   6.517 -0.6413 -0.3841  0.0752
 5951SOL     OW29314   4.105   2.215   8.369  0.3002  0.1669 -0.1172
 5951SOL    HW129315   4.031   2.161   8.342  0.7418 -0.4539 -0.0904
 5951SOL    HW229316   4.096   2.220   8.464  2.4470  2.7533 -0.0399
 5952SOL     OW29317   1.312   3.852  16.202  0.1024 -0.0567 -0.4939
 5952SOL    HW129318   1.234   3.805  16.230 -1.1150  1.2680 -1.6602
 5952SOL    HW229319   1.375   3.780  16.190  2.7298  1.9356  1.3338
 5953SOL     OW29320   4.541   3.111   1.102  0.0773 -0.7222 -0.7193
 5953SOL    HW129321   4.529   3.124   1.008 -0.8060 -4.5212 -1.1333
 5953SOL    HW229322   4.525   3.017   1.113  0.9790 -0.7134  0.6537
 5954SOL     OW29323   0.246   3.598   6.751  0.4634 -0.8054  0.0964
 5954SOL    HW129324   0.216   3.688   6.763  0.2992 -0.6854 -1.2374
 5954SOL    HW229325   0.303   3.604   6.675 -0.7781  0.3404 -0.7436
 5955SOL     OW29326   3.561   4.329   9.565 -0.6278 -0.3933  0.0731
 5955SOL    HW129327   3.506   4.257   9.595  0.2957 -2.0198 -2.0674
 5955SOL    HW229328   3.630   4.291   9.510 -0.5303  0.3769 -0.3317
 5956SOL     OW29329   3.484   3.361   4.565 -0.4065  0.5472  0.0773
 5956SOL    HW129330   3.447   3.313   4.640 -0.1666  1.7829  0.9814
 5956SOL    HW229331   3.420   3.347   4.496  0.1743 -1.2004 -0.1272
 5957SOL     OW29332   3.241   0.942   6.468 -0.0155 -0.2252 -0.4977
 5957SOL    HW129333   3.171   0.877   6.456 -1.0222  0.3103  2.3149
 5957SOL    HW229334   3.218   0.990   6.548 -0.3853 -0.2320 -0.5984
 5958SOL     OW29335   1.647   3.927   5.175 -0.1405  0.1379  0.7565
 5958SOL    HW129336   1.648   3.874   5.095  1.3769  1.3017  0.0177
 5958SOL    HW229337   1.673   4.011   5.139 -1.5496 -0.3166 -1.3855
 5959SOL     OW29338   1.638   0.089   7.766 -0.0062  0.0919  0.3427
 5959SOL    HW129339   1.555   0.062   7.727  1.8770 -2.2325 -2.0797
 5959SOL    HW229340   1.618   0.097   7.859 -0.8800  0.5491  0.1158
 5960SOL     OW29341   2.186   1.171   1.885 -0.5786 -0.2584  0.0407
 5960SOL    HW129342   2.199   1.186   1.979 -2.0961 -0.5802  0.2913
 5960SOL    HW229343   2.206   1.078   1.877  0.4883  0.0309 -0.8167
 5961SOL     OW29344   2.184   2.229   3.260  0.0039 -0.0504 -1.1188
 5961SOL    HW129345   2.223   2.316   3.249  0.5573 -0.2339 -0.5939
 5961SOL    HW229346   2.090   2.234   3.248 -0.0351  2.1361  0.1461
 5962SOL     OW29347   3.047   2.332   5.022 -0.6362 -0.1623  0.4429
 5962SOL    HW129348   2.985   2.398   5.055 -0.8937 -0.6855  0.9913
 5962SOL    HW229349   3.103   2.387   4.967 -1.3637 -0.8010 -0.9307
 5963SOL     OW29350   4.673   2.930   8.991  0.1136  0.4433  0.3267
 5963SOL    HW129351   4.708   2.848   9.027  2.2137  0.4851 -1.6631
 5963SOL    HW229352   4.585   2.901   8.968  0.0437  0.4827  0.5394
 5964SOL     OW29353   1.955   1.559   3.506  0.0450 -0.0714 -0.9988
 5964SOL    HW129354   2.044   1.533   3.483  0.2447  0.1906 -0.5278
 5964SOL    HW229355   1.960   1.606   3.589  0.0801 -0.9157 -0.5268
 5965SOL     OW29356   0.196   1.434   2.916  0.3140  0.3686 -0.3893
 5965SOL    HW129357   0.211   1.341   2.933 -1.4996  0.1980  0.1977
 5965SOL    HW229358   0.107   1.443   2.949  1.1546 -0.0597  1.9997
 5966SOL     OW29359   3.579   3.417  12.355 -0.0901  0.1650 -0.2885
 5966SOL    HW129360   3.602   3.359  12.428  0.3044 -0.6872 -1.0768
 5966SOL    HW229361   3.508   3.470  12.390  1.9282  2.4990  0.2678
 5967SOL     OW29362   0.686   2.268   5.976 -0.0623  0.2458 -0.2580
 5967SOL    HW129363   0.646   2.195   6.023 -2.6467  0.7763 -1.6797
 5967SOL    HW229364   0.627   2.340   5.997 -1.0686 -0.9563  1.0233
 5968SOL     OW29365   4.588   4.649   6.909 -0.3634  0.0876  0.4576
 5968SOL    HW129366   4.556   4.567   6.871  0.6554  0.3135 -0.8403
 5968SOL    HW229367   4.677   4.649   6.874 -0.7360  1.1483 -0.4794
 5969SOL     OW29368   0.439   2.021   2.671 -0.7417 -0.0803  0.1688
 5969SOL    HW129369   0.499   1.971   2.727 -1.7130  0.2917  1.5581
 5969SOL    HW229370   0.403   2.062   2.750  0.3842 -1.0059  1.1600
 5970SOL     OW29371   4.712   4.160   2.141 -0.2926 -0.1987  0.0462
 5970SOL    HW129372   0.002   4.094   2.073 -2.7059 -0.5458 -0.1447
 5970SOL    HW229373   0.071   4.166   2.188 -0.4416  0.9546  0.1516
 5971SOL     OW29374   0.376   4.205   1.672 -0.0912 -0.5455  0.4633
 5971SOL    HW129375   0.458   4.188   1.626  0.4234 -0.4298  1.3501
 5971SOL    HW229376   0.406   4.202   1.763 -0.3928 -0.5594  0.5628
 5972SOL     OW29377   0.358   0.373  10.391 -0.2309  0.0662  0.8469
 5972SOL    HW129378   0.416   0.299  10.411  0.3451 -0.2876 -2.1459
 5972SOL    HW229379   0.357   0.370  10.295 -0.4959 -1.8081  0.9093
 5973SOL     OW29380   4.563   0.226   2.612 -0.2349  0.0255 -0.9447
 5973SOL    HW129381   4.531   0.136   2.611 -0.3750  0.0614  0.1804
 5973SOL    HW229382   4.619   0.230   2.534 -2.2820 -0.6745 -2.4475
 5974SOL     OW29383   2.130   4.459   9.161 -0.0616 -0.4669  0.4595
 5974SOL    HW129384   2.188   4.488   9.090  1.5744 -1.0793  1.5341
 5974SOL    HW229385   2.200   4.424   9.217  0.0274 -0.8449  0.1097
 5975SOL     OW29386   2.520   0.746   6.017  0.1440  0.2906  0.8493
 5975SOL    HW129387   2.438   0.766   6.063 -0.6680  1.0981 -0.9837
 5975SOL    HW229388   2.550   0.835   5.999  1.2014 -0.0681  0.8488
 5976SOL     OW29389   3.422   2.499   6.317  0.3020 -0.0600 -0.0178
 5976SOL    HW129390   3.430   2.403   6.322 -1.7995 -0.2511 -0.4487
 5976SOL    HW229391   3.451   2.527   6.231 -2.7649  0.8855 -0.7410
 5977SOL     OW29392   2.067   1.123  12.638 -0.2679  0.3578 -0.2688
 5977SOL    HW129393   2.124   1.198  12.623  0.1783  0.2014  0.6723
 5977SOL    HW229394   2.111   1.077  12.710  0.5979  0.3388 -0.8082
 5978SOL     OW29395   1.878   0.173  17.691  0.3743  0.6558  0.2941
 5978SOL    HW129396   1.831   0.090  17.696 -0.0541  0.9528  1.3105
 5978SOL    HW229397   1.965   0.137  17.672 -1.0538 -2.4167 -0.4469
 5979SOL     OW29398   0.646   2.037   6.116 -0.1335  0.0941 -0.5103
 5979SOL    HW129399   0.572   2.019   6.174 -1.9716  2.4553 -2.1383
 5979SOL    HW229400   0.722   2.028   6.174  0.1382  1.1463 -0.7095
 5980SOL     OW29401   2.392   1.346   3.105 -0.1989 -0.0422  0.3426
 5980SOL    HW129402   2.341   1.317   3.181  0.9073 -0.8672  0.7690
 5980SOL    HW229403   2.484   1.324   3.122 -0.4972 -2.6545 -1.6024
 5981SOL     OW29404   2.603   2.459   6.436  0.3547  0.2910 -0.0539
 5981SOL    HW129405   2.578   2.392   6.373 -1.4668 -0.2009  1.1802
 5981SOL    HW229406   2.583   2.540   6.388  1.7627  0.1726 -0.8199
 5982SOL     OW29407   2.341   1.143   7.634  0.0054 -0.1196 -0.0919
 5982SOL    HW129408   2.312   1.053   7.616 -0.8014  0.6066 -2.4292
 5982SOL    HW229409   2.256   1.182   7.655  1.0998  0.9287  2.2949
 5983SOL     OW29410   3.725   1.301   8.772 -0.4675  0.2265  0.3922
 5983SOL    HW129411   3.719   1.340   8.859  0.8700 -2.7000  1.7968
 5983SOL    HW229412   3.637   1.263   8.773 -1.3438  2.2321 -0.5803
 5984SOL     OW29413   2.306   0.458   9.050 -0.1053  0.4794 -0.0499
 5984SOL    HW129414   2.392   0.425   9.077 -0.3329 -0.1873 -0.1279
 5984SOL    HW229415   2.255   0.421   9.122 -0.0045 -0.6910 -0.5734
 5985SOL     OW29416   2.046   3.541   6.849  0.3120 -0.1282  0.6184
 5985SOL    HW129417   1.955   3.563   6.866  0.5157  0.3226  1.1261
 5985SOL    HW229418   2.041   3.454   6.889 -2.7889  0.2870  1.0583
 5986SOL     OW29419   1.004   0.624   1.745  0.1797  0.6142  0.4725
 5986SOL    HW129420   1.051   0.707   1.749 -0.5102  1.0474 -0.4970
 5986SOL    HW229421   1.070   0.570   1.700 -0.1973 -0.7588  1.5276
 5987SOL     OW29422   4.128   0.290   0.168  0.3723  0.9247 -0.2684
 5987SOL    HW129423   4.190   0.229   0.128  0.2333  0.8249 -0.3313
 5987SOL    HW229424   4.176   0.372   0.182  0.5681  0.8385 -0.4319
 5988SOL     OW29425   0.249   3.964   4.609 -0.2742  0.2830  0.1665
 5988SOL    HW129426   0.162   3.933   4.582 -0.5467  1.9088 -0.8307
 5988SOL    HW229427   0.224   4.024   4.679 -1.1158 -1.2370  1.1860
 5989SOL     OW29428   1.949   4.156   3.815 -0.0190 -0.0837  0.7154
 5989SOL    HW129429   1.904   4.141   3.898 -4.0033  2.7762 -0.8941
 5989SOL    HW229430   2.028   4.203   3.839  1.8062 -2.8147 -0.0404
 5990SOL     OW29431   2.196   0.649  11.460  0.2817 -0.1737  0.4624
 5990SOL    HW129432   2.243   0.614  11.535  1.8941  1.0580  0.0178
 5990SOL    HW229433   2.129   0.582  11.448  0.8672 -0.7158  0.1979
 5991SOL     OW29434   0.747   2.774  10.468 -0.2222 -0.1478 -0.4208
 5991SOL    HW129435   0.788   2.698  10.509 -0.3557 -0.0006 -0.0149
 5991SOL    HW229436   0.669   2.778  10.522 -0.3022  0.4253 -0.5773
 5992SOL     OW29437   1.359   3.501   8.202  0.0065  0.5433  0.2702
 5992SOL    HW129438   1.390   3.508   8.112 -0.7685 -2.6743 -0.2341
 5992SOL    HW229439   1.342   3.594   8.218  1.7952  0.9128  0.0486
 5993SOL     OW29440   3.034   1.593  12.635 -1.0041 -0.0196 -0.2989
 5993SOL    HW129441   2.960   1.620  12.690 -1.7146 -1.6884 -0.4139
 5993SOL    HW229442   3.060   1.507  12.669  0.7801 -0.2000 -2.1748
 5994SOL     OW29443   3.001   2.767   9.250  0.5295 -0.2579 -0.3610
 5994SOL    HW129444   3.042   2.840   9.205  1.5083  0.4494  1.6577
 5994SOL    HW229445   3.022   2.795   9.339  0.2375  0.5553 -0.5512
 5995SOL     OW29446   3.912   2.871  13.448 -0.1069  0.1182  0.0720
 5995SOL    HW129447   3.944   2.925  13.520  0.8175  0.1914 -0.3962
 5995SOL    HW229448   3.868   2.934  13.390  0.9782  1.6699  0.9131
 5996SOL     OW29449   4.135   3.259  13.646  0.4974  0.0141 -0.0694
 5996SOL    HW129450   4.103   3.260  13.556  0.6990 -1.0057 -0.1528
 5996SOL    HW229451   4.099   3.175  13.674  0.7191 -0.2264 -0.5104
 5997SOL     OW29452   1.796   4.310   8.168 -0.0976  0.1361  0.2557
 5997SOL    HW129453   1.748   4.393   8.170  0.4867  0.4674  0.7936
 5997SOL    HW229454   1.722   4.250   8.168 -1.5234  1.8696  2.2407
 5998SOL     OW29455   1.535   4.700   5.036  0.6251  0.1043 -0.3609
 5998SOL    HW129456   1.614   0.028   5.051 -1.2206  2.1933  2.0586
 5998SOL    HW229457   1.524   4.702   4.941  1.5285  0.3307 -0.4628
 5999SOL     OW29458   2.096   0.360   7.889 -0.2283  0.3173 -0.0090
 5999SOL    HW129459   2.134   0.368   7.801 -2.5999 -0.0114 -1.0502
 5999SOL    HW229460   2.145   0.284   7.921 -0.8805 -0.0188  0.1782
 6000SOL     OW29461   3.977   2.629   8.300  0.2167  0.2457  0.1790
 6000SOL    HW129462   3.899   2.683   8.309  0.0956 -0.1591  1.6216
 6000SOL    HW229463   4.053   2.683   8.323  0.4934  0.2551 -0.7548
 6001SOL     OW29464   1.622   4.290   4.620 -0.1503 -0.2244  0.3300
 6001SOL    HW129465   1.644   4.199   4.640 -1.1618 -0.4639  0.3877
 6001SOL    HW229466   1.625   4.321   4.711 -1.0287 -1.8075  0.8968
 6002SOL     OW29467   2.263   0.009   5.206  0.0853  1.2168  0.0552
 6002SOL    HW129468   2.256   0.041   5.116 -2.2118 -0.4243 -0.3431
 6002SOL    HW229469   2.201   4.661   5.198  2.1762 -0.4850 -0.6973
 6003SOL     OW29470   1.608   1.604  14.916  0.0551  0.6182  0.5860
 6003SOL    HW129471   1.658   1.678  14.950  0.6014  0.7256 -0.4557
 6003SOL    HW229472   1.595   1.548  14.993  0.7183 -2.0869 -1.2432
 6004SOL     OW29473   2.743   2.378   2.396 -0.1500 -0.1774 -0.3451
 6004SOL    HW129474   2.728   2.453   2.452  0.3401 -0.4376  0.1396
 6004SOL    HW229475   2.831   2.395   2.362 -0.1562 -0.9490 -0.7563
 6005SOL     OW29476   2.713   3.104  17.612 -0.0066  0.2372 -0.1468
 6005SOL    HW129477   2.681   3.136  17.528 -3.7851  0.5481  1.4028
 6005SOL    HW229478   2.631   3.088  17.658 -0.7542  1.1115 -1.1693
 6006SOL     OW29479   2.047   2.699   1.516  0.1572 -0.4912 -0.5580
 6006SOL    HW129480   2.091   2.754   1.451 -0.2434 -0.0709 -0.4703
 6006SOL    HW229481   1.966   2.665   1.478 -1.2719  2.3387 -0.0530
 6007SOL     OW29482   2.870   0.105   8.242  0.0860 -0.1949 -0.1208
 6007SOL    HW129483   2.852   0.107   8.336  2.0839  0.3726  0.2489
 6007SOL    HW229484   2.790   0.075   8.197 -0.4645  1.7989 -0.4626
 6008SOL     OW29485   1.058   4.273   3.179  0.2878 -0.5148  0.1428
 6008SOL    HW129486   1.041   4.187   3.139 -0.6585 -0.1386 -0.2811
 6008SOL    HW229487   1.153   4.276   3.173  0.3005 -0.5629  0.3223
 6009SOL     OW29488   3.955   1.766  13.620  0.0087  0.2357  0.3583
 6009SOL    HW129489   3.910   1.846  13.595  0.7642  1.0745  1.7388
 6009SOL    HW229490   3.987   1.795  13.705  0.3822  0.1442  0.2507
 6010SOL     OW29491   3.511   2.750   8.865 -0.2581  0.4174 -0.2348
 6010SOL    HW129492   3.504   2.790   8.778 -1.9001  1.3498  0.3173
 6010SOL    HW229493   3.466   2.666   8.854 -2.6756  1.8693 -1.4115
 6011SOL     OW29494   4.002   0.587   5.866 -0.6710 -0.5441  0.0584
 6011SOL    HW129495   4.000   0.562   5.959  1.9148  2.5212  0.9513
 6011SOL    HW229496   3.978   0.504   5.826 -1.1210 -0.1760 -0.4251
 6012SOL     OW29497   0.168   2.366  17.646  0.2363 -0.9873  0.0216
 6012SOL    HW129498   0.196   2.438   0.002 -0.1902 -1.8125  1.3303
 6012SOL    HW229499   0.175   2.406  17.560  0.5094  0.1661  0.5883
 6013SOL     OW29500   0.886   4.410   3.656 -0.2247 -0.9149  0.4369
 6013SOL    HW129501   0.973   4.430   3.622 -1.2659  0.1625 -1.5942
 6013SOL    HW229502   0.888   4.452   3.742 -0.1008 -0.1827  0.0700
 6014SOL     OW29503   2.044   4.608   8.731  0.1998 -0.1366 -0.4121
 6014SOL    HW129504   1.948   4.604   8.730  0.1578  1.1170 -0.5580
 6014SOL    HW229505   2.063   4.668   8.803 -0.4953 -1.1391  0.6204
 6015SOL     OW29506   0.811   4.534   4.410  0.1268  0.4477 -0.2357
 6015SOL    HW129507   0.808   4.452   4.460 -0.2409  0.9451  0.5457
 6015SOL    HW229508   0.811   4.600   4.479 -0.9507 -0.5039  0.6829
 6016SOL     OW29509   2.716   4.213   2.283  0.1431 -0.0790 -0.1473
 6016SOL    HW129510   2.679   4.289   2.238  1.9126  2.0040  1.8927
 6016SOL    HW229511   2.638   4.169   2.316  0.3138  0.1054  0.5042
 6017SOL     OW29512   2.149   1.505  12.062 -0.5937  0.1215  0.2125
 6017SOL    HW129513   2.088   1.466  12.000 -0.4371 -0.4077  0.3972
 6017SOL    HW229514   2.210   1.561  12.013 -1.2792  0.5010 -0.2120
 6018SOL     OW29515   3.331   0.728   2.445 -0.3296 -0.1193  0.0744
 6018SOL    HW129516   3.394   0.708   2.514 -0.0437  0.4990 -0.0039
 6018SOL    HW229517   3.265   0.762   2.506 -1.0479  1.6237 -1.6767
 6019SOL     OW29518   3.782   4.705  17.141 -0.5638 -0.6658 -0.6430
 6019SOL    HW129519   3.862   0.009  17.186 -1.5358  1.0626 -0.0237
 6019SOL    HW229520   3.815   4.622  17.109  0.8726 -0.8614  1.3113
 6020SOL     OW29521   0.465   1.840  13.417  0.3942 -0.4496 -0.0471
 6020SOL    HW129522   0.382   1.875  13.385  0.9213 -0.1146 -1.0825
 6020SOL    HW229523   0.444   1.762  13.468 -0.5375 -0.0351  0.1950
 6021SOL     OW29524   1.947   0.520   1.236 -0.0153 -0.3691 -0.6979
 6021SOL    HW129525   1.961   0.612   1.257 -0.5287 -1.2017  3.2421
 6021SOL    HW229526   1.853   0.519   1.216 -0.5074 -0.8739  1.6017
 6022SOL     OW29527   3.954   4.640  10.458  0.0831 -0.5042 -0.1747
 6022SOL    HW129528   3.977   4.696  10.532  0.2690 -0.5927 -0.1651
 6022SOL    HW229529   4.009   4.686  10.395 -2.4933  1.4288 -1.0222
 6023SOL     OW29530   2.383   1.930   2.876 -0.4714 -0.1461 -0.5192
 6023SOL    HW129531   2.354   1.851   2.922 -0.6150  0.3202  0.1760
 6023SOL    HW229532   2.441   1.895   2.808 -1.3991  1.3899 -2.0955
 6024SOL     OW29533   3.647   1.272   7.830 -0.2384 -0.4405  0.3732
 6024SOL    HW129534   3.638   1.266   7.925 -0.8483 -0.6654  0.2991
 6024SOL    HW229535   3.582   1.339   7.808 -0.7093 -0.6897  1.0011
 6025SOL     OW29536   0.863   3.996   0.398 -0.1088  0.5048 -0.3044
 6025SOL    HW129537   0.860   4.091   0.412  1.3517  0.7021 -1.3555
 6025SOL    HW229538   0.856   3.997   0.303 -0.8586  0.2146 -0.2543
 6026SOL     OW29539   3.432   1.585   3.203  0.3698 -0.3852 -0.2804
 6026SOL    HW129540   3.428   1.664   3.257  0.1582  0.5718 -1.6748
 6026SOL    HW229541   3.523   1.586   3.175  0.8407 -5.0292  1.1677
 6027SOL     OW29542   2.911   2.487  13.939  0.0389  0.2337  0.0228
 6027SOL    HW129543   2.818   2.473  13.921  0.3214 -0.2646 -1.0753
 6027SOL    HW229544   2.950   2.470  13.853 -0.0941 -1.2690  0.2577
 6028SOL     OW29545   3.700   2.687   6.254 -0.0370  0.5187  0.8219
 6028SOL    HW129546   3.777   2.745   6.259  0.0256  0.4363  0.8201
 6028SOL    HW229547   3.676   2.668   6.344 -1.7982 -1.0176  0.0333
 6029SOL     OW29548   0.322   2.966   8.794  0.4520  0.3652  0.0631
 6029SOL    HW129549   0.348   2.882   8.832  3.6731  1.4096  0.1557
 6029SOL    HW229550   0.340   3.025   8.867 -2.7076  1.5600 -0.1312
 6030SOL     OW29551   4.598   2.877   0.700 -0.0780  0.2719  0.1080
 6030SOL    HW129552   4.684   2.853   0.664 -0.2470  1.6177 -1.1891
 6030SOL    HW229553   4.569   2.793   0.735 -1.7452  1.3460  1.2739
 6031SOL     OW29554   2.343   4.378   5.316  0.3370 -0.0859  0.0678
 6031SOL    HW129555   2.351   4.293   5.359  0.2861  1.1267  2.4380
 6031SOL    HW229556   2.383   4.427   5.387 -1.2907  2.4569 -0.7670
 6032SOL     OW29557   0.185   2.048   6.519  0.0612 -0.1178 -0.0388
 6032SOL    HW129558   0.174   1.986   6.591 -2.5232 -0.5354 -0.7659
 6032SOL    HW229559   0.121   2.000   6.466 -1.3518  2.7661 -0.9579
 6033SOL     OW29560   4.543   1.618   8.643 -0.4551  0.9700 -0.0174
 6033SOL    HW129561   4.552   1.649   8.733 -4.0840  1.2172  0.2391
 6033SOL    HW229562   4.449   1.609   8.628  0.2675 -0.9137 -3.4789
 6034SOL     OW29563   2.780   2.519   6.634 -0.0016  0.2609 -0.5137
 6034SOL    HW129564   2.723   2.504   6.558 -0.9553 -1.5439  0.5600
 6034SOL    HW229565   2.785   2.614   6.638 -2.1763  0.3407  0.6082
 6035SOL     OW29566   0.692   2.009  14.895 -0.2741 -0.2545 -0.0449
 6035SOL    HW129567   0.611   2.040  14.934 -0.1209 -0.4654  0.4450
 6035SOL    HW229568   0.663   1.938  14.839  0.3315  0.6657 -1.5246
 6036SOL     OW29569   3.217   1.860   7.950 -0.0027 -0.0777 -0.1362
 6036SOL    HW129570   3.157   1.933   7.937 -2.2092 -2.1625 -1.6823
 6036SOL    HW229571   3.178   1.796   7.891  0.2310 -1.1093  0.8260
 6037SOL     OW29572   4.656   3.951   5.117  0.3053 -0.1746 -0.0684
 6037SOL    HW129573   4.654   4.034   5.165  0.8512 -0.2131  0.0225
 6037SOL    HW229574   4.588   3.899   5.158  0.5727 -1.4994 -1.3103
 6038SOL     OW29575   0.102   0.639   8.079  0.0122  1.2400 -0.2208
 6038SOL    HW129576   0.124   0.703   8.146 -1.2135 -0.1108  1.4769
 6038SOL    HW229577   0.167   0.570   8.093 -0.7171  1.0266  2.0449
 6039SOL     OW29578   2.618   1.740  12.924 -0.5992 -0.1870  0.8607
 6039SOL    HW129579   2.703   1.703  12.949 -0.6141 -1.6291 -1.2435
 6039SOL    HW229580   2.578   1.667  12.876 -0.1316 -1.5358  2.5162
 6040SOL     OW29581   4.291   4.652   4.460 -0.0589  0.2084  0.1472
 6040SOL    HW129582   4.223   4.609   4.511  0.8508 -1.3213  0.0668
 6040SOL    HW229583   4.285   4.634   4.366 -0.2602 -0.1950  0.2395
 6041SOL     OW29584   1.462   3.063   2.913 -0.1812 -0.0564 -0.6167
 6041SOL    HW129585   1.483   3.071   2.820 -2.1251  1.0472 -0.9598
 6041SOL    HW229586   1.425   2.976   2.931 -0.9592  0.5540  0.7151
 6042SOL     OW29587   3.842   4.173  16.896 -0.5369  0.5054 -0.7967
 6042SOL    HW129588   3.862   4.265  16.879  2.1028  0.3700  1.6305
 6042SOL    HW229589   3.779   4.176  16.968  1.2227  0.2699  0.7662
 6043SOL     OW29590   0.469   2.540  16.465 -0.1111  0.1947 -0.0248
 6043SOL    HW129591   0.481   2.446  16.453  0.1480  0.0664  1.2822
 6043SOL    HW229592   0.556   2.575  16.450 -1.0446  3.1684  1.4973
 6044SOL     OW29593   0.949   3.474  11.672  0.1204  0.2692 -0.1597
 6044SOL    HW129594   0.968   3.481  11.578  0.7859 -1.6491 -0.1645
 6044SOL    HW229595   1.028   3.458  11.723 -0.9345 -0.9517  1.0909
 6045SOL     OW29596   1.347   0.487   2.783 -0.5136  0.3454  0.2015
 6045SOL    HW129597   1.337   0.578   2.754  0.4593  0.0074 -1.1843
 6045SOL    HW229598   1.431   0.461   2.746  0.4105  3.4171  0.1090
 6046SOL     OW29599   1.019   2.980   3.238 -0.1992  0.1877  0.2165
 6046SOL    HW129600   0.960   2.961   3.165 -0.4374 -0.6719  0.6313
 6046SOL    HW229601   1.058   2.892   3.243  0.2952  0.3123 -1.3064
 6047SOL     OW29602   1.705   0.982   0.520 -0.1204  0.1245 -0.2240
 6047SOL    HW129603   1.789   1.008   0.556  0.0864  0.2957 -0.8500
 6047SOL    HW229604   1.683   1.066   0.480  0.6102 -0.3269 -1.5592
 6048SOL     OW29605   0.008   1.071   8.715 -0.0023 -0.6859  0.0979
 6048SOL    HW129606   4.678   1.062   8.637  1.6531  0.6628 -1.2444
 6048SOL    HW229607   4.686   1.050   8.796  0.0373 -1.2206 -0.0176
 6049SOL     OW29608   1.059   2.134  12.254  0.4881  0.4711 -0.0574
 6049SOL    HW129609   1.117   2.184  12.311  0.6673  1.0245 -0.7156
 6049SOL    HW229610   1.035   2.060  12.309  0.8782  0.8128  0.5686
 6050SOL     OW29611   2.188   0.921   0.470  0.5267 -0.0747  0.2698
 6050SOL    HW129612   2.277   0.956   0.483  0.9474 -0.6663 -0.9579
 6050SOL    HW229613   2.194   0.850   0.534  3.8175 -0.4926 -0.4926
 6051SOL     OW29614   2.318   1.652  16.668  0.4118 -0.4242  0.2445
 6051SOL    HW129615   2.403   1.680  16.701 -0.4246  0.2869  1.8067
 6051SOL    HW229616   2.254   1.705  16.716 -0.3191 -0.6241 -0.5029
 6052SOL     OW29617   1.023   0.993   7.111  0.1237 -0.5420 -0.1234
 6052SOL    HW129618   1.005   1.072   7.060 -1.5779  0.0536  1.4163
 6052SOL    HW229619   0.931   0.966   7.110 -1.0095  3.4926 -2.2878
 6053SOL     OW29620   2.009   1.775   4.931  0.0532 -0.1273 -0.0873
 6053SOL    HW129621   1.915   1.783   4.915 -0.3986 -1.1253  1.9972
 6053SOL    HW229622   2.022   1.826   5.011  0.4924  2.0565 -1.5416
 6054SOL     OW29623   3.099   0.434   4.814 -0.2335 -0.4722 -0.1168
 6054SOL    HW129624   3.111   0.350   4.859  0.5354 -0.3557 -0.0977
 6054SOL    HW229625   3.168   0.488   4.853  0.9062 -0.0549 -2.7244
 6055SOL     OW29626   2.977   0.836   9.420 -0.6604 -0.7122 -0.2541
 6055SOL    HW129627   2.973   0.767   9.354  0.9153 -0.8732 -0.1702
 6055SOL    HW229628   3.059   0.826   9.468 -0.5117  0.2470 -0.2940
 6056SOL     OW29629   3.841   3.994   4.093  0.0453  0.3481 -0.0912
 6056SOL    HW129630   3.879   4.036   4.016 -0.2009  1.7150  0.5282
 6056SOL    HW229631   3.755   3.982   4.052  0.3666 -0.4612 -0.5213
 6057SOL     OW29632   0.884   2.560   9.669  0.2517  0.6630  0.7244
 6057SOL    HW129633   0.811   2.623   9.668 -0.2804  0.0262 -0.1135
 6057SOL    HW229634   0.878   2.518   9.583  0.9720 -0.0541  1.0309
 6058SOL     OW29635   2.710   1.156  10.682  0.2080 -0.0648 -0.2263
 6058SOL    HW129636   2.757   1.075  10.661 -0.7179  0.4119 -4.0992
 6058SOL    HW229637   2.765   1.191  10.752  0.5495 -1.6072  0.2862
 6059SOL     OW29638   3.352   3.532   6.953 -0.2395 -0.0218  0.4061
 6059SOL    HW129639   3.295   3.463   6.988  0.2377 -0.5770  0.0967
 6059SOL    HW229640   3.438   3.510   6.988 -1.0565 -2.7131  0.7228
 6060SOL     OW29641   1.489   2.957  10.284 -0.2303 -0.1772  0.0149
 6060SOL    HW129642   1.464   2.928  10.196  1.2690  1.1636 -0.8431
 6060SOL    HW229643   1.448   3.044  10.289  0.0816 -0.0278 -0.0837
 6061SOL     OW29644   3.341   4.663   7.945 -0.1236  0.2254 -0.4386
 6061SOL    HW129645   3.413   4.690   8.002  0.4403 -1.0771 -0.5386
 6061SOL    HW229646   3.267   4.696   7.997  1.3268  1.0770  1.0804
 6062SOL     OW29647   3.935   0.326   7.874 -0.2544  0.0754  0.7720
 6062SOL    HW129648   4.020   0.290   7.897  0.0158  0.0277 -0.3106
 6062SOL    HW229649   3.933   0.418   7.900 -0.1992  0.3613 -0.2475
 6063SOL     OW29650   0.148   4.524   3.556 -0.3243  0.0339 -0.6679
 6063SOL    HW129651   0.092   4.595   3.588  1.6466  0.5285  1.7046
 6063SOL    HW229652   0.160   4.563   3.470 -3.0570  2.2932 -0.0154
 6064SOL     OW29653   1.840   2.885   1.047  0.6122 -0.4637  0.4083
 6064SOL    HW129654   1.929   2.903   1.076  0.1889  0.8694  0.8996
 6064SOL    HW229655   1.866   2.828   0.975  0.1272  0.3022 -0.3921
 6065SOL     OW29656   1.473   1.970   5.945  0.5328 -0.2372  0.0344
 6065SOL    HW129657   1.476   2.055   5.902  3.6381  0.5247  1.7182
 6065SOL    HW229658   1.394   1.924   5.919 -0.1971 -0.1307  2.0708
 6066SOL     OW29659   0.080   4.445   6.638 -0.1875  0.5286  0.2795
 6066SOL    HW129660   0.108   4.504   6.708 -0.6818 -1.1826  1.9347
 6066SOL    HW229661   0.145   4.375   6.644  0.9506  1.4593 -1.2077
 6067SOL     OW29662   4.041   3.905  17.296 -0.1186 -0.1712  0.6015
 6067SOL    HW129663   3.977   3.976  17.307  1.0791  1.1045 -0.6074
 6067SOL    HW229664   4.105   3.944  17.236 -1.1166  1.1205  0.3840
 6068SOL     OW29665   1.440   3.339  16.809  0.5863 -0.0891 -0.3891
 6068SOL    HW129666   1.488   3.319  16.889 -1.0334  0.3740  0.6863
 6068SOL    HW229667   1.507   3.376  16.751 -0.7389  2.6550 -0.1337
 6069SOL     OW29668   3.676   0.182  11.786  0.4111  0.1108  0.6415
 6069SOL    HW129669   3.660   0.188  11.880  0.3622  1.5593  0.5511
 6069SOL    HW229670   3.766   0.213  11.775  1.0167 -1.8310  0.1051
 6070SOL     OW29671   4.511   0.768  13.104 -0.0668 -0.7824 -0.3589
 6070SOL    HW129672   4.488   0.760  13.197  1.5033 -0.4037  0.0511
 6070SOL    HW229673   4.577   0.700  13.094 -0.2893 -0.8083 -1.6508
 6071SOL     OW29674   1.680   3.536   7.353  0.6982  0.9070  0.1473
 6071SOL    HW129675   1.637   3.453   7.332 -3.5081  3.1560 -0.1310
 6071SOL    HW229676   1.610   3.585   7.396  0.3492 -0.7173  1.4241
 6072SOL     OW29677   4.460   4.213   0.132 -0.2682 -0.0691 -0.0956
 6072SOL    HW129678   4.555   4.217   0.137 -0.4541  2.1869  1.2654
 6072SOL    HW229679   4.429   4.123   0.118 -1.3630  0.2651  0.2307
 6073SOL     OW29680   2.825   0.185  17.298  0.4705 -0.0415 -0.0146
 6073SOL    HW129681   2.762   0.130  17.344 -0.6407 -0.5228 -2.0815
 6073SOL    HW229682   2.838   0.260  17.356 -0.2801 -0.8021  1.1363
 6074SOL     OW29683   0.992   4.087  11.353 -0.3225 -0.0300 -0.8605
 6074SOL    HW129684   1.036   4.056  11.274 -0.5202  1.4805 -1.5736
 6074SOL    HW229685   1.034   4.173  11.361  0.7742 -0.8820  2.4507
 6075SOL     OW29686   3.396   0.501   2.220 -0.4451 -0.5693 -0.2800
 6075SOL    HW129687   3.349   0.425   2.187  0.8266 -1.5808  0.2071
 6075SOL    HW229688   3.353   0.523   2.302  0.0522  0.3495 -0.2714
 6076SOL     OW29689   1.424   0.739   6.182  0.0272  0.2355  0.3308
 6076SOL    HW129690   1.373   0.736   6.102 -0.2369 -2.5427  0.5956
 6076SOL    HW229691   1.391   0.818   6.224  0.6539  0.9965 -0.6045
 6077SOL     OW29692   2.043   2.774   8.938  0.1232  0.1493  0.2537
 6077SOL    HW129693   2.012   2.719   9.009 -1.6626  0.1679 -0.5042
 6077SOL    HW229694   2.016   2.861   8.968 -1.5756  0.7852 -3.0905
 6078SOL     OW29695   2.999   0.476   6.103  0.1403  0.2233 -0.1164
 6078SOL    HW129696   3.002   0.464   6.198 -2.0763  1.1110  0.0751
 6078SOL    HW229697   3.060   0.405   6.082 -0.9517  0.6924 -4.9323
 6079SOL     OW29698   2.809   2.868   6.212 -0.5109  0.8253  0.4649
 6079SOL    HW129699   2.795   2.812   6.289  0.8646  0.2964  0.3402
 6079SOL    HW229700   2.893   2.912   6.227 -0.0452 -0.1909  0.8432
 6080SOL     OW29701   1.503   2.929   8.248  0.1136  0.9967 -0.0144
 6080SOL    HW129702   1.452   2.994   8.200  0.8756  0.2503 -1.8483
 6080SOL    HW229703   1.572   2.911   8.184 -0.7390 -1.8348 -0.1466
 6081SOL     OW29704   0.878   1.413   4.502 -0.4392 -0.4826 -0.1617
 6081SOL    HW129705   0.921   1.337   4.543  3.0662  1.8476  0.4831
 6081SOL    HW229706   0.920   1.395   4.417 -1.4066 -1.2970 -0.4777
 6082SOL     OW29707   0.730   3.266   1.210 -0.3475 -0.2497 -0.1925
 6082SOL    HW129708   0.659   3.226   1.260 -1.9769  2.2586 -0.4985
 6082SOL    HW229709   0.730   3.353   1.249  2.1882 -0.3909  0.1134
 6083SOL     OW29710   1.168   3.835   5.111 -0.3752 -0.8411  0.2026
 6083SOL    HW129711   1.073   3.841   5.103 -0.4733 -0.8657  1.2883
 6083SOL    HW229712   1.172   3.761   5.172  2.2870  1.9515  3.4127
 6084SOL     OW29713   1.467   4.273  15.238 -0.0950 -0.4620 -0.1158
 6084SOL    HW129714   1.411   4.197  15.220 -1.1140  0.7505 -2.0681
 6084SOL    HW229715   1.458   4.326  15.159 -2.2661  0.1466  0.5258
 6085SOL     OW29716   0.520   2.233   4.919  0.1470 -0.2368  0.6402
 6085SOL    HW129717   0.455   2.163   4.926 -0.2161  0.0513  0.1757
 6085SOL    HW229718   0.595   2.175   4.908  0.4850  0.1145  1.1148
 6086SOL     OW29719   4.700   0.471   4.494  0.7847 -0.1904 -0.0646
 6086SOL    HW129720   0.004   0.562   4.481 -1.8027  0.4421 -1.2516
 6086SOL    HW229721   0.052   0.420   4.466 -1.3707 -2.4966 -1.6758
 6087SOL     OW29722   3.195   1.173   3.187 -0.1289 -0.8430  0.4250
 6087SOL    HW129723   3.205   1.259   3.227  0.9700 -0.2838 -1.0539
 6087SOL    HW229724   3.100   1.170   3.187 -0.1719  0.4840  0.7204
 6088SOL     OW29725   2.525   1.385   8.821  0.0982 -0.1666  0.7645
 6088SOL    HW129726   2.568   1.470   8.829  0.5364 -0.3527  0.3545
 6088SOL    HW229727   2.511   1.385   8.726 -0.4689  0.5454  0.8451
 6089SOL     OW29728   3.330   2.849   7.550 -0.0065  0.3314  0.5097
 6089SOL    HW129729   3.375   2.775   7.511  0.3100  1.1041 -0.5700
 6089SOL    HW229730   3.270   2.871   7.479 -1.0369 -1.4054  0.8458
 6090SOL     OW29731   4.207   2.220   2.367 -0.6353  0.3763 -0.2934
 6090SOL    HW129732   4.294   2.238   2.400 -0.5958 -1.0191  0.3836
 6090SOL    HW229733   4.178   2.138   2.409  1.9587 -0.3027  0.1280
 6091SOL     OW29734   1.536   0.351  14.113 -0.1247  0.1452  0.0806
 6091SOL    HW129735   1.523   0.321  14.203  0.4773 -1.4193 -0.3480
 6091SOL    HW229736   1.570   0.439  14.129  0.0483  0.2302 -0.7330
 6092SOL     OW29737   3.206   2.086   4.066  0.0331  0.1431 -0.1504
 6092SOL    HW129738   3.226   1.999   4.102 -0.1438  0.3246  0.3891
 6092SOL    HW229739   3.206   2.079   3.971  2.0591 -0.4612 -0.1035
 6093SOL     OW29740   3.850   1.308   7.427 -0.0128 -0.0804  0.1734
 6093SOL    HW129741   3.865   1.262   7.509 -1.8851  2.7250  2.0985
 6093SOL    HW229742   3.762   1.341   7.444 -1.4066 -3.4391 -0.6284
 6094SOL     OW29743   3.445   3.746   0.024  0.3510  0.2667 -0.4619
 6094SOL    HW129744   3.517   3.803   0.050 -0.1304  0.8323 -0.3684
 6094SOL    HW229745   3.479   3.702  17.645  0.2615 -0.7617  0.0695
 6095SOL     OW29746   3.800   4.586   8.819 -0.1966  0.0822  0.4319
 6095SOL    HW129747   3.792   4.493   8.798 -0.4206  0.4963 -1.3328
 6095SOL    HW229748   3.851   4.622   8.746 -1.5109 -0.0815 -0.5769
 6096SOL     OW29749   3.184   4.123   1.935 -0.1766 -0.4698 -0.4263
 6096SOL    HW129750   3.097   4.134   1.896  0.1208 -1.2797 -1.2874
 6096SOL    HW229751   3.222   4.052   1.885  1.7206 -0.9027  1.6224
 6097SOL     OW29752   0.985   0.032  13.879 -0.0812 -0.1473 -0.2004
 6097SOL    HW129753   0.913   0.088  13.906  0.3130  0.9063 -1.2800
 6097SOL    HW229754   0.975   4.677  13.932  0.5426  0.4761  0.8474
 6098SOL     OW29755   0.418   4.431   4.014 -0.0347 -0.0722 -0.2704
 6098SOL    HW129756   0.352   4.459   3.951  0.2965 -1.4477 -1.2190
 6098SOL    HW229757   0.469   4.367   3.965  1.2725  0.3985  0.4418
 6099SOL     OW29758   3.299   1.039   0.901 -0.2462  0.3690 -0.2257
 6099SOL    HW129759   3.274   1.040   0.993 -0.0237  1.5510 -0.1808
 6099SOL    HW229760   3.223   1.068   0.852  0.2777  3.0443  0.5390
 6100SOL     OW29761   4.574   4.058   1.435  0.1022  0.1416 -0.0444
 6100SOL    HW129762   4.555   4.015   1.519 -4.4225  2.4421  0.1290
 6100SOL    HW229763   4.608   3.986   1.382  0.5469  0.5782 -0.3409
 6101SOL     OW29764   2.738   1.124  11.801  0.6555 -0.0660 -0.2125
 6101SOL    HW129765   2.735   1.042  11.751 -0.5505  0.0441 -0.2986
 6101SOL    HW229766   2.769   1.085  11.883 -2.8186 -0.6485  0.7962
 6102SOL     OW29767   3.806   4.437   9.918 -0.3892  0.5059 -0.0230
 6102SOL    HW129768   3.901   4.450   9.921 -0.3786  0.5526 -0.7399
 6102SOL    HW229769   3.780   4.514   9.868  1.0176  0.6788 -0.4990
 6103SOL     OW29770   0.887   3.949   7.740  0.0020 -0.7015 -0.1469
 6103SOL    HW129771   0.966   3.961   7.688  0.9336  0.1264  1.4993
 6103SOL    HW229772   0.924   3.915   7.821 -1.1130 -2.4125 -0.3517
 6104SOL     OW29773   0.992   4.663   7.376  0.4193  0.2241 -0.5231
 6104SOL    HW129774   1.005   4.598   7.307  1.7707 -0.9991  0.8869
 6104SOL    HW229775   1.057   0.007   7.358 -0.1345  0.7173 -0.6537
 6105SOL     OW29776   3.324   1.040   9.694 -0.0765  0.1261 -0.2970
 6105SOL    HW129777   3.369   1.099   9.632  1.8389 -1.7351 -0.6702
 6105SOL    HW229778   3.390   0.981   9.731 -3.4091 -3.3205  0.0871
 6106SOL     OW29779   1.992   0.246   7.406  0.6401  0.1138  0.0533
 6106SOL    HW129780   1.958   0.243   7.495 -0.6561 -0.2883 -0.4643
 6106SOL    HW229781   2.008   0.154   7.387  0.7327  0.1759 -0.1684
 6107SOL     OW29782   1.652   1.144   2.412 -0.6682 -0.6333  0.2545
 6107SOL    HW129783   1.727   1.150   2.471  0.6711 -0.6153 -1.4244
 6107SOL    HW229784   1.578   1.187   2.453  1.8599  3.0378  0.9583
 6108SOL     OW29785   0.913   2.878   7.841  0.7057  0.3689  0.2913
 6108SOL    HW129786   0.966   2.909   7.767  0.8120 -0.7527 -0.1072
 6108SOL    HW229787   0.961   2.808   7.883  0.1196 -0.2130  0.0038
 6109SOL     OW29788   1.565   2.100   9.361 -0.1335 -0.2017  0.0562
 6109SOL    HW129789   1.624   2.172   9.381 -0.3351  0.0815 -0.3838
 6109SOL    HW229790   1.602   2.027   9.411 -2.0926 -0.8263  0.5837
 6110SOL     OW29791   1.171   1.995   1.510  0.0965 -0.0690  0.2644
 6110SOL    HW129792   1.116   1.948   1.572 -1.0387 -0.6681 -1.2150
 6110SOL    HW229793   1.105   2.027   1.448  2.7705  2.0908 -1.4783
 6111SOL     OW29794   3.712   0.412   7.688 -0.2375 -0.3810 -0.3551
 6111SOL    HW129795   3.651   0.426   7.760 -0.5595 -0.8342 -0.5376
 6111SOL    HW229796   3.792   0.408   7.739  1.2296  0.1704 -2.6175
 6112SOL     OW29797   4.064   2.940   8.075 -0.6500 -0.1990  0.0458
 6112SOL    HW129798   4.093   3.024   8.113 -1.4605  0.0952  0.0151
 6112SOL    HW229799   4.102   2.942   7.987  0.8768 -0.7339  0.6804
 6113SOL     OW29800   0.759   2.709   2.437  0.6843 -0.0448 -0.0624
 6113SOL    HW129801   0.724   2.795   2.414  2.4472  0.8571  0.6300
 6113SOL    HW229802   0.685   2.656   2.408  0.7664  1.5275 -3.2048
 6114SOL     OW29803   0.996   0.535  16.947  0.0734 -0.1481  0.1992
 6114SOL    HW129804   1.037   0.449  16.959  0.1732 -0.0625  0.4624
 6114SOL    HW229805   1.026   0.579  17.026  1.5352 -1.8933  0.6193
 6115SOL     OW29806   4.171   4.682  16.452 -0.1535  0.2918 -0.4471
 6115SOL    HW129807   4.173   0.036  16.507 -1.8361 -1.7169  2.5235
 6115SOL    HW229808   4.094   4.639  16.490 -0.5476  1.0829 -0.3638
 6116SOL     OW29809   4.529   2.579   5.473 -0.3575 -0.7339 -0.1154
 6116SOL    HW129810   4.442   2.548   5.446 -0.4764  0.4139 -1.0352
 6116SOL    HW229811   4.552   2.638   5.402  1.0708  0.3191  1.2140
 6117SOL     OW29812   3.775   1.759   8.432 -0.4389  0.1240 -0.0652
 6117SOL    HW129813   3.779   1.754   8.337 -0.3833  1.7817 -0.1603
 6117SOL    HW229814   3.737   1.846   8.449 -0.2951  0.2158 -0.2132
 6118SOL     OW29815   4.155   0.561  13.318  0.1550  0.4570 -0.5039
 6118SOL    HW129816   4.179   0.527  13.231 -1.8904 -3.4715  0.4938
 6118SOL    HW229817   4.126   0.477  13.354  2.4578 -0.0661  0.1530
 6119SOL     OW29818   3.207   2.815   2.616  0.3995  0.2733 -0.7048
 6119SOL    HW129819   3.235   2.731   2.580  1.1882  0.3627 -0.2972
 6119SOL    HW229820   3.220   2.873   2.542 -0.6974  1.7434  0.2435
 6120SOL     OW29821   2.358   2.529   5.410 -0.0592  0.6161 -0.7134
 6120SOL    HW129822   2.334   2.587   5.482  3.9978 -0.0687  1.2456
 6120SOL    HW229823   2.307   2.569   5.341  2.0522  1.3211 -1.8692
 6121SOL     OW29824   2.217   4.429  10.793  0.1655  0.1813 -0.4444
 6121SOL    HW129825   2.128   4.401  10.814 -0.8268  1.8681 -2.3666
 6121SOL    HW229826   2.226   4.491  10.866 -0.1985 -0.4097  0.0977
 6122SOL     OW29827   1.258   1.417   8.957 -0.0964  0.0937 -0.3261
 6122SOL    HW129828   1.201   1.379   8.890 -1.6434  0.5877  0.7020
 6122SOL    HW229829   1.332   1.357   8.957 -0.4186 -0.2915 -1.6988
 6123SOL     OW29830   0.455   4.519  12.599  0.0925 -0.7337 -0.7353
 6123SOL    HW129831   0.470   4.503  12.692 -1.2368  0.2220 -0.3499
 6123SOL    HW229832   0.485   4.610  12.592  0.2569 -0.8581 -1.6996
 6124SOL     OW29833   1.881   3.326  16.823 -0.2973  0.4293  0.3205
 6124SOL    HW129834   1.892   3.411  16.864 -0.8353  1.0391 -0.8043
 6124SOL    HW229835   1.824   3.350  16.750 -0.5622 -0.5784  0.1915
 6125SOL     OW29836   1.844   3.558  12.027 -0.5680  0.3067 -0.0569
 6125SOL    HW129837   1.863   3.651  12.015  0.6916  0.1169  0.4591
 6125SOL    HW229838   1.756   3.567  12.064 -0.5107 -0.3048  0.2321
 6126SOL     OW29839   2.100   2.432   8.057 -0.6545 -0.6136 -0.4056
 6126SOL    HW129840   2.027   2.495   8.061  0.2646  0.2302  2.7130
 6126SOL    HW229841   2.115   2.416   7.964 -0.0387  1.3388 -0.6425
 6127SOL     OW29842   2.770   4.236  15.446  0.0609 -0.1758  0.2380
 6127SOL    HW129843   2.708   4.201  15.509  0.4688  1.1332  1.3621
 6127SOL    HW229844   2.805   4.157  15.404 -1.2338 -1.4855  1.6442
 6128SOL     OW29845   2.421   4.697  14.118 -0.2549 -0.4040 -0.3084
 6128SOL    HW129846   2.488   4.637  14.150  2.6406  3.4145  0.7543
 6128SOL    HW229847   2.364   4.710  14.193 -1.0437 -1.1718 -0.7718
 6129SOL     OW29848   2.942   3.798   3.692 -0.3454 -0.4489 -0.2376
 6129SOL    HW129849   2.852   3.803   3.722 -0.1685 -0.7617  0.3485
 6129SOL    HW229850   2.978   3.827   3.776  0.3343 -0.8210 -0.3943
 6130SOL     OW29851   1.781   2.307  15.034  0.7455  0.2042 -0.0770
 6130SOL    HW129852   1.805   2.214  15.037  1.3521  0.2966 -2.1783
 6130SOL    HW229853   1.740   2.319  14.948 -0.6541 -0.2108  0.5260
 6131SOL     OW29854   4.176   4.392  17.178  0.1824 -0.3901 -0.5151
 6131SOL    HW129855   4.161   4.361  17.267  0.0068 -0.1058 -0.4465
 6131SOL    HW229856   4.089   4.424  17.155 -0.3641 -1.1424  0.4911
 6132SOL     OW29857   2.873   4.672   5.276  0.6212 -0.6511  0.0615
 6132SOL    HW129858   2.889   4.578   5.289  0.0271 -0.7213  0.2433
 6132SOL    HW229859   2.818   4.662   5.198  0.4840 -0.4405  0.1318
 6133SOL     OW29860   4.695   1.253   0.248  0.0183  0.2388  0.3793
 6133SOL    HW129861   0.016   1.320   0.198 -1.7433  1.5997  0.5715
 6133SOL    HW229862   0.020   1.226   0.326  0.6909  0.3493 -0.0155
 6134SOL     OW29863   2.629   3.948   9.996 -0.7318  0.2821 -0.2586
 6134SOL    HW129864   2.674   4.008   9.936 -1.3721  2.2439  1.2493
 6134SOL    HW229865   2.559   3.987  10.046  0.4747 -0.7072  2.2106
 6135SOL     OW29866   1.565   1.760   6.103 -0.2197 -0.2655 -0.1112
 6135SOL    HW129867   1.528   1.842   6.070  3.0873  1.3237  0.1887
 6135SOL    HW229868   1.661   1.767   6.100 -0.0308 -2.0794  2.3495
 6136SOL     OW29869   3.742   2.315  10.697  0.0441 -0.6293 -0.5555
 6136SOL    HW129870   3.659   2.359  10.676 -0.9778 -1.3630  1.8647
 6136SOL    HW229871   3.699   2.240  10.738 -0.6273 -0.6660 -1.3272
 6137SOL     OW29872   0.569   0.457   7.818 -0.7660 -0.0206 -0.3762
 6137SOL    HW129873   0.549   0.368   7.848  0.0033  0.6485  2.0638
 6137SOL    HW229874   0.508   0.506   7.874  0.2852  0.7220  0.1112
 6138SOL     OW29875   2.189   1.594   4.402  0.2754  0.1585 -0.6904
 6138SOL    HW129876   2.281   1.592   4.427  0.4186 -1.1862 -1.3018
 6138SOL    HW229877   2.173   1.501   4.385 -0.2392  0.2023 -0.4675
 6139SOL     OW29878   1.017   4.028   3.045  0.3337  0.3937 -0.2615
 6139SOL    HW129879   0.965   3.951   3.067  0.3874 -0.2664 -2.4159
 6139SOL    HW229880   1.040   4.010   2.954  0.5792  2.0421 -0.5229
 6140SOL     OW29881   3.010   1.123  10.990 -0.1211 -0.1647  0.1939
 6140SOL    HW129882   2.949   1.050  11.003  0.6258 -1.0830 -1.4991
 6140SOL    HW229883   2.957   1.192  10.951 -0.1436 -1.7133 -2.4718
 6141SOL     OW29884   4.698   2.067   7.281 -0.3355 -0.1564 -0.1216
 6141SOL    HW129885   0.027   2.146   7.274  0.1499 -0.5342 -0.6831
 6141SOL    HW229886   0.030   1.998   7.248 -0.5851 -0.1588 -0.5489
 6142SOL     OW29887   0.299   3.118   9.033  0.3013 -0.5199  0.4297
 6142SOL    HW129888   0.205   3.127   9.052 -0.2962  0.2343 -2.8169
 6142SOL    HW229889   0.322   3.211   9.038 -1.1130 -0.0396 -2.1030
 6143SOL     OW29890   1.997   0.741  10.873  0.4063 -0.4394  0.4787
 6143SOL    HW129891   1.932   0.670  10.872 -0.2665  0.1748  0.3802
 6143SOL    HW229892   1.995   0.762  10.780 -0.5331 -0.1733  0.5584
 6144SOL     OW29893   3.948   0.394  16.536  0.0081 -0.2953  0.0109
 6144SOL    HW129894   3.943   0.404  16.441 -2.3888  0.4254  0.2100
 6144SOL    HW229895   3.947   0.301  16.558  0.9812  0.0496  1.5748
 6145SOL     OW29896   3.398   2.325   1.484 -0.4306  0.2350 -0.5006
 6145SOL    HW129897   3.483   2.359   1.455  0.2183  0.2515  1.4329
 6145SOL    HW229898   3.417   2.260   1.551  1.6987 -0.1650 -1.4890
 6146SOL     OW29899   0.319   0.286   8.382  0.5488 -0.1401  0.1059
 6146SOL    HW129900   0.399   0.233   8.383  1.1783  0.7969 -0.1852
 6146SOL    HW229901   0.299   0.286   8.476  0.9978 -0.8332  0.2071
 6147SOL     OW29902   3.776   1.609   9.145  0.5696 -0.1999  0.7178
 6147SOL    HW129903   3.705   1.634   9.203 -0.1604  0.1569 -0.3175
 6147SOL    HW229904   3.851   1.610   9.205  0.0990 -0.2439  1.2970
 6148SOL     OW29905   4.161   2.742   8.654  0.0547  0.1183  0.0873
 6148SOL    HW129906   4.211   2.726   8.574  0.5254  0.8205  0.2421
 6148SOL    HW229907   4.205   2.694   8.725  1.4657  1.4206  0.0952
 6149SOL     OW29908   4.652   0.356   3.324  0.0402 -0.3150 -0.5243
 6149SOL    HW129909   4.682   0.301   3.397 -0.1807 -2.2549 -1.8847
 6149SOL    HW229910   4.621   0.283   3.270 -1.9306  0.6492 -0.6817
 6150SOL     OW29911   4.262   0.353   8.033  0.7084 -0.7571  0.7070
 6150SOL    HW129912   4.232   0.388   8.117  2.1543 -0.8500  1.2575
 6150SOL    HW229913   4.283   0.430   7.980 -2.2578 -0.6499 -0.3133
 6151SOL     OW29914   0.136   2.182  13.973 -0.3565  0.4748  0.5771
 6151SOL    HW129915   0.091   2.266  13.988  0.0698  0.5431  1.4887
 6151SOL    HW229916   0.156   2.157  14.063  2.4286  0.9300  0.0847
 6152SOL     OW29917   2.896   2.861   1.591 -0.1658  0.1115 -0.2687
 6152SOL    HW129918   2.976   2.814   1.615 -1.1437  0.1396  2.9835
 6152SOL    HW229919   2.946   2.941   1.574 -3.1455  1.6362 -1.9013
 6153SOL     OW29920   2.644   3.069   9.962 -0.3775  0.6535 -0.0400
 6153SOL    HW129921   2.671   3.000   9.900 -2.7726  0.3864 -0.7590
 6153SOL    HW229922   2.551   3.079   9.942 -0.6899  1.4451  1.8605
 6154SOL     OW29923   0.755   2.648   4.982  0.4387 -0.0970  0.0618
 6154SOL    HW129924   0.756   2.562   5.024  1.6009  0.5927  1.4873
 6154SOL    HW229925   0.787   2.698   5.058 -0.0491  0.9099 -0.3984
 6155SOL     OW29926   0.940   1.891   5.690 -0.0356  0.5728  0.0383
 6155SOL    HW129927   0.974   1.971   5.729  2.4840  0.9421 -2.9314
 6155SOL    HW229928   0.868   1.881   5.754  0.8180 -1.3230  0.7013
 6156SOL     OW29929   3.062   2.617   8.421 -0.6688 -0.3568  0.4009
 6156SOL    HW129930   3.148   2.596   8.384 -0.8240  1.0885 -0.8050
 6156SOL    HW229931   3.052   2.562   8.498  1.2810  1.1212  1.7399
 6157SOL     OW29932   1.833   2.502   3.010 -0.2351 -0.2352  0.3474
 6157SOL    HW129933   1.764   2.488   2.945  0.0356  1.0204 -0.2111
 6157SOL    HW229934   1.900   2.449   2.966 -0.5917  0.3595 -0.9371
 6158SOL     OW29935   3.904   4.230   7.444 -0.3561  0.3573  0.3850
 6158SOL    HW129936   3.968   4.168   7.480  0.2072  0.1560 -0.9741
 6158SOL    HW229937   3.849   4.267   7.514  1.4031  1.2429  1.2873
 6159SOL     OW29938   3.894   3.135   5.712 -0.6082  0.2518 -0.0808
 6159SOL    HW129939   3.978   3.179   5.695  0.0545 -0.6526  0.9231
 6159SOL    HW229940   3.905   3.053   5.663 -1.3444  0.8472 -1.2671
 6160SOL     OW29941   2.565   1.941   5.176 -0.6361  0.2027  0.2032
 6160SOL    HW129942   2.487   1.978   5.136 -0.5103  2.3945  1.9685
 6160SOL    HW229943   2.534   1.939   5.267 -1.9497 -0.3620 -0.2567
 6161SOL     OW29944   1.497   1.158   8.683  0.1472 -0.1609  0.4226
 6161SOL    HW129945   1.478   1.091   8.617  0.1134 -1.1892  1.4757
 6161SOL    HW229946   1.586   1.189   8.664 -1.1171  1.2515 -3.2416
 6162SOL     OW29947   1.072   3.590   4.715  0.5320  0.6023 -0.0731
 6162SOL    HW129948   1.049   3.651   4.785 -0.7386 -0.1839  0.2017
 6162SOL    HW229949   1.011   3.521   4.742 -0.2108  2.0853  2.0880
 6163SOL     OW29950   0.660   0.084   5.072  0.4197  0.3393  0.2301
 6163SOL    HW129951   0.572   0.077   5.108  1.1305 -1.3062  1.6401
 6163SOL    HW229952   0.640   0.143   4.999 -0.4207 -0.3763 -0.1164
 6164SOL     OW29953   2.991   2.844   7.044  0.1572 -0.1006  0.0374
 6164SOL    HW129954   3.086   2.837   7.055 -0.0138 -1.1476  0.9405
 6164SOL    HW229955   2.969   2.751   7.052  1.8241 -0.4660  0.3609
 6165SOL     OW29956   0.568   4.285   8.374  0.1640  0.2622 -0.0070
 6165SOL    HW129957   0.475   4.270   8.359 -0.1210  2.5069 -0.4252
 6165SOL    HW229958   0.573   4.380   8.379  3.2988  0.1245 -0.7192
 6166SOL     OW29959   1.349   0.294   8.458  0.2985 -0.1615 -0.5106
 6166SOL    HW129960   1.373   0.369   8.512 -0.9859 -0.6402  0.7527
 6166SOL    HW229961   1.384   0.320   8.373  0.5133  2.7593  0.4751
 6167SOL     OW29962   0.321   2.977   4.936  0.0314  0.7508 -0.3677
 6167SOL    HW129963   0.300   3.022   4.855 -0.4430  1.2290  0.0156
 6167SOL    HW229964   0.349   2.890   4.906 -0.0731  0.1388  1.2544
 6168SOL     OW29965   0.285   1.397   5.984 -0.3554  0.2139  0.2780
 6168SOL    HW129966   0.331   1.351   6.055  0.5670  0.5806 -0.0863
 6168SOL    HW229967   0.220   1.440   6.040 -1.7781 -0.8054 -0.6025
 6169SOL     OW29968   0.421   2.346   5.696 -0.7538  0.0695  0.7073
 6169SOL    HW129969   0.350   2.410   5.685 -0.2254  0.2867 -1.4251
 6169SOL    HW229970   0.449   2.352   5.787 -2.0758  2.5886  0.9518
 6170SOL     OW29971   3.501   1.509   3.699  0.4503 -0.1581 -0.1884
 6170SOL    HW129972   3.427   1.507   3.760  0.4388 -0.2256 -0.2048
 6170SOL    HW229973   3.570   1.463   3.747 -0.1684  1.1501  1.9723
 6171SOL     OW29974   1.485   0.408   1.127  0.2500 -0.2137 -0.4664
 6171SOL    HW129975   1.436   0.362   1.195  1.4028  0.6827  0.9469
 6171SOL    HW229976   1.563   0.353   1.125 -0.0595 -0.6570 -0.4078
 6172SOL     OW29977   3.417   1.201   4.243  0.4298 -0.2883  0.1254
 6172SOL    HW129978   3.483   1.151   4.194  0.2271  1.0544 -1.4810
 6172SOL    HW229979   3.400   1.131   4.307  1.1309 -0.2218  0.3877
 6173SOL     OW29980   3.990   2.842   8.859  0.1308  0.6803 -0.2020
 6173SOL    HW129981   4.047   2.808   8.789 -0.1871 -1.0424  0.3828
 6173SOL    HW229982   4.040   2.808   8.934 -4.0211  0.7832  2.6044
 6174SOL     OW29983   2.062   3.674   8.388 -0.4359  0.4807  0.7164
 6174SOL    HW129984   1.996   3.621   8.433 -0.2217  1.1090  1.7659
 6174SOL    HW229985   2.051   3.750   8.445  0.4044  2.0425 -1.1810
 6175SOL     OW29986   1.504   3.866   8.743 -0.0411 -0.0568 -0.2779
 6175SOL    HW129987   1.454   3.787   8.727 -0.8475  0.6637 -1.2440
 6175SOL    HW229988   1.588   3.851   8.699 -1.2647  0.4000 -2.7544
 6176SOL     OW29989   3.050   2.236   2.076 -0.2519 -0.1939 -0.1743
 6176SOL    HW129990   2.987   2.303   2.049  1.5349  0.9256 -1.5683
 6176SOL    HW229991   3.110   2.240   2.002 -0.0851  0.6140  0.0061
 6177SOL     OW29992   4.088   2.305   7.181  0.0729 -0.4511 -0.7382
 6177SOL    HW129993   4.148   2.372   7.214 -1.0692  1.0024 -1.6032
 6177SOL    HW229994   4.104   2.320   7.088  0.0120  1.4329 -0.4298
 6178SOL     OW29995   3.895   4.500   9.559  0.5666  0.2052  0.3855
 6178SOL    HW129996   3.825   4.436   9.572  2.5187 -1.9449  0.2170
 6178SOL    HW229997   3.859   4.577   9.603  0.9993 -0.4103  1.8061
 6179SOL     OW29998   2.942   4.539   7.492 -0.1773 -0.1160  0.1948
 6179SOL    HW129999   3.003   4.466   7.493 -0.8949 -0.7264 -0.9758
 6179SOL    HW230000   2.866   4.499   7.450 -0.0154  0.1101 -0.3100
 6180SOL     OW30001   3.370   3.165  14.516  0.6173  0.4999 -0.1684
 6180SOL    HW130002   3.346   3.210  14.436  0.5606 -2.6938 -1.9624
 6180SOL    HW230003   3.461   3.151  14.490  0.4986 -0.6209  0.0129
 6181SOL     OW30004   3.162   3.636   6.130  0.0490  0.2920  0.0119
 6181SOL    HW130005   3.149   3.591   6.213 -0.0340 -0.1578 -0.2447
 6181SOL    HW230006   3.085   3.693   6.127 -0.0902  0.1569  1.0494
 6182SOL     OW30007   2.729   1.238  15.182  0.4128 -0.0131  0.0259
 6182SOL    HW130008   2.785   1.183  15.128  0.0378  0.8240 -1.2077
 6182SOL    HW230009   2.748   1.326  15.151 -0.4090  0.0274 -0.3773
 6183SOL     OW30010   0.234   3.992   9.132  0.1547 -0.1422 -0.4786
 6183SOL    HW130011   0.216   4.022   9.043  5.0805 -0.9874 -1.7633
 6183SOL    HW230012   0.203   3.901   9.130 -1.2730  0.3739 -1.4884
 6184SOL     OW30013   3.525   4.118   7.085 -0.1426  0.3905  0.0459
 6184SOL    HW130014   3.459   4.050   7.094  0.2771  0.2932  2.1889
 6184SOL    HW230015   3.576   4.118   7.165 -0.8157  0.4645  0.4710
 6185SOL     OW30016   1.937   2.714   9.523  0.4875  0.0440  0.0930
 6185SOL    HW130017   1.888   2.660   9.462  3.7316 -1.8025 -0.8575
 6185SOL    HW230018   1.984   2.652   9.578  0.4194 -0.2774 -0.2113
 6186SOL     OW30019   1.647   1.100   1.303  0.6167 -0.6982 -0.0837
 6186SOL    HW130020   1.629   1.183   1.257  1.9697 -0.8458 -0.8493
 6186SOL    HW230021   1.739   1.114   1.325  0.8159 -0.8898 -0.7991
 6187SOL     OW30022   2.717   0.945   2.057 -0.0915  0.8066  0.3165
 6187SOL    HW130023   2.662   0.876   2.093 -0.9433  1.0197 -0.5680
 6187SOL    HW230024   2.661   0.972   1.984 -0.1753  2.0799  0.8543
 6188SOL     OW30025   3.101   2.764   8.111 -0.0650  0.4630 -0.2588
 6188SOL    HW130026   3.165   2.767   8.039  1.6993  3.2958  1.4521
 6188SOL    HW230027   3.156   2.733   8.183  0.1537  1.3436 -0.0452
 6189SOL     OW30028   0.690   2.904   4.121  0.3784  0.2663  0.5854
 6189SOL    HW130029   0.647   2.989   4.130  1.6383  1.1617 -1.7013
 6189SOL    HW230030   0.614   2.854   4.092 -0.1243 -0.5370  3.3360
 6190SOL     OW30031   4.177   4.369  12.955  0.9551  0.0478  0.1105
 6190SOL    HW130032   4.159   4.296  12.896 -1.4199 -0.5411  1.6026
 6190SOL    HW230033   4.121   4.355  13.031  2.1492 -0.0731  0.9847
 6191SOL     OW30034   3.459   1.323   4.824  0.5456 -0.5582  0.0813
 6191SOL    HW130035   3.459   1.270   4.744 -1.9482 -0.4881  0.0389
 6191SOL    HW230036   3.476   1.255   4.889 -0.4512  0.2616  1.1724
 6192SOL     OW30037   2.573   1.373   8.191  0.6211 -0.4737 -0.2283
 6192SOL    HW130038   2.619   1.398   8.111 -1.7772 -0.5309 -1.6174
 6192SOL    HW230039   2.528   1.455   8.210 -0.2836 -1.0699  0.1858
 6193SOL     OW30040   3.166   4.038   8.954 -0.1566  0.1978 -0.1258
 6193SOL    HW130041   3.169   3.997   9.040  0.0831 -1.8879 -1.1353
 6193SOL    HW230042   3.226   4.113   8.956  0.0010  0.0533  0.5127
 6194SOL     OW30043   0.407   0.015  12.327  0.2871  0.1663 -0.2241
 6194SOL    HW130044   0.401   0.067  12.407 -0.6119  0.0938 -0.2464
 6194SOL    HW230045   0.469   4.675  12.360 -0.2539  0.0023  0.4594
 6195SOL     OW30046   0.194   0.038   7.846 -0.1133 -0.1298  0.3044
 6195SOL    HW130047   0.257   0.005   7.911  1.4550 -1.2266 -1.7771
 6195SOL    HW230048   0.116   4.722   7.884 -1.8443  2.6687 -0.3138
 6196SOL     OW30049   2.932   2.534   1.576 -0.6043 -0.2054 -0.4182
 6196SOL    HW130050   2.938   2.440   1.597  2.7574  0.1166  0.0525
 6196SOL    HW230051   3.025   2.555   1.586 -0.7684  1.1635 -1.8396
 6197SOL     OW30052   2.616   3.158   2.209 -0.1450  0.3803  0.0427
 6197SOL    HW130053   2.657   3.149   2.124  1.3738 -0.0410  0.8200
 6197SOL    HW230054   2.523   3.151   2.189 -0.5732 -0.3346  2.1930
 6198SOL     OW30055   1.277   3.434   4.122  0.2891  0.8467  0.4650
 6198SOL    HW130056   1.313   3.494   4.057  1.5970 -3.0986 -2.4710
 6198SOL    HW230057   1.355   3.422   4.176 -0.3935  0.6140  1.4019
 6199SOL     OW30058   2.115   1.041   6.830  0.5218 -0.2521  0.5753
 6199SOL    HW130059   2.157   1.087   6.903  2.3676 -2.4852  0.9409
 6199SOL    HW230060   2.129   0.952   6.864  1.4046  0.1471  1.2661
 6200SOL     OW30061   3.416   1.095   4.684  0.1366 -0.3799  0.7359
 6200SOL    HW130062   3.507   1.070   4.666  0.2415  1.1426 -0.8199
 6200SOL    HW230063   3.382   1.054   4.605  0.9122 -0.7117  0.5716
 6201SOL     OW30064   1.638   0.624  14.273  0.0626 -0.4462 -1.0579
 6201SOL    HW130065   1.689   0.703  14.256  0.0952 -0.8120 -2.6843
 6201SOL    HW230066   1.709   0.564  14.297 -0.3868 -0.0240  1.2857
 6202SOL     OW30067   2.358   3.190  14.388 -0.0806 -0.7086 -0.1758
 6202SOL    HW130068   2.438   3.239  14.371 -0.4528 -0.3615 -0.9184
 6202SOL    HW230069   2.382   3.121  14.450 -3.7188 -2.0834 -0.2561
 6203SOL     OW30070   0.030   1.097   6.401  0.8371  0.1383  0.4150
 6203SOL    HW130071   0.032   1.129   6.311  2.2565 -0.8864  0.0935
 6203SOL    HW230072   4.665   1.120   6.426  0.4639 -0.4022 -0.4145
 6204SOL     OW30073   3.218   4.277   2.418 -0.1067 -0.2476  0.3006
 6204SOL    HW130074   3.139   4.229   2.393 -0.4158  0.3307  0.1802
 6204SOL    HW230075   3.272   4.264   2.340 -0.4281  3.5464 -0.5314
 6205SOL     OW30076   0.098   0.680  10.623  0.5230  0.2612 -0.0686
 6205SOL    HW130077   0.127   0.720  10.705 -0.3079  0.1104  0.3007
 6205SOL    HW230078   0.177   0.629  10.604  0.8020  0.0073  1.8335
 6206SOL     OW30079   1.101   2.634  16.074  0.1202  0.4865  0.0430
 6206SOL    HW130080   1.149   2.552  16.070  0.0689  0.4809 -0.4457
 6206SOL    HW230081   1.035   2.606  16.010 -0.0584 -0.0827  0.4697
 6207SOL     OW30082   2.426   4.122  17.348  0.4573 -0.1389  0.3331
 6207SOL    HW130083   2.353   4.179  17.322 -0.5633 -1.5314  0.1044
 6207SOL    HW230084   2.419   4.067  17.269  2.0939 -0.1163  0.1716
 6208SOL     OW30085   1.206   0.418   6.485  0.3515 -0.2773  0.0943
 6208SOL    HW130086   1.239   0.498   6.445  0.3610 -0.0235  0.6046
 6208SOL    HW230087   1.229   0.429   6.578 -0.5133  0.3442  0.2339
 6209SOL     OW30088   1.487   2.803   3.604  0.5035  0.2190  0.1853
 6209SOL    HW130089   1.528   2.885   3.631 -1.4713  1.3120 -0.1688
 6209SOL    HW230090   1.398   2.812   3.637 -0.1229 -1.1162 -1.1323
 6210SOL     OW30091   2.601   1.349   9.506  0.0102  0.0195  0.6619
 6210SOL    HW130092   2.627   1.317   9.592 -0.8033 -1.5364  0.3266
 6210SOL    HW230093   2.620   1.443   9.512 -0.2931  0.0843  0.5928
 6211SOL     OW30094   0.693   4.556   3.231 -0.4503 -0.2387 -0.6056
 6211SOL    HW130095   0.646   4.509   3.300 -0.1604  1.5844  0.8397
 6211SOL    HW230096   0.625   4.619   3.206  0.3938  0.4399 -1.1772
 6212SOL     OW30097   4.280   3.436   2.641 -0.0922  0.2053  0.3867
 6212SOL    HW130098   4.199   3.386   2.649 -0.8056  1.4188  0.8395
 6212SOL    HW230099   4.351   3.372   2.630 -0.1855  0.1395  0.1758
 6213SOL     OW30100   4.394   0.308   7.240  0.7523  0.6977 -0.0724
 6213SOL    HW130101   4.317   0.354   7.274 -0.1293  0.5977 -1.9116
 6213SOL    HW230102   4.386   0.236   7.302  1.4144  0.6423 -0.0580
 6214SOL     OW30103   4.050   0.061   6.016  0.3303  0.4864 -0.1578
 6214SOL    HW130104   4.088   4.712   5.968  0.6929  0.2000  0.5805
 6214SOL    HW230105   4.114   0.081   6.083  0.3533  1.2651 -0.4046
 6215SOL     OW30106   1.941   4.694   8.157 -0.2342 -0.5750  0.0666
 6215SOL    HW130107   1.890   4.687   8.238 -1.8926  1.4750 -0.7871
 6215SOL    HW230108   1.984   4.610   8.141 -0.4941 -0.9185  1.2167
 6216SOL     OW30109   4.523   4.634   6.472  0.4190  0.8522 -0.4528
 6216SOL    HW130110   4.455   4.567   6.480  0.7395  0.4903 -0.8117
 6216SOL    HW230111   4.482   4.714   6.505  0.5396  0.9326 -0.4989
 6217SOL     OW30112   0.296   4.542  13.729 -0.9059 -0.1575 -0.1603
 6217SOL    HW130113   0.358   4.562  13.658  1.1553 -0.6823  1.4777
 6217SOL    HW230114   0.348   4.573  13.803 -1.6684 -0.9883  0.7135
 6218SOL     OW30115   3.261   1.804   2.428  0.3355  0.1054 -0.4894
 6218SOL    HW130116   3.239   1.724   2.380 -0.4749 -0.8163  1.4256
 6218SOL    HW230117   3.190   1.859   2.397  0.3436  1.6366  2.1711
 6219SOL     OW30118   3.465   3.910  10.885  1.0881 -0.3409  0.7351
 6219SOL    HW130119   3.542   3.960  10.914 -0.7878  1.8136  2.0728
 6219SOL    HW230120   3.456   3.872  10.972  2.2138 -0.7723  0.6551
 6220SOL     OW30121   4.629   4.676   2.840 -0.4195 -0.2453  0.0292
 6220SOL    HW130122   4.568   4.667   2.913 -0.4353 -0.4410 -0.0087
 6220SOL    HW230123   4.574   4.690   2.764 -0.8529 -2.1554 -0.0147
 6221SOL     OW30124   1.041   3.304  13.237 -0.8890  0.0213  0.1362
 6221SOL    HW130125   1.099   3.279  13.309  0.6744 -1.6116 -1.7057
 6221SOL    HW230126   1.034   3.222  13.188  3.2116 -1.2458  1.6761
 6222SOL     OW30127   3.000   3.415   6.946 -0.4706  0.3891 -0.2886
 6222SOL    HW130128   2.967   3.448   7.030 -1.2221 -3.4608  0.9562
 6222SOL    HW230129   3.066   3.358   6.986 -0.1496  0.0725 -1.2789
 6223SOL     OW30130   1.969   2.155   9.581  0.5783  0.1150  0.0955
 6223SOL    HW130131   2.018   2.193   9.509 -1.0856 -0.0671 -1.1167
 6223SOL    HW230132   1.882   2.195   9.577  1.1603  1.3183 -0.3804
 6224SOL     OW30133   2.779   2.382   9.323  0.7097  0.6762 -0.3706
 6224SOL    HW130134   2.853   2.326   9.347 -0.5920 -0.3565  1.2088
 6224SOL    HW230135   2.814   2.445   9.260  0.8279 -1.7288 -2.6710
 6225SOL     OW30136   0.375   2.120   5.956 -0.0597 -0.2537 -0.4850
 6225SOL    HW130137   0.427   2.042   5.936  2.7488  1.3471  0.4929
 6225SOL    HW230138   0.419   2.158   6.032 -1.2962  3.0918 -1.4363
 6226SOL     OW30139   3.749   1.282   3.399 -0.1128  0.2326 -0.6214
 6226SOL    HW130140   3.724   1.374   3.397  0.9564  0.5116 -1.4739
 6226SOL    HW230141   3.842   1.289   3.376  0.0750  1.0781  0.3776
 6227SOL     OW30142   1.249   0.571   9.310 -0.1118 -0.4342  0.3798
 6227SOL    HW130143   1.246   0.550   9.403  0.0926 -1.0702  0.2443
 6227SOL    HW230144   1.317   0.507   9.289 -2.8768 -3.3862  0.5110
 6228SOL     OW30145   2.704   0.814  12.301  0.1856  0.8747 -0.3808
 6228SOL    HW130146   2.624   0.783  12.344  0.6575 -2.2152 -1.7379
 6228SOL    HW230147   2.759   0.741  12.329  1.1710  1.9473  0.4439
 6229SOL     OW30148   0.748   4.348   6.397  0.3565 -0.1382  0.6079
 6229SOL    HW130149   0.688   4.351   6.322  0.0077  0.2996  0.8998
 6229SOL    HW230150   0.689   4.367   6.470  1.9432 -0.6742  2.0270
 6230SOL     OW30151   2.080   3.068   6.743  0.6697  0.0689  0.0458
 6230SOL    HW130152   2.028   3.082   6.664 -2.4760  1.1892  2.3304
 6230SOL    HW230153   2.168   3.056   6.707  1.7650  1.2667  2.3139
 6231SOL     OW30154   1.987   2.214   2.448 -0.2614 -0.0584 -0.2090
 6231SOL    HW130155   2.063   2.267   2.472 -1.3338  2.0012 -1.3131
 6231SOL    HW230156   1.934   2.284   2.409  2.3842  1.5996 -0.7689
 6232SOL     OW30157   3.535   3.015   6.013 -0.0801  0.1036  0.0459
 6232SOL    HW130158   3.573   3.001   6.099  0.3570 -1.1743 -0.3525
 6232SOL    HW230159   3.446   3.038   6.039  0.3289  4.1333 -2.1531
 6233SOL     OW30160   0.434   4.611   5.595  0.1168  0.9910 -0.7898
 6233SOL    HW130161   0.489   4.648   5.664 -0.0715 -0.7486  0.3052
 6233SOL    HW230162   0.364   4.676   5.602  1.3900  2.1414  0.9941
 6234SOL     OW30163   3.188   4.242   2.911  0.2630  0.3001  0.3121
 6234SOL    HW130164   3.239   4.170   2.875  0.2063  0.0137  0.7996
 6234SOL    HW230165   3.095   4.222   2.899 -0.1139  2.1437  0.0913
 6235SOL     OW30166   1.070   3.650   2.488  0.2790 -0.0866 -0.8644
 6235SOL    HW130167   1.073   3.740   2.519  0.7704 -0.6673  0.8095
 6235SOL    HW230168   1.060   3.652   2.393 -1.3300 -0.3972 -0.7037
 6236SOL     OW30169   0.918   3.697  11.431 -0.2228 -0.3775  0.6855
 6236SOL    HW130170   0.962   3.760  11.487  1.0460 -2.8662  2.4748
 6236SOL    HW230171   0.975   3.621  11.420 -1.0636 -0.7812 -0.9541
 6237SOL     OW30172   3.493   3.705  11.413 -0.0256  0.0213 -0.0913
 6237SOL    HW130173   3.552   3.720  11.487  0.8854 -0.0932 -0.8030
 6237SOL    HW230174   3.447   3.622  11.427  1.1555 -0.7383 -0.7178
 6238SOL     OW30175   3.199   3.638   8.373 -0.2461  0.1951 -0.2618
 6238SOL    HW130176   3.145   3.602   8.443 -0.2977  0.0351 -0.3845
 6238SOL    HW230177   3.144   3.701   8.327  0.0276  0.0741 -0.7602
 6239SOL     OW30178   0.534   2.597   4.547 -0.1007 -0.6438  0.4053
 6239SOL    HW130179   0.537   2.692   4.560  1.7621 -0.4712 -1.3537
 6239SOL    HW230180   0.559   2.572   4.636 -1.0499  0.1353  0.8976
 6240SOL     OW30181   4.221   4.308   7.797 -0.0932  0.0451  0.0724
 6240SOL    HW130182   4.146   4.263   7.757 -1.5471  1.5607  1.0790
 6240SOL    HW230183   4.235   4.263   7.880  1.4255 -1.4378 -0.9891
 6241SOL     OW30184   2.191   4.255   8.873 -0.3600 -0.4600  0.2700
 6241SOL    HW130185   2.239   4.322   8.823 -0.2020 -0.5019  0.3639
 6241SOL    HW230186   2.264   4.209   8.914 -2.4804 -3.0124  1.1580
 6242SOL     OW30187   2.616   2.184   4.785 -0.2988  0.0334 -0.4157
 6242SOL    HW130188   2.562   2.258   4.815 -1.0222 -0.7975  0.3372
 6242SOL    HW230189   2.673   2.190   4.862 -3.3819  1.2613  1.7847
 6243SOL     OW30190   2.227   3.994   6.257 -0.6457  0.4345 -0.3581
 6243SOL    HW130191   2.290   4.066   6.261 -0.1807 -0.2026  3.5534
 6243SOL    HW230192   2.243   3.955   6.343 -1.4468  0.5698 -0.1499
 6244SOL     OW30193   4.578   4.388   6.808  0.3608 -0.4343 -0.4672
 6244SOL    HW130194   4.602   4.296   6.817  1.6348  0.0554  1.0032
 6244SOL    HW230195   4.624   4.412   6.727  0.5582  0.4953 -0.0759
 6245SOL     OW30196   4.574   3.070   3.123  0.7481  0.3789 -0.0356
 6245SOL    HW130197   4.620   2.994   3.089  0.5101 -0.0529  0.6059
 6245SOL    HW230198   4.521   3.016   3.181  0.5795  0.4129 -0.1582
 6246SOL     OW30199   2.329   1.496  16.043  0.3524 -0.8769 -1.3983
 6246SOL    HW130200   2.361   1.581  16.074  0.5967 -1.5273  0.1384
 6246SOL    HW230201   2.338   1.441  16.121 -2.1534  1.1907  0.3388
 6247SOL     OW30202   3.624   3.144  14.394  0.1592 -0.3436  0.0727
 6247SOL    HW130203   3.717   3.133  14.374 -0.2173 -0.0155 -1.8403
 6247SOL    HW230204   3.599   3.148  14.302  1.3766 -1.1093 -0.2877
 6248SOL     OW30205   0.275   3.876   5.797 -0.4829  0.0983  0.4240
 6248SOL    HW130206   0.203   3.930   5.829 -0.1266  1.6041 -1.2811
 6248SOL    HW230207   0.278   3.884   5.701 -3.5772 -0.1037  0.3243
 6249SOL     OW30208   3.256   3.677   2.752  0.8447  0.0820 -0.5233
 6249SOL    HW130209   3.177   3.624   2.759  1.5642 -0.8020  0.6860
 6249SOL    HW230210   3.253   3.706   2.660  1.1517  1.2241 -0.1691
 6250SOL     OW30211   2.853   1.785   3.759  0.2516  0.6257 -0.2136
 6250SOL    HW130212   2.929   1.825   3.802 -0.6685 -1.7808  3.7334
 6250SOL    HW230213   2.894   1.700   3.744 -2.5558 -1.0193  1.4402
 6251SOL     OW30214   0.515   1.161  10.131  0.0105 -0.2504 -0.5017
 6251SOL    HW130215   0.558   1.244  10.146 -0.5734 -0.3949  1.9321
 6251SOL    HW230216   0.426   1.194  10.145  0.4983  0.9167 -0.2135
 6252SOL     OW30217   1.612   1.409   8.149 -0.0919 -0.2744  0.5756
 6252SOL    HW130218   1.602   1.428   8.242 -3.3899 -0.1315  0.1955
 6252SOL    HW230219   1.592   1.495   8.112  1.2454 -0.1842  0.0690
 6253SOL     OW30220   4.462   2.162  13.590 -0.4780 -0.0722 -0.1307
 6253SOL    HW130221   4.533   2.122  13.641 -0.0205  0.9349  0.0219
 6253SOL    HW230222   4.486   2.118  13.509  0.5261  1.3018 -0.5886
 6254SOL     OW30223   3.414   4.098   9.644  0.2731 -0.2102  0.4841
 6254SOL    HW130224   3.412   4.002   9.650  0.3324 -0.2279  0.1905
 6254SOL    HW230225   3.386   4.119   9.733 -0.5853  0.9456 -0.0619
 6255SOL     OW30226   0.188   0.167   6.732  0.5746  0.1565  0.8879
 6255SOL    HW130227   0.156   0.251   6.700 -1.2047 -0.0889  2.0510
 6255SOL    HW230228   0.282   0.171   6.747  0.7595  0.8784 -0.4380
 6256SOL     OW30229   2.213   2.929   7.597  0.5945 -0.4579  0.3864
 6256SOL    HW130230   2.192   2.836   7.604 -0.3150 -0.3615 -1.1437
 6256SOL    HW230231   2.279   2.929   7.667  1.5642  0.0138 -0.5370
 6257SOL     OW30232   2.195   2.689   3.802  0.0222 -0.4766 -0.0048
 6257SOL    HW130233   2.154   2.662   3.720  1.4249  0.3840 -0.9754
 6257SOL    HW230234   2.287   2.673   3.782 -0.2267  0.0683 -1.5316
 6258SOL     OW30235   4.417   2.405  15.238  0.4797  0.1546  0.6633
 6258SOL    HW130236   4.432   2.497  15.260 -0.4576  0.9503 -2.0888
 6258SOL    HW230237   4.392   2.403  15.146  0.3869  0.2312  0.6877
 6259SOL     OW30238   1.413   1.086   3.439  0.0961 -0.4088 -0.2873
 6259SOL    HW130239   1.502   1.091   3.404 -0.1961  0.8587 -0.8522
 6259SOL    HW230240   1.423   1.100   3.533 -0.3340 -3.3249  0.1851
 6260SOL     OW30241   1.002   2.376   7.450  0.1577  0.0362 -0.0265
 6260SOL    HW130242   1.049   2.314   7.506  0.9393  0.7302  0.0890
 6260SOL    HW230243   0.915   2.337   7.449  0.2317 -0.1727  1.4989
 6261SOL     OW30244   2.304   3.190  17.379  0.2618 -0.2777  0.0476
 6261SOL    HW130245   2.255   3.174  17.298  3.7127  1.1321 -2.3507
 6261SOL    HW230246   2.245   3.252  17.422 -0.1807 -1.3584  1.0036
 6262SOL     OW30247   3.850   0.406  12.787  0.0996 -0.4895 -0.3453
 6262SOL    HW130248   3.899   0.365  12.716  2.2039 -0.0918  0.9083
 6262SOL    HW230249   3.762   0.403  12.748  0.2391  2.1482 -0.8790
 6263SOL     OW30250   1.577   0.851   3.266 -0.4197  0.3986  0.6856
 6263SOL    HW130251   1.483   0.848   3.251 -0.9206  0.9545  3.7375
 6263SOL    HW230252   1.566   0.926   3.325  0.0487  0.0675  1.1957
 6264SOL     OW30253   2.978   2.197   9.006  0.2261 -0.2171 -0.2146
 6264SOL    HW130254   2.893   2.154   9.007  0.6125 -0.9634 -0.0843
 6264SOL    HW230255   3.027   2.119   9.030  1.0049  0.1251 -0.7012
 6265SOL     OW30256   2.082   0.567   0.876 -0.1324  0.3283  0.2185
 6265SOL    HW130257   2.104   0.604   0.962 -1.8205  2.0687 -0.0936
 6265SOL    HW230258   2.095   0.473   0.886 -2.4033 -0.1148 -0.9673
 6266SOL     OW30259   2.119   2.143   8.094 -0.7527 -0.4909  0.5546
 6266SOL    HW130260   2.060   2.191   8.036  0.9447 -0.2040 -0.9474
 6266SOL    HW230261   2.136   2.212   8.158 -2.0517  0.2578  0.0672
 6267SOL     OW30262   2.295   2.107   9.871  0.3538 -0.0465  0.8493
 6267SOL    HW130263   2.329   2.017   9.875 -0.7499 -0.4083  1.8245
 6267SOL    HW230264   2.306   2.133   9.779 -2.0156  0.2300  0.6654
 6268SOL     OW30265   2.819   1.648   2.619  0.3906  0.1240  0.6049
 6268SOL    HW130266   2.726   1.637   2.638  0.6253 -5.0410 -1.0354
 6268SOL    HW230267   2.833   1.564   2.574  1.2335  1.2124 -1.1570
 6269SOL     OW30268   3.454   2.230  14.712 -0.4889 -0.1460 -0.1916
 6269SOL    HW130269   3.399   2.267  14.643 -0.7938 -0.7952 -0.2973
 6269SOL    HW230270   3.508   2.159  14.677  0.7192  1.2965 -1.2581
 6270SOL     OW30271   2.375   2.056   3.369  0.5572  0.1155 -0.0074
 6270SOL    HW130272   2.451   2.114   3.379 -0.7901  1.7153  1.0430
 6270SOL    HW230273   2.300   2.114   3.356 -2.1181 -3.3862 -0.0281
 6271SOL     OW30274   3.709   1.876   2.643  0.2806 -0.0300 -0.9646
 6271SOL    HW130275   3.625   1.921   2.654  0.8664  0.7505  0.2751
 6271SOL    HW230276   3.732   1.837   2.727 -0.4549  0.0211 -0.7461
 6272SOL     OW30277   3.256   0.763   5.161  0.8641  0.1561 -0.1110
 6272SOL    HW130278   3.296   0.720   5.237  1.1419 -0.0227 -0.3592
 6272SOL    HW230279   3.167   0.762   5.196  0.4033 -0.3487 -1.3026
 6273SOL     OW30280   4.640   2.580   9.827  0.5525 -0.1464  0.1196
 6273SOL    HW130281   4.678   2.541   9.906  0.6370 -0.0277  0.1367
 6273SOL    HW230282   4.577   2.512   9.804  0.1485  0.5091 -0.7339
 6274SOL     OW30283   2.329   3.172   4.981 -0.0622 -0.2133 -0.3969
 6274SOL    HW130284   2.416   3.172   5.021 -0.3960  1.0514  0.3300
 6274SOL    HW230285   2.278   3.118   5.041 -1.0838  1.5393  0.3158
 6275SOL     OW30286   1.741   4.628   6.805  0.6203  0.0041 -0.5848
 6275SOL    HW130287   1.735   4.709   6.754 -3.6261  0.5442  0.8067
 6275SOL    HW230288   1.784   4.564   6.747  1.2459 -2.1709  2.2163
 6276SOL     OW30289   3.870   3.538   3.665 -0.4708 -0.0632 -0.3136
 6276SOL    HW130290   3.803   3.470   3.668  0.4892 -1.0322 -0.8395
 6276SOL    HW230291   3.945   3.488   3.634 -0.2797 -0.6578  1.1463
 6277SOL     OW30292   0.967   0.714  12.043 -0.0148 -0.4611  0.2784
 6277SOL    HW130293   0.935   0.774  12.110  1.1249 -0.5315  0.8928
 6277SOL    HW230294   1.059   0.707  12.071 -0.3651 -0.6173  1.3955
 6278SOL     OW30295   4.519   4.507  14.221  0.2110  0.2599  0.1664
 6278SOL    HW130296   4.449   4.570  14.202  0.0840  0.1758  0.3635
 6278SOL    HW230297   4.531   4.472  14.133  2.3678 -1.5333  1.1780
 6279SOL     OW30298   4.387   1.111   8.767  0.5861  0.0161  0.6106
 6279SOL    HW130299   4.346   1.126   8.681  0.4423  1.9375  1.0137
 6279SOL    HW230300   4.390   1.198   8.806 -1.8785  0.0297  0.7683
 6280SOL     OW30301   2.925   0.073  14.383 -0.5837 -0.1138 -0.0682
 6280SOL    HW130302   2.943   0.059  14.476  0.5964  1.6693 -0.0239
 6280SOL    HW230303   2.891   4.710  14.362  0.6457 -1.0577  1.9024
 6281SOL     OW30304   2.659   0.668   8.981 -0.4601 -0.5853  0.8245
 6281SOL    HW130305   2.754   0.676   8.974 -0.2951 -1.0673  2.5526
 6281SOL    HW230306   2.639   0.755   9.015 -0.1104 -1.4012  3.1256
 6282SOL     OW30307   2.324   1.192   8.410 -0.0784 -0.3779  0.0563
 6282SOL    HW130308   2.342   1.126   8.478  0.3757 -0.8521 -0.5223
 6282SOL    HW230309   2.366   1.148   8.336  1.4998 -0.2052  0.8247
 6283SOL     OW30310   4.302   3.340  15.686  0.4867  0.5432  0.2705
 6283SOL    HW130311   4.296   3.429  15.719 -1.9230 -0.3075  2.0910
 6283SOL    HW230312   4.217   3.311  15.721  0.1113  0.0934 -0.9929
 6284SOL     OW30313   2.852   0.268   7.099 -0.2565  0.3516  0.2583
 6284SOL    HW130314   2.761   0.240   7.108  0.5608 -1.8858  1.6774
 6284SOL    HW230315   2.899   0.221   7.168  1.8457  0.8378 -0.8571
 6285SOL     OW30316   0.402   3.340   2.795 -0.2630 -0.1632  0.5980
 6285SOL    HW130317   0.440   3.262   2.755 -0.3756 -0.0956  0.3592
 6285SOL    HW230318   0.396   3.312   2.886  0.6086  0.4964  0.8747
 6286SOL     OW30319   0.003   4.510   8.490  0.0941  0.2892  0.4221
 6286SOL    HW130320   0.068   4.473   8.549  1.6799  1.0757 -0.8231
 6286SOL    HW230321   0.059   4.517   8.412  1.2301 -1.1082  1.1123
 6287SOL     OW30322   1.597   3.283   9.192 -0.4992 -0.1973  0.0508
 6287SOL    HW130323   1.646   3.236   9.260  0.3863  0.5360 -0.0878
 6287SOL    HW230324   1.637   3.231   9.123 -2.2572  0.3962 -1.4146
 6288SOL     OW30325   4.045   1.300   3.424  0.0663 -0.2760 -0.0704
 6288SOL    HW130326   4.076   1.217   3.462 -1.7788 -0.4335  1.0685
 6288SOL    HW230327   4.079   1.368   3.481 -0.7466  0.8851 -0.9842
 6289SOL     OW30328   1.836   0.899   3.508  0.1124 -0.1352  0.2878
 6289SOL    HW130329   1.798   0.842   3.575 -0.7661  0.8860  0.6560
 6289SOL    HW230330   1.919   0.852   3.501  0.5283  0.3572  1.7582
 6290SOL     OW30331   3.763   4.211   4.589 -0.1195  0.4336 -0.3627
 6290SOL    HW130332   3.773   4.230   4.495 -1.2252 -0.7136 -0.7084
 6290SOL    HW230333   3.725   4.296   4.610  0.6498  0.8583 -0.6806
 6291SOL     OW30334   3.151   3.838   0.087  0.2768  0.2899 -0.1818
 6291SOL    HW130335   3.232   3.788   0.076  0.2407 -0.4832  3.0611
 6291SOL    HW230336   3.166   3.894   0.011 -0.9062  1.0109  0.1259
 6292SOL     OW30337   3.066   1.982   6.145  0.6072  0.0326  0.2089
 6292SOL    HW130338   3.132   1.914   6.150  0.7676  0.1863  0.1832
 6292SOL    HW230339   3.044   2.000   6.237 -0.4900 -0.0053 -0.0367
 6293SOL     OW30340   2.926   1.642   8.654  0.4915  0.1795  0.0930
 6293SOL    HW130341   2.876   1.674   8.579 -1.9446 -2.4214  0.5874
 6293SOL    HW230342   3.008   1.690   8.648  0.5864 -0.2816 -2.1915
 6294SOL     OW30343   0.535   3.094   7.136 -0.1260 -0.0345 -0.4081
 6294SOL    HW130344   0.498   3.181   7.121 -0.0589  0.1098  0.2701
 6294SOL    HW230345   0.517   3.052   7.052 -1.5587 -1.9113  0.8523
 6295SOL     OW30346   0.758   3.300   3.501  0.1800  0.0455  1.2119
 6295SOL    HW130347   0.786   3.235   3.566 -0.9456 -1.6973 -0.0877
 6295SOL    HW230348   0.835   3.288   3.446 -0.1753  0.1355  0.7033
 6296SOL     OW30349   0.967   3.064   5.092 -0.2897 -0.2491  0.6129
 6296SOL    HW130350   0.878   3.047   5.122 -1.1411  0.6541 -1.3680
 6296SOL    HW230351   0.997   3.118   5.165 -0.1733  0.8044 -0.2157
 6297SOL     OW30352   3.742   2.573   3.603  0.7878  0.6693 -0.3894
 6297SOL    HW130353   3.687   2.630   3.550 -0.6006  1.5447  2.0259
 6297SOL    HW230354   3.766   2.627   3.678 -0.7198  2.5999 -1.3193
 6298SOL     OW30355   0.908   1.288   4.270 -0.2483  0.7196  0.5292
 6298SOL    HW130356   0.982   1.261   4.216 -0.4418  2.4286 -0.5892
 6298SOL    HW230357   0.886   1.369   4.223 -0.8468 -0.3242 -0.9744
 6299SOL     OW30358   3.440   4.655   6.325  0.2618 -0.4261  0.0026
 6299SOL    HW130359   3.530   4.641   6.354  0.3901 -0.2962 -0.3370
 6299SOL    HW230360   3.390   4.623   6.401  2.2028 -1.2920  0.9285
 6300SOL     OW30361   0.545   0.120   8.368 -0.3988  0.2868  0.1992
 6300SOL    HW130362   0.567   0.085   8.455  0.9857 -0.9174 -0.6424
 6300SOL    HW230363   0.562   0.042   8.316 -2.8040 -1.0736  1.4508
 6301SOL     OW30364   2.998   2.256   8.662  0.2939  0.0755 -0.0357
 6301SOL    HW130365   3.058   2.283   8.732 -0.4425 -0.4294  0.7807
 6301SOL    HW230366   2.917   2.255   8.713 -1.0477 -0.6178 -2.1733
 6302SOL     OW30367   2.848   3.679  11.775 -0.2825  0.3631 -0.8605
 6302SOL    HW130368   2.797   3.718  11.846  1.0924  0.1373  0.2446
 6302SOL    HW230369   2.818   3.735  11.703 -0.5823  0.9161 -0.3066
 6303SOL     OW30370   4.575   2.138  15.796  0.3670  0.2434 -0.1111
 6303SOL    HW130371   4.634   2.137  15.721 -0.0942 -1.0975 -0.4636
 6303SOL    HW230372   4.616   2.066  15.845  0.8207  0.1746 -0.5952
 6304SOL     OW30373   1.190   1.838  12.759 -0.3020 -0.3554 -0.0936
 6304SOL    HW130374   1.223   1.846  12.848 -2.1979  1.3337  0.4625
 6304SOL    HW230375   1.273   1.831  12.712  0.6180 -0.0445  1.4726
 6305SOL     OW30376   0.939   0.377   6.972 -0.0037 -0.1703  0.5146
 6305SOL    HW130377   0.987   0.408   6.895  0.7422 -3.6641 -0.4330
 6305SOL    HW230378   0.965   0.438   7.041 -1.5693  1.1859 -0.0800
 6306SOL     OW30379   0.992   0.268   7.568 -0.4863 -0.4638  0.7921
 6306SOL    HW130380   0.924   0.328   7.598 -0.8561  0.3910 -1.7348
 6306SOL    HW230381   0.959   0.238   7.483  0.3910 -1.3732  0.7729
 6307SOL     OW30382   2.859   2.931   0.755  0.3087 -0.4186  0.1344
 6307SOL    HW130383   2.863   2.977   0.840  0.8396 -1.2725  0.5644
 6307SOL    HW230384   2.908   2.987   0.695  0.6405 -0.6384  0.1986
 6308SOL     OW30385   0.626   4.437   2.548  0.2422  0.4541 -0.0793
 6308SOL    HW130386   0.651   4.398   2.632  2.6740  0.1513 -0.9418
 6308SOL    HW230387   0.684   4.384   2.492 -0.4080 -0.7963  0.4341
 6309SOL     OW30388   2.602   4.675   3.051  0.2545  0.7658 -0.4724
 6309SOL    HW130389   2.632   0.004   2.978 -1.9129  1.5113 -0.8390
 6309SOL    HW230390   2.633   4.587   3.032 -0.8430  0.6590 -1.7012
 6310SOL     OW30391   3.605   2.038   4.615  0.5143 -0.1753 -0.4445
 6310SOL    HW130392   3.524   2.063   4.571  0.2070 -0.2474  0.0782
 6310SOL    HW230393   3.560   2.006   4.694  0.0885  0.6058 -0.3624
 6311SOL     OW30394   0.089   2.745   0.601  0.4332  0.5388  0.1131
 6311SOL    HW130395   0.123   2.806   0.535  3.2326 -1.1723 -0.0559
 6311SOL    HW230396   0.133   2.769   0.683 -0.5535  0.7101  0.5862
 6312SOL     OW30397   0.601   0.635   3.859 -0.1662 -0.2812  0.2689
 6312SOL    HW130398   0.690   0.636   3.824 -0.2306 -1.2924  0.0822
 6312SOL    HW230399   0.600   0.582   3.938 -3.0668  0.6316  0.8606
 6313SOL     OW30400   2.115   0.790   9.678 -0.2145  0.5548  0.1112
 6313SOL    HW130401   2.059   0.730   9.727 -0.0781  0.6631  0.3984
 6313SOL    HW230402   2.191   0.733   9.673 -1.0028 -0.4272 -0.5528
 6314SOL     OW30403   3.235   2.999   9.428 -0.3959 -0.1121 -0.7390
 6314SOL    HW130404   3.242   3.087   9.466  0.9240  0.3717 -2.0653
 6314SOL    HW230405   3.315   3.000   9.374  0.3331 -0.4140  0.3367
 6315SOL     OW30406   1.405   0.924  15.890  0.5234 -0.3084 -0.3098
 6315SOL    HW130407   1.425   1.014  15.864 -1.5729  0.2272 -0.1024
 6315SOL    HW230408   1.495   0.892  15.887  0.7191  0.3139 -0.9104
 6316SOL     OW30409   1.246   0.046  12.144  0.0077  0.7649  0.2697
 6316SOL    HW130410   1.219   0.100  12.070 -0.1824 -0.6481 -0.6998
 6316SOL    HW230411   1.303   4.701  12.110 -1.2606  0.4871 -1.2742
 6317SOL     OW30412   1.702   1.418   4.171 -0.1309 -0.9648  0.1816
 6317SOL    HW130413   1.700   1.341   4.113 -2.0056 -0.0081 -1.0172
 6317SOL    HW230414   1.788   1.404   4.209 -0.0500  0.4862  0.5225
 6318SOL     OW30415   3.870   1.194   4.044 -0.3209 -0.6548 -0.0302
 6318SOL    HW130416   3.958   1.215   4.013 -0.5450  0.9739  0.4098
 6318SOL    HW230417   3.841   1.275   4.087 -1.4768 -1.7892  1.3305
 6319SOL     OW30418   2.603   3.803  17.436  0.6933  0.2622  0.3227
 6319SOL    HW130419   2.566   3.798  17.348  0.9744  1.1247  0.1554
 6319SOL    HW230420   2.564   3.731  17.486  0.6219 -0.0484 -0.1793
 6320SOL     OW30421   1.192   3.145   2.951  0.1576 -0.2337  0.0934
 6320SOL    HW130422   1.213   3.067   2.900  1.0544 -0.0749  0.2153
 6320SOL    HW230423   1.260   3.201   2.914 -3.2500  3.7877 -0.1025
 6321SOL     OW30424   1.985   4.659   0.424  0.0868 -0.1095 -0.3563
 6321SOL    HW130425   1.932   0.014   0.417  0.7929  0.2513 -1.6853
 6321SOL    HW230426   2.039   4.650   0.345 -2.4680 -2.1886 -1.8536
 6322SOL     OW30427   4.212   4.706   7.672  0.0810  0.5115 -0.0417
 6322SOL    HW130428   4.285   0.026   7.715 -0.4054 -0.1712  1.4828
 6322SOL    HW230429   4.178   4.646   7.739 -0.8953  0.9674 -0.1206
 6323SOL     OW30430   1.358   1.119   1.316 -0.1172  0.1309 -0.1328
 6323SOL    HW130431   1.453   1.111   1.303 -0.2471 -0.6621 -0.6290
 6323SOL    HW230432   1.344   1.112   1.410 -0.2656  1.0894 -0.0846
 6324SOL     OW30433   3.828   3.139   6.627 -0.1229  0.2773 -0.1110
 6324SOL    HW130434   3.820   3.086   6.547 -0.8870  1.1375 -0.6099
 6324SOL    HW230435   3.769   3.097   6.689  0.8419 -1.4513 -0.3622
 6325SOL     OW30436   1.184   2.345   2.389 -0.1073 -0.0139  0.5824
 6325SOL    HW130437   1.257   2.406   2.375 -0.4097 -0.0833 -1.3836
 6325SOL    HW230438   1.223   2.267   2.350 -2.3909 -1.2533  0.7716
 6326SOL     OW30439   0.830   1.497   4.137 -0.3382 -0.6297 -0.7597
 6326SOL    HW130440   0.880   1.518   4.058 -0.0039  2.6678  0.3182
 6326SOL    HW230441   0.763   1.447   4.090  1.1053 -1.8778 -1.4647
 6327SOL     OW30442   2.511   2.742  16.629 -1.1329 -0.3515  0.1223
 6327SOL    HW130443   2.580   2.807  16.634 -0.4429 -1.0295 -0.5839
 6327SOL    HW230444   2.437   2.788  16.669 -1.2428 -0.9340  0.5904
 6328SOL     OW30445   2.212   1.801   5.695  0.2622  0.1719 -0.4418
 6328SOL    HW130446   2.160   1.878   5.675 -0.9187  0.3297  3.2132
 6328SOL    HW230447   2.294   1.843   5.720 -0.2032  1.5740 -1.3176
 6329SOL     OW30448   1.144   1.891  13.536  0.1219 -0.0617 -0.5039
 6329SOL    HW130449   1.083   1.817  13.525  0.6265 -0.2287 -2.1616
 6329SOL    HW230450   1.092   1.956  13.583  3.2717 -0.0847  2.9875
 6330SOL     OW30451   2.179   1.359   9.075  0.4452  0.2345  0.7300
 6330SOL    HW130452   2.240   1.433   9.078  0.3213  0.5066 -3.3130
 6330SOL    HW230453   2.119   1.394   9.140 -2.3204 -2.2303 -0.5228
 6331SOL     OW30454   3.391   4.660   9.455 -0.1835  0.0434  0.4564
 6331SOL    HW130455   3.433   4.590   9.405  0.4644 -0.5805  1.8630
 6331SOL    HW230456   3.428   4.652   9.543  0.5876 -3.0371 -0.1537
 6332SOL     OW30457   2.460   2.152   1.992 -0.0462 -0.0014 -0.2089
 6332SOL    HW130458   2.442   2.117   2.079  2.1132 -0.3904  0.0694
 6332SOL    HW230459   2.518   2.224   2.014  2.8661 -2.2524 -0.5763
 6333SOL     OW30460   1.673   1.751   4.069 -0.1590 -0.1797 -0.0916
 6333SOL    HW130461   1.765   1.728   4.083 -0.4549 -0.5958  1.1396
 6333SOL    HW230462   1.644   1.751   4.161 -2.4834  0.7358 -0.8261
 6334SOL     OW30463   2.625   2.996   8.653 -0.9923  0.1645 -0.0227
 6334SOL    HW130464   2.675   3.038   8.583  2.6522 -1.9057  1.3487
 6334SOL    HW230465   2.687   2.930   8.683 -1.1184  0.2738  0.4712
 6335SOL     OW30466   1.077   0.422  13.791 -0.3006  0.0068  0.2162
 6335SOL    HW130467   0.985   0.400  13.810 -0.6455  0.4960 -0.8635
 6335SOL    HW230468   1.080   0.419  13.695 -3.6341 -0.6697  0.1183
 6336SOL     OW30469   3.751   1.327   4.675 -0.2952  0.1947 -0.2132
 6336SOL    HW130470   3.749   1.251   4.733  1.3877 -1.1119 -1.8733
 6336SOL    HW230471   3.728   1.391   4.741 -4.3725 -2.0222  0.5141
 6337SOL     OW30472   0.891   1.629   8.071  0.4819  0.3625 -0.0775
 6337SOL    HW130473   0.827   1.651   8.139  0.6903 -1.1748  0.6022
 6337SOL    HW230474   0.847   1.656   7.990  2.2797 -0.6893 -1.3984
 6338SOL     OW30475   3.891   1.552   7.123 -0.4224  0.1253  0.8513
 6338SOL    HW130476   3.885   1.643   7.094  0.8196 -0.4973 -1.3632
 6338SOL    HW230477   3.806   1.516   7.095  1.0041 -2.8444  0.3416
 6339SOL     OW30478   0.215   0.360   4.478 -0.2052 -0.5468  0.1924
 6339SOL    HW130479   0.242   0.289   4.418  0.8628  2.4790 -2.9312
 6339SOL    HW230480   0.173   0.317   4.552  1.5213  0.1556  1.5751
 6340SOL     OW30481   0.114   4.536   1.395 -0.2570 -0.0094 -0.1610
 6340SOL    HW130482   0.178   4.514   1.462 -0.1330 -0.2642 -0.3642
 6340SOL    HW230483   0.077   4.449   1.377 -2.3318  1.2590 -2.0392
 6341SOL     OW30484   3.964   1.657   3.983  0.4398  0.0254  0.1727
 6341SOL    HW130485   4.016   1.730   4.016 -0.9116 -0.2746  2.9172
 6341SOL    HW230486   3.882   1.676   4.028  0.2534  1.0462 -0.5897
 6342SOL     OW30487   0.301   2.126  17.693  0.3098 -0.4994 -0.3389
 6342SOL    HW130488   0.255   2.209   0.002 -0.0444 -0.5373 -1.9232
 6342SOL    HW230489   0.344   2.113   0.078  0.4969  0.9588 -0.2114
 6343SOL     OW30490   1.812   3.351   5.740  0.1315  0.3756  0.0350
 6343SOL    HW130491   1.784   3.405   5.814 -0.8591 -0.6535  0.4154
 6343SOL    HW230492   1.752   3.381   5.672  1.0417  2.2458  0.0743
 6344SOL     OW30493   4.200   4.513   6.260  0.3732 -0.6682 -0.3205
 6344SOL    HW130494   4.233   4.509   6.350 -1.9817  1.3262  0.6407
 6344SOL    HW230495   4.264   4.573   6.221 -0.2145  0.3018  0.2283
 6345SOL     OW30496   0.789   2.625   5.468 -0.0490 -0.4171  0.3790
 6345SOL    HW130497   0.723   2.579   5.520 -0.8384  2.4813  1.9837
 6345SOL    HW230498   0.840   2.678   5.531  2.0654 -1.5655 -0.3691
 6346SOL     OW30499   4.507   2.194   6.979  0.0695  0.1439 -0.1924
 6346SOL    HW130500   4.587   2.197   6.926 -0.5130 -1.0770 -1.1212
 6346SOL    HW230501   4.512   2.287   7.001  1.1413 -0.3040  1.4579
 6347SOL     OW30502   0.363   1.344   4.296  0.4998 -0.3142 -0.1868
 6347SOL    HW130503   0.454   1.338   4.324  0.6744  0.6448 -0.5487
 6347SOL    HW230504   0.323   1.321   4.380 -0.3350 -1.2845 -0.8441
 6348SOL     OW30505   3.812   4.546  14.452  0.2176  0.3619 -0.5845
 6348SOL    HW130506   3.770   4.575  14.371 -1.3135  2.0317  0.8192
 6348SOL    HW230507   3.737   4.573  14.505  1.0522 -0.4980  1.0392
 6349SOL     OW30508   1.833   1.384   3.099  0.6374 -0.3382  0.0098
 6349SOL    HW130509   1.833   1.479   3.105 -1.7092 -0.4898  2.2124
 6349SOL    HW230510   1.815   1.371   3.192 -0.8044 -1.7981 -0.4656
 6350SOL     OW30511   3.616   1.869   8.743 -0.2114  0.5653  0.0465
 6350SOL    HW130512   3.662   1.830   8.818 -0.2567  0.6314  0.1092
 6350SOL    HW230513   3.568   1.790   8.717  1.3645  0.1851 -1.6990
 6351SOL     OW30514   0.003   0.747   2.548 -0.1518  0.0160 -0.0240
 6351SOL    HW130515   4.633   0.745   2.529 -0.0837 -0.4829 -0.3166
 6351SOL    HW230516   0.008   0.688   2.623  1.4673  0.5443  0.2732
 6352SOL     OW30517   4.589   0.335   7.977  0.1936  0.0434  0.1160
 6352SOL    HW130518   4.592   0.257   8.031 -1.1651  1.0732  1.6875
 6352SOL    HW230519   4.578   0.291   7.893  0.8896 -0.4305  0.2741
 6353SOL     OW30520   1.922   1.911   5.695 -0.0201 -0.2160 -0.0945
 6353SOL    HW130521   1.970   1.978   5.744 -1.0972  1.0285 -0.7569
 6353SOL    HW230522   1.836   1.926   5.735 -0.1439  0.5933 -0.6823
 6354SOL     OW30523   1.985   2.035  11.019 -0.1311 -0.2096 -0.6579
 6354SOL    HW130524   1.932   2.107  10.985  1.7097  0.5930 -1.8745
 6354SOL    HW230525   1.923   1.970  11.051  0.0840 -0.5684 -0.9702
 6355SOL     OW30526   3.718   0.325   1.423  0.1585 -0.5659 -0.1474
 6355SOL    HW130527   3.673   0.283   1.350 -0.4332 -0.8891  0.4018
 6355SOL    HW230528   3.659   0.300   1.494  0.2828 -0.7311 -0.1010
 6356SOL     OW30529   0.269   4.431   0.319  0.1279 -0.1370 -0.5007
 6356SOL    HW130530   0.333   4.501   0.332 -2.3028  2.3800 -1.8801
 6356SOL    HW230531   0.294   4.373   0.391 -0.2294  0.1388 -0.1555
 6357SOL     OW30532   1.653   3.351  11.947  0.0606  0.0388  0.0608
 6357SOL    HW130533   1.573   3.400  11.926 -0.1480 -0.0649  0.6235
 6357SOL    HW230534   1.720   3.417  11.929 -3.1040  3.8235  2.2126
 6358SOL     OW30535   2.059   1.235   3.416  0.3584  0.0174 -0.1243
 6358SOL    HW130536   2.091   1.146   3.400 -0.8178 -0.5335  0.6011
 6358SOL    HW230537   2.143   1.281   3.412  0.1579  0.4397  0.6162
 6359SOL     OW30538   3.369   0.392   6.745 -0.1460  0.0997  0.1788
 6359SOL    HW130539   3.339   0.482   6.731  2.7170  1.1486  0.6643
 6359SOL    HW230540   3.463   0.408   6.746  0.4578 -3.2994 -2.7968
 6360SOL     OW30541   0.260   1.510   5.727  0.2903  0.7586  0.0829
 6360SOL    HW130542   0.250   1.501   5.822 -2.3833 -0.8636 -0.3507
 6360SOL    HW230543   0.184   1.457   5.701  2.0096 -1.1464 -1.0521
 6361SOL     OW30544   0.802   4.531   8.063 -0.5052  0.8293 -0.2216
 6361SOL    HW130545   0.885   4.488   8.086 -0.8437  0.2718 -0.0493
 6361SOL    HW230546   0.766   4.467   8.002 -0.7376  2.0742 -1.3906
 6362SOL     OW30547   0.509   1.385   9.257  0.2082 -0.4579 -0.0994
 6362SOL    HW130548   0.536   1.471   9.288  0.0397  0.6094 -2.9498
 6362SOL    HW230549   0.561   1.377   9.177  0.1497  3.3684 -0.5080
 6363SOL     OW30550   1.338   2.234   1.780 -0.2963  0.4122 -0.6598
 6363SOL    HW130551   1.356   2.165   1.843 -1.9333  1.2684  0.7500
 6363SOL    HW230552   1.398   2.301   1.814 -0.1592 -0.2463  0.3947
 6364SOL     OW30553   2.097   0.826  11.228  0.3181 -0.5121 -0.2967
 6364SOL    HW130554   2.103   0.918  11.255 -0.2757 -0.6460  0.2984
 6364SOL    HW230555   2.106   0.786  11.315 -2.1751 -0.0966  0.1768
 6365SOL     OW30556   3.649   4.548  17.587  0.3254 -0.3227  0.3852
 6365SOL    HW130557   3.589   4.598  17.531  0.5464  0.3631  0.7479
 6365SOL    HW230558   3.676   4.619  17.646  1.8630  0.6826 -1.5415
 6366SOL     OW30559   1.171   3.349   7.045  0.1949  0.2202  0.5807
 6366SOL    HW130560   1.150   3.386   7.131  1.5024 -0.2643  1.1187
 6366SOL    HW230561   1.125   3.406   6.983 -0.9807 -0.5998  0.7217
 6367SOL     OW30562   0.094   0.563   6.292  0.1087 -0.3491  0.2079
 6367SOL    HW130563   0.086   0.618   6.370  2.2083 -0.1352  0.2703
 6367SOL    HW230564   0.176   0.513   6.297 -0.1163 -0.9190 -1.7666
 6368SOL     OW30565   1.815   3.405   0.558 -0.1436  0.2222 -0.8519
 6368SOL    HW130566   1.763   3.451   0.624 -0.1037  0.2213 -0.8205
 6368SOL    HW230567   1.809   3.465   0.484 -3.1614  1.5068  0.4098
 6369SOL     OW30568   0.899   1.586  16.192  0.3740 -0.0382 -0.4035
 6369SOL    HW130569   0.832   1.527  16.226  0.6262 -0.2152 -0.2125
 6369SOL    HW230570   0.891   1.591  16.096 -0.6896  1.5333 -0.2226
 6370SOL     OW30571   3.869   1.814   7.111  0.0260 -0.2946 -0.0193
 6370SOL    HW130572   3.965   1.815   7.115  0.0916 -1.2280 -1.4387
 6370SOL    HW230573   3.854   1.891   7.056 -1.6974 -0.5894  0.0389
 6371SOL     OW30574   0.121   2.188   2.450 -0.2441  0.3692 -0.8599
 6371SOL    HW130575   0.180   2.246   2.403  0.6566  1.2668  1.4198
 6371SOL    HW230576   0.049   2.167   2.389  1.7069 -1.0111 -2.6918
 6372SOL     OW30577   1.042   0.149   6.624  0.2581 -0.2087  0.8126
 6372SOL    HW130578   1.137   0.150   6.627  0.2328  0.9596  1.3008
 6372SOL    HW230579   1.025   0.133   6.531 -0.0122  0.2479  0.7822
 6373SOL     OW30580   4.689   0.877   4.063 -0.5513 -0.0893 -0.5795
 6373SOL    HW130581   0.011   0.960   4.055 -0.1714 -0.2875 -0.4048
 6373SOL    HW230582   4.606   0.905   4.102  0.3150  0.0074  1.2082
 6374SOL     OW30583   2.858   0.421  17.519 -0.5795 -0.3776 -0.4174
 6374SOL    HW130584   2.920   0.359  17.557 -1.1375 -1.5059 -1.3720
 6374SOL    HW230585   2.916   0.497  17.510 -0.0074 -0.5177  2.1636
 6375SOL     OW30586   4.406   2.377   5.308  0.0549  0.2680  0.0588
 6375SOL    HW130587   4.314   2.404   5.304 -0.5047 -1.5054  0.7526
 6375SOL    HW230588   4.389   2.286   5.283 -0.0308  0.1662  0.4915
 6376SOL     OW30589   3.372   1.531  15.798 -0.0010  0.3987 -0.1097
 6376SOL    HW130590   3.426   1.550  15.721 -1.2747  1.4343 -0.7467
 6376SOL    HW230591   3.437   1.500  15.862  0.3441 -1.4803 -1.3749
 6377SOL     OW30592   0.905   0.178   3.348 -0.7530  0.1904  0.0331
 6377SOL    HW130593   0.815   0.181   3.317 -0.5902 -1.3066 -0.5642
 6377SOL    HW230594   0.928   0.089   3.375 -2.0866 -0.2546 -0.2863
 6378SOL     OW30595   2.939   3.412   4.625  0.1002 -0.3319 -0.0576
 6378SOL    HW130596   2.996   3.379   4.555  0.5498 -1.0884  0.6737
 6378SOL    HW230597   2.997   3.471   4.674  2.0221 -2.5538  0.3037
 6379SOL     OW30598   0.573   0.369   0.654 -0.3513  0.7224 -0.3297
 6379SOL    HW130599   0.539   0.396   0.739  0.8461 -1.6972  0.9155
 6379SOL    HW230600   0.667   0.361   0.672 -0.1083 -0.7732 -2.2953
 6380SOL     OW30601   2.242   2.989  12.921  0.3627 -0.2628 -0.8023
 6380SOL    HW130602   2.159   2.948  12.947 -0.1394  0.7166 -0.8777
 6380SOL    HW230603   2.219   3.058  12.859 -1.4136  1.1349  1.4122
 6381SOL     OW30604   1.885   4.072   4.643 -0.0844 -0.4916 -0.1320
 6381SOL    HW130605   1.970   4.088   4.684 -1.0284 -0.2261  1.7279
 6381SOL    HW230606   1.898   4.117   4.559  2.6137 -0.5614  0.2308
 6382SOL     OW30607   4.327   1.772  17.541  0.2255 -0.1524  0.5948
 6382SOL    HW130608   4.302   1.762  17.449  0.9409  0.2858  0.3567
 6382SOL    HW230609   4.421   1.757  17.533  0.0461 -0.1027 -1.4111
 6383SOL     OW30610   1.223   4.608   8.078 -0.4213 -0.3048  0.2177
 6383SOL    HW130611   1.168   4.595   8.000  0.2756  2.3854 -0.7095
 6383SOL    HW230612   1.159   4.624   8.147  0.8855  0.4362  1.2692
 6384SOL     OW30613   2.915   0.975  13.080  0.2161 -0.3561  0.0663
 6384SOL    HW130614   3.006   0.956  13.056 -0.0928 -3.0967  1.0538
 6384SOL    HW230615   2.928   0.997  13.172 -0.5007 -1.1909  0.3729
 6385SOL     OW30616   0.051   2.418   5.970  0.3611  0.2158  0.4171
 6385SOL    HW130617   0.046   2.397   6.063 -0.4338 -0.2331  0.2741
 6385SOL    HW230618   0.084   2.333   5.939 -3.1155 -1.1461  0.4284
 6386SOL     OW30619   0.613   0.898  16.706  0.4825 -0.0330  0.5172
 6386SOL    HW130620   0.646   0.814  16.739 -1.7561 -1.3859 -0.6804
 6386SOL    HW230621   0.591   0.879  16.615  0.2757 -0.8979  0.7487
 6387SOL     OW30622   3.781   2.245   5.698 -0.1449 -0.1455 -0.8317
 6387SOL    HW130623   3.692   2.222   5.724  0.7252 -1.4593  0.9362
 6387SOL    HW230624   3.785   2.337   5.721  0.0209 -0.1926 -0.6791
 6388SOL     OW30625   0.365   1.361   1.089 -0.4648  0.0677  0.0630
 6388SOL    HW130626   0.353   1.370   0.994  2.2289  0.9641 -0.2013
 6388SOL    HW230627   0.362   1.265   1.089 -2.3483  0.1281  1.1867
 6389SOL     OW30628   2.765   4.110  11.696 -0.4596 -0.3023 -0.5157
 6389SOL    HW130629   2.806   4.193  11.720 -0.7317 -0.6224  1.0120
 6389SOL    HW230630   2.840   4.052  11.708  0.4117  0.9407  0.0237
 6390SOL     OW30631   1.587   3.015  11.449 -0.3112 -0.7393 -0.0745
 6390SOL    HW130632   1.542   3.030  11.366  0.3787  0.7848 -0.1786
 6390SOL    HW230633   1.673   2.994  11.413  0.5775  1.3157  0.8341
 6391SOL     OW30634   0.536   3.147  13.505 -0.1551 -0.4301  0.8099
 6391SOL    HW130635   0.601   3.181  13.567  0.7170  1.1316 -0.9777
 6391SOL    HW230636   0.600   3.148  13.434 -0.5417 -0.1392  0.4696
 6392SOL     OW30637   0.247   3.556   5.439  0.2049  0.2122 -0.4779
 6392SOL    HW130638   0.269   3.482   5.383  0.0695 -0.9744  1.0168
 6392SOL    HW230639   0.331   3.566   5.483 -0.6972  0.1216  1.3084
 6393SOL     OW30640   3.932   3.265  15.505  0.0401 -0.2296  0.1411
 6393SOL    HW130641   3.876   3.189  15.492  0.6868 -0.7156  0.2441
 6393SOL    HW230642   4.008   3.250  15.449  0.1239 -1.9960  0.7492
 6394SOL     OW30643   0.754   4.271   2.376  0.7489 -0.2119  0.5838
 6394SOL    HW130644   0.739   4.180   2.352  3.7313 -0.2158 -1.2766
 6394SOL    HW230645   0.731   4.312   2.293 -0.1455  0.4369  1.1403
 6395SOL     OW30646   1.313   4.087  14.644 -0.0776  0.4852  0.5815
 6395SOL    HW130647   1.377   4.137  14.693 -0.1280  2.2935 -1.2122
 6395SOL    HW230648   1.351   4.082  14.556  1.4776 -1.6871  1.3713
 6396SOL     OW30649   2.518   1.790   4.734  0.2367 -0.1019 -0.2055
 6396SOL    HW130650   2.578   1.813   4.805 -2.1721  0.4403  1.6572
 6396SOL    HW230651   2.439   1.773   4.785 -0.5269  0.8058 -1.0964
 6397SOL     OW30652   3.013   1.070   2.397 -0.3434  0.6816  0.1433
 6397SOL    HW130653   2.955   1.078   2.322 -0.1268  2.1178  0.1274
 6397SOL    HW230654   3.092   1.105   2.356 -0.4918  2.1077  1.1091
 6398SOL     OW30655   0.118   1.662   8.810 -0.2910  0.3027  0.1618
 6398SOL    HW130656   0.091   1.746   8.773  0.9667  0.6989  0.1233
 6398SOL    HW230657   0.206   1.683   8.842  0.2362  1.0616 -1.7837
 6399SOL     OW30658   3.145   2.996   9.154 -0.1121  0.2466  1.3589
 6399SOL    HW130659   3.143   3.056   9.229  0.6211  0.5911  1.1028
 6399SOL    HW230660   3.234   2.964   9.168 -0.2229  0.0202  1.5465
 6400SOL     OW30661   4.027   4.134   7.091  0.0744  0.1345 -0.4757
 6400SOL    HW130662   4.009   4.040   7.091  2.6701 -0.3601 -0.6639
 6400SOL    HW230663   3.995   4.148   7.002  0.9554  0.0932 -0.7898
 6401SOL     OW30664   3.539   1.170  14.548 -0.0021 -0.5128 -0.5559
 6401SOL    HW130665   3.549   1.078  14.522  1.2593  0.2625 -2.8211
 6401SOL    HW230666   3.624   1.175  14.592 -0.9146  0.7363  1.0715
 6402SOL     OW30667   4.250   1.557   8.263 -0.6261  0.2582  0.5291
 6402SOL    HW130668   4.344   1.563   8.243 -0.1511  3.2701  3.8103
 6402SOL    HW230669   4.203   1.603   8.194 -0.1568 -0.8917 -0.5611
 6403SOL     OW30670   3.935   2.117   5.962  0.1512 -0.2362 -0.1724
 6403SOL    HW130671   3.871   2.096   6.030  0.4487 -0.3690  0.0707
 6403SOL    HW230672   3.881   2.097   5.886  0.7019  2.4878 -1.2681
 6404SOL     OW30673   2.306   4.044  10.557 -0.6511  0.2836  0.9244
 6404SOL    HW130674   2.290   4.101  10.632 -0.2835  0.1992  1.0718
 6404SOL    HW230675   2.374   3.981  10.581 -0.4958 -0.0936 -0.4776
 6405SOL     OW30676   3.983   0.696   4.869 -0.0596 -0.0822 -0.0214
 6405SOL    HW130677   4.057   0.671   4.814 -0.5220  0.6127 -0.9624
 6405SOL    HW230678   4.021   0.763   4.927  1.6346  0.4933 -1.8138
 6406SOL     OW30679   1.960   3.860   5.142 -0.0800 -0.1427  0.5583
 6406SOL    HW130680   1.898   3.856   5.069 -1.3860  0.5667  1.6355
 6406SOL    HW230681   1.972   3.768   5.164 -0.4517 -0.4508 -0.5370
 6407SOL     OW30682   4.008   4.495   3.098 -0.3339 -0.4728 -0.4366
 6407SOL    HW130683   3.957   4.564   3.056  0.0945 -0.3155 -0.7023
 6407SOL    HW230684   4.037   4.435   3.030 -1.6069 -1.3562 -0.1888
 6408SOL     OW30685   2.244   0.834  14.178  0.4230  0.5433  0.3278
 6408SOL    HW130686   2.228   0.741  14.164  1.4108  0.2313  1.2956
 6408SOL    HW230687   2.191   0.863  14.104 -1.5113 -2.0783  0.7103
 6409SOL     OW30688   2.258   1.885   1.058  0.4479 -0.4874  0.2708
 6409SOL    HW130689   2.163   1.892   1.069  0.3036 -0.5056 -0.8986
 6409SOL    HW230690   2.293   1.960   1.106 -0.5073 -0.3796  0.8132
 6410SOL     OW30691   3.777   2.869   1.027  0.5593 -0.1286  0.2073
 6410SOL    HW130692   3.697   2.919   1.014  0.0953 -1.0569 -0.4804
 6410SOL    HW230693   3.737   2.782   1.029 -0.2867  0.2375 -1.2770
 6411SOL     OW30694   0.190   2.141   3.941  0.4468 -0.2035 -0.1056
 6411SOL    HW130695   0.227   2.064   3.984  0.2143 -0.1552  0.1864
 6411SOL    HW230696   0.150   2.102   3.864 -0.2590 -1.1415  0.7237
 6412SOL     OW30697   2.422   0.178   4.642 -0.1787  0.1557 -0.0058
 6412SOL    HW130698   2.454   0.249   4.586  0.3870 -0.0075  0.1087
 6412SOL    HW230699   2.488   0.176   4.711  0.8269 -0.9481 -0.9925
 6413SOL     OW30700   4.122   0.667   6.327  0.2479 -0.4371  0.4871
 6413SOL    HW130701   4.052   0.733   6.324  0.0601 -0.6211  0.8142
 6413SOL    HW230702   4.068   0.592   6.299  0.5829 -0.8806  1.0241
 6414SOL     OW30703   0.063   3.364   0.285  0.1643 -0.3121  0.0510
 6414SOL    HW130704   0.008   3.433   0.247  0.0547  0.1006  0.9461
 6414SOL    HW230705   0.113   3.411   0.351  0.8634 -1.6653  0.4652
 6415SOL     OW30706   2.146   3.807  12.532 -0.5469 -0.0573 -0.3147
 6415SOL    HW130707   2.235   3.833  12.557 -0.9293  1.0309 -0.0671
 6415SOL    HW230708   2.130   3.765  12.617 -1.5883  1.3681  0.2201
 6416SOL     OW30709   4.042   4.009  12.392  0.6832 -0.4144  0.1226
 6416SOL    HW130710   4.003   4.064  12.460 -0.1945 -1.3540  0.3706
 6416SOL    HW230711   4.013   4.064  12.319 -0.1947 -1.2941 -0.1882
 6417SOL     OW30712   1.058   2.271   8.760 -0.0040 -0.3813  0.0419
 6417SOL    HW130713   1.066   2.323   8.840  2.5459 -0.8455  0.0973
 6417SOL    HW230714   1.109   2.196   8.789  1.6880  1.4092  1.6492
 6418SOL     OW30715   0.034   3.474   7.706  0.0021  0.3606 -0.3367
 6418SOL    HW130716   0.101   3.468   7.639  0.8510 -0.8957  0.6064
 6418SOL    HW230717   0.073   3.531   7.772 -1.6499 -0.2475  1.1843
 6419SOL     OW30718   0.094   1.356   0.465 -0.2789  0.4617  0.0839
 6419SOL    HW130719   0.122   1.281   0.518  1.1032  0.2310 -0.9795
 6419SOL    HW230720   0.169   1.357   0.406 -0.1626  1.4823  0.2484
 6420SOL     OW30721   3.280   1.635  11.830 -0.0199 -0.5045 -0.2279
 6420SOL    HW130722   3.193   1.631  11.790  0.2407  1.7003 -1.0590
 6420SOL    HW230723   3.296   1.542  11.816 -0.5539 -0.5298 -0.6533
 6421SOL     OW30724   0.270   0.140   5.448 -0.0436  0.2234 -0.1956
 6421SOL    HW130725   0.225   0.111   5.527  0.8780  2.4888  1.1765
 6421SOL    HW230726   0.265   0.235   5.442 -1.4383  0.2807  1.9322
 6422SOL     OW30727   3.396   1.135   0.581 -0.4375 -0.2651 -0.4547
 6422SOL    HW130728   3.316   1.082   0.579 -1.0409  0.4088  3.8740
 6422SOL    HW230729   3.459   1.079   0.537  1.2692  0.4073  1.1512
 6423SOL     OW30730   3.968   0.066   6.903  0.4205 -0.1808 -0.2233
 6423SOL    HW130731   3.998   4.723   6.964 -2.5381 -1.3711 -0.1150
 6423SOL    HW230732   4.037   0.080   6.838  0.4809 -0.4061 -0.2050
 6424SOL     OW30733   4.138   2.462  13.090  0.0051  0.5346  0.1382
 6424SOL    HW130734   4.175   2.409  13.160 -1.6001 -1.1301 -0.2640
 6424SOL    HW230735   4.053   2.420  13.075 -0.8779  2.1281  0.6424
 6425SOL     OW30736   0.046   3.627   4.734  0.6586  0.1725  0.0619
 6425SOL    HW130737   0.072   3.671   4.653 -1.8385  0.5880 -0.5233
 6425SOL    HW230738   0.043   3.705   4.791 -2.7560 -0.4057  0.6936
 6426SOL     OW30739   1.717   2.511   4.916  0.4979 -0.7368  0.4526
 6426SOL    HW130740   1.764   2.505   4.999  1.7124 -0.8666 -0.2529
 6426SOL    HW230741   1.685   2.601   4.909 -0.2769 -1.2275 -2.3749
 6427SOL     OW30742   1.780   2.413  12.979 -0.4431  0.4296 -0.0082
 6427SOL    HW130743   1.782   2.482  12.913 -1.1061 -0.9437 -1.4594
 6427SOL    HW230744   1.862   2.440  13.020  0.1852 -2.7628  0.8471
 6428SOL     OW30745   4.415   3.278   2.374  0.0477  0.0543 -0.5495
 6428SOL    HW130746   4.481   3.290   2.306  0.9135 -1.2329  0.0806
 6428SOL    HW230747   4.471   3.241   2.442 -0.8048 -0.4465 -0.1181
 6429SOL     OW30748   1.666   0.127   1.510  0.1069 -0.3338 -1.0402
 6429SOL    HW130749   1.677   0.222   1.516 -0.1543 -0.4473  1.0038
 6429SOL    HW230750   1.680   0.103   1.418  3.1015 -2.5290  0.0101
 6430SOL     OW30751   1.556   2.296   4.980 -0.0577  0.7821  0.1584
 6430SOL    HW130752   1.492   2.320   4.913 -1.7273  0.8462  1.8003
 6430SOL    HW230753   1.611   2.375   4.977  0.4787  0.4247  0.6456
 6431SOL     OW30754   0.910   4.560   1.009  0.0146 -0.1623 -0.1185
 6431SOL    HW130755   1.005   4.571   1.011  0.0807 -0.9001  0.5139
 6431SOL    HW230756   0.903   4.471   1.042 -4.3138  0.5864  0.9835
 6432SOL     OW30757   0.244   4.137   7.267  0.3535 -0.4935 -0.8240
 6432SOL    HW130758   0.179   4.083   7.312  1.6236  1.0518  2.8106
 6432SOL    HW230759   0.319   4.105   7.316 -0.5583  0.1498  0.9660
 6433SOL     OW30760   3.355   2.415  17.243  0.4472 -0.1258 -0.7085
 6433SOL    HW130761   3.265   2.442  17.226 -0.5587 -1.8164  1.8017
 6433SOL    HW230762   3.342   2.365  17.324 -2.5595  0.6116 -0.7100
 6434SOL     OW30763   3.245   4.312   4.034 -0.2560 -0.4265  0.4467
 6434SOL    HW130764   3.253   4.303   3.939  0.6294 -3.0300  0.7562
 6434SOL    HW230765   3.176   4.247   4.052 -0.8185  0.0946  0.1569
 6435SOL     OW30766   2.637   0.007   8.143  0.7224  0.0738  0.4334
 6435SOL    HW130767   2.616   4.639   8.158  1.8959 -0.3609 -0.5318
 6435SOL    HW230768   2.556   0.053   8.123 -0.4833 -1.4929  1.7203
 6436SOL     OW30769   0.793   3.938   7.383 -0.3653 -0.4610  0.4432
 6436SOL    HW130770   0.886   3.917   7.395  0.0963  0.8552 -0.8131
 6436SOL    HW230771   0.777   3.885   7.305  1.1733  1.2363 -1.0428
 6437SOL     OW30772   3.089   0.642   8.579  0.1847 -0.0002 -0.8169
 6437SOL    HW130773   3.039   0.712   8.537  2.4849  1.6847 -0.7695
 6437SOL    HW230774   3.172   0.689   8.587  1.6630 -3.1097  2.3773
 6438SOL     OW30775   3.073   0.350   6.348 -0.3759 -0.2402  0.0498
 6438SOL    HW130776   3.095   0.257   6.354  0.0411 -0.2848 -2.1703
 6438SOL    HW230777   3.021   0.354   6.429 -0.7327  1.3959 -0.2597
 6439SOL     OW30778   2.032   0.680   5.924  0.0531  0.0756  0.4191
 6439SOL    HW130779   2.070   0.636   5.847  0.9164  3.3892 -1.0325
 6439SOL    HW230780   2.106   0.730   5.957  0.4835 -0.1526 -0.2009
 6440SOL     OW30781   4.003   0.211   9.009  0.8167 -0.0894  0.0769
 6440SOL    HW130782   4.035   0.149   8.943  0.4061  1.4291 -1.5358
 6440SOL    HW230783   4.030   0.295   8.974  0.1553 -0.4417 -1.2677
 6441SOL     OW30784   1.333   1.269   6.185  0.2032 -0.0435 -0.0974
 6441SOL    HW130785   1.356   1.233   6.271  0.6052  1.2592  0.3428
 6441SOL    HW230786   1.374   1.355   6.198  1.5555 -0.2137 -3.1931
 6442SOL     OW30787   0.108   4.135   4.169 -0.5124  0.1436  0.4477
 6442SOL    HW130788   0.059   4.217   4.161 -1.1678 -0.3983 -1.1124
 6442SOL    HW230789   0.060   4.080   4.107  1.8655 -1.1930 -0.2010
 6443SOL     OW30790   1.409   2.367   3.622 -0.2084  0.1899 -0.0589
 6443SOL    HW130791   1.421   2.272   3.620 -0.0735  0.2431 -1.5610
 6443SOL    HW230792   1.339   2.358   3.687 -0.1763 -0.8947 -0.1758
 6444SOL     OW30793   3.870   0.399  11.679  0.2810  0.1784  0.2267
 6444SOL    HW130794   3.874   0.406  11.774 -0.8192  1.5662  0.1628
 6444SOL    HW230795   3.962   0.379  11.663  0.1725 -1.2507  1.3291
 6445SOL     OW30796   3.449   2.336  13.724 -0.6457 -0.8324 -0.4791
 6445SOL    HW130797   3.444   2.362  13.816  3.4247  0.3622 -0.5823
 6445SOL    HW230798   3.357   2.358  13.708 -0.2042  0.7471 -0.7970
 6446SOL     OW30799   3.362   0.980   7.113  0.0214 -0.1241 -0.3917
 6446SOL    HW130800   3.451   0.997   7.082  0.5740 -3.0855 -0.3856
 6446SOL    HW230801   3.370   0.900   7.165 -1.7764 -1.2639 -1.8923
 6447SOL     OW30802   2.573   1.099   2.657  0.0330  0.1931  0.1401
 6447SOL    HW130803   2.666   1.117   2.643  0.2932 -0.1582  1.4121
 6447SOL    HW230804   2.537   1.185   2.676 -1.2513 -0.3178  0.0517
 6448SOL     OW30805   2.477   4.579   4.422  0.0444 -0.3010  0.8731
 6448SOL    HW130806   2.458   4.485   4.416  2.7478 -0.6623 -2.0617
 6448SOL    HW230807   2.451   4.594   4.513 -1.3589  0.2728  0.3780
 6449SOL     OW30808   4.449   2.714  17.147  0.3026  0.6061  0.1771
 6449SOL    HW130809   4.519   2.663  17.107  0.5396 -0.1898  1.6137
 6449SOL    HW230810   4.403   2.642  17.190  0.6250  0.7909  0.8204
 6450SOL     OW30811   0.464   1.958   4.242  0.5652  0.4584 -0.3389
 6450SOL    HW130812   0.483   2.015   4.317  0.7357  0.5683 -0.4657
 6450SOL    HW230813   0.491   1.876   4.282  1.0965  1.6037  1.6448
 6451SOL     OW30814   2.526   3.641  11.683 -0.3948 -0.3793  0.2220
 6451SOL    HW130815   2.567   3.670  11.764  1.2451  0.3528 -0.8907
 6451SOL    HW230816   2.445   3.602  11.716 -0.1970  0.1550  1.3233
 6452SOL     OW30817   2.514   2.804   5.056  0.3862  0.0734 -0.2350
 6452SOL    HW130818   2.565   2.862   4.999  2.8435 -2.8379 -1.0004
 6452SOL    HW230819   2.520   2.848   5.141 -2.6934  0.0116 -0.0208
 6453SOL     OW30820   0.672   1.261   9.443 -0.0099  0.5797 -0.1524
 6453SOL    HW130821   0.734   1.223   9.381 -0.2474  1.1472 -0.7343
 6453SOL    HW230822   0.616   1.310   9.383 -0.0927  1.0902  0.3427
 6454SOL     OW30823   4.436   2.012  13.870 -0.2608 -0.4105 -0.0038
 6454SOL    HW130824   4.429   2.053  13.956  1.0330  0.5953 -0.3869
 6454SOL    HW230825   4.348   2.024  13.833 -0.8507 -0.6198  1.3327
 6455SOL     OW30826   0.981   2.841   4.129 -0.2776  0.1894 -0.1128
 6455SOL    HW130827   0.990   2.761   4.078 -0.7079 -0.2584  0.5114
 6455SOL    HW230828   0.885   2.847   4.131 -0.1737  1.6352  0.7865
 6456SOL     OW30829   2.804   1.022   4.206  0.0510  0.0542  0.1464
 6456SOL    HW130830   2.789   0.940   4.158 -1.9416 -0.0780  1.0008
 6456SOL    HW230831   2.897   1.037   4.188  0.7739 -0.4903  3.3904
 6457SOL     OW30832   3.766   1.702  12.396  0.2762  0.2290  0.5246
 6457SOL    HW130833   3.696   1.694  12.332 -0.0818 -1.9840  1.1902
 6457SOL    HW230834   3.723   1.771  12.445  0.9399 -0.1920  1.7029
 6458SOL     OW30835   3.511   0.580  16.211  0.5153 -0.1469 -0.3884
 6458SOL    HW130836   3.454   0.650  16.179 -1.2830 -1.3712  0.1202
 6458SOL    HW230837   3.479   0.576  16.301  1.0992  2.4351 -0.0470
 6459SOL     OW30838   4.714   4.374  15.075  0.1159  0.8300 -0.1935
 6459SOL    HW130839   4.677   4.286  15.076  3.9598 -0.7460  0.9802
 6459SOL    HW230840   0.025   4.374  15.164  0.9722 -0.8784 -0.5453
 6460SOL     OW30841   0.867   3.600  14.112 -0.1284 -0.1494  0.0819
 6460SOL    HW130842   0.907   3.685  14.093 -1.9044  1.1884  2.3149
 6460SOL    HW230843   0.939   3.558  14.159  0.1291 -1.8308 -1.8366
 6461SOL     OW30844   0.571   1.042   8.700  0.0600  0.1295  0.0496
 6461SOL    HW130845   0.511   1.000   8.640  0.0800 -0.7914  0.6713
 6461SOL    HW230846   0.651   1.018   8.653  0.4285 -1.0645  1.2927
 6462SOL     OW30847   3.660   2.555   5.382  0.2319 -0.6477 -0.2883
 6462SOL    HW130848   3.670   2.590   5.471  1.0025 -2.3599  0.3069
 6462SOL    HW230849   3.605   2.624   5.344 -0.8464 -1.0056  0.6150
 6463SOL     OW30850   3.123   3.989   0.351 -0.6893  0.2882  0.4122
 6463SOL    HW130851   3.138   4.084   0.345 -0.5356  0.2566  0.2802
 6463SOL    HW230852   3.123   3.963   0.259  1.1759  0.6296  0.3104
 6464SOL     OW30853   4.271   2.373   8.222 -0.1195 -0.2587  0.0029
 6464SOL    HW130854   4.190   2.387   8.174 -1.7466 -2.0681  2.1942
 6464SOL    HW230855   4.250   2.289   8.264 -0.0233 -0.4469 -0.3304
 6465SOL     OW30856   1.910   1.329   2.841 -0.1720 -0.7637 -0.6696
 6465SOL    HW130857   1.957   1.410   2.863 -1.1323 -0.6806  1.0991
 6465SOL    HW230858   1.846   1.318   2.911  1.1615  0.6318  0.7604
 6466SOL     OW30859   3.436   3.725   2.466 -0.6295 -0.2827 -0.1900
 6466SOL    HW130860   3.498   3.796   2.452  0.7978 -1.0722  2.2444
 6466SOL    HW230861   3.469   3.680   2.389 -2.2010 -2.4539  0.4108
 6467SOL     OW30862   3.824   3.278  11.806  0.2726  0.4600 -0.2225
 6467SOL    HW130863   3.850   3.266  11.898 -0.6297 -0.4877 -0.0970
 6467SOL    HW230864   3.883   3.211  11.771  1.2387  0.8339  0.6766
 6468SOL     OW30865   4.233   2.998  13.373 -0.4508 -0.0165  0.3572
 6468SOL    HW130866   4.262   3.073  13.322  0.1334  0.7043  1.7369
 6468SOL    HW230867   4.149   3.040  13.392 -1.0466 -0.8620 -0.4130
 6469SOL     OW30868   4.135   2.640   0.893  0.0730 -0.0696  0.1129
 6469SOL    HW130869   4.053   2.663   0.848 -0.6539 -1.7454  0.5591
 6469SOL    HW230870   4.133   2.714   0.953 -3.0592  0.3861 -0.5150
 6470SOL     OW30871   4.036   3.012  15.912  0.1496  0.0923 -0.0209
 6470SOL    HW130872   4.094   3.012  15.988  3.9685  0.0977 -2.9831
 6470SOL    HW230873   3.963   2.968  15.957  1.3765 -3.0319 -1.1431
 6471SOL     OW30874   0.537   4.415   6.215  0.1892  0.2076 -0.1051
 6471SOL    HW130875   0.534   4.469   6.136  2.3545  1.3103  0.5616
 6471SOL    HW230876   0.456   4.438   6.260 -0.5253 -1.2716 -0.6611
 6472SOL     OW30877   0.874   0.571   2.342 -0.6464 -0.5666 -0.3992
 6472SOL    HW130878   0.938   0.638   2.365 -2.2502  0.2138  1.7738
 6472SOL    HW230879   0.874   0.516   2.420 -1.5440  1.1502  0.8079
 6473SOL     OW30880   1.316   2.154   9.397  0.2091  0.0694 -0.2422
 6473SOL    HW130881   1.405   2.125   9.378  0.3969  0.1023  0.5617
 6473SOL    HW230882   1.271   2.069   9.389 -1.6466  1.1031 -0.8370
 6474SOL     OW30883   0.457   4.167   1.938  0.6805  0.1275 -0.2733
 6474SOL    HW130884   0.511   4.090   1.956  0.3487 -0.1426 -0.4467
 6474SOL    HW230885   0.449   4.209   2.024 -3.3020 -1.5628  0.1720
 6475SOL     OW30886   0.804   4.123   3.289 -0.1169 -0.1094  0.4084
 6475SOL    HW130887   0.842   4.207   3.314  0.6458 -0.2189 -0.3814
 6475SOL    HW230888   0.874   4.073   3.330 -1.1580 -0.8404  1.2793
 6476SOL     OW30889   1.178   3.511  13.446 -0.0419  0.3712  0.3693
 6476SOL    HW130890   1.188   3.416  13.451  0.6715  0.4173 -0.1448
 6476SOL    HW230891   1.126   3.528  13.524 -0.3582 -1.6819  0.5948
 6477SOL     OW30892   0.601   1.290   3.697  0.2454  0.1895 -0.7713
 6477SOL    HW130893   0.516   1.269   3.735  0.6427  0.9912  0.5588
 6477SOL    HW230894   0.568   1.343   3.624 -0.3694  0.5060 -0.2641
 6478SOL     OW30895   4.227   4.229   6.553 -0.2368 -0.1368 -0.2584
 6478SOL    HW130896   4.290   4.157   6.546 -0.8046 -0.7691  1.1121
 6478SOL    HW230897   4.205   4.218   6.646  0.6505 -1.5585 -0.2160
 6479SOL     OW30898   1.897   0.165   6.101 -0.5492 -0.7331  0.1234
 6479SOL    HW130899   1.897   0.078   6.061  2.5127 -0.8986  0.4921
 6479SOL    HW230900   1.961   0.216   6.051 -0.9410 -1.1123 -0.7759
 6480SOL     OW30901   0.903   4.260  13.419  0.0309  0.2321  0.2068
 6480SOL    HW130902   0.841   4.265  13.346  1.8890  0.5276 -1.3465
 6480SOL    HW230903   0.872   4.310  13.494 -1.0028 -0.7465  0.4263
 6481SOL     OW30904   2.342   4.400   8.477 -0.2080 -0.4950 -0.3177
 6481SOL    HW130905   2.353   4.494   8.467  0.5551 -0.7886 -2.2167
 6481SOL    HW230906   2.338   4.395   8.573 -1.3041  1.7959 -0.2489
 6482SOL     OW30907   2.466   3.891   8.389 -0.1346 -0.4700  0.1448
 6482SOL    HW130908   2.447   3.905   8.481 -1.7761 -0.3326 -0.2055
 6482SOL    HW230909   2.485   3.798   8.398 -1.0625 -0.8791 -1.9663
 6483SOL     OW30910   1.959   4.093  10.478 -0.0521 -0.0459 -0.0436
 6483SOL    HW130911   2.017   4.018  10.484  0.2107  0.2655  1.4277
 6483SOL    HW230912   1.975   4.124  10.389  2.4400 -1.0906  0.0544
 6484SOL     OW30913   2.936   1.353   5.289  0.1442 -0.2401  0.0474
 6484SOL    HW130914   2.869   1.297   5.251 -3.0581  1.1562  3.5970
 6484SOL    HW230915   3.006   1.289   5.273 -0.6158 -1.4987  1.7504
 6485SOL     OW30916   4.095   2.285   6.905 -0.0901  0.2285 -0.2710
 6485SOL    HW130917   4.148   2.205   6.915 -0.9327 -0.2141  0.7136
 6485SOL    HW230918   4.111   2.305   6.813  0.1415  0.0612 -0.2661
 6486SOL     OW30919   1.305   4.066   8.238 -0.1424  0.2637 -0.4754
 6486SOL    HW130920   1.398   4.087   8.239 -0.3624  1.3085 -2.4110
 6486SOL    HW230921   1.261   4.140   8.280 -0.5277  0.9269 -2.0698
 6487SOL     OW30922   3.058   0.464  10.798 -0.3693 -0.3556  0.0087
 6487SOL    HW130923   3.128   0.400  10.810 -0.1059 -0.0272  0.2375
 6487SOL    HW230924   3.054   0.515  10.879 -0.1624  0.4522 -0.4897
 6488SOL     OW30925   0.330   4.126  16.692  0.0701  0.0694  0.0928
 6488SOL    HW130926   0.335   4.123  16.596 -0.8924  0.4727  0.0317
 6488SOL    HW230927   0.311   4.216  16.716  2.7154  0.5347  0.4097
 6489SOL     OW30928   1.203   1.776   9.026 -0.3003  0.2046  0.7327
 6489SOL    HW130929   1.174   1.773   8.935  0.4873  0.1809  0.4831
 6489SOL    HW230930   1.145   1.719   9.077  1.1924  1.5472  3.9590
 6490SOL     OW30931   3.238   2.916   2.363 -0.0307 -0.0164  0.1833
 6490SOL    HW130932   3.234   2.892   2.271  2.7355 -0.1888  0.1018
 6490SOL    HW230933   3.332   2.900   2.376  0.0117  1.9496  2.4104
 6491SOL     OW30934   2.275   0.298   3.744 -0.2058 -0.0610  0.5926
 6491SOL    HW130935   2.231   0.381   3.729  0.3890 -0.3400 -2.6066
 6491SOL    HW230936   2.202   0.237   3.757 -1.2408  0.5612 -2.2896
 6492SOL     OW30937   0.888   1.127  13.272 -0.5008  0.5861  0.3358
 6492SOL    HW130938   0.828   1.097  13.204  0.4374 -0.2797 -0.1125
 6492SOL    HW230939   0.969   1.144  13.222 -0.0360 -0.3447  0.7689
 6493SOL     OW30940   2.447   1.243  15.623 -0.5981  0.5801 -0.3100
 6493SOL    HW130941   2.467   1.297  15.547  1.6185  2.5368  1.6617
 6493SOL    HW230942   2.363   1.202  15.601  0.5706 -1.1153 -1.5881
 6494SOL     OW30943   2.462   1.612  14.249 -0.2387 -0.0361 -0.1025
 6494SOL    HW130944   2.465   1.580  14.339 -0.4671 -1.6058 -0.6439
 6494SOL    HW230945   2.462   1.530  14.199  1.6751  0.0040 -0.1753
 6495SOL     OW30946   0.434   1.351   8.896  0.2153  0.0202  0.2571
 6495SOL    HW130947   0.374   1.287   8.935 -0.6724 -0.7202 -2.3068
 6495SOL    HW230948   0.426   1.320   8.805 -0.7203  1.0136  0.0093
 6496SOL     OW30949   3.235   1.594   5.438  0.1475  0.8835 -0.4476
 6496SOL    HW130950   3.244   1.505   5.405 -0.6587  1.6430 -2.6897
 6496SOL    HW230951   3.171   1.626   5.374 -2.1037  1.5305  2.1300
 6497SOL     OW30952   1.010   4.276  14.621 -0.5024 -0.2576 -0.5777
 6497SOL    HW130953   1.062   4.262  14.700  0.4425 -2.1759 -1.5450
 6497SOL    HW230954   1.037   4.191  14.588 -3.7774 -0.9671 -1.4798
 6498SOL     OW30955   0.006   2.435   3.454 -0.0741 -0.2698  0.8672
 6498SOL    HW130956   4.638   2.430   3.477 -0.7670 -0.4115 -1.9614
 6498SOL    HW230957   0.016   2.347   3.417 -0.0291 -0.0601  0.3849
 6499SOL     OW30958   0.613   4.372  14.123 -0.1521 -0.3157  0.4547
 6499SOL    HW130959   0.569   4.302  14.171 -0.1312 -0.6495 -0.0185
 6499SOL    HW230960   0.655   4.419  14.196  1.4166  1.0415 -1.3132
 6500SOL     OW30961   3.746   2.575   7.227 -0.2825 -0.7187 -0.3604
 6500SOL    HW130962   3.779   2.558   7.315 -1.0373  1.3807  0.3425
 6500SOL    HW230963   3.822   2.631   7.211 -1.5579  0.6159 -1.7864
 6501SOL     OW30964   4.139   3.358   8.706 -0.2508 -0.5817  0.0186
 6501SOL    HW130965   4.098   3.273   8.722  0.6954 -1.2598 -1.1712
 6501SOL    HW230966   4.200   3.364   8.779  0.1706  2.4491 -0.5763
 6502SOL     OW30967   1.510   2.159   5.733 -0.1818  0.5783 -0.3918
 6502SOL    HW130968   1.426   2.168   5.689 -0.1956 -0.2856 -0.5511
 6502SOL    HW230969   1.570   2.106   5.679  0.1049  2.2418 -1.6944
 6503SOL     OW30970   4.488   1.187   6.463 -0.7467 -0.1743  0.0534
 6503SOL    HW130971   4.450   1.252   6.403 -0.0517  0.2914  0.1098
 6503SOL    HW230972   4.441   1.105   6.449 -1.5526 -0.0316  2.0169
 6504SOL     OW30973   4.501   3.326  11.865  0.4404 -0.6491 -0.1015
 6504SOL    HW130974   4.459   3.405  11.831 -0.7799 -2.3681 -2.6080
 6504SOL    HW230975   4.502   3.280  11.781 -2.1148  0.7866 -0.9186
 6505SOL     OW30976   3.299   3.339   4.386  0.2715 -0.3478 -0.2031
 6505SOL    HW130977   3.283   3.245   4.388 -2.2752  0.1064  1.1738
 6505SOL    HW230978   3.295   3.358   4.292  0.7648  1.8502  0.2016
 6506SOL     OW30979   1.697   4.173   5.522 -0.4027 -0.2359  0.0322
 6506SOL    HW130980   1.693   4.204   5.613 -0.8136  0.8653 -0.3650
 6506SOL    HW230981   1.773   4.217   5.485 -1.7835  1.8395 -0.3248
 6507SOL     OW30982   2.683   2.294   0.804  0.0050  0.1846  0.0040
 6507SOL    HW130983   2.618   2.361   0.826  0.5158  1.3243 -2.0143
 6507SOL    HW230984   2.723   2.342   0.732 -1.1304 -0.9516 -1.3947
 6508SOL     OW30985   2.596   2.478  11.852  0.2307 -0.0665 -0.0412
 6508SOL    HW130986   2.614   2.534  11.777  1.3621  0.1968  0.4347
 6508SOL    HW230987   2.561   2.549  11.908  1.4733  1.2620 -0.9633
 6509SOL     OW30988   1.961   0.069  15.891 -0.8025  0.1039 -0.4292
 6509SOL    HW130989   1.889   0.065  15.829  1.1526 -1.3080 -2.6308
 6509SOL    HW230990   1.925   0.028  15.970 -0.1006 -1.3467 -0.8575
 6510SOL     OW30991   1.670   2.028   2.487  0.3211  0.2318  0.7079
 6510SOL    HW130992   1.588   1.996   2.450  0.1982  1.0265  0.3085
 6510SOL    HW230993   1.652   2.117   2.517 -1.0724  0.6937 -1.5160
 6511SOL     OW30994   2.117   4.723   3.530  0.0181 -0.0790  0.1780
 6511SOL    HW130995   2.052   0.056   3.571 -0.0903  0.0374 -0.1547
 6511SOL    HW230996   2.183   0.062   3.501 -1.5078  1.8477  0.9532
 6512SOL     OW30997   3.913   4.141  17.318 -0.1486 -0.1067  0.4071
 6512SOL    HW130998   3.853   4.202  17.360 -0.5683 -1.3866  1.6714
 6512SOL    HW230999   3.985   4.195  17.286 -1.5486  0.5602 -1.5836
 6513SOL     OW31000   1.943   1.227   8.920 -0.4864  0.0362 -0.2627
 6513SOL    HW131001   2.004   1.297   8.940 -0.8801  0.0950  0.7140
 6513SOL    HW231002   1.953   1.172   8.998  2.3573  3.7194  1.9418
 6514SOL     OW31003   1.784   4.353   4.408 -0.9624 -0.3141 -0.2798
 6514SOL    HW131004   1.722   4.327   4.340  1.1228  0.5060 -2.4924
 6514SOL    HW231005   1.729   4.321   4.479 -2.4909  0.3210 -1.1675
 6515SOL     OW31006   1.677   1.598  17.057 -0.1925 -0.5022  0.0323
 6515SOL    HW131007   1.599   1.604  17.112 -1.9568 -0.3240 -2.5190
 6515SOL    HW231008   1.650   1.515  17.019  3.6744 -1.6697 -0.1276
 6516SOL     OW31009   4.353   1.965   4.373  0.2815  0.1836 -0.0612
 6516SOL    HW131010   4.441   1.997   4.394  0.1395  0.1339  0.6075
 6516SOL    HW231011   4.362   1.871   4.388  0.3121 -0.1445 -2.0808
 6517SOL     OW31012   3.276   2.981   7.829  0.1518 -0.1497 -0.1017
 6517SOL    HW131013   3.262   3.076   7.824 -2.8518 -0.5625  0.4134
 6517SOL    HW231014   3.304   2.962   7.740  4.1577 -0.2212  1.1588
 6518SOL     OW31015   4.417   3.400   8.333 -0.1298  0.0336  0.2221
 6518SOL    HW131016   4.484   3.345   8.373  0.5852  0.6812 -0.1045
 6518SOL    HW231017   4.338   3.347   8.347 -1.0839  1.1083 -1.0781
 6519SOL     OW31018   2.335   4.504   5.829  0.1431 -0.3461  0.7194
 6519SOL    HW131019   2.367   4.586   5.866 -2.0961  0.7199  0.3263
 6519SOL    HW231020   2.367   4.441   5.894  0.6341  0.2203  1.0310
 6520SOL     OW31021   3.962   2.109   5.209  0.6717  0.2168  0.3855
 6520SOL    HW131022   3.995   2.173   5.146  0.6200 -0.9509 -0.8339
 6520SOL    HW231023   3.939   2.172   5.277  1.2561 -0.3259  1.0933
 6521SOL     OW31024   0.296   3.206  15.532 -0.8158  0.4162 -0.4825
 6521SOL    HW131025   0.353   3.276  15.565  0.8235 -0.6917 -0.9689
 6521SOL    HW231026   0.212   3.233  15.569 -0.6319 -0.4219  0.5395
 6522SOL     OW31027   4.708   1.445   7.718 -0.1798  0.5240  0.0207
 6522SOL    HW131028   0.028   1.469   7.799  0.4229 -2.2380  0.5074
 6522SOL    HW231029   4.615   1.439   7.739 -0.1656  0.7412  0.1457
 6523SOL     OW31030   1.729   1.256   4.999 -0.3895 -0.3611  0.4150
 6523SOL    HW131031   1.810   1.261   5.051  0.9542  0.6934 -1.7837
 6523SOL    HW231032   1.696   1.345   5.007  3.0007  0.9304  0.2008
 6524SOL     OW31033   0.584   3.746   4.620  0.4459  0.0098 -0.4190
 6524SOL    HW131034   0.658   3.689   4.598  2.1333  1.4750  1.4418
 6524SOL    HW231035   0.559   3.787   4.537  1.8793 -2.9887 -2.3268
 6525SOL     OW31036   1.951   4.642   5.988  0.2933 -0.2470 -0.2738
 6525SOL    HW131037   1.906   4.569   6.031 -0.0999  1.4759  2.2485
 6525SOL    HW231038   2.014   4.587   5.941  1.5254  1.2561 -0.3522
 6526SOL     OW31039   2.006   2.706   5.238 -0.8378 -0.2299 -0.2388
 6526SOL    HW131040   2.085   2.654   5.227 -0.1698  0.7378 -0.0709
 6526SOL    HW231041   1.993   2.744   5.151 -1.3005 -0.2646 -0.1822
 6527SOL     OW31042   1.261   4.282   7.047 -0.7352 -0.4617  0.3409
 6527SOL    HW131043   1.349   4.269   7.012 -1.1716 -0.4687 -0.7678
 6527SOL    HW231044   1.211   4.310   6.970  0.7411 -1.1458 -0.8713
 6528SOL     OW31045   0.269   3.717   2.175  0.5769  0.4607 -0.0405
 6528SOL    HW131046   0.266   3.633   2.129  1.1998  0.6985 -0.5057
 6528SOL    HW231047   0.175   3.731   2.187  0.3161 -0.7995 -0.5953
 6529SOL     OW31048   4.368   1.470   0.184 -0.2554 -0.0352 -0.2222
 6529SOL    HW131049   4.279   1.489   0.154 -0.1798  1.1299  0.3135
 6529SOL    HW231050   4.426   1.487   0.109  0.3854 -0.8738  0.0675
 6530SOL     OW31051   4.699   3.625  11.848  0.1750  0.0206  0.1178
 6530SOL    HW131052   4.620   3.579  11.819  0.7115  0.6358 -2.3649
 6530SOL    HW231053   4.695   3.707  11.798  0.9978 -1.1856 -1.9224
 6531SOL     OW31054   4.245   3.827   6.134  0.0744 -0.1532  0.0199
 6531SOL    HW131055   4.226   3.763   6.065  0.1384  0.2237 -0.3483
 6531SOL    HW231056   4.304   3.888   6.090 -1.7285  0.9358 -0.8947
 6532SOL     OW31057   2.280   1.781   3.473 -0.2278  0.3170  0.6987
 6532SOL    HW131058   2.187   1.790   3.453 -0.4315 -0.5376  1.2331
 6532SOL    HW231059   2.309   1.865   3.438  1.0123 -0.8219 -0.9694
 6533SOL     OW31060   0.198   1.428   7.116  0.3744  0.0930  0.0390
 6533SOL    HW131061   0.246   1.351   7.086  0.4550 -0.5768  1.9247
 6533SOL    HW231062   0.183   1.405   7.207  0.0369 -0.4419 -0.1564
 6534SOL     OW31063   0.087   3.609   4.451  0.1372  0.0451  0.0885
 6534SOL    HW131064   0.146   3.647   4.386 -1.5024  1.3182 -0.6423
 6534SOL    HW231065   0.003   3.650   4.430 -0.5392 -1.0427  0.7080
 6535SOL     OW31066   1.309   1.894   2.119 -0.1923  0.9627 -0.1505
 6535SOL    HW131067   1.233   1.952   2.112  0.0739  1.3560  0.2177
 6535SOL    HW231068   1.281   1.811   2.080 -1.4327  0.8711  0.9485
 6536SOL     OW31069   4.592   3.874   7.093 -0.6484  0.3190 -0.0900
 6536SOL    HW131070   4.540   3.890   7.014  1.3056  1.8683 -1.0806
 6536SOL    HW231071   4.588   3.958   7.140 -2.0789  0.6926 -0.8855
 6537SOL     OW31072   1.999   3.258   6.931 -0.1886  0.4997 -0.0105
 6537SOL    HW131073   1.911   3.227   6.949  0.1308  0.3799  1.4011
 6537SOL    HW231074   2.026   3.207   6.855 -1.3904  1.1026 -0.8316
 6538SOL     OW31075   1.693   4.457   1.807 -0.4037  0.5849  0.5318
 6538SOL    HW131076   1.712   4.530   1.748  1.0785 -0.0511  0.2323
 6538SOL    HW231077   1.775   4.411   1.824 -0.8731 -0.1125  0.8856
 6539SOL     OW31078   1.348   3.274   4.959 -0.2909 -0.6529 -0.4309
 6539SOL    HW131079   1.354   3.326   4.879 -1.1988 -0.1417 -0.1694
 6539SOL    HW231080   1.439   3.280   4.988 -0.6161 -0.3537  0.5057
 6540SOL     OW31081   2.070   1.786   9.173 -0.8252 -0.0393  0.1063
 6540SOL    HW131082   2.038   1.829   9.252 -0.2808 -0.4438  0.5415
 6540SOL    HW231083   2.047   1.696   9.193 -0.7936 -0.2795 -0.9040
 6541SOL     OW31084   1.367   0.100   7.881  0.3829 -0.1982 -0.2666
 6541SOL    HW131085   1.406   0.168   7.937  0.3867  1.7934 -2.6769
 6541SOL    HW231086   1.286   0.072   7.924  1.0068  0.1779  1.1902
 6542SOL     OW31087   4.229   1.173   8.252  0.5245 -0.8479  0.3844
 6542SOL    HW131088   4.285   1.115   8.201  1.0383 -0.9598  1.0671
 6542SOL    HW231089   4.153   1.185   8.195 -0.4564 -0.5729  1.7429
 6543SOL     OW31090   3.504   3.505  10.005 -0.0438  0.7343 -0.5638
 6543SOL    HW131091   3.464   3.437  10.059  1.7253 -1.2724 -1.8096
 6543SOL    HW231092   3.435   3.524   9.942  0.7744 -0.6067 -1.8665
 6544SOL     OW31093   1.420   3.912  13.519  0.0645 -0.3072  0.4756
 6544SOL    HW131094   1.513   3.926  13.500 -0.0110  0.8986  0.9966
 6544SOL    HW231095   1.412   3.817  13.519  0.8370 -0.3737 -0.0537
 6545SOL     OW31096   1.371   3.846   3.539  0.3511 -0.0042  0.5604
 6545SOL    HW131097   1.368   3.920   3.477 -2.3880 -0.6614 -0.0879
 6545SOL    HW231098   1.450   3.799   3.513 -0.1934 -1.1927  1.0521
 6546SOL     OW31099   3.656   1.945  16.255  0.0239 -0.9756 -0.1064
 6546SOL    HW131100   3.561   1.955  16.265  0.1217 -0.2465  0.0650
 6546SOL    HW231101   3.655   1.882  16.183 -1.4325 -2.0419  0.8532
 6547SOL     OW31102   0.739   1.280   3.076 -0.3929 -0.3881  0.0432
 6547SOL    HW131103   0.825   1.323   3.068 -1.1247  0.6136 -2.4898
 6547SOL    HW231104   0.692   1.315   3.000  1.2692  1.7562 -0.0009
 6548SOL     OW31105   3.689   0.675  14.706  0.1966 -0.6044  0.2630
 6548SOL    HW131106   3.760   0.659  14.644 -0.1401  2.3129 -0.8838
 6548SOL    HW231107   3.617   0.655  14.646  1.0215  0.5714 -1.1331
 6549SOL     OW31108   4.296   3.409   5.908  0.1203  0.3603  0.4399
 6549SOL    HW131109   4.375   3.419   5.855 -1.3993 -0.3783 -1.9412
 6549SOL    HW231110   4.330   3.349   5.974  1.5325  0.5126 -0.1607
 6550SOL     OW31111   2.034   0.214   6.630  0.2521  0.2489  0.1519
 6550SOL    HW131112   1.981   0.137   6.609 -0.0365  0.8982 -1.4766
 6550SOL    HW231113   1.964   0.280   6.627 -0.3237 -0.4626 -2.0800
 6551SOL     OW31114   1.316   2.415   4.250  0.3117  0.3408 -0.3279
 6551SOL    HW131115   1.220   2.425   4.251 -0.0027 -2.4437 -1.9263
 6551SOL    HW231116   1.347   2.492   4.297 -0.6245  1.5374 -1.6758
 6552SOL     OW31117   4.200   2.489   4.882  0.1820  0.1764 -0.1343
 6552SOL    HW131118   4.195   2.573   4.927 -2.9247 -0.9129  1.5487
 6552SOL    HW231119   4.183   2.415   4.941  1.9714  0.5051  0.8179
 6553SOL     OW31120   4.292   2.913  17.017  0.1293 -0.7653 -0.2259
 6553SOL    HW131121   4.366   2.924  16.957 -0.7816 -1.1129 -1.4157
 6553SOL    HW231122   4.326   2.834  17.060  1.6668  0.3459  0.5894
 6554SOL     OW31123   2.986   2.646   7.455  0.0862 -0.0963 -0.0311
 6554SOL    HW131124   3.047   2.574   7.438  0.6459  0.0420  1.3469
 6554SOL    HW231125   3.003   2.660   7.548 -1.1428  1.1546  0.0056
 6555SOL     OW31126   2.649   2.718   6.060  0.1902  0.0106  0.1026
 6555SOL    HW131127   2.709   2.788   6.088  0.2584  0.1862 -0.4816
 6555SOL    HW231128   2.607   2.704   6.145  0.0923  0.5338  0.1409
 6556SOL     OW31129   1.280   0.054   5.461  0.3242  0.2487 -0.3167
 6556SOL    HW131130   1.261   4.690   5.492 -1.0082  0.6486  0.0092
 6556SOL    HW231131   1.310   0.014   5.380  1.0784 -3.3043  1.7146
 6557SOL     OW31132   0.400   1.931   6.862  0.6413  0.2560  0.5018
 6557SOL    HW131133   0.472   1.923   6.925 -0.0848  0.1739  1.3338
 6557SOL    HW231134   0.392   1.841   6.831 -0.4235  1.4576 -2.6532
 6558SOL     OW31135   2.275   2.382   8.304 -0.3113  1.0312  0.1451
 6558SOL    HW131136   2.199   2.426   8.342 -1.5207 -0.9298 -0.0313
 6558SOL    HW231137   2.283   2.437   8.226 -0.8189  0.0549 -0.5945
 6559SOL     OW31138   1.613   2.423   3.933  0.0132  0.7546 -0.4940
 6559SOL    HW131139   1.592   2.512   3.959  0.7813  0.5961  0.6586
 6559SOL    HW231140   1.531   2.381   3.960  0.0645 -0.6177 -2.3879
 6560SOL     OW31141   2.741   2.498   5.688  0.2818  0.0418  0.4293
 6560SOL    HW131142   2.739   2.576   5.632  1.1133 -1.4273 -1.6900
 6560SOL    HW231143   2.833   2.471   5.690  0.1321 -0.4289  0.9390
 6561SOL     OW31144   2.697   3.924   2.506  0.2199  0.3816  0.1461
 6561SOL    HW131145   2.769   3.986   2.517  2.0598 -1.5565 -0.9846
 6561SOL    HW231146   2.636   3.968   2.447  0.7865 -0.2521 -0.9172
 6562SOL     OW31147   0.007   1.236   7.528 -0.1860 -0.3208 -0.3850
 6562SOL    HW131148   0.022   1.293   7.604  2.4075 -2.2711  0.5840
 6562SOL    HW231149   4.686   1.162   7.568 -0.3183  0.4453  0.8666
 6563SOL     OW31150   0.314   0.670   7.277  0.0403 -0.3708  0.3183
 6563SOL    HW131151   0.296   0.579   7.256  0.0424 -0.9477  2.8575
 6563SOL    HW231152   0.402   0.683   7.242  0.3468  2.3675  2.0843
 6564SOL     OW31153   0.367   0.886   5.084  0.2599 -0.3999 -0.2178
 6564SOL    HW131154   0.308   0.913   5.155  1.0825 -1.3628  0.8347
 6564SOL    HW231155   0.452   0.880   5.128  0.3087  2.0917 -0.0039
 6565SOL     OW31156   2.413   0.803   7.512 -0.0577  0.3729 -0.3239
 6565SOL    HW131157   2.488   0.751   7.541  0.6770  0.7103 -1.6721
 6565SOL    HW231158   2.347   0.742   7.546  1.7952 -1.3872  0.1160
 6566SOL     OW31159   3.227   3.267   9.406 -0.1755 -0.1385 -0.2494
 6566SOL    HW131160   3.154   3.238   9.460 -0.0694  0.2389  0.0929
 6566SOL    HW231161   3.183   3.314   9.336 -0.9087 -0.8533 -0.2649
 6567SOL     OW31162   2.859   4.218   4.064  0.0562 -0.1631 -0.3410
 6567SOL    HW131163   2.803   4.163   4.009  1.4537 -0.2543 -1.6967
 6567SOL    HW231164   2.850   4.307   4.032  1.1964  0.4703  1.1032
 6568SOL     OW31165   3.764   0.329   5.916 -0.3357  0.4648  0.2906
 6568SOL    HW131166   3.732   0.366   5.834  0.1186  0.1530 -0.0290
 6568SOL    HW231167   3.750   0.404   5.974 -1.9586  0.7757 -0.5105
 6569SOL     OW31168   2.568   1.153   7.917  0.0122  0.3307  0.3784
 6569SOL    HW131169   2.525   1.219   7.863  2.2172  0.4052 -1.2680
 6569SOL    HW231170   2.575   1.074   7.862  1.1657  0.7570 -0.0791
 6570SOL     OW31171   1.658   4.231   3.838  0.3784  0.0717  0.1528
 6570SOL    HW131172   1.576   4.222   3.888 -0.6424  3.6013 -0.8477
 6570SOL    HW231173   1.685   4.322   3.851  0.9919  0.0516 -1.0342
 6571SOL     OW31174   3.556   4.716   3.620 -0.6171  0.1437  0.1705
 6571SOL    HW131175   3.550   0.071   3.672  1.5057 -0.6170  1.6035
 6571SOL    HW231176   3.489   4.665   3.665  0.2148  0.1502  1.4329
 6572SOL     OW31177   1.063   0.828   4.279 -0.4495 -0.0061  0.6509
 6572SOL    HW131178   1.081   0.866   4.193  1.2166 -1.0428  0.5418
 6572SOL    HW231179   1.152   0.814   4.313 -0.7746  0.1156  1.5515
 6573SOL     OW31180   0.499   3.167   3.844 -0.0029  0.0217  0.0806
 6573SOL    HW131181   0.483   3.259   3.823 -1.2674 -0.0294  0.8452
 6573SOL    HW231182   0.578   3.173   3.898  0.0286  0.0783  0.0276
 6574SOL     OW31183   0.508   3.717  16.226  0.7396 -0.6817  0.4665
 6574SOL    HW131184   0.546   3.765  16.153 -1.7403  0.6064  0.0293
 6574SOL    HW231185   0.509   3.777  16.301  0.4011  0.1705 -0.2105
 6575SOL     OW31186   0.548   2.929  11.199  0.0665 -0.4808 -0.1238
 6575SOL    HW131187   0.605   2.854  11.215 -2.0226 -1.4565  2.8053
 6575SOL    HW231188   0.589   2.995  11.255 -0.0741  0.0048 -0.5953
 6576SOL     OW31189   3.216   4.639   0.537  0.1555  0.2263 -0.0093
 6576SOL    HW131190   3.243   4.563   0.589 -0.7093 -1.9786 -2.7499
 6576SOL    HW231191   3.171   4.589   0.469  0.8612 -0.1480 -0.1977
 6577SOL     OW31192   1.701   2.269   2.245  0.0772 -0.2332  0.0788
 6577SOL    HW131193   1.737   2.216   2.174 -1.7157 -1.6019  0.1940
 6577SOL    HW231194   1.611   2.273   2.212 -0.2769 -1.5293  0.8980
 6578SOL     OW31195   1.772   1.157  15.809  0.2892  0.0456  0.1738
 6578SOL    HW131196   1.865   1.169  15.789  0.3179 -0.7062 -0.1369
 6578SOL    HW231197   1.749   1.139  15.718 -0.2667  1.3676  0.0529
 6579SOL     OW31198   0.479   4.128  16.431 -0.4945  0.4019 -0.0580
 6579SOL    HW131199   0.428   4.166  16.359  1.3523 -0.7203 -1.9382
 6579SOL    HW231200   0.518   4.197  16.483 -0.9870  0.3355  0.3978
 6580SOL     OW31201   3.444   0.501   8.719 -0.3504 -0.9199 -0.8770
 6580SOL    HW131202   3.363   0.461   8.688 -1.7117  2.1986 -1.3653
 6580SOL    HW231203   3.502   0.453   8.661 -1.3293 -1.0858 -1.7164
 6581SOL     OW31204   4.276   1.747   4.813  0.2850  0.2142 -0.2669
 6581SOL    HW131205   4.292   1.837   4.842 -0.0845  0.1107  0.2718
 6581SOL    HW231206   4.195   1.761   4.763 -0.3210  0.9401  0.9110
 6582SOL     OW31207   1.196   2.296   6.744 -0.4101 -0.2029 -0.4657
 6582SOL    HW131208   1.197   2.224   6.681  1.4513  0.1811 -0.8708
 6582SOL    HW231209   1.102   2.288   6.763 -0.7017  1.5599 -1.1864
 6583SOL     OW31210   3.364   2.282   8.708 -0.0421 -0.4343  0.2540
 6583SOL    HW131211   3.372   2.213   8.642  0.1294  0.9634 -1.1939
 6583SOL    HW231212   3.367   2.233   8.790 -1.4756 -0.6693  0.1676
 6584SOL     OW31213   1.485   0.454   8.236 -0.1828 -0.2432 -0.5492
 6584SOL    HW131214   1.569   0.500   8.232 -0.6294  0.3093 -3.4985
 6584SOL    HW231215   1.433   0.518   8.189 -0.8639  0.2971  0.9708
 6585SOL     OW31216   3.680   3.439   6.609 -0.7387 -0.4397 -0.3633
 6585SOL    HW131217   3.599   3.394   6.589 -1.0148 -0.3745  0.5977
 6585SOL    HW231218   3.745   3.369   6.620  1.0047  0.9914 -1.4137
 6586SOL     OW31219   1.215   2.633   9.924  0.2856 -0.1607 -0.1673
 6586SOL    HW131220   1.282   2.653   9.858  1.0300  0.2460  0.7135
 6586SOL    HW231221   1.263   2.565   9.971 -1.2518 -1.0347  0.1181
 6587SOL     OW31222   2.976   0.792   5.862 -0.2273  0.1907 -0.0286
 6587SOL    HW131223   2.998   0.713   5.912 -1.7861  0.2488  0.7227
 6587SOL    HW231224   3.008   0.764   5.776  0.0864  0.5992 -0.0469
 6588SOL     OW31225   2.856   3.721   8.040 -0.1930 -0.1362  0.8049
 6588SOL    HW131226   2.835   3.655   8.105 -3.1722  0.2436  0.2041
 6588SOL    HW231227   2.779   3.775   8.059 -1.4694 -0.9649 -1.9041
 6589SOL     OW31228   2.383   2.946   9.750 -0.7458  0.0468 -0.5202
 6589SOL    HW131229   2.344   2.961   9.835  1.9155  0.5866  0.6126
 6589SOL    HW231230   2.448   2.880   9.775  0.7941  2.3856  1.6383
 6590SOL     OW31231   1.401   1.787  10.780 -0.6593 -0.7040  0.0442
 6590SOL    HW131232   1.424   1.879  10.768 -0.1327 -0.8157  0.1805
 6590SOL    HW231233   1.335   1.784  10.711 -0.6174  1.7103 -0.1132
 6591SOL     OW31234   3.374   2.672  15.342 -0.2134  0.0229 -0.2900
 6591SOL    HW131235   3.457   2.631  15.319 -1.5221 -2.5889 -0.4037
 6591SOL    HW231236   3.346   2.726  15.268 -0.5792  0.0585 -0.1294
 6592SOL     OW31237   4.191   4.719  13.698  0.4378 -0.4503  0.0852
 6592SOL    HW131238   4.113   4.681  13.739  1.1029 -3.3734 -1.3883
 6592SOL    HW231239   4.203   0.072  13.753  1.5126 -2.0265  2.0788
 6593SOL     OW31240   0.827   1.166   6.176 -0.1507 -0.1656  0.0423
 6593SOL    HW131241   0.913   1.155   6.135  0.2626  0.3005  0.7883
 6593SOL    HW231242   0.849   1.147   6.267  0.5857 -0.1020 -0.1164
 6594SOL     OW31243   0.137   1.911   1.154 -0.4614 -0.4647 -0.4818
 6594SOL    HW131244   0.216   1.961   1.133 -0.1807 -1.1459 -1.0375
 6594SOL    HW231245   0.093   1.986   1.193 -1.5282 -0.1477 -2.3312
 6595SOL     OW31246   1.697   3.047   9.606 -0.3173 -0.2935 -0.3097
 6595SOL    HW131247   1.623   3.000   9.644  0.8384 -1.1615  0.8840
 6595SOL    HW231248   1.758   3.019   9.675 -0.1267 -0.0508 -0.3815
 6596SOL     OW31249   2.300   4.443   2.391 -0.3759  0.2826  0.0296
 6596SOL    HW131250   2.394   4.455   2.383 -0.1713 -0.4405  1.2913
 6596SOL    HW231251   2.306   4.358   2.433  0.1563  1.4687  2.3459
 6597SOL     OW31252   3.008   0.705   1.492  0.0819  0.1543 -0.1262
 6597SOL    HW131253   2.937   0.697   1.428 -0.3691 -1.1777  0.5473
 6597SOL    HW231254   2.960   0.760   1.553  0.4287  0.5425 -0.2022
 6598SOL     OW31255   2.905   1.054   6.252  0.4682  0.4070  0.4179
 6598SOL    HW131256   2.896   1.128   6.192  2.0111  0.9665  0.8840
 6598SOL    HW231257   2.880   1.079   6.340  0.5564 -0.9679  0.8393
 6599SOL     OW31258   4.616   4.186   2.747 -0.8232  0.2080 -0.5145
 6599SOL    HW131259   4.625   4.091   2.759 -0.4491  0.4785  1.4520
 6599SOL    HW231260   4.706   4.217   2.737 -0.6819 -0.5464 -1.5508
 6600SOL     OW31261   0.133   1.091  12.147 -0.1565  0.1853  0.0830
 6600SOL    HW131262   0.139   1.186  12.146 -2.1749  0.3276  1.3183
 6600SOL    HW231263   0.042   1.078  12.172 -0.2212  0.3943 -0.0452
 6601SOL     OW31264   4.656   1.478   1.818  0.5478 -0.6875 -0.4109
 6601SOL    HW131265   4.721   1.419   1.778  0.1001 -1.7350  0.3812
 6601SOL    HW231266   4.576   1.427   1.813 -0.3715  0.7606 -0.3444
 6602SOL     OW31267   3.912   1.340   1.536  0.1895  0.4028  0.4019
 6602SOL    HW131268   3.992   1.296   1.565  0.3489  0.3589 -0.0967
 6602SOL    HW231269   3.847   1.279   1.571 -0.9141  1.4528  0.1583
 6603SOL     OW31270   3.125   0.172   1.381 -0.2289 -0.0795  0.3797
 6603SOL    HW131271   3.154   0.192   1.291  1.9723 -0.4849  1.0002
 6603SOL    HW231272   3.165   0.251   1.419  0.3176 -0.8973  1.4995
 6604SOL     OW31273   2.142   3.569  10.445  0.0363 -0.2843  0.1743
 6604SOL    HW131274   2.195   3.578  10.366  0.9373  1.5794  1.0021
 6604SOL    HW231275   2.139   3.659  10.478 -1.1269 -0.2670  0.0328
 6605SOL     OW31276   0.385   0.083   0.622 -0.1258 -0.0456  0.3412
 6605SOL    HW131277   0.450   0.108   0.688  0.7118  0.9966 -0.8832
 6605SOL    HW231278   0.377   0.172   0.589 -0.8192  0.3843  1.6815
 6606SOL     OW31279   2.265   4.269   3.199  0.4386  0.1673  0.2171
 6606SOL    HW131280   2.275   4.349   3.250  0.5213  1.0681 -1.2050
 6606SOL    HW231281   2.306   4.293   3.115  0.3239  1.1011  0.4322
 6607SOL     OW31282   4.584   2.300  12.074  0.7304 -0.0269 -0.0934
 6607SOL    HW131283   4.585   2.375  12.015  0.2849  1.4953  1.8632
 6607SOL    HW231284   4.675   2.300  12.105  0.6750  1.1688  0.0463
 6608SOL     OW31285   4.295   1.078   8.516  0.8138  0.0182  0.1819
 6608SOL    HW131286   4.233   1.006   8.522  1.1169 -0.2056  0.6184
 6608SOL    HW231287   4.282   1.105   8.425 -0.7795  2.5150  1.1347
 6609SOL     OW31288   4.267   4.541   4.163 -0.4157 -0.1421  0.2082
 6609SOL    HW131289   4.172   4.555   4.168 -0.2409  1.6143 -1.5076
 6609SOL    HW231290   4.277   4.482   4.088  1.7758 -1.3801  1.4759
 6610SOL     OW31291   0.160   4.366   4.729  0.2380  0.3769 -0.0976
 6610SOL    HW131292   0.210   4.441   4.697  2.0943 -1.0893 -0.6418
 6610SOL    HW231293   0.072   4.385   4.696  0.6834  2.2620 -0.2282
 6611SOL     OW31294   2.752   3.179   3.121  0.5793  0.2806 -0.0953
 6611SOL    HW131295   2.838   3.196   3.159  0.3189  0.9201  0.2021
 6611SOL    HW231296   2.728   3.106   3.178 -1.0275 -0.6588 -1.9403
 6612SOL     OW31297   0.358   1.243   3.793  0.4502  0.3065  0.0815
 6612SOL    HW131298   0.299   1.168   3.799 -0.9869  1.3257 -1.2145
 6612SOL    HW231299   0.293   1.312   3.777 -1.8921 -2.0246 -0.5213
 6613SOL     OW31300   2.417   1.775   7.276  0.3174 -0.1304  0.3007
 6613SOL    HW131301   2.347   1.823   7.320 -0.1928 -0.7657  0.1689
 6613SOL    HW231302   2.469   1.746   7.351  1.4287 -0.7920 -0.7294
 6614SOL     OW31303   2.247   3.160   5.698 -0.1112 -0.0978 -0.2932
 6614SOL    HW131304   2.204   3.160   5.612 -0.8534  1.5511  0.0794
 6614SOL    HW231305   2.196   3.226   5.745  1.9099  0.7323  0.7065
 6615SOL     OW31306   3.038   0.594   2.342  0.2533 -0.1451  0.2260
 6615SOL    HW131307   3.001   0.670   2.386  0.1795 -0.1573  0.1852
 6615SOL    HW231308   3.133   0.602   2.354 -0.0070  0.9469  1.4604
 6616SOL     OW31309   1.403   1.512  11.961  0.6162 -0.2790 -0.3599
 6616SOL    HW131310   1.450   1.450  12.017 -1.6798 -1.3843  0.3540
 6616SOL    HW231311   1.417   1.589  12.016  0.0468 -0.7990  0.5256
 6617SOL     OW31312   2.795   2.430   0.611  0.1159  0.5123 -0.0521
 6617SOL    HW131313   2.810   2.400   0.522  1.4193  0.7828  0.0820
 6617SOL    HW231314   2.878   2.470   0.638  0.2411  0.8944 -1.0131
 6618SOL     OW31315   0.163   1.690   7.042 -0.2814 -0.4074  0.3660
 6618SOL    HW131316   0.230   1.686   6.974 -0.9293 -1.9365 -0.1796
 6618SOL    HW231317   0.177   1.599   7.067  0.3453 -0.8794 -1.7193
 6619SOL     OW31318   0.944   2.930  14.068  0.0830  0.0905 -0.2774
 6619SOL    HW131319   0.934   2.898  14.158  1.4840  0.0435 -0.1441
 6619SOL    HW231320   1.012   2.874  14.032  1.3980 -0.2717  2.7787
 6620SOL     OW31321   4.332   3.941   0.683  0.3390  0.4775  0.0637
 6620SOL    HW131322   4.402   3.995   0.645 -1.5155  2.2173 -0.8329
 6620SOL    HW231323   4.257   3.995   0.658 -0.2994 -0.7155 -0.5500
 6621SOL     OW31324   4.409   4.437   7.343 -0.5454 -0.3001  0.6021
 6621SOL    HW131325   4.493   4.468   7.378 -0.7779 -0.1551  1.0259
 6621SOL    HW231326   4.420   4.479   7.257 -0.0258 -1.9029 -0.1259
 6622SOL     OW31327   3.159   0.906   9.185 -0.1387 -0.0858 -0.1885
 6622SOL    HW131328   3.109   0.983   9.211  1.8305  1.0065  0.3546
 6622SOL    HW231329   3.146   0.846   9.258  1.1245  0.9260  0.8592
 6623SOL     OW31330   0.513   4.046   4.720  0.2505  0.2413 -0.0485
 6623SOL    HW131331   0.437   4.095   4.750  0.5409  0.9395 -0.4476
 6623SOL    HW231332   0.467   3.987   4.661 -0.0977  0.9366 -0.4696
 6624SOL     OW31333   4.474   1.561   5.214 -0.0250  0.2305  0.8544
 6624SOL    HW131334   4.459   1.467   5.223  0.6612 -0.1117 -1.4382
 6624SOL    HW231335   4.453   1.559   5.120 -0.7562  1.3055  0.9906
 6625SOL     OW31336   4.659   1.840   2.185  0.1397 -0.2231 -0.4748
 6625SOL    HW131337   4.662   1.898   2.108 -2.5709 -0.7689 -0.9906
 6625SOL    HW231338   4.575   1.796   2.175  1.3315 -2.3701 -1.3456
 6626SOL     OW31339   2.451   0.082   9.577 -0.6296 -0.4932  0.0667
 6626SOL    HW131340   2.491   0.056   9.660 -0.0159 -0.8072 -0.3330
 6626SOL    HW231341   2.368   0.040   9.598 -1.6795  1.6657  0.2910
 6627SOL     OW31342   3.552   4.132   6.798 -0.4271  0.5782 -0.0745
 6627SOL    HW131343   3.483   4.083   6.755 -0.2238  0.8957 -0.7702
 6627SOL    HW231344   3.535   4.124   6.892  0.8492 -1.5376 -0.0318
 6628SOL     OW31345   3.336   3.032   5.020 -0.4994 -0.5750 -0.0444
 6628SOL    HW131346   3.396   2.960   5.005  0.6440  0.3316  0.1762
 6628SOL    HW231347   3.353   3.047   5.113 -0.1840  2.6299 -0.6011
 6629SOL     OW31348   3.477   3.670  15.819  0.4366 -0.0361 -0.3128
 6629SOL    HW131349   3.414   3.618  15.869 -0.9661 -0.9040 -2.9833
 6629SOL    HW231350   3.516   3.724  15.888 -1.2529  0.6417  0.1194
 6630SOL     OW31351   0.697   1.652   4.577  0.4276  0.2515  0.6290
 6630SOL    HW131352   0.642   1.729   4.593 -0.0469 -0.1793  1.0570
 6630SOL    HW231353   0.747   1.646   4.658  1.6463  1.0348 -0.0649
 6631SOL     OW31354   2.724   2.954  11.929 -0.3191  0.2174  0.3920
 6631SOL    HW131355   2.718   2.897  12.005 -1.6448  0.5897  0.5621
 6631SOL    HW231356   2.813   2.935  11.898 -1.2193 -2.6192 -0.3698
 6632SOL     OW31357   2.702   2.281   2.960 -0.0108  0.3642  0.0642
 6632SOL    HW131358   2.737   2.209   2.907  1.1898  0.8466  0.2087
 6632SOL    HW231359   2.633   2.235   3.010 -1.0091  2.6337  0.7542
 6633SOL     OW31360   2.830   4.241   4.601  0.3100 -0.4908  0.1752
 6633SOL    HW131361   2.839   4.243   4.506  1.5527  0.2911  0.3081
 6633SOL    HW231362   2.746   4.196   4.610 -0.2677  0.3546 -0.9802
 6634SOL     OW31363   4.163   3.506   3.819  0.0341 -0.7370  0.5111
 6634SOL    HW131364   4.093   3.470   3.764  0.8735 -1.9756  0.2513
 6634SOL    HW231365   4.236   3.446   3.809  0.1386 -0.3766 -0.9523
 6635SOL     OW31366   2.844   2.205   2.693  0.2606 -0.0944 -0.1051
 6635SOL    HW131367   2.938   2.197   2.679  0.7837  0.6727  3.0128
 6635SOL    HW231368   2.810   2.124   2.654  0.9762  0.4246 -1.7942
 6636SOL     OW31369   2.288   3.563   4.339  0.1490 -0.8538  0.0149
 6636SOL    HW131370   2.376   3.532   4.362  0.4051 -0.0973  0.0351
 6636SOL    HW231371   2.240   3.480   4.336 -0.7272 -0.3017 -1.0800
 6637SOL     OW31372   2.221   0.934  12.303 -0.3312  0.9401 -0.1079
 6637SOL    HW131373   2.244   1.023  12.276 -2.3102  0.9506 -1.7340
 6637SOL    HW231374   2.309   0.900  12.321  0.1577  2.6958  0.7884
 6638SOL     OW31375   0.812   1.797   0.230 -0.2734 -0.6905  0.0341
 6638SOL    HW131376   0.790   1.717   0.278  1.2256 -1.6375 -0.8584
 6638SOL    HW231377   0.800   1.759   0.143 -0.3548  0.2458 -0.3642
 6639SOL     OW31378   3.264   4.486   5.299  0.8332 -0.1178 -0.0090
 6639SOL    HW131379   3.303   4.574   5.299  1.8613 -0.5725  3.0228
 6639SOL    HW231380   3.290   4.458   5.211  0.8697 -2.3831  0.7358
 6640SOL     OW31381   2.621   4.538   0.533  0.0895  0.3869  0.0686
 6640SOL    HW131382   2.705   4.583   0.548  0.4837 -0.2638 -0.1887
 6640SOL    HW231383   2.595   4.531   0.625 -5.3362  2.8041 -1.3108
 6641SOL     OW31384   2.829   3.365   0.354 -0.4310 -0.3070  0.1639
 6641SOL    HW131385   2.881   3.287   0.371 -2.3102 -1.7058 -0.5194
 6641SOL    HW231386   2.768   3.365   0.428  0.8154 -0.5367  1.1922
 6642SOL     OW31387   1.853   0.909   8.775  0.0797 -0.4753  0.0731
 6642SOL    HW131388   1.822   0.941   8.859  0.3955  0.5861 -0.2117
 6642SOL    HW231389   1.818   0.983   8.725 -1.0927 -2.0636 -1.4263
 6643SOL     OW31390   2.423   2.873   8.499  0.0932 -0.1031  0.1387
 6643SOL    HW131391   2.457   2.794   8.541  0.6756 -0.7389 -1.5318
 6643SOL    HW231392   2.455   2.948   8.549 -1.2902  0.3717  0.3125
 6644SOL     OW31393   2.301   2.813   0.521  0.3524  0.0434  0.0256
 6644SOL    HW131394   2.262   2.893   0.484  0.1710 -0.7547 -1.5092
 6644SOL    HW231395   2.287   2.741   0.460  1.2242  0.2378 -0.4082
 6645SOL     OW31396   2.661   0.788  16.657  0.2771 -0.5255  0.3301
 6645SOL    HW131397   2.719   0.717  16.684  2.3247  0.6858 -0.8357
 6645SOL    HW231398   2.574   0.757  16.681 -0.2645 -0.6451 -1.7266
 6646SOL     OW31399   3.886   2.423   7.442  0.5597 -0.9690 -0.5940
 6646SOL    HW131400   3.948   2.384   7.503  0.1764  0.9565  1.0222
 6646SOL    HW231401   3.940   2.421   7.363 -0.9782  0.2963 -1.6676
 6647SOL     OW31402   0.095   3.942   7.412 -0.0410 -0.5229  0.5852
 6647SOL    HW131403   0.158   3.894   7.466  1.5379  1.4524  0.5234
 6647SOL    HW231404   0.015   3.911   7.454 -1.2761  1.9965  0.1027
 6648SOL     OW31405   3.276   2.388   4.105 -0.0716 -0.0181 -0.7174
 6648SOL    HW131406   3.266   2.293   4.113 -0.6060  0.3034  2.5945
 6648SOL    HW231407   3.278   2.408   4.012 -1.9137  0.1814 -0.7134
 6649SOL     OW31408   1.850   4.356   8.534 -0.4500 -0.1996 -0.1608
 6649SOL    HW131409   1.908   4.310   8.595  1.0482  1.2685 -0.4967
 6649SOL    HW231410   1.809   4.429   8.581 -2.2288 -0.9148 -0.6192
 6650SOL     OW31411   3.652   4.635   7.063 -0.1000 -0.5480 -0.3008
 6650SOL    HW131412   3.678   4.723   7.037 -1.0473 -0.0969  0.3098
 6650SOL    HW231413   3.682   4.584   6.987 -3.1765 -1.6568 -0.7875
 6651SOL     OW31414   1.408   4.224   3.929 -0.2433 -0.3108 -0.5968
 6651SOL    HW131415   1.377   4.197   4.016  0.2524 -0.5511 -0.4983
 6651SOL    HW231416   1.363   4.156   3.878  3.0507 -0.9360 -2.6327
 6652SOL     OW31417   0.724   2.881   4.439  0.1659 -0.4117 -0.5769
 6652SOL    HW131418   0.675   2.905   4.518 -0.0424  1.7207 -1.3645
 6652SOL    HW231419   0.651   2.858   4.381  0.5425 -1.5413 -0.6124
 6653SOL     OW31420   0.052   2.611  14.653  0.0765  0.4913 -0.4531
 6653SOL    HW131421   4.713   2.606  14.725  0.5538  1.3381  0.0296
 6653SOL    HW231422   0.090   2.524  14.663  2.0160  1.3259 -0.5157
 6654SOL     OW31423   2.719   2.052  17.214 -0.7495  0.3903  0.4676
 6654SOL    HW131424   2.665   1.979  17.245 -0.5667  0.1444  0.2134
 6654SOL    HW231425   2.705   2.109  17.289 -1.8211  2.3737 -1.2483
 6655SOL     OW31426   0.079   3.199   2.298  0.2971 -0.3323 -0.0568
 6655SOL    HW131427   0.007   3.247   2.258  1.1467  2.2507  1.5476
 6655SOL    HW231428   0.150   3.260   2.277 -1.0753  1.4063  0.3597
 6656SOL     OW31429   0.964   3.012   8.897  0.1795  0.1137 -0.5616
 6656SOL    HW131430   1.023   2.956   8.947  2.3577  2.7891 -0.1329
 6656SOL    HW231431   0.982   3.099   8.934  1.9595 -0.2398 -0.5998
 6657SOL     OW31432   3.771   1.892   5.976 -0.5294 -0.1167 -0.2276
 6657SOL    HW131433   3.834   1.879   5.905 -0.5284 -0.4110 -0.1710
 6657SOL    HW231434   3.696   1.850   5.935 -2.2871  3.4948 -0.7126
 6658SOL     OW31435   1.783   3.661   6.213 -0.0160  0.4823 -0.6740
 6658SOL    HW131436   1.742   3.706   6.286 -0.1996  0.3768 -0.7115
 6658SOL    HW231437   1.829   3.593   6.262  0.3979  1.4369  0.2488
 6659SOL     OW31438   0.699   0.010   0.395 -0.1274  0.1210 -0.1515
 6659SOL    HW131439   0.715   4.676   0.468 -3.8713  0.4605  0.9333
 6659SOL    HW231440   0.727   4.687   0.316  0.2286 -0.2329  0.1910
 6660SOL     OW31441   0.271   3.157   4.678 -0.4050  0.2026 -0.1081
 6660SOL    HW131442   0.227   3.239   4.699 -0.9661 -0.6676  2.2175
 6660SOL    HW231443   0.350   3.180   4.630 -0.0553  0.0847  0.4144
 6661SOL     OW31444   0.585   3.512   5.260  0.6105  0.1112  0.4440
 6661SOL    HW131445   0.647   3.583   5.281 -0.0220  0.5228  0.9204
 6661SOL    HW231446   0.565   3.528   5.168  1.0858 -1.0662  0.1386
 6662SOL     OW31447   3.957   0.441  10.563 -0.4810 -0.3033 -0.2142
 6662SOL    HW131448   3.945   0.355  10.523 -0.0900 -0.2474 -0.4494
 6662SOL    HW231449   4.010   0.408  10.635 -1.7861 -0.8442  0.5074
 6663SOL     OW31450   0.049   1.586  17.119  0.2328 -0.6508  0.0834
 6663SOL    HW131451   0.075   1.500  17.153  2.2261 -0.1331 -0.1358
 6663SOL    HW231452   0.136   1.625  17.111 -0.8758  1.6462 -0.7287
 6664SOL     OW31453   3.054   0.262  16.792  0.2806 -0.6219 -0.3846
 6664SOL    HW131454   3.133   0.309  16.767  1.2948 -1.3721  1.4213
 6664SOL    HW231455   3.009   0.312  16.860  1.1720  1.0849 -1.0496
 6665SOL     OW31456   0.409   0.765   8.167 -0.3232 -0.3110 -0.6205
 6665SOL    HW131457   0.423   0.763   8.072  5.0746 -3.8843  0.2803
 6665SOL    HW231458   0.425   0.858   8.185 -1.4852 -0.8192  2.9822
 6666SOL     OW31459   2.636   1.117   7.546  0.2139  0.7841 -0.1837
 6666SOL    HW131460   2.585   1.079   7.617 -1.2245 -0.2153 -1.7315
 6666SOL    HW231461   2.566   1.152   7.491 -0.0749  0.7002  0.1361
 6667SOL     OW31462   2.784   0.766   3.293 -0.1132  0.4853  0.2439
 6667SOL    HW131463   2.692   0.786   3.276 -0.0773  2.1760  2.0030
 6667SOL    HW231464   2.771   0.710   3.370 -0.6376 -1.7728 -1.5016
 6668SOL     OW31465   1.880   0.468   3.254 -0.1058  0.2785 -0.0859
 6668SOL    HW131466   1.893   0.420   3.336  0.8294  1.5183  0.4891
 6668SOL    HW231467   1.789   0.489   3.272  0.2674  2.1084 -0.3671
 6669SOL     OW31468   2.762   1.506   3.840  0.4864 -0.1447 -0.1418
 6669SOL    HW131469   2.816   1.498   3.761  0.1585 -1.9070 -0.1775
 6669SOL    HW231470   2.756   1.599   3.863 -0.6527 -0.0270 -0.8761
 6670SOL     OW31471   3.849   2.324   3.650  0.2552  0.3968 -0.0246
 6670SOL    HW131472   3.828   2.414   3.623 -3.0829 -0.6089 -0.7551
 6670SOL    HW231473   3.768   2.280   3.623  1.3406 -1.7877  0.2997
 6671SOL     OW31474   0.594   2.570   1.120 -0.0284 -0.1592  0.2256
 6671SOL    HW131475   0.680   2.602   1.145 -0.8883  4.0803 -2.1861
 6671SOL    HW231476   0.531   2.593   1.188 -0.2559  1.8677 -0.6591
 6672SOL     OW31477   4.707   1.995   1.553 -0.5319 -0.2855 -0.1391
 6672SOL    HW131478   0.057   1.935   1.559 -0.4746 -0.2135 -0.1254
 6672SOL    HW231479   4.704   2.008   1.459 -2.1021  0.9931  0.0802
 6673SOL     OW31480   1.652   1.758  11.948 -0.2451  0.2573  0.2674
 6673SOL    HW131481   1.701   1.840  11.947 -1.2766  0.8948  2.6033
 6673SOL    HW231482   1.698   1.703  11.885 -2.5097 -1.7416  0.3397
 6674SOL     OW31483   4.397   3.024  16.129 -0.1349  0.7198  0.4669
 6674SOL    HW131484   4.359   3.081  16.062 -2.1370 -1.4510 -0.2530
 6674SOL    HW231485   4.320   2.999  16.179  1.0735 -0.7586  1.5932
 6675SOL     OW31486   3.858   0.334   8.702  0.1695  0.1048  0.6882
 6675SOL    HW131487   3.940   0.286   8.710  1.0081  1.2946 -0.8865
 6675SOL    HW231488   3.809   0.258   8.670  2.3921 -1.0524  0.0725
 6676SOL     OW31489   3.168   3.366  10.192  0.0464  0.2114  0.5685
 6676SOL    HW131490   3.107   3.325  10.253 -3.8372  2.0187 -2.0744
 6676SOL    HW231491   3.250   3.338  10.233  0.1879  1.0509  0.8628
 6677SOL     OW31492   4.082   1.007   6.939  0.4096 -0.5244  0.1262
 6677SOL    HW131493   4.074   0.985   6.846 -0.9025  0.6295 -0.0340
 6677SOL    HW231494   4.045   0.932   6.986  0.4839  0.0976  1.1892
 6678SOL     OW31495   0.863   1.993   6.287 -0.3809 -0.1070 -0.1501
 6678SOL    HW131496   0.909   1.982   6.370 -2.5210 -0.1655  1.0477
 6678SOL    HW231497   0.922   1.948   6.227 -0.1045 -0.1188  0.1276
 6679SOL     OW31498   0.616   1.942   4.894  0.0199 -0.0221 -0.5305
 6679SOL    HW131499   0.656   1.963   4.978 -0.4841  2.1816 -0.8510
 6679SOL    HW231500   0.608   1.848   4.912  1.7047  0.2670  1.6478
 6680SOL     OW31501   2.129   1.275   2.452  0.4303  0.2415 -0.4292
 6680SOL    HW131502   2.048   1.285   2.403  0.3242  0.4577 -0.2071
 6680SOL    HW231503   2.173   1.356   2.425  0.2308  0.4402 -0.1550
 6681SOL     OW31504   3.619   0.528   7.952  0.2186  0.1764 -0.3154
 6681SOL    HW131505   3.525   0.539   7.934  0.3086 -0.8020 -1.4166
 6681SOL    HW231506   3.650   0.617   7.963 -0.5919  0.5710 -1.2290
 6682SOL     OW31507   4.365   2.144   3.023 -0.3325 -0.0899 -0.0023
 6682SOL    HW131508   4.450   2.177   3.054  0.0282 -0.4611 -0.6036
 6682SOL    HW231509   4.390   2.062   2.981  0.1004  0.2581 -0.4306
 6683SOL     OW31510   1.673   2.744  11.310 -0.6456  0.1869  0.3325
 6683SOL    HW131511   1.619   2.688  11.365  0.2633 -1.7702 -0.7696
 6683SOL    HW231512   1.724   2.679  11.262  0.4470 -0.2773  2.1035
 6684SOL     OW31513   3.284   3.473   8.114  0.3270  0.1059  0.0765
 6684SOL    HW131514   3.298   3.508   8.202 -1.5476 -1.7917  1.1313
 6684SOL    HW231515   3.189   3.470   8.105  0.5456 -1.6170 -1.5237
 6685SOL     OW31516   0.810   1.415   7.670 -0.0296 -0.5178  0.4966
 6685SOL    HW131517   0.860   1.430   7.590 -0.2460  0.9741  0.6530
 6685SOL    HW231518   0.766   1.499   7.681 -0.5940 -0.8551  0.8052
 6686SOL     OW31519   1.621   3.842   8.984 -0.3811  0.2078  0.0941
 6686SOL    HW131520   1.540   3.823   9.032 -0.5633 -0.1425 -0.3545
 6686SOL    HW231521   1.585   3.857   8.897  0.3092 -1.0215 -0.4090
 6687SOL     OW31522   0.329   1.435  16.878 -0.8001 -0.1868  0.4844
 6687SOL    HW131523   0.323   1.342  16.855  0.7772 -0.0220 -0.5941
 6687SOL    HW231524   0.267   1.465  16.812  1.2023  0.2263 -1.1860
 6688SOL     OW31525   1.631   0.389   4.652 -0.6293 -0.8613 -0.1254
 6688SOL    HW131526   1.673   0.432   4.726  0.0133 -2.2765  0.3268
 6688SOL    HW231527   1.663   0.300   4.662  0.0482 -0.2891  2.7917
 6689SOL     OW31528   1.188   0.859   4.780 -0.7742  0.3429 -0.5685
 6689SOL    HW131529   1.132   0.787   4.808  0.3476 -0.9115 -1.5611
 6689SOL    HW231530   1.266   0.813   4.810 -0.8368  0.4520 -0.2323
 6690SOL     OW31531   1.486   0.136  16.780 -0.1543  0.2041  0.5206
 6690SOL    HW131532   1.458   0.146  16.871 -0.8211 -0.0930  0.3460
 6690SOL    HW231533   1.486   0.227  16.750 -0.5138  0.3688  1.0208
 6691SOL     OW31534   4.380   0.627  15.258 -0.8795 -0.4611  0.1044
 6691SOL    HW131535   4.314   0.653  15.194 -0.9380  0.9569  0.7404
 6691SOL    HW231536   4.346   0.547  15.299 -1.1084 -1.2676 -1.6459
 6692SOL     OW31537   2.577   3.182  17.417 -0.0580  0.3455 -0.4266
 6692SOL    HW131538   2.619   3.267  17.429 -0.0335  0.5182 -1.7038
 6692SOL    HW231539   2.483   3.202  17.412 -0.4964 -2.3284 -3.0568
 6693SOL     OW31540   2.137   3.843  10.488  0.5209  0.2884  0.4072
 6693SOL    HW131541   2.134   3.828  10.393  0.3364  3.0733 -0.0161
 6693SOL    HW231542   2.202   3.910  10.506 -0.5337  0.9137  1.8705
 6694SOL     OW31543   1.088   1.674   1.341  0.0972  0.0990 -0.3895
 6694SOL    HW131544   1.020   1.733   1.308 -0.3034 -0.4359 -0.5412
 6694SOL    HW231545   1.164   1.723   1.311  0.5519 -0.0738  0.4915
 6695SOL     OW31546   3.003   3.331   3.650  0.4474  0.4601 -0.4004
 6695SOL    HW131547   2.919   3.336   3.695  1.1324 -1.5472  1.1140
 6695SOL    HW231548   3.059   3.313   3.725 -0.5807  1.7276  0.6756
 6696SOL     OW31549   4.142   2.071   0.140  0.1045  0.0681 -0.3390
 6696SOL    HW131550   4.204   2.135   0.174  0.1421 -0.5759  0.8124
 6696SOL    HW231551   4.206   2.000   0.145 -0.5172 -0.5349 -0.9447
 6697SOL     OW31552   4.697   1.231   3.626  0.2283  0.5097  0.3010
 6697SOL    HW131553   4.649   1.152   3.602 -0.7718  1.4711 -0.8530
 6697SOL    HW231554   0.033   1.230   3.552  0.2431 -2.4427  0.3656
 6698SOL     OW31555   1.011   2.765  14.284 -0.2102  0.3829  0.3615
 6698SOL    HW131556   1.107   2.768  14.283 -0.2072  1.4333  2.8821
 6698SOL    HW231557   0.991   2.725  14.369  1.7103  0.5937  0.9151
 6699SOL     OW31558   1.589   3.360   6.312  0.7622 -0.1000 -0.1832
 6699SOL    HW131559   1.608   3.287   6.254 -1.9884 -0.2655 -0.8965
 6699SOL    HW231560   1.676   3.398   6.305 -1.0481  4.7162  2.7606
 6700SOL     OW31561   4.717   3.237  10.096 -0.1105  0.1784  0.0004
 6700SOL    HW131562   0.022   3.166  10.153 -0.4997  1.1747  1.4411
 6700SOL    HW231563   4.711   3.197  10.009 -0.0285 -0.6986  0.4006
 6701SOL     OW31564   0.967   1.545   9.351  0.2534 -0.2715  0.2158
 6701SOL    HW131565   1.013   1.556   9.434  0.7526  3.4395 -0.5545
 6701SOL    HW231566   1.035   1.491   9.311  1.0766 -0.1282  1.3863
 6702SOL     OW31567   1.400   0.495   7.165 -0.2732  0.4456  0.3242
 6702SOL    HW131568   1.487   0.498   7.206 -0.2498 -1.6110  0.4556
 6702SOL    HW231569   1.336   0.512   7.233 -0.7097  0.1851 -0.0217
 6703SOL     OW31570   1.661   3.215   3.866  0.2923  0.7372  0.6713
 6703SOL    HW131571   1.638   3.241   3.777  1.2324 -1.2599 -0.1476
 6703SOL    HW231572   1.755   3.205   3.858  0.2108 -0.8501  1.7746
 6704SOL     OW31573   1.718   2.623   6.154 -0.3446  0.3055 -0.2074
 6704SOL    HW131574   1.765   2.551   6.195  0.4045  0.6713 -0.4270
 6704SOL    HW231575   1.747   2.608   6.065  1.2947 -0.9011  0.5344
 6705SOL     OW31576   0.027   3.041  13.347 -0.5188 -0.0712 -0.3354
 6705SOL    HW131577   4.705   3.124  13.343 -1.9705 -0.9258 -1.4150
 6705SOL    HW231578   0.118   3.064  13.362 -1.4430  1.1245  3.3102
 6706SOL     OW31579   1.368   1.437   0.877 -0.0249  0.7625 -0.0939
 6706SOL    HW131580   1.441   1.468   0.823  1.0325 -1.6234 -0.0398
 6706SOL    HW231581   1.394   1.346   0.892 -1.0865  0.3673 -0.6689
 6707SOL     OW31582   4.643   4.114  14.429 -0.3532 -0.2075  0.2738
 6707SOL    HW131583   4.569   4.148  14.378 -1.9387  0.0546  2.7761
 6707SOL    HW231584   4.593   4.081  14.503  0.8041 -0.3317  1.0014
 6708SOL     OW31585   4.064   1.667  17.150  0.8795  0.4600  0.1163
 6708SOL    HW131586   4.081   1.573  17.143 -0.6557  0.1665  0.3095
 6708SOL    HW231587   4.155   1.694  17.165  1.4057 -0.4833 -1.4382
 6709SOL     OW31588   1.955   0.043   9.065  0.2626  0.3125  0.2353
 6709SOL    HW131589   1.989   0.062   9.153 -0.5943  1.6219  0.2912
 6709SOL    HW231590   1.895   4.694   9.079  0.1164  0.7252  1.8874
 6710SOL     OW31591   1.112   0.392  13.496  0.5354  0.5879 -0.3344
 6710SOL    HW131592   1.191   0.378  13.444  0.6323  2.2517 -0.6442
 6710SOL    HW231593   1.059   0.435  13.429  0.9169  0.4150 -0.7436
 6711SOL     OW31594   2.517   4.491   7.263  0.0672 -0.1080 -0.2598
 6711SOL    HW131595   2.485   4.419   7.317  1.1859 -0.7876 -0.4989
 6711SOL    HW231596   2.609   4.465   7.259  0.1906  0.1295  1.0021
 6712SOL     OW31597   2.372   3.813  17.225  0.2448  0.1917 -0.0950
 6712SOL    HW131598   2.383   3.885  17.162 -1.5839  0.4970 -0.0888
 6712SOL    HW231599   2.297   3.848  17.273  2.0306  2.2283  1.2029
 6713SOL     OW31600   1.823   2.131   3.176  0.7970 -0.5109  0.4575
 6713SOL    HW131601   1.741   2.166   3.210  0.7431 -0.5795  0.3968
 6713SOL    HW231602   1.819   2.155   3.084  2.2515 -1.1428  0.2364
 6714SOL     OW31603   1.699   0.737   7.688 -0.6714  0.0110 -0.0246
 6714SOL    HW131604   1.681   0.821   7.647 -1.5367  0.1188  0.5797
 6714SOL    HW231605   1.656   0.737   7.773  1.0922 -1.1123  0.8747
 6715SOL     OW31606   0.848   0.944   1.958  0.2033  0.2433 -0.2403
 6715SOL    HW131607   0.901   0.890   2.018 -2.5202 -1.4947  0.5634
 6715SOL    HW231608   0.784   0.989   2.013 -1.3071  0.4214 -2.1492
 6716SOL     OW31609   0.671   0.768   4.252 -0.1334  0.5393 -0.6645
 6716SOL    HW131610   0.682   0.846   4.198  1.4879  0.5709 -0.2852
 6716SOL    HW231611   0.579   0.748   4.269  0.3025  0.7772  2.0179
 6717SOL     OW31612   0.317   1.792   6.061 -0.2294  0.5032  0.3164
 6717SOL    HW131613   0.256   1.820   5.993 -0.4644 -2.1973 -0.5724
 6717SOL    HW231614   0.382   1.750   6.004  0.0527  0.4600  0.6669
 6718SOL     OW31615   0.619   1.102   5.966 -0.0452  0.1576 -0.1858
 6718SOL    HW131616   0.684   1.167   5.994  0.4845 -0.9174  1.0394
 6718SOL    HW231617   0.548   1.118   6.028  0.3839 -2.1317  0.8857
 6719SOL     OW31618   0.962   0.043  11.400 -0.2677 -0.1903  0.0178
 6719SOL    HW131619   0.887   0.101  11.395  0.4205  0.7444  0.5311
 6719SOL    HW231620   0.978   0.035  11.494 -2.6948 -0.3177  0.4161
 6720SOL     OW31621   0.466   4.471   7.837  0.0064 -0.2509  0.0700
 6720SOL    HW131622   0.504   4.550   7.800  2.1197 -0.0448  2.7244
 6720SOL    HW231623   0.429   4.502   7.919  0.4499  0.3834  0.0227
 6721SOL     OW31624   3.499   2.204   2.072 -0.8683 -0.6167 -1.3204
 6721SOL    HW131625   3.526   2.226   1.983  0.2543 -1.5936 -1.2202
 6721SOL    HW231626   3.466   2.114   2.064  1.0671 -1.2587 -1.8914
 6722SOL     OW31627   4.005   4.658   7.302 -0.0871  0.2108 -0.0149
 6722SOL    HW131628   3.975   4.574   7.266  1.4943  0.6440 -2.3597
 6722SOL    HW231629   4.099   4.643   7.313 -0.2063  0.6529  1.5925
 6723SOL     OW31630   1.062   0.240   9.967  0.3970 -0.4024  0.3482
 6723SOL    HW131631   1.007   0.191  10.027 -0.8145 -0.4829 -0.8140
 6723SOL    HW231632   1.000   0.253   9.895 -0.3043 -1.7432  0.7205
 6724SOL     OW31633   1.569   0.849   1.259  0.0365 -0.5038  0.2088
 6724SOL    HW131634   1.592   0.939   1.283  0.7451 -0.4401 -0.7185
 6724SOL    HW231635   1.491   0.838   1.313 -2.2340  0.0061 -2.9654
 6725SOL     OW31636   4.225   2.679  14.926 -0.6351 -0.2828  0.1158
 6725SOL    HW131637   4.144   2.632  14.906 -0.5902 -1.4785  2.7470
 6725SOL    HW231638   4.222   2.753  14.865  0.3302  1.6259  2.3619
 6726SOL     OW31639   2.777   2.049   8.879  0.0189  0.2184  0.1819
 6726SOL    HW131640   2.696   2.047   8.929  0.0877  1.4853  0.3583
 6726SOL    HW231641   2.758   2.117   8.815 -1.2315  0.9787  1.3522
 6727SOL     OW31642   3.409   3.931   0.939 -0.0868  0.0988  0.3705
 6727SOL    HW131643   3.367   3.904   1.021 -2.3592 -0.5279 -0.9913
 6727SOL    HW231644   3.336   3.963   0.886  1.9639  0.2309 -2.4104
 6728SOL     OW31645   2.360   0.489   7.386  0.1584  0.4930 -0.6212
 6728SOL    HW131646   2.350   0.518   7.477  0.1955 -0.0922 -0.4362
 6728SOL    HW231647   2.314   0.550   7.328 -1.0760 -1.4250 -1.6233
 6729SOL     OW31648   1.432   1.560   3.439 -0.5329 -0.0704  0.1658
 6729SOL    HW131649   1.445   1.626   3.507 -2.6070  1.4093 -0.8874
 6729SOL    HW231650   1.520   1.536   3.410  0.0295  3.8356 -1.3920
 6730SOL     OW31651   4.343   2.898   3.408  0.2049 -0.5001 -0.2573
 6730SOL    HW131652   4.292   2.863   3.481  0.4499  2.0142  1.1260
 6730SOL    HW231653   4.315   2.837   3.340 -1.6811 -1.0114  0.9876
 6731SOL     OW31654   3.886   2.652  12.343  0.3670 -0.0630  0.2673
 6731SOL    HW131655   3.969   2.675  12.386  1.0150 -3.8981  1.1151
 6731SOL    HW231656   3.865   2.581  12.404  0.3920  0.3202  0.7218
 6732SOL     OW31657   1.198   3.854  13.005  0.2803 -0.6774 -0.1096
 6732SOL    HW131658   1.125   3.830  13.061 -0.4610  0.0799 -0.7493
 6732SOL    HW231659   1.140   3.902  12.945  0.9921  2.0724  1.4088
 6733SOL     OW31660   3.282   3.318   3.534  0.0129 -0.1091  0.2991
 6733SOL    HW131661   3.323   3.401   3.561 -0.2625 -0.4652  1.8047
 6733SOL    HW231662   3.194   3.334   3.568  0.3056  3.0724 -0.3846
 6734SOL     OW31663   3.288   2.909   1.887  0.2719 -0.2300 -0.4559
 6734SOL    HW131664   3.251   2.947   1.967  1.9986  0.7533 -0.1227
 6734SOL    HW231665   3.376   2.945   1.886 -0.6996  2.1538 -1.3258
 6735SOL     OW31666   4.149   0.639   9.751  0.3776  0.5398  0.2094
 6735SOL    HW131667   4.078   0.588   9.713 -0.8380  0.6250  2.3584
 6735SOL    HW231668   4.173   0.688   9.672 -0.5429 -0.3874 -0.6379
 6736SOL     OW31669   4.625   2.990   8.489 -0.6500  0.0974  0.5297
 6736SOL    HW131670   4.642   3.066   8.433  0.7012 -2.6973 -2.7899
 6736SOL    HW231671   4.710   2.972   8.530 -0.5906 -1.3989 -0.2787
 6737SOL     OW31672   2.973   4.718  15.754 -0.1359 -0.2382  0.1894
 6737SOL    HW131673   2.880   0.014  15.763  0.6171  2.6863  1.2070
 6737SOL    HW231674   2.998   0.083  15.734  0.2960 -0.1833  0.9748
 6738SOL     OW31675   1.670   2.765   4.853  0.0316 -0.4040 -0.0645
 6738SOL    HW131676   1.713   2.850   4.859 -0.7465 -0.2674  3.2786
 6738SOL    HW231677   1.624   2.785   4.771  0.2126  0.0312 -0.0554
 6739SOL     OW31678   4.068   4.227  15.580 -0.2385  0.1044  0.3430
 6739SOL    HW131679   4.009   4.240  15.506  0.8621  0.8751 -0.3903
 6739SOL    HW231680   4.057   4.134  15.602 -1.2802  0.0412 -0.4501
 6740SOL     OW31681   0.578   2.578   7.991  0.4211  0.2528  0.9808
 6740SOL    HW131682   0.484   2.589   8.003 -0.0395 -3.2334  0.4330
 6740SOL    HW231683   0.607   2.588   8.082  1.2190  1.6268  0.5858
 6741SOL     OW31684   0.539   4.053   0.261  0.0810 -0.1188 -1.1570
 6741SOL    HW131685   0.562   4.146   0.259  1.3234 -0.3770  1.0660
 6741SOL    HW231686   0.616   4.012   0.221  1.5285  0.2115  1.2393
 6742SOL     OW31687   2.343   3.168   5.979 -0.1793 -0.5057  0.5644
 6742SOL    HW131688   2.422   3.201   5.935  0.0613  0.2812  1.5913
 6742SOL    HW231689   2.277   3.213   5.927 -0.1144 -0.2629  0.6915
 6743SOL     OW31690   1.903   3.051   5.679 -0.5294  0.0731 -0.4205
 6743SOL    HW131691   1.855   3.075   5.599 -1.4536 -1.2730 -0.2677
 6743SOL    HW231692   1.890   3.130   5.732 -0.4308 -0.7655  0.8483
 6744SOL     OW31693   1.711   3.806   2.921  0.1884  0.2791  0.5347
 6744SOL    HW131694   1.670   3.853   2.848 -0.2564  0.0571  0.6429
 6744SOL    HW231695   1.793   3.784   2.876 -0.9977  1.7660 -2.4039
 6745SOL     OW31696   1.968   0.370  11.158 -0.2241  0.3445  0.0464
 6745SOL    HW131697   1.929   0.305  11.099 -0.5399  0.9805 -0.4476
 6745SOL    HW231698   1.976   0.324  11.241  0.6888  1.0220  0.3453
 6746SOL     OW31699   3.104   2.250   2.612 -0.7485 -0.3128  0.5709
 6746SOL    HW131700   3.198   2.246   2.628 -0.4723 -1.2390 -1.2114
 6746SOL    HW231701   3.097   2.303   2.533  1.2274  0.7411  1.1218
 6747SOL     OW31702   2.172   1.265   6.074  0.8136 -0.0630 -0.7011
 6747SOL    HW131703   2.167   1.171   6.086 -0.0935  0.3407  2.1084
 6747SOL    HW231704   2.092   1.274   6.023  0.4214  0.2996 -0.0305
 6748SOL     OW31705   2.214   0.557  14.195  0.6527 -0.1901 -0.3536
 6748SOL    HW131706   2.156   0.578  14.269  0.2523  1.8934 -1.2644
 6748SOL    HW231707   2.231   0.470  14.231  2.0664 -0.7861 -2.4664
 6749SOL     OW31708   2.140   0.224   6.368  0.2286  0.1312 -0.4020
 6749SOL    HW131709   2.074   0.293   6.367 -0.4021 -0.4522  0.2819
 6749SOL    HW231710   2.135   0.196   6.460 -0.3331  0.1217 -0.4327
 6750SOL     OW31711   3.737   0.271   9.694 -0.2580 -0.4365 -0.4251
 6750SOL    HW131712   3.708   0.275   9.785  1.4274 -0.0786  0.0854
 6750SOL    HW231713   3.651   0.257   9.654 -0.3534 -0.2943 -0.2673
 6751SOL     OW31714   4.053   2.116   0.936  0.0530  0.0210  0.6902
 6751SOL    HW131715   4.083   2.079   0.853  1.2277  0.5528  0.8797
 6751SOL    HW231716   4.082   2.206   0.919  1.3498 -0.2073  1.7126
 6752SOL     OW31717   3.637   0.917   8.661 -0.1622 -0.2073  0.3823
 6752SOL    HW131718   3.711   0.977   8.661  1.1911 -1.8926 -1.4610
 6752SOL    HW231719   3.676   0.849   8.716 -1.0420  1.0114  2.5286
 6753SOL     OW31720   1.927   0.151  10.280 -0.7966  0.6083  0.4301
 6753SOL    HW131721   1.896   0.073  10.324  0.0897 -0.7089 -1.2692
 6753SOL    HW231722   1.840   0.186  10.260  0.1948  1.1611 -2.9985
 6754SOL     OW31723   4.684   0.268   8.733  0.1185 -0.4344 -0.2366
 6754SOL    HW131724   4.684   0.205   8.660  2.4289 -0.5277 -0.1529
 6754SOL    HW231725   4.603   0.255   8.782  0.4119 -0.9156  0.1199
 6755SOL     OW31726   2.444   3.123   1.883 -0.1141  0.6210  0.0664
 6755SOL    HW131727   2.534   3.151   1.898  0.7071 -0.6922 -2.5156
 6755SOL    HW231728   2.463   3.048   1.827 -1.4032 -0.9251  1.7140
 6756SOL     OW31729   0.905   3.204   5.998  0.4873 -0.3479  0.1289
 6756SOL    HW131730   0.860   3.238   5.921 -0.7038  0.8345  1.3515
 6756SOL    HW231731   0.932   3.277   6.053 -0.0898 -0.4347  0.5225
 6757SOL     OW31732   0.633   1.559  13.249 -0.4375  0.0063 -0.4338
 6757SOL    HW131733   0.654   1.491  13.314 -0.3975 -0.3697 -0.8370
 6757SOL    HW231734   0.686   1.626  13.291 -1.1955 -0.9450  2.0266
 6758SOL     OW31735   1.530   4.141  17.610  0.5406 -0.5419 -0.4490
 6758SOL    HW131736   1.479   4.168  17.687 -0.5488 -0.7826 -1.0856
 6758SOL    HW231737   1.458   4.104  17.561  1.4997 -0.5172 -1.8643
 6759SOL     OW31738   1.134   3.333   9.561 -0.0186 -0.2539  0.5344
 6759SOL    HW131739   1.073   3.314   9.632 -2.2554 -2.2948 -1.9415
 6759SOL    HW231740   1.081   3.394   9.509  1.4752  0.5886 -0.0073
 6760SOL     OW31741   0.248   0.018   4.981  0.4347  0.0374  0.2431
 6760SOL    HW131742   0.289   0.068   5.051 -0.1381  0.8438  0.0068
 6760SOL    HW231743   0.194   0.087   4.943 -0.8891 -0.9340  0.3345
 6761SOL     OW31744   4.237   1.474   9.467  0.0240 -0.1512  0.4531
 6761SOL    HW131745   4.191   1.419   9.530  0.8562 -1.0652  0.2530
 6761SOL    HW231746   4.323   1.446   9.498 -1.1293 -2.3731  1.6544
 6762SOL     OW31747   4.448   4.649   3.037 -0.1543  0.2566  0.0062
 6762SOL    HW131748   4.450   4.557   3.012 -0.0170  0.5561 -1.0729
 6762SOL    HW231749   4.375   4.652   3.099 -1.6413  0.3178 -1.7248
 6763SOL     OW31750   1.482   3.218   5.509 -0.5453 -0.0845 -0.4797
 6763SOL    HW131751   1.443   3.140   5.471  1.4497 -1.5981  0.5913
 6763SOL    HW231752   1.421   3.239   5.579  0.3109  0.4378  0.1182
 6764SOL     OW31753   4.686   1.949   5.076 -0.5419 -0.0334 -0.4088
 6764SOL    HW131754   0.027   2.019   5.068 -1.0681  0.2144 -2.5397
 6764SOL    HW231755   4.642   1.972   5.158 -1.2162  2.1193 -1.3684
 6765SOL     OW31756   3.118   3.069  12.170 -0.0459 -0.4323  0.0847
 6765SOL    HW131757   3.051   3.028  12.224 -1.8968  1.4968 -0.7578
 6765SOL    HW231758   3.177   3.103  12.237 -2.2330  1.3729  1.0758
 6766SOL     OW31759   3.245   2.579   2.088  0.1593  0.3249  0.5606
 6766SOL    HW131760   3.293   2.528   2.154 -0.1225 -0.9023 -0.1896
 6766SOL    HW231761   3.274   2.543   2.004 -0.8718 -1.5641  1.0021
 6767SOL     OW31762   0.612   4.269   5.826 -0.1938  0.5562 -0.2789
 6767SOL    HW131763   0.528   4.314   5.814 -0.7602 -0.1903  0.9673
 6767SOL    HW231764   0.594   4.237   5.914 -1.9457  1.8150 -0.1874
 6768SOL     OW31765   4.017   1.565   5.857  0.2734  0.0537 -0.1504
 6768SOL    HW131766   4.008   1.624   5.782  2.7364  1.3246  0.5626
 6768SOL    HW231767   3.925   1.545   5.874  0.2384 -1.9839 -2.7183
 6769SOL     OW31768   2.580   2.601   7.400 -0.5367  0.0750  0.2292
 6769SOL    HW131769   2.577   2.544   7.323  0.8817 -1.5925  1.4112
 6769SOL    HW231770   2.660   2.648   7.377  0.7274 -1.5606  1.2917
 6770SOL     OW31771   0.687   3.320   7.685 -0.3199  0.0920  0.5589
 6770SOL    HW131772   0.772   3.346   7.721  0.3495 -0.5644 -0.5284
 6770SOL    HW231773   0.657   3.276   7.764 -1.0503 -0.8326 -0.2311
 6771SOL     OW31774   3.265   0.098   4.660 -0.5212 -0.2499 -0.0779
 6771SOL    HW131775   3.211   0.112   4.583  0.6507 -0.8297 -1.0154
 6771SOL    HW231776   3.219   0.021   4.693  0.5441 -0.8146  0.1203
 6772SOL     OW31777   0.547   4.378   0.786 -0.2409 -0.3221  0.2126
 6772SOL    HW131778   0.514   4.431   0.859 -1.4391  0.3433 -0.8183
 6772SOL    HW231779   0.495   4.298   0.791 -0.0966 -0.4239  0.0476
 6773SOL     OW31780   0.751   0.232   3.067  0.0043  0.3448 -0.4002
 6773SOL    HW131781   0.790   0.299   3.123 -2.6186  0.3941  1.3496
 6773SOL    HW231782   0.827   0.177   3.049 -0.0123 -0.0217  0.7038
 6774SOL     OW31783   4.672   1.398   3.026  0.7983  0.0756  0.2623
 6774SOL    HW131784   4.623   1.436   2.952  0.1131 -1.1506  0.0949
 6774SOL    HW231785   4.638   1.448   3.100 -3.8514  1.1312 -2.5789
 6775SOL     OW31786   3.982   4.262  13.111 -0.4261 -0.1867  0.5049
 6775SOL    HW131787   3.966   4.245  13.203 -1.6037 -0.1310  0.3187
 6775SOL    HW231788   3.902   4.244  13.062 -2.0019 -0.0944  3.0741
 6776SOL     OW31789   0.806   3.303   2.128  0.0831  0.0725  0.2958
 6776SOL    HW131790   0.882   3.350   2.093 -1.0337  0.3786 -1.6922
 6776SOL    HW231791   0.747   3.312   2.054  0.1196  0.4715  0.3118
 6777SOL     OW31792   2.714   1.328   8.420 -0.7955  0.8078  0.0159
 6777SOL    HW131793   2.686   1.244   8.457 -3.1041  2.1411  1.3038
 6777SOL    HW231794   2.673   1.325   8.333  1.6141  1.4332 -1.1430
 6778SOL     OW31795   3.741   3.184  10.291 -0.8315  0.5082  0.4386
 6778SOL    HW131796   3.707   3.164  10.378 -1.2006  2.2645  0.7020
 6778SOL    HW231797   3.793   3.106  10.273  0.1411  0.8322  1.8050
 6779SOL     OW31798   4.324   1.010   6.334 -0.1317  0.2921 -0.4640
 6779SOL    HW131799   4.384   0.935   6.342  1.8579  1.8514 -0.8164
 6779SOL    HW231800   4.351   1.055   6.254 -0.8456  0.9902 -0.3090
 6780SOL     OW31801   0.126   3.779   4.180  0.0130 -0.2872  0.2488
 6780SOL    HW131802   0.154   3.854   4.232  1.2900  0.4561 -1.5199
 6780SOL    HW231803   0.166   3.776   4.093  1.1589 -0.8797  0.7996
 6781SOL     OW31804   2.371   3.892  15.449  0.2614 -0.2572 -0.1979
 6781SOL    HW131805   2.358   3.799  15.465  0.5286  0.0552  1.7570
 6781SOL    HW231806   2.441   3.891  15.384  0.2394 -3.8492 -0.1534
 6782SOL     OW31807   3.404   3.423   0.096 -0.1507 -0.0633  0.0317
 6782SOL    HW131808   3.397   3.438   0.001 -0.3243 -0.6817 -0.0562
 6782SOL    HW231809   3.458   3.500   0.113  1.4207 -0.7956 -1.6379
 6783SOL     OW31810   2.324   0.447  11.210 -0.3643  0.2742 -0.0760
 6783SOL    HW131811   2.278   0.496  11.142 -0.6116  0.1419 -0.0032
 6783SOL    HW231812   2.257   0.436  11.278 -1.0611 -1.5853 -1.0661
 6784SOL     OW31813   0.624   1.568   8.546  0.5188 -0.6506 -0.0615
 6784SOL    HW131814   0.641   1.477   8.571 -0.0942 -0.7595 -0.0544
 6784SOL    HW231815   0.545   1.585   8.596  0.5640  0.5379 -0.3956
 6785SOL     OW31816   4.146   0.683   1.782  0.6614  0.0003 -0.0620
 6785SOL    HW131817   4.136   0.772   1.749  2.6583  0.6597  1.1070
 6785SOL    HW231818   4.194   0.637   1.712  1.9773  1.5771 -0.1910
 6786SOL     OW31819   3.094   4.315   0.070  0.0500 -0.6750  0.0263
 6786SOL    HW131820   3.143   4.287   0.147 -1.3404  1.4185  1.6732
 6786SOL    HW231821   3.156   4.369   0.020 -0.4793 -1.2671 -1.2543
 6787SOL     OW31822   4.456   2.358   4.258  0.1470 -0.5907  0.6539
 6787SOL    HW131823   4.489   2.355   4.347  0.3429 -1.1209  0.5671
 6787SOL    HW231824   4.481   2.445   4.227 -1.1945  0.2351  1.9113
 6788SOL     OW31825   0.232   3.283  12.323  0.0648  0.4378 -0.3301
 6788SOL    HW131826   0.199   3.207  12.370  1.6185 -1.2692 -2.0292
 6788SOL    HW231827   0.189   3.353  12.373 -0.4240  0.0897 -0.2658
 6789SOL     OW31828   3.795   3.665   3.932 -0.2431  0.0993  0.1489
 6789SOL    HW131829   3.843   3.635   4.009  1.3426  0.2105 -0.7981
 6789SOL    HW231830   3.817   3.595   3.870 -0.6837 -1.9738  2.3297
 6790SOL     OW31831   4.661   3.494   8.650  0.7207  0.3228 -0.0861
 6790SOL    HW131832   4.724   3.454   8.590 -1.1908 -1.7016 -0.7580
 6790SOL    HW231833   4.656   3.424   8.716  0.9832  1.1607  0.8142
 6791SOL     OW31834   4.004   1.690   6.804 -0.3825 -0.1733  0.4500
 6791SOL    HW131835   4.084   1.681   6.753 -0.8450  0.6458 -0.4237
 6791SOL    HW231836   4.048   1.731   6.878  2.0816  0.2582 -1.2688
 6792SOL     OW31837   2.410   4.302   7.421 -0.0600 -0.0375 -0.2372
 6792SOL    HW131838   2.446   4.340   7.501  0.6900 -2.0648  0.3913
 6792SOL    HW231839   2.402   4.210   7.445  1.4638 -0.4306 -1.1824
 6793SOL     OW31840   1.907   1.897   0.992 -0.1682 -0.2797  0.1902
 6793SOL    HW131841   1.961   1.973   0.969 -1.0946 -0.1309 -1.4601
 6793SOL    HW231842   1.905   1.918   1.086 -2.4634  1.0589 -0.1631
 6794SOL     OW31843   3.796   3.486  16.664  0.2411  0.1648  0.3107
 6794SOL    HW131844   3.762   3.559  16.613  1.4359 -0.5584 -1.5396
 6794SOL    HW231845   3.867   3.532  16.710 -1.0981  1.9318  0.6067
 6795SOL     OW31846   3.593   0.440  12.688 -0.0866 -0.1638  0.3325
 6795SOL    HW131847   3.507   0.415  12.721  0.3824 -2.6850 -0.3326
 6795SOL    HW231848   3.590   0.393  12.605  1.5547  1.2989 -0.5686
 6796SOL     OW31849   0.108   3.068  12.125  0.2497  0.0626 -0.5230
 6796SOL    HW131850   0.115   3.078  12.220 -0.5890 -1.2901 -0.3191
 6796SOL    HW231851   0.128   2.975  12.126  0.5049  0.1240  1.1512
 6797SOL     OW31852   1.236   3.764   4.083 -0.1403 -0.3683  0.1785
 6797SOL    HW131853   1.295   3.823   4.131  0.9383  0.0669 -1.6764
 6797SOL    HW231854   1.160   3.815   4.058  1.0368  1.5342  0.4755
 6798SOL     OW31855   1.223   0.862   6.587 -0.2482 -0.4303 -0.0887
 6798SOL    HW131856   1.300   0.906   6.551 -0.6350 -0.6977 -1.2617
 6798SOL    HW231857   1.152   0.921   6.563 -0.0935 -0.1665  0.1045
 6799SOL     OW31858   3.672   3.784  10.054 -0.1124  0.1188  0.4153
 6799SOL    HW131859   3.631   3.777   9.968 -1.7369 -0.4407  1.2338
 6799SOL    HW231860   3.617   3.851  10.095 -0.3142  0.3960 -0.3118
 6800SOL     OW31861   3.412   2.385   3.449 -0.4395 -0.0605  0.3652
 6800SOL    HW131862   3.345   2.325   3.417  0.3858 -0.1667 -1.1191
 6800SOL    HW231863   3.397   2.463   3.395 -3.9507  0.5661  2.2068
 6801SOL     OW31864   1.865   1.680   7.067 -0.0737 -0.0814  0.0662
 6801SOL    HW131865   1.808   1.681   6.990  0.3641 -0.0310 -0.2561
 6801SOL    HW231866   1.943   1.716   7.024  0.6117 -1.8197 -0.1141
 6802SOL     OW31867   1.590   4.661   2.626  0.4241  0.5068  0.2727
 6802SOL    HW131868   1.522   4.598   2.601  0.5189 -0.2133  1.8132
 6802SOL    HW231869   1.667   4.619   2.590  0.6041  0.4125  0.7723
 6803SOL     OW31870   3.760   3.374   5.052 -0.4366  0.3629  0.6187
 6803SOL    HW131871   3.722   3.351   5.137  1.0508 -1.2278  0.8524
 6803SOL    HW231872   3.727   3.301   5.000 -0.0576  2.1713 -2.1420
 6804SOL     OW31873   0.748   0.526   9.144 -0.4932 -0.8115  0.1350
 6804SOL    HW131874   0.765   0.578   9.065  0.2132 -1.4035 -0.1123
 6804SOL    HW231875   0.817   0.461   9.129  1.0497  0.9601 -0.5031
 6805SOL     OW31876   1.962   2.564   1.730 -0.3733  0.4537  0.3677
 6805SOL    HW131877   1.998   2.637   1.679 -1.6060  0.1113 -1.0006
 6805SOL    HW231878   2.037   2.513   1.760 -0.5510  0.9796  1.7029
 6806SOL     OW31879   2.661   0.194  10.512 -0.4737  0.3591  0.7855
 6806SOL    HW131880   2.737   0.198  10.571  1.8466  1.3716 -2.3101
 6806SOL    HW231881   2.603   0.141  10.568 -3.6299  2.9179 -0.0614
 6807SOL     OW31882   1.949   3.351  12.537  0.2151 -0.4463 -1.0823
 6807SOL    HW131883   1.978   3.264  12.563 -1.0772 -0.4353  0.3953
 6807SOL    HW231884   1.868   3.353  12.588 -0.7671 -0.8580 -2.6278
 6808SOL     OW31885   3.569   0.155   4.270  0.0600 -0.1722 -0.3788
 6808SOL    HW131886   3.482   0.127   4.295 -0.6253  2.0665 -0.2590
 6808SOL    HW231887   3.565   0.156   4.174 -0.0869  0.8010 -0.3668
 6809SOL     OW31888   3.949   3.223   8.258  0.0600 -0.2798  0.4457
 6809SOL    HW131889   3.866   3.269   8.246 -0.6660 -2.1084 -1.5040
 6809SOL    HW231890   3.918   3.132   8.260 -0.8661 -0.0490 -2.9339
 6810SOL     OW31891   1.996   3.753   9.243  0.0947  0.1911  0.1517
 6810SOL    HW131892   2.008   3.842   9.276 -0.1420  0.6832 -1.0970
 6810SOL    HW231893   2.020   3.777   9.154  0.0393  2.5998  0.7948
 6811SOL     OW31894   0.716   1.945   2.054 -0.3539  0.2131 -0.3663
 6811SOL    HW131895   0.686   1.980   2.138  2.8687 -1.0827  1.3317
 6811SOL    HW231896   0.701   2.019   1.995 -0.7650  0.9838  0.6888
 6812SOL     OW31897   3.875   4.477  16.844  0.0539  0.2121 -0.0794
 6812SOL    HW131898   3.787   4.497  16.813 -0.0113  0.1043  0.0341
 6812SOL    HW231899   3.930   4.505  16.770  0.3041  1.1117  0.4429
 6813SOL     OW31900   2.070   3.867   9.758  0.2482  0.0185 -0.4627
 6813SOL    HW131901   2.102   3.940   9.705 -1.7601  0.1531 -1.4954
 6813SOL    HW231902   1.981   3.892   9.784 -0.3007 -0.4895 -1.8581
 6814SOL     OW31903   3.169   4.061   6.265  0.0401  0.3256  0.2970
 6814SOL    HW131904   3.163   4.071   6.170  1.0748  0.7406  0.2669
 6814SOL    HW231905   3.239   3.996   6.265  1.1636  1.5155 -3.6537
 6815SOL     OW31906   1.817   2.410   9.111  0.0792 -0.0322 -0.1300
 6815SOL    HW131907   1.764   2.480   9.073  2.2355  2.7642  2.0163
 6815SOL    HW231908   1.826   2.438   9.202 -0.2255 -0.1018 -0.0797
 6816SOL     OW31909   3.580   2.265   8.237  0.4376  0.0137  0.0802
 6816SOL    HW131910   3.641   2.206   8.193  0.3238  1.3246 -1.8534
 6816SOL    HW231911   3.626   2.290   8.317 -0.8407  2.3240  0.1146
 6817SOL     OW31912   0.169   0.122   0.793 -0.7447 -0.3117 -0.6827
 6817SOL    HW131913   0.193   0.063   0.722 -2.7603 -2.6427  0.5707
 6817SOL    HW231914   0.084   0.091   0.826  0.4696 -1.0634  1.7277
 6818SOL     OW31915   0.694   3.823  11.318 -0.5186 -0.1229 -0.0846
 6818SOL    HW131916   0.776   3.775  11.323 -0.2059  0.4587  0.3981
 6818SOL    HW231917   0.622   3.761  11.318 -1.8530  1.4202 -0.2260
 6819SOL     OW31918   1.200   4.556   7.114 -0.0577 -0.0046 -0.6819
 6819SOL    HW131919   1.114   4.556   7.071 -1.1471  0.7413  1.5155
 6819SOL    HW231920   1.249   4.476   7.094  0.3066  0.0700 -0.0854
 6820SOL     OW31921   3.638   1.930   5.591 -0.3251 -0.4300  0.1365
 6820SOL    HW131922   3.586   1.998   5.634  0.1114 -0.6647  1.0522
 6820SOL    HW231923   3.715   1.981   5.564 -0.0479  0.4659  2.5740
 6821SOL     OW31924   4.243   2.188   4.216  0.1162 -0.3440 -0.1096
 6821SOL    HW131925   4.321   2.234   4.246  1.0354 -2.4695  0.8112
 6821SOL    HW231926   4.261   2.110   4.270  0.5460  1.1334  1.8803
 6822SOL     OW31927   1.930   2.173   4.595 -0.7774 -0.3699 -0.7033
 6822SOL    HW131928   1.943   2.155   4.502  0.0879  2.1061 -1.0413
 6822SOL    HW231929   1.982   2.104   4.637 -1.3232  0.8013  1.9099
 6823SOL     OW31930   1.317   4.677   5.211 -0.0593  0.3198  0.0800
 6823SOL    HW131931   1.385   0.007   5.172 -1.0924  1.3814 -0.2328
 6823SOL    HW231932   1.349   4.598   5.168 -1.6759 -1.3794  2.0238
 6824SOL     OW31933   4.531   0.825   2.864  0.0036 -0.0499 -0.1500
 6824SOL    HW131934   4.523   0.799   2.773 -1.1269  0.7601 -0.2830
 6824SOL    HW231935   4.502   0.747   2.911  1.0737 -0.8652 -0.8491
 6825SOL     OW31936   1.144   0.947   4.041 -0.0403 -0.1264 -0.0657
 6825SOL    HW131937   1.130   0.956   3.947 -2.0110 -0.4125  0.1958
 6825SOL    HW231938   1.238   0.933   4.055 -0.2794 -1.2518  0.4301
 6826SOL     OW31939   2.727   1.468  14.183  0.3514  0.0625 -0.1651
 6826SOL    HW131940   2.719   1.383  14.227  0.2146 -0.4195 -1.1198
 6826SOL    HW231941   2.718   1.529  14.256 -1.0265  0.3210 -0.5495
 6827SOL     OW31942   4.447   3.606   6.759  0.1588  0.1300 -0.1203
 6827SOL    HW131943   4.368   3.554   6.746 -0.4084  0.7000  1.0227
 6827SOL    HW231944   4.484   3.571   6.840  0.1940  2.1120  0.7115
 6828SOL     OW31945   2.994   1.155  17.217 -0.2254 -0.2111  0.1162
 6828SOL    HW131946   3.072   1.107  17.245 -0.9070 -0.4951  1.4884
 6828SOL    HW231947   2.925   1.093  17.241  0.8746 -0.4683  2.6170
 6829SOL     OW31948   2.009   3.067   2.897  0.0500 -0.2988 -0.6934
 6829SOL    HW131949   2.027   3.141   2.839 -2.2706  0.7307 -0.1049
 6829SOL    HW231950   2.042   2.998   2.839 -0.0977 -0.2653 -0.8193
 6830SOL     OW31951   1.283   4.043   8.694 -0.1919  0.5929  0.3686
 6830SOL    HW131952   1.345   3.970   8.694  0.6219  1.2854  0.1126
 6830SOL    HW231953   1.318   4.099   8.625 -0.9772 -0.0232 -0.5374
 6831SOL     OW31954   2.926   4.386  13.596  0.4536 -0.3269  0.1002
 6831SOL    HW131955   3.020   4.391  13.576 -0.2649  0.5777 -3.0479
 6831SOL    HW231956   2.908   4.478  13.614  1.6899  0.0994 -0.8042
 6832SOL     OW31957   1.163   1.496   5.603  0.0153 -0.1404  0.0583
 6832SOL    HW131958   1.175   1.440   5.679 -2.7507 -0.4875  0.2312
 6832SOL    HW231959   1.087   1.543   5.638  0.4145 -1.4507  2.6711
 6833SOL     OW31960   2.399   3.454   0.109  0.5758 -0.6882  0.0528
 6833SOL    HW131961   2.389   3.389   0.178 -0.5767  1.4864  1.9453
 6833SOL    HW231962   2.487   3.429   0.081  2.0973  1.5031  2.8340
 6834SOL     OW31963   3.114   2.524   0.419  0.0544  0.1735 -0.8159
 6834SOL    HW131964   3.088   2.553   0.506  1.7736  1.5986 -0.7722
 6834SOL    HW231965   3.208   2.523   0.438 -0.3435 -1.3211  1.0395
 6835SOL     OW31966   0.724   2.065   5.118  0.2875  0.2736 -0.0441
 6835SOL    HW131967   0.675   2.022   5.189 -0.8634 -0.5712 -1.3507
 6835SOL    HW231968   0.687   2.153   5.111 -0.6065 -0.3800 -3.1672
 6836SOL     OW31969   2.131   3.455   5.092 -0.3512  0.2743 -0.5170
 6836SOL    HW131970   2.194   3.398   5.048  0.3127 -0.4953  1.4049
 6836SOL    HW231971   2.049   3.437   5.047 -0.1401 -0.5181 -0.5692
 6837SOL     OW31972   1.428   2.216  15.496 -0.4906 -0.5602 -0.2075
 6837SOL    HW131973   1.508   2.248  15.537  0.3840 -0.6542 -1.8494
 6837SOL    HW231974   1.406   2.136  15.543  0.3967 -1.3207 -1.1072
 6838SOL     OW31975   1.654   1.334   3.723  0.2409 -0.0151 -0.0254
 6838SOL    HW131976   1.746   1.342   3.699  0.5792 -1.2868  0.8844
 6838SOL    HW231977   1.632   1.418   3.764 -1.5985 -0.4016 -0.2293
 6839SOL     OW31978   4.176   1.424   2.921 -0.3785  0.0542  0.0442
 6839SOL    HW131979   4.154   1.450   2.831 -3.6736 -1.1298  0.4967
 6839SOL    HW231980   4.193   1.507   2.964  1.0666  1.4958 -3.3101
 6840SOL     OW31981   3.780   4.342   8.699 -0.1892  0.7485 -0.8302
 6840SOL    HW131982   3.689   4.323   8.678 -0.2464  2.2863 -1.9160
 6840SOL    HW231983   3.834   4.285   8.645 -0.4553 -0.7999  0.5326
 6841SOL     OW31984   1.648   2.833   1.551 -0.7670  0.3822 -0.4234
 6841SOL    HW131985   1.578   2.826   1.616  2.0335  1.4654  2.7056
 6841SOL    HW231986   1.607   2.847   1.466 -0.0750  0.6269 -0.7122
 6842SOL     OW31987   2.383   1.532   9.689 -0.7392 -0.3449  0.0006
 6842SOL    HW131988   2.466   1.527   9.737 -1.3116 -1.3715  0.8822
 6842SOL    HW231989   2.337   1.594   9.746  0.3339  0.3149  0.1501
 6843SOL     OW31990   4.177   4.463  16.198  0.2399  0.8362 -0.2948
 6843SOL    HW131991   4.179   4.528  16.269 -0.5991  0.1810  0.3378
 6843SOL    HW231992   4.084   4.459  16.175 -0.0967  0.2424  1.1420
 6844SOL     OW31993   2.902   3.941   5.803 -0.0995  0.3349 -0.0529
 6844SOL    HW131994   2.807   3.942   5.814 -0.0608 -1.4470  0.5123
 6844SOL    HW231995   2.918   4.012   5.741  0.1612 -0.5872 -1.0331
 6845SOL     OW31996   1.158   2.338  11.960 -0.0951  0.0485 -0.0923
 6845SOL    HW131997   1.169   2.249  11.991 -1.1922 -0.1618 -0.3153
 6845SOL    HW231998   1.195   2.316  11.874  0.0426  1.4535 -0.4026
 6846SOL     OW31999   4.566   0.587   4.027 -0.3237 -0.0745 -0.0850
 6846SOL    HW132000   4.634   0.532   3.988 -0.0960  0.1665 -0.0300
 6846SOL    HW232001   4.613   0.669   4.040 -2.1922  1.0305 -0.2286
 6847SOL     OW32002   0.179   3.310   7.918  0.6665 -0.0903  0.3208
 6847SOL    HW132003   0.225   3.392   7.932  0.4169  0.1338 -0.1959
 6847SOL    HW232004   0.234   3.263   7.856  1.1742  1.1070 -0.1316
 6848SOL     OW32005   0.903   0.101  10.149  0.2043  0.7549 -0.4855
 6848SOL    HW132006   0.913   0.022  10.202  1.2050  2.1671  1.4438
 6848SOL    HW232007   0.932   0.169  10.210  0.2620  1.1116 -0.9079
 6849SOL     OW32008   0.998   2.097   9.097  0.1264 -0.2356  0.6413
 6849SOL    HW132009   1.053   2.077   9.021  0.5969 -0.4089  1.0248
 6849SOL    HW232010   0.943   2.021   9.112 -0.6998  0.2638  0.1076
 6850SOL     OW32011   0.247   1.655   1.054  0.3375  0.0877  0.0446
 6850SOL    HW132012   0.189   1.598   1.003  0.2004  0.2922 -0.0255
 6850SOL    HW232013   0.183   1.714   1.094 -0.1789 -0.2966 -0.2127
 6851SOL     OW32014   3.134   1.203  14.849  0.2899 -0.2468 -0.1783
 6851SOL    HW132015   3.128   1.111  14.875  0.1679 -0.1841  0.0092
 6851SOL    HW232016   3.121   1.200  14.754  1.4303  2.2150 -0.4211
 6852SOL     OW32017   2.694   2.996   4.878 -0.9762  0.0965 -0.3417
 6852SOL    HW132018   2.724   2.945   4.803  0.0784  0.3813 -0.1183
 6852SOL    HW232019   2.730   3.082   4.854 -0.8088 -0.2919 -1.4791
 6853SOL     OW32020   1.520   1.743   1.798 -0.5226  0.1600  0.2302
 6853SOL    HW132021   1.499   1.661   1.843 -2.9275  0.7429  0.1650
 6853SOL    HW232022   1.614   1.727   1.806 -0.7336 -0.8121  0.8441
 6854SOL     OW32023   3.658   0.991  17.294 -0.2946  0.4599 -0.2873
 6854SOL    HW132024   3.573   1.006  17.253 -0.6720  0.9177  0.6929
 6854SOL    HW232025   3.639   0.982  17.387 -1.1450 -1.3860 -0.6460
 6855SOL     OW32026   0.541   0.639  10.819 -0.3038  0.0499  0.2590
 6855SOL    HW132027   0.559   0.720  10.772 -1.9889 -0.2873 -0.9463
 6855SOL    HW232028   0.601   0.584  10.769  0.5443  2.4574 -1.3833
 6856SOL     OW32029   3.479   3.964   7.743  0.8289 -0.3726 -0.2331
 6856SOL    HW132030   3.460   3.872   7.725  0.2812 -0.5752  1.4397
 6856SOL    HW232031   3.574   3.963   7.738  0.7868 -0.2497 -1.1984
 6857SOL     OW32032   1.775   2.481   5.933  0.0630 -0.1148 -0.2005
 6857SOL    HW132033   1.830   2.406   5.955  3.4155  2.3558 -0.1410
 6857SOL    HW232034   1.793   2.494   5.840  0.3399 -0.2946 -0.1712
 6858SOL     OW32035   1.513   3.275   7.272 -0.8594  0.4387 -0.1531
 6858SOL    HW132036   1.425   3.239   7.257 -1.4184  2.5503 -1.9866
 6858SOL    HW232037   1.494   3.362   7.236 -2.5388 -1.2164 -3.2699
 6859SOL     OW32038   4.117   1.860   9.560 -0.4256  0.6384  0.5670
 6859SOL    HW132039   4.152   1.844   9.473 -1.2368  0.9950  0.1745
 6859SOL    HW232040   4.073   1.942   9.538  2.0955  2.2864  1.6312
 6860SOL     OW32041   4.657   3.415   5.148 -0.4028  0.3307 -0.0751
 6860SOL    HW132042   4.704   3.478   5.203 -0.6227  0.3340  0.1086
 6860SOL    HW232043   4.620   3.478   5.085  0.2847  0.9367  0.1313
 6861SOL     OW32044   2.053   2.697  10.046  0.2380 -0.2503 -0.3686
 6861SOL    HW132045   2.081   2.783  10.077  0.5074 -1.0188  1.5258
 6861SOL    HW232046   2.139   2.661  10.024 -0.4812 -2.0508 -0.2124
 6862SOL     OW32047   3.640   0.239   9.303  0.0722 -0.2054  0.3725
 6862SOL    HW132048   3.698   0.180   9.351  0.9554  0.6331  0.3380
 6862SOL    HW232049   3.673   0.237   9.213 -1.5550  1.0225 -0.2616
 6863SOL     OW32050   2.522   2.273   7.414  0.1561 -0.1399 -0.5485
 6863SOL    HW132051   2.469   2.239   7.486 -0.5761  0.1576 -0.9443
 6863SOL    HW232052   2.457   2.272   7.343  0.6088  0.1541 -0.9730
 6864SOL     OW32053   4.003   0.175  16.275  0.1502  0.3712 -0.3226
 6864SOL    HW132054   3.916   0.145  16.249 -0.1553 -0.6469  1.8683
 6864SOL    HW232055   3.999   0.120  16.354  1.2990 -0.8441 -1.1230
 6865SOL     OW32056   0.647   3.128   7.931 -0.0884  0.1069 -0.5701
 6865SOL    HW132057   0.589   3.084   7.993 -1.6595  3.6906  0.4795
 6865SOL    HW232058   0.693   3.181   7.996 -0.4767  0.2998 -0.4512
 6866SOL     OW32059   3.654   0.758   3.721 -1.0030 -0.4066  0.2936
 6866SOL    HW132060   3.647   0.825   3.653 -0.1217 -1.6482 -1.0093
 6866SOL    HW232061   3.616   0.804   3.796  2.7930 -1.5628  2.9491
 6867SOL     OW32062   1.932   3.424   2.578  0.5666 -0.1632  0.1777
 6867SOL    HW132063   1.975   3.479   2.513  0.0412 -0.3807 -0.3591
 6867SOL    HW232064   1.858   3.378   2.537 -0.1587  1.0605  0.1162
 6868SOL     OW32065   3.194   3.912   5.335  0.5865  0.0054 -0.4810
 6868SOL    HW132066   3.272   3.954   5.299  0.2147  1.1258  0.0417
 6868SOL    HW232067   3.168   3.858   5.260  0.9356  0.6908 -1.1012
 6869SOL     OW32068   3.211   3.381   7.550 -0.1073  0.0401 -0.1811
 6869SOL    HW132069   3.128   3.367   7.504 -1.0061  1.0032  1.1449
 6869SOL    HW232070   3.276   3.406   7.484 -0.0006  1.0539  0.3007
 6870SOL     OW32071   0.287   0.974   2.171  0.2697 -0.0077  0.4271
 6870SOL    HW132072   0.349   0.901   2.175 -0.1392 -0.4740 -1.8369
 6870SOL    HW232073   0.228   0.941   2.238 -0.2374 -2.2966 -1.1765
 6871SOL     OW32074   1.911   2.680   2.535 -0.0939  0.5387 -0.3640
 6871SOL    HW132075   1.850   2.666   2.607 -0.8115 -0.5594 -1.1950
 6871SOL    HW232076   1.895   2.607   2.475 -1.9218 -1.0322  2.0621
 6872SOL     OW32077   1.375   2.695   8.342 -0.7021  0.2347 -0.0567
 6872SOL    HW132078   1.411   2.656   8.262 -0.4427 -0.3963  0.3670
 6872SOL    HW232079   1.375   2.783   8.304 -0.6468 -0.4312 -1.6160
 6873SOL     OW32080   3.851   3.454   3.372 -0.0950 -0.1783 -0.6475
 6873SOL    HW132081   3.761   3.473   3.400 -0.0692 -0.8850 -0.0974
 6873SOL    HW232082   3.893   3.450   3.457  0.9635 -2.1650 -1.2782
 6874SOL     OW32083   2.229   1.378   5.205 -0.2676 -0.2239 -0.0164
 6874SOL    HW132084   2.285   1.303   5.185  0.8370  0.2955  1.1098
 6874SOL    HW232085   2.147   1.329   5.218 -1.0038  0.9933 -0.0869
 6875SOL     OW32086   2.718   2.260   8.726  1.1800  0.2269  0.3546
 6875SOL    HW132087   2.696   2.311   8.804 -2.6656  0.8780 -1.1810
 6875SOL    HW232088   2.660   2.294   8.658 -1.3988 -0.8590  2.0376
 6876SOL     OW32089   1.456   4.610   2.154  0.3457 -0.1883  0.3560
 6876SOL    HW132090   1.398   4.543   2.189  0.5800 -2.1176 -2.9836
 6876SOL    HW232091   1.461   4.601   2.059 -1.0489 -0.4305  0.3093
 6877SOL     OW32092   2.386   2.421  14.532 -0.0712  0.7012  0.4004
 6877SOL    HW132093   2.299   2.387  14.551  1.1912 -1.2570  2.6740
 6877SOL    HW232094   2.403   2.474  14.610 -2.7346  0.8986  0.8157
 6878SOL     OW32095   4.062   4.119  10.446 -0.1669 -0.0185 -0.3473
 6878SOL    HW132096   4.128   4.079  10.391 -0.7419  1.3240 -2.0203
 6878SOL    HW232097   4.071   4.215  10.443 -0.6484 -0.0281 -1.7697
 6879SOL     OW32098   1.443   0.399   4.162 -0.1724 -0.3843  0.5066
 6879SOL    HW132099   1.361   0.394   4.210 -0.2143  2.0825  0.6838
 6879SOL    HW232100   1.445   0.304   4.150 -0.5742 -0.4427  0.8821
 6880SOL     OW32101   2.404   2.134   8.085  0.0960  0.3971  0.2306
 6880SOL    HW132102   2.415   2.170   8.173  1.3478  0.5510  0.0143
 6880SOL    HW232103   2.312   2.149   8.064 -0.8081 -0.8987  3.3257
 6881SOL     OW32104   0.401   4.512   0.956 -0.3947  0.5042 -0.4577
 6881SOL    HW132105   0.471   4.574   0.980  1.2528 -0.9511 -1.4836
 6881SOL    HW232106   0.376   4.471   1.039 -0.0653 -0.3460 -0.7821
 6882SOL     OW32107   3.814   2.574   7.829 -0.1262 -0.0479  0.2934
 6882SOL    HW132108   3.878   2.607   7.893 -1.7097  2.1070  0.7629
 6882SOL    HW232109   3.870   2.543   7.757 -3.0089 -4.2449 -0.1314
 6883SOL     OW32110   4.473   4.290  11.927 -0.5732  0.1176  0.1667
 6883SOL    HW132111   4.385   4.271  11.896  0.3716  1.0537 -3.0983
 6883SOL    HW232112   4.472   4.257  12.017 -2.5567  0.6469  0.3362
 6884SOL     OW32113   4.262   0.857  14.346  0.1444  0.1239  0.5056
 6884SOL    HW132114   4.357   0.859  14.334 -0.1652 -0.7681 -2.1950
 6884SOL    HW232115   4.240   0.925  14.282  0.1135 -1.8018 -1.5205
 6885SOL     OW32116   1.270   1.764   0.626 -0.1291  0.1058  0.6374
 6885SOL    HW132117   1.292   1.850   0.591 -2.3967  0.7267  0.6989
 6885SOL    HW232118   1.237   1.721   0.547  3.6409 -1.3054 -0.1279
 6886SOL     OW32119   3.914   3.404   3.063  1.0638  0.8440  0.1067
 6886SOL    HW132120   3.880   3.455   3.136  0.6306  0.7068  0.0039
 6886SOL    HW232121   3.862   3.441   2.991 -0.4510 -3.2491 -0.9497
 6887SOL     OW32122   1.565   2.222  13.686 -1.4132  0.4505 -0.3171
 6887SOL    HW132123   1.514   2.238  13.606 -1.7681 -1.6547 -0.5160
 6887SOL    HW232124   1.538   2.299  13.736 -1.2972  0.5049 -0.3373
 6888SOL     OW32125   0.185   3.703   0.221 -0.0561  0.0339  0.2754
 6888SOL    HW132126   0.090   3.713   0.226  0.2914  2.1608  2.3791
 6888SOL    HW232127   0.214   3.794   0.215  0.1634 -0.0638 -0.1326
 6889SOL     OW32128   3.452   0.439   6.080  0.1698  0.5868 -0.2054
 6889SOL    HW132129   3.425   0.362   6.129 -0.4408  0.5685 -0.5705
 6889SOL    HW232130   3.547   0.444   6.088 -0.0290  2.2835  1.0878
 6890SOL     OW32131   0.986   2.082   5.454 -0.1780  0.0537 -0.1443
 6890SOL    HW132132   1.012   2.052   5.367  0.9774 -0.4516  0.3780
 6890SOL    HW232133   1.010   2.007   5.509  2.2461 -0.8796 -2.4845
 6891SOL     OW32134   0.972   4.499   0.538  0.0734  0.3012 -0.0662
 6891SOL    HW132135   0.955   4.555   0.462  0.8854  0.6274 -0.0116
 6891SOL    HW232136   0.925   4.539   0.611 -0.2421  0.0493 -0.1305
 6892SOL     OW32137   1.370   4.304   7.616  0.5101 -0.1742  0.3637
 6892SOL    HW132138   1.375   4.356   7.535 -1.5649 -0.2129  0.2137
 6892SOL    HW232139   1.349   4.370   7.682  0.0450 -1.6743  1.6920
 6893SOL     OW32140   0.248   0.922  11.440 -0.1112  0.4911  0.1021
 6893SOL    HW132141   0.343   0.927  11.449 -0.0612  1.4013 -1.0013
 6893SOL    HW232142   0.222   0.992  11.499  0.9921  0.1537  0.9945
 6894SOL     OW32143   1.736   4.198  17.437 -0.1274  0.7024  0.3056
 6894SOL    HW132144   1.675   4.171  17.506  2.5696 -2.1906  1.6180
 6894SOL    HW232145   1.673   4.211  17.367 -1.6052 -0.6547  1.3823
 6895SOL     OW32146   4.706   4.108   7.876 -0.5227  0.0042  0.2844
 6895SOL    HW132147   4.724   4.053   7.952  0.4985  0.0657  0.0810
 6895SOL    HW232148   0.067   4.125   7.836 -0.0015  0.7097  1.7134
 6896SOL     OW32149   2.745   0.015  10.717  0.3760  0.2885  0.0402
 6896SOL    HW132150   2.814   4.676  10.698  1.2942  2.0446 -2.4370
 6896SOL    HW232151   2.787   0.068  10.784 -2.6822  2.9934 -0.1938
 6897SOL     OW32152   0.512   2.464   8.840 -0.3767 -0.3429 -0.5850
 6897SOL    HW132153   0.573   2.447   8.911  0.7183 -0.8080 -1.6423
 6897SOL    HW232154   0.476   2.378   8.817  0.6027 -1.6727  2.9206
 6898SOL     OW32155   3.162   4.666   5.856  0.2561 -0.0324 -0.2496
 6898SOL    HW132156   3.188   4.588   5.808 -0.7203  0.3413 -1.4090
 6898SOL    HW232157   3.228   4.683   5.923 -1.1872 -0.8163  1.3582
 6899SOL     OW32158   1.245   4.355  11.231 -0.7403  0.8870  0.7000
 6899SOL    HW132159   1.205   4.365  11.317  0.2810  0.0574  1.2613
 6899SOL    HW232160   1.328   4.307  11.241 -1.3103 -0.0546  0.9504
 6900SOL     OW32161   2.870   4.018   9.561  0.3175  0.1620 -0.3313
 6900SOL    HW132162   2.865   4.040   9.468 -1.3739 -0.2638 -0.3468
 6900SOL    HW232163   2.936   3.948   9.553 -0.3413 -0.1827 -2.6121
 6901SOL     OW32164   3.702   0.730  10.818 -0.2118  0.2543 -1.1702
 6901SOL    HW132165   3.628   0.718  10.759 -0.3272  1.0733 -1.1843
 6901SOL    HW232166   3.779   0.703  10.768  1.5927 -1.7332  2.6896
 6902SOL     OW32167   2.236   2.924   8.011  0.3626  0.0213  0.1601
 6902SOL    HW132168   2.267   2.996   7.956  1.7187  1.2611  2.5581
 6902SOL    HW232169   2.312   2.866   8.013  0.9617  0.7818 -0.7385
 6903SOL     OW32170   2.214   2.199  16.939  0.2372 -0.4576  0.2542
 6903SOL    HW132171   2.182   2.134  16.876 -0.1878  0.3182 -0.3291
 6903SOL    HW232172   2.309   2.201  16.926  0.4550  0.9838  2.0459
 6904SOL     OW32173   1.222   1.040   9.017  0.2434 -0.0953 -0.4133
 6904SOL    HW132174   1.302   1.082   9.047  0.3875 -3.0716  3.3269
 6904SOL    HW232175   1.193   1.100   8.949  2.3650 -0.1372 -1.3386
 6905SOL     OW32176   4.065   0.548   6.823 -0.0805 -0.1285 -0.1240
 6905SOL    HW132177   4.022   0.521   6.741 -2.5221  2.7233  0.2093
 6905SOL    HW232178   4.093   0.460   6.848  1.4204  0.3913  0.0066
 6906SOL     OW32179   3.463   1.096   6.114  0.1211  0.2485 -0.0380
 6906SOL    HW132180   3.369   1.101   6.097 -0.1062 -1.4850  0.6768
 6906SOL    HW232181   3.468   1.179   6.161  0.5265  0.0268  0.3147
 6907SOL     OW32182   2.010   1.484   9.528 -0.3114  0.3548 -0.0105
 6907SOL    HW132183   1.990   1.544   9.601  1.2203 -0.5758  1.1735
 6907SOL    HW232184   1.922   1.455   9.504  0.4837 -1.1936 -1.0223
 6908SOL     OW32185   3.947   1.631   3.713  0.1514  0.6205  0.1859
 6908SOL    HW132186   3.956   1.539   3.688  2.4596  1.0832 -0.6265
 6908SOL    HW232187   3.946   1.629   3.809  0.7168 -1.9515  0.1593
 6909SOL     OW32188   2.008   1.103  11.029  0.2928 -0.4739  0.2053
 6909SOL    HW132189   2.087   1.080  10.979 -0.5527  0.1846 -1.4082
 6909SOL    HW232190   2.047   1.093  11.116  0.6658 -0.3376  0.0523
 6910SOL     OW32191   2.956   1.744   8.990  0.1563  0.0417  0.0682
 6910SOL    HW132192   2.998   1.689   8.924  2.6723  1.1454  0.7749
 6910SOL    HW232193   2.978   1.832   8.959 -1.6015  1.0221  1.5976
 6911SOL     OW32194   1.609   2.784  11.648  0.5892  0.2034  0.7974
 6911SOL    HW132195   1.705   2.785  11.653  0.5746 -1.1553  1.3258
 6911SOL    HW232196   1.600   2.850  11.579 -0.7510 -0.2251  0.5695
 6912SOL     OW32197   3.819   0.236   4.337  0.5154 -0.0865 -0.3266
 6912SOL    HW132198   3.867   0.159   4.367 -0.8796 -0.7931  0.0852
 6912SOL    HW232199   3.732   0.199   4.331  0.3236  0.3090 -0.0100
 6913SOL     OW32200   3.051   1.902   3.886 -0.2467  0.0295 -0.2590
 6913SOL    HW132201   3.081   1.983   3.844  1.3748  0.0430  0.9350
 6913SOL    HW232202   3.131   1.853   3.871  0.3164  1.4384 -1.8289
 6914SOL     OW32203   4.603   4.710   4.899  0.0385  0.5265  0.1692
 6914SOL    HW132204   4.544   0.046   4.944  0.3423  0.3716  0.7679
 6914SOL    HW232205   4.565   4.705   4.811 -1.1598 -2.5170  0.8446
 6915SOL     OW32206   0.565   3.759  15.284  0.3785  0.0493 -0.4803
 6915SOL    HW132207   0.579   3.668  15.309 -1.9208 -0.7524 -2.2063
 6915SOL    HW232208   0.521   3.746  15.200 -0.0136  2.2565 -0.6232
 6916SOL     OW32209   1.808   1.601  16.015 -0.1575  0.4753 -0.2807
 6916SOL    HW132210   1.902   1.603  16.029 -0.4225  0.3645  1.5132
 6916SOL    HW232211   1.817   1.651  15.934 -1.4021  0.7184 -0.2708
 6917SOL     OW32212   1.722   3.400  13.777  0.5693 -0.4477 -0.4952
 6917SOL    HW132213   1.722   3.385  13.871 -2.3776 -2.0385 -0.7404
 6917SOL    HW232214   1.685   3.317  13.747  1.2786 -0.8891 -0.1526
 6918SOL     OW32215   4.046   1.862   5.317  0.5450  0.1149 -0.1879
 6918SOL    HW132216   4.028   1.949   5.282  3.9056  1.5803  1.7000
 6918SOL    HW232217   4.132   1.844   5.278  1.3499  0.9167  1.1946
 6919SOL     OW32218   1.582   3.753   8.072  0.0798  0.1343  0.1649
 6919SOL    HW132219   1.494   3.778   8.101 -0.3814 -0.1819 -0.9655
 6919SOL    HW232220   1.572   3.666   8.033  1.0317  0.3772 -0.6256
 6920SOL     OW32221   3.036   2.131   8.154 -0.2784  0.5337 -0.6752
 6920SOL    HW132222   2.987   2.193   8.207  0.2863 -0.6902  1.2875
 6920SOL    HW232223   3.011   2.052   8.202 -1.1133 -0.9662 -3.5674
 6921SOL     OW32224   0.798   2.452   3.527  0.2343 -0.2253 -0.5259
 6921SOL    HW132225   0.805   2.486   3.616  0.1171  1.5885 -1.2037
 6921SOL    HW232226   0.890   2.457   3.500  0.3955  0.0509  0.0730
 6922SOL     OW32227   0.417   4.572   8.086  0.3066  0.2620  0.1701
 6922SOL    HW132228   0.383   4.654   8.121 -0.7900 -1.5184  3.2695
 6922SOL    HW232229   0.490   4.549   8.144  2.1929 -0.7732 -2.6326
 6923SOL     OW32230   2.708   3.210   0.847 -0.4774 -1.0236 -0.0348
 6923SOL    HW132231   2.652   3.247   0.916  0.9962  0.5152  0.3195
 6923SOL    HW232232   2.776   3.169   0.899  1.0588 -1.1779 -2.1790
 6924SOL     OW32233   0.075   4.321   5.822  0.2293 -0.0478  0.7619
 6924SOL    HW132234   0.164   4.348   5.799 -0.3178  0.6141 -0.5813
 6924SOL    HW232235   0.026   4.396   5.789  0.5337 -0.9293 -1.6806
 6925SOL     OW32236   2.466   0.632  10.498  0.1053  0.3034 -0.4775
 6925SOL    HW132237   2.561   0.631  10.507 -0.2319 -2.3526  2.9913
 6925SOL    HW232238   2.451   0.582  10.417  3.9359 -0.1660 -0.8866
 6926SOL     OW32239   3.239   1.216   2.273  0.0098 -0.0982 -0.1382
 6926SOL    HW132240   3.310   1.209   2.337  0.5558  2.0309 -0.5192
 6926SOL    HW232241   3.265   1.153   2.206 -0.1970  0.8961 -1.1396
 6927SOL     OW32242   0.058   1.570  13.239  0.6436 -0.3280 -0.1049
 6927SOL    HW132243   4.721   1.614  13.180  0.4009 -0.2108  0.2322
 6927SOL    HW232244   0.129   1.633  13.239  0.2000  0.1684 -1.4714
 6928SOL     OW32245   1.092   1.396  14.584 -0.4044  0.5394  0.2246
 6928SOL    HW132246   1.075   1.416  14.492  0.2984 -0.7315 -0.1749
 6928SOL    HW232247   1.126   1.480  14.616  0.0886 -1.1665  4.1855
 6929SOL     OW32248   0.273   3.804   4.832 -0.1921 -0.4933  0.0870
 6929SOL    HW132249   0.260   3.864   4.905  0.5506 -1.0790  0.6921
 6929SOL    HW232250   0.258   3.854   4.752 -0.2807  1.5523  1.3937
 6930SOL     OW32251   4.718   4.509  13.686 -0.0827  0.3828 -0.1337
 6930SOL    HW132252   0.087   4.530  13.695  0.0804 -0.4152  0.0669
 6930SOL    HW232253   4.694   4.565  13.612 -0.6826 -0.4890 -0.5919
 6931SOL     OW32254   1.662   2.094  14.476  0.7713  0.3108  0.2628
 6931SOL    HW132255   1.600   2.164  14.457 -0.5809 -1.0426 -0.2807
 6931SOL    HW232256   1.690   2.083  14.385  0.9502  1.2610  0.2032
 6932SOL     OW32257   1.443   0.888   9.194  0.5652  0.2667  0.0047
 6932SOL    HW132258   1.490   0.867   9.113 -1.3386 -0.2992 -0.9536
 6932SOL    HW232259   1.509   0.921   9.255  2.5679 -1.4618 -1.1969
 6933SOL     OW32260   1.042   3.114  17.369  0.3753  0.0228 -0.5581
 6933SOL    HW132261   1.034   3.206  17.395 -0.2270 -0.3350  0.5523
 6933SOL    HW232262   0.974   3.112  17.301  0.3279  1.8316 -0.5806
 6934SOL     OW32263   1.344   3.023   8.722  0.9085  0.8156 -0.2551
 6934SOL    HW132264   1.275   2.974   8.766  0.9194 -0.4856 -1.6701
 6934SOL    HW232265   1.356   2.992   8.632 -0.7605 -1.5436  0.3374
 6935SOL     OW32266   0.766   0.684   1.898  0.3087 -0.8578  0.2126
 6935SOL    HW132267   0.753   0.779   1.906 -1.2111 -1.0185 -0.2793
 6935SOL    HW232268   0.843   0.675   1.843 -1.4612 -0.2162 -2.3566
 6936SOL     OW32269   3.906   4.594   0.911 -0.6536  0.0140 -0.4705
 6936SOL    HW132270   3.882   4.516   0.962 -0.8702  0.8047  0.6393
 6936SOL    HW232271   3.882   4.670   0.965  0.1981  0.4773 -0.7392
 6937SOL     OW32272   1.693   1.228   3.988  0.0190 -0.0594 -0.2596
 6937SOL    HW132273   1.664   1.263   3.904 -2.5029  1.0758  1.1026
 6937SOL    HW232274   1.716   1.136   3.972 -0.0657  0.2957 -2.5351
 6938SOL     OW32275   3.365   0.797   1.469 -0.0720  0.2444  0.0167
 6938SOL    HW132276   3.312   0.804   1.389  0.2854 -0.3422 -0.2683
 6938SOL    HW232277   3.437   0.737   1.451  0.2414  1.4581 -2.7774
 6939SOL     OW32278   1.096   2.449   1.328 -0.1520  0.4757 -0.5255
 6939SOL    HW132279   1.046   2.374   1.294  1.9986 -0.8645 -0.7091
 6939SOL    HW232280   1.063   2.459   1.418  2.1958 -0.9594  0.4965
 6940SOL     OW32281   1.030   1.964   6.494 -0.0547 -0.6181  0.0824
 6940SOL    HW132282   1.089   1.889   6.486  0.5246 -0.1796  0.1477
 6940SOL    HW232283   1.085   2.041   6.513 -0.7794 -0.3143  0.9608
 6941SOL     OW32284   0.456   1.096   1.956 -0.0402 -0.1682 -0.1581
 6941SOL    HW132285   0.401   1.031   1.913 -0.5621 -0.6593  1.2715
 6941SOL    HW232286   0.528   1.044   1.991  0.1452 -1.0896 -1.9195
 6942SOL     OW32287   0.244   0.079  11.527 -0.5989  0.6285 -0.1165
 6942SOL    HW132288   0.279   0.063  11.440 -0.3349 -2.5339  0.5738
 6942SOL    HW232289   0.295   0.015  11.577 -1.0524  0.6227  0.3317
 6943SOL     OW32290   1.303   0.808   3.678 -0.0894 -0.0374 -0.2031
 6943SOL    HW132291   1.330   0.900   3.682 -0.1522 -0.0476  0.4629
 6943SOL    HW232292   1.226   0.814   3.735  1.2960  0.8506  1.5426
 6944SOL     OW32293   4.507   0.804   7.288  0.1951 -0.1203  0.3817
 6944SOL    HW132294   4.541   0.892   7.308 -0.1374  0.0478  0.2014
 6944SOL    HW232295   4.563   0.759   7.351 -1.4364  0.0621  1.9677
 6945SOL     OW32296   1.127   3.638  16.281  0.4869  0.1102  0.1531
 6945SOL    HW132297   1.043   3.612  16.244 -0.3652  0.6717  1.6804
 6945SOL    HW232298   1.169   3.554  16.301  0.2466 -0.1023 -0.2328
 6946SOL     OW32299   3.248   0.270   1.924 -0.1622 -0.1625 -0.6061
 6946SOL    HW132300   3.187   0.277   1.850 -1.0050  0.9549  0.2082
 6946SOL    HW232301   3.305   0.347   1.913 -2.5501  1.6240 -0.3889
 6947SOL     OW32302   3.517   4.341  10.026  0.3703 -0.2284  0.5866
 6947SOL    HW132303   3.577   4.323  10.099 -1.1326 -1.5615  1.4860
 6947SOL    HW232304   3.588   4.347   9.963  0.7341  1.0582  1.1151
 6948SOL     OW32305   3.427   4.213  11.668  0.4510 -0.1036  0.0835
 6948SOL    HW132306   3.404   4.146  11.603  0.7219  2.0105 -2.1864
 6948SOL    HW232307   3.397   4.165  11.746  2.4828  2.8134  2.6425
 6949SOL     OW32308   0.352   2.684   8.105  0.2105  0.1171  0.1146
 6949SOL    HW132309   0.325   2.675   8.197 -0.0571  0.6112  0.0788
 6949SOL    HW232310   0.379   2.775   8.116 -0.4855  0.5417 -1.7977
 6950SOL     OW32311   0.357   3.811   6.228 -0.3995  0.5031 -0.6460
 6950SOL    HW132312   0.325   3.900   6.212  0.4504  0.3937 -3.0387
 6950SOL    HW232313   0.289   3.751   6.199 -0.8167  0.1704  1.0432
 6951SOL     OW32314   0.484   0.166   6.788  0.3524 -0.9417 -0.1623
 6951SOL    HW132315   0.563   0.211   6.817 -0.4911 -0.0595  0.7824
 6951SOL    HW232316   0.510   0.141   6.700  1.0262  1.1136 -0.5452
 6952SOL     OW32317   2.398   2.972  17.542  0.2806 -0.0692  0.1641
 6952SOL    HW132318   2.366   3.057  17.513  3.3470  1.1424  0.3773
 6952SOL    HW232319   2.427   2.991  17.631  2.1618  1.9872 -0.8981
 6953SOL     OW32320   0.077   4.068   5.861  0.7706 -0.4791 -0.3536
 6953SOL    HW132321   0.070   4.080   5.766  0.7917 -0.7565 -0.3902
 6953SOL    HW232322   0.061   4.161   5.878 -0.6736 -0.0247 -4.0190
 6954SOL     OW32323   0.773   0.662   7.964  0.6425 -0.0547 -0.6246
 6954SOL    HW132324   0.688   0.634   7.931  0.1361  0.1584  0.4941
 6954SOL    HW232325   0.826   0.673   7.885 -0.7218 -2.1866 -1.8103
 6955SOL     OW32326   4.373   3.658  12.518 -0.0739 -0.5940 -0.4709
 6955SOL    HW132327   4.461   3.679  12.550 -0.4000  0.4901 -0.2961
 6955SOL    HW232328   4.334   3.744  12.504 -0.7046 -0.2626  3.2023
 6956SOL     OW32329   0.296   3.441   6.188 -0.0074 -0.4448 -0.0777
 6956SOL    HW132330   0.234   3.511   6.207 -0.4650  0.1034 -3.4712
 6956SOL    HW232331   0.295   3.447   6.092 -1.9288 -1.1147 -0.0972
 6957SOL     OW32332   0.813   3.375   5.092 -0.2805  0.1420 -0.1047
 6957SOL    HW132333   0.793   3.358   5.184 -0.3508  2.2264  0.2623
 6957SOL    HW232334   0.908   3.375   5.082 -0.4157 -1.0484 -1.3314
 6958SOL     OW32335   4.692   3.696   2.435  0.1453 -0.3284 -0.6814
 6958SOL    HW132336   4.704   3.701   2.340 -0.8071 -0.2032 -0.7962
 6958SOL    HW232337   0.029   3.755   2.480 -1.2003 -0.5410  1.3918
 6959SOL     OW32338   3.367   3.757   6.840 -0.5390 -0.4034 -0.4197
 6959SOL    HW132339   3.460   3.733   6.844 -0.5586 -0.6269 -1.1823
 6959SOL    HW232340   3.332   3.679   6.884 -1.0274  1.2201  2.0155
 6960SOL     OW32341   2.914   2.108  16.956  0.4004 -0.3997  0.2623
 6960SOL    HW132342   2.849   2.158  16.906 -0.6133 -2.5645 -0.6081
 6960SOL    HW232343   2.872   2.104  17.041 -0.2160  0.5512  0.0060
 6961SOL     OW32344   4.515   3.179   5.797 -0.4932  0.0646 -0.7448
 6961SOL    HW132345   4.570   3.101   5.784 -0.1659  0.2485 -0.4429
 6961SOL    HW232346   4.448   3.149   5.858  2.6240 -0.2748  2.5026
 6962SOL     OW32347   3.202   3.088  14.234 -0.1975  0.6900 -0.3487
 6962SOL    HW132348   3.257   3.157  14.272  2.5058 -1.3392 -0.6413
 6962SOL    HW232349   3.255   3.064  14.158 -1.9367 -0.3044 -1.2278
 6963SOL     OW32350   3.399   4.162   7.932  0.2589  0.5553 -0.2846
 6963SOL    HW132351   3.348   4.085   7.957  2.1986 -0.1359  1.5659
 6963SOL    HW232352   3.455   4.133   7.860  0.4561  2.8037 -1.0362
 6964SOL     OW32353   0.071   3.123   4.498  0.3442 -0.2703 -0.0704
 6964SOL    HW132354   0.035   3.036   4.515 -0.1679 -0.6085 -2.8837
 6964SOL    HW232355   0.143   3.129   4.560  0.1418  2.5517 -0.0791
 6965SOL     OW32356   4.534   3.527   5.543  0.1609 -0.0326  0.5261
 6965SOL    HW132357   4.510   3.614   5.576 -0.6070 -0.2072  0.4163
 6965SOL    HW232358   4.564   3.545   5.455 -1.6447 -1.1022 -0.3118
 6966SOL     OW32359   2.434   1.589   4.489  0.7744  0.0883 -0.2929
 6966SOL    HW132360   2.486   1.666   4.509 -0.3817  1.2025 -1.5737
 6966SOL    HW232361   2.483   1.564   4.410  1.6198 -0.0463  0.2729
 6967SOL     OW32362   3.421   1.371   0.673 -0.3863 -0.0264 -0.6345
 6967SOL    HW132363   3.416   1.293   0.618  1.1756 -0.0940 -0.6715
 6967SOL    HW232364   3.509   1.358   0.708 -1.6366  0.8185  2.8279
 6968SOL     OW32365   2.632   4.553   9.512 -0.0300 -0.2024 -0.1328
 6968SOL    HW132366   2.566   4.494   9.476  1.2257 -0.9235 -1.2671
 6968SOL    HW232367   2.583   4.588   9.586  0.8232 -0.5383  0.5933
 6969SOL     OW32368   3.030   4.187   4.785 -0.1574 -0.3813  0.2507
 6969SOL    HW132369   2.968   4.198   4.713  0.9312  2.5834 -0.2169
 6969SOL    HW232370   3.093   4.254   4.761 -0.2384  0.3572  2.1148
 6970SOL     OW32371   0.455   2.942   6.881  0.0351 -0.1811 -0.0346
 6970SOL    HW132372   0.389   2.953   6.812  1.2623 -1.9716 -1.4806
 6970SOL    HW232373   0.480   2.852   6.862 -1.0961 -0.6792  0.8398
 6971SOL     OW32374   2.544   2.980   5.269  0.3049  0.8623  0.1059
 6971SOL    HW132375   2.626   3.021   5.240  0.1664  2.2944  1.7540
 6971SOL    HW232376   2.561   2.966   5.362 -1.2752  1.1844  0.4336
 6972SOL     OW32377   0.979   3.790   4.903  0.7076 -0.4851  0.3773
 6972SOL    HW132378   0.908   3.747   4.950  0.4891  0.1473  0.6263
 6972SOL    HW232379   0.939   3.844   4.835  1.7343  0.2149  0.3243
 6973SOL     OW32380   2.047   4.308   2.725  0.1844  0.8537 -0.7364
 6973SOL    HW132381   1.975   4.245   2.734 -0.5179  1.6307 -0.8829
 6973SOL    HW232382   2.047   4.340   2.635 -2.2392  0.7288 -0.7986
 6974SOL     OW32383   4.505   1.174   2.859  0.7451  0.2737 -0.3252
 6974SOL    HW132384   4.556   1.137   2.931 -1.0148 -0.4220  0.5605
 6974SOL    HW232385   4.564   1.170   2.784 -0.8764 -1.3456 -1.5032
 6975SOL     OW32386   1.289   1.387  17.299 -0.1204 -0.1423  0.1469
 6975SOL    HW132387   1.372   1.346  17.277  0.6101  0.0432  2.5039
 6975SOL    HW232388   1.241   1.317  17.344  0.2756 -0.4854  0.0369
 6976SOL     OW32389   1.322   1.333   3.023 -0.1560 -0.4497  0.0641
 6976SOL    HW132390   1.317   1.238   3.008  1.8115 -0.8593  2.0676
 6976SOL    HW232391   1.353   1.325   3.113  0.3520  0.5550 -0.0174
 6977SOL     OW32392   3.749   3.913   6.361 -0.2614  0.3423 -0.0032
 6977SOL    HW132393   3.731   3.998   6.402  0.7322  1.2535 -1.4680
 6977SOL    HW232394   3.690   3.853   6.407 -0.9162  2.0378  1.3860
 6978SOL     OW32395   3.337   2.793   9.189 -0.2474 -0.2513 -0.6092
 6978SOL    HW132396   3.375   2.748   9.264 -0.5612  0.3240 -0.0985
 6978SOL    HW232397   3.414   2.796   9.132  0.2982 -1.2036  0.0900
 6979SOL     OW32398   0.249   0.453   7.454 -0.0372 -0.0950  0.2897
 6979SOL    HW132399   0.321   0.415   7.506 -1.6231  0.8618  3.1862
 6979SOL    HW232400   0.187   0.461   7.526  0.6700  0.2386  0.8641
 6980SOL     OW32401   1.708   0.801   0.317 -0.6486  0.3003 -0.2132
 6980SOL    HW132402   1.804   0.797   0.311 -0.6910  0.5085 -1.1396
 6980SOL    HW232403   1.700   0.861   0.391  1.2688  1.9027 -1.2660
 6981SOL     OW32404   2.246   2.241   6.183  0.2164  0.2743  0.4469
 6981SOL    HW132405   2.176   2.283   6.133  0.6897  0.7053  0.1345
 6981SOL    HW232406   2.221   2.283   6.265 -0.0920  1.0714 -0.0586
 6982SOL     OW32407   0.614   2.969  10.886  0.0547  0.2671 -0.1661
 6982SOL    HW132408   0.664   3.050  10.878 -2.0538  1.8090  1.9557
 6982SOL    HW232409   0.677   2.911  10.928  0.6887 -0.4564 -2.1585
 6983SOL     OW32410   2.757   4.419   0.268  0.1585 -0.2060 -0.5744
 6983SOL    HW132411   2.744   4.440   0.176 -0.2655 -0.2120 -0.5167
 6983SOL    HW232412   2.783   4.327   0.261 -0.3235 -0.3591 -0.3242
 6984SOL     OW32413   3.152   2.372   5.827 -0.7033  0.3271  0.8352
 6984SOL    HW132414   3.120   2.293   5.785 -0.4186  1.6111 -1.7806
 6984SOL    HW232415   3.217   2.343   5.891 -0.4782  2.5194  1.6242
 6985SOL     OW32416   3.681   0.764   6.568 -0.5859 -0.0187 -0.7430
 6985SOL    HW132417   3.748   0.808   6.620  0.3488 -0.0001 -1.9787
 6985SOL    HW232418   3.625   0.833   6.534 -0.0445  0.9620  0.3490
 6986SOL     OW32419   4.468   2.312   2.009  0.2905  0.9172  0.2467
 6986SOL    HW132420   4.422   2.350   1.934  1.6005 -0.9478 -1.5225
 6986SOL    HW232421   4.382   2.282   2.038  0.2610 -0.8975 -1.6681
 6987SOL     OW32422   3.402   3.290  15.822  0.0824  0.3355 -0.2748
 6987SOL    HW132423   3.347   3.343  15.764  1.2440  1.2507 -0.5338
 6987SOL    HW232424   3.485   3.338  15.819  2.3264 -3.4503  0.3498
 6988SOL     OW32425   1.781   1.708   9.961  0.2387  0.2713  0.4415
 6988SOL    HW132426   1.753   1.690  10.051 -0.6491  0.0243  0.1029
 6988SOL    HW232427   1.724   1.780   9.935  0.3485 -0.0299 -0.6032
 6989SOL     OW32428   1.178   0.814   1.756 -0.0336  0.0348 -0.2091
 6989SOL    HW132429   1.129   0.895   1.739 -1.8521 -1.1112 -0.3772
 6989SOL    HW232430   1.255   0.826   1.702 -0.4306  0.9070 -0.5840
 6990SOL     OW32431   1.476   3.835  11.162  0.1288  0.6411  0.0301
 6990SOL    HW132432   1.482   3.763  11.100  1.2171  1.1689 -0.4738
 6990SOL    HW232433   1.499   3.909  11.106  2.6215  0.6173  1.0254
 6991SOL     OW32434   3.542   0.398   3.120 -0.0016 -0.6949  0.3796
 6991SOL    HW132435   3.456   0.440   3.110  0.6825  0.5680 -0.2721
 6991SOL    HW232436   3.510   0.308   3.123  0.0909 -0.6652  2.1877
 6992SOL     OW32437   2.894   1.936   6.887  1.0261  0.0685  0.0340
 6992SOL    HW132438   2.950   1.933   6.810  1.3191 -0.6017  0.2760
 6992SOL    HW232439   2.952   1.952   6.961  0.5603 -1.0649  0.6377
 6993SOL     OW32440   2.933   1.622   8.076  0.0478  0.3969 -0.2130
 6993SOL    HW132441   2.873   1.676   8.024  1.2388 -0.6934 -2.7576
 6993SOL    HW232442   2.981   1.583   8.002  2.2491 -0.5804  1.7505
 6994SOL     OW32443   0.973   1.606   2.254 -0.1707 -0.6960  0.3652
 6994SOL    HW132444   0.953   1.699   2.243 -2.2634 -0.8592  2.6587
 6994SOL    HW232445   1.030   1.614   2.330  2.8744 -0.5924 -1.9274
 6995SOL     OW32446   3.091   1.147   5.214  0.0793  0.3674 -0.1929
 6995SOL    HW132447   3.050   1.090   5.149  1.3129  1.5349 -1.9939
 6995SOL    HW232448   3.178   1.110   5.229 -0.2776 -0.0001  0.9542
 6996SOL     OW32449   0.067   0.725   4.432  0.5914  0.2123 -0.1032
 6996SOL    HW132450   0.138   0.774   4.474  0.5458 -0.6182  0.9338
 6996SOL    HW232451   0.089   0.733   4.339 -0.8164  0.3722 -0.4124
 6997SOL     OW32452   1.687   1.251   9.033 -0.1603  0.3776 -0.0249
 6997SOL    HW132453   1.718   1.326   8.981  0.3443  0.5196  0.4771
 6997SOL    HW232454   1.749   1.266   9.105 -1.5887 -0.3678  1.3375
 6998SOL     OW32455   4.336   2.233   0.285 -0.6914  0.0757  0.0334
 6998SOL    HW132456   4.357   2.183   0.363 -0.8798 -1.0741 -0.6529
 6998SOL    HW232457   4.405   2.193   0.232 -0.8305 -0.8591  0.5621
 6999SOL     OW32458   1.699   0.464  10.291  0.5797 -0.0209 -0.0409
 6999SOL    HW132459   1.782   0.495  10.256  0.8667 -1.8686 -0.9971
 6999SOL    HW232460   1.683   0.381  10.245 -1.1525  0.2607  0.0339
 7000SOL     OW32461   2.307   4.272   2.067 -0.2000  0.2851  0.1613
 7000SOL    HW132462   2.383   4.216   2.053 -1.3799 -0.7164 -2.2167
 7000SOL    HW232463   2.315   4.339   1.999 -0.6063  0.7904  0.6064
 7001SOL     OW32464   2.798   2.173   7.745  0.2162  0.1483  0.1391
 7001SOL    HW132465   2.794   2.232   7.670 -1.0000  1.0999  0.9482
 7001SOL    HW232466   2.807   2.092   7.695 -2.3056  0.9538 -1.6201
 7002SOL     OW32467   4.386   4.138   5.561 -0.3823 -0.0285  0.2454
 7002SOL    HW132468   4.317   4.078   5.533  0.6306 -0.7762 -0.6607
 7002SOL    HW232469   4.368   4.156   5.654 -1.1212  1.0680 -0.1089
 7003SOL     OW32470   3.234   4.197   3.247 -0.0004  0.0176  0.1919
 7003SOL    HW132471   3.267   4.217   3.159  2.3351  1.0988  1.3144
 7003SOL    HW232472   3.158   4.143   3.225 -0.0845  0.1986  0.0407
 7004SOL     OW32473   0.726   2.589   4.229 -0.3731 -0.5696  0.0621
 7004SOL    HW132474   0.683   2.637   4.158 -0.2470 -0.5997 -0.0360
 7004SOL    HW232475   0.654   2.576   4.290 -1.0947  0.8539 -0.5036
 7005SOL     OW32476   4.445   4.383   7.689 -0.5592  0.3013 -0.1989
 7005SOL    HW132477   4.361   4.363   7.732 -0.7335  0.4471 -0.4765
 7005SOL    HW232478   4.456   4.328   7.612 -0.6187 -0.0563  0.0456
 7006SOL     OW32479   0.224   1.783   6.617  0.1936  0.0967  0.1794
 7006SOL    HW132480   0.305   1.778   6.567 -1.0644 -1.6488 -1.6740
 7006SOL    HW232481   0.180   1.700   6.600 -1.3686  0.9140  0.2480
 7007SOL     OW32482   1.960   1.700   1.253 -0.3528 -0.1668  0.8802
 7007SOL    HW132483   1.933   1.791   1.264  1.2699  0.4772 -0.5044
 7007SOL    HW232484   2.042   1.709   1.204 -1.1752 -0.3505 -0.5304
 7008SOL     OW32485   3.638   1.825   6.549 -0.3808 -0.0858 -0.4606
 7008SOL    HW132486   3.690   1.788   6.477 -1.3711 -3.4933  0.5641
 7008SOL    HW232487   3.705   1.882   6.585  0.8374 -1.4437 -0.5485
 7009SOL     OW32488   1.830   1.656   5.631 -0.0827  0.4288  0.4676
 7009SOL    HW132489   1.916   1.617   5.615 -1.4831 -0.6507 -4.2625
 7009SOL    HW232490   1.860   1.743   5.657 -0.7289  0.7370  0.1736
 7010SOL     OW32491   1.392   3.705   6.677 -0.5486 -0.0608 -0.2822
 7010SOL    HW132492   1.375   3.799   6.676  1.3492  0.2779  2.0468
 7010SOL    HW232493   1.391   3.684   6.583 -2.1371  1.0216 -0.5042
 7011SOL     OW32494   3.018   1.367   3.091 -0.7719 -0.0951  0.0453
 7011SOL    HW132495   2.977   1.343   3.008  1.0506 -1.3932 -0.4779
 7011SOL    HW232496   2.945   1.362   3.153 -0.7285 -1.7227 -0.0404
 7012SOL     OW32497   0.232   1.981   3.311  0.0724  0.1773 -0.0742
 7012SOL    HW132498   0.290   2.028   3.251 -2.1001  0.6987 -1.7387
 7012SOL    HW232499   0.189   2.057   3.349  1.6592  0.7453  0.5629
 7013SOL     OW32500   3.430   3.488   3.299 -0.0444 -0.3985 -0.2938
 7013SOL    HW132501   3.517   3.520   3.325 -0.2500 -0.0387 -0.0457
 7013SOL    HW232502   3.374   3.546   3.351 -0.1101 -1.1664  0.5091
 7014SOL     OW32503   3.969   1.012   3.095  0.4444  0.4890 -0.1678
 7014SOL    HW132504   3.955   1.084   3.033  2.9740  0.4978 -0.7179
 7014SOL    HW232505   4.064   1.018   3.092  0.4780  1.2524  2.0923
 7015SOL     OW32506   0.883   4.571   7.600  0.2896 -0.3101  0.5048
 7015SOL    HW132507   0.883   4.614   7.685  0.3169  0.1694  0.2621
 7015SOL    HW232508   0.923   4.637   7.543  0.8709  0.4496  1.7965
 7016SOL     OW32509   0.568   0.162   9.417  0.1656  0.1608  0.0559
 7016SOL    HW132510   0.524   0.078   9.408 -1.6927  1.2804 -1.3728
 7016SOL    HW232511   0.504   0.214   9.465 -0.2910  0.0029 -0.3762
 7017SOL     OW32512   0.890   2.851  10.986 -0.0036  0.0732 -0.5168
 7017SOL    HW132513   0.818   2.803  10.944 -0.7255  1.0015 -0.3164
 7017SOL    HW232514   0.931   2.885  10.906  2.4584 -0.3257  0.5925
 7018SOL     OW32515   3.383   1.730   6.713 -0.2720  0.5038  0.3961
 7018SOL    HW132516   3.395   1.664   6.781 -1.9772  0.9829  1.1709
 7018SOL    HW232517   3.474   1.740   6.685 -0.6823 -0.1719 -1.1582
 7019SOL     OW32518   1.624   4.662  10.623  0.3201 -0.1065  0.3038
 7019SOL    HW132519   1.551   4.606  10.651  0.6796  0.0721  1.5877
 7019SOL    HW232520   1.671   4.659  10.706  3.4486 -0.9898 -1.4991
 7020SOL     OW32521   3.039   1.188   1.848 -0.4400 -0.4105  0.6395
 7020SOL    HW132522   3.134   1.195   1.847 -0.6381  2.3605 -0.1590
 7020SOL    HW232523   3.023   1.111   1.902 -1.5308 -0.6052  0.0408
 7021SOL     OW32524   2.766   3.880   0.185  0.2275 -0.2095 -0.0632
 7021SOL    HW132525   2.815   3.817   0.132  0.3800  1.4069 -1.8090
 7021SOL    HW232526   2.676   3.848   0.172 -0.4359  0.7776  2.0895
 7022SOL     OW32527   3.726   2.490   3.134 -0.3828  0.8615  0.2862
 7022SOL    HW132528   3.671   2.523   3.063 -1.3477 -1.6694 -0.1350
 7022SOL    HW232529   3.721   2.557   3.202 -1.0776 -0.4730  1.5393
 7023SOL     OW32530   0.233   2.492   7.888  0.0951  0.5821 -0.1786
 7023SOL    HW132531   0.160   2.455   7.937 -1.8116  2.7436 -1.3926
 7023SOL    HW232532   0.257   2.572   7.936  2.0647  0.4008 -0.8414
 7024SOL     OW32533   0.293   4.366  16.785 -0.1651 -0.3365  1.0707
 7024SOL    HW132534   0.329   4.434  16.843  1.0126  0.0380 -0.0839
 7024SOL    HW232535   0.203   4.398  16.784  0.4165  1.2538 -1.0029
 7025SOL     OW32536   0.425   2.831   0.579 -0.5838  0.0894  0.0585
 7025SOL    HW132537   0.410   2.796   0.667 -0.9739  0.7270  0.2506
 7025SOL    HW232538   0.432   2.752   0.525  0.4812  0.1247  0.1431
 7026SOL     OW32539   2.997   0.263   2.154  0.1533 -0.1125 -0.3160
 7026SOL    HW132540   2.910   0.274   2.117  0.0986  1.1025  0.1677
 7026SOL    HW232541   2.998   0.334   2.219 -2.2311  0.9489 -1.4417
 7027SOL     OW32542   1.039   0.480  11.872 -0.1846 -0.2851 -0.1522
 7027SOL    HW132543   1.096   0.533  11.926  0.6567 -2.1412  0.7641
 7027SOL    HW232544   0.978   0.537  11.824 -0.3263  0.3002  0.7168
 7028SOL     OW32545   4.699   2.627   7.192 -0.6559 -0.4710 -0.1834
 7028SOL    HW132546   0.064   2.660   7.179  0.0474 -2.4710 -0.4550
 7028SOL    HW232547   4.663   2.702   7.240 -2.0103 -2.2959  1.6499
 7029SOL     OW32548   0.352   4.328   0.542  0.4159  0.2168  0.3040
 7029SOL    HW132549   0.393   4.265   0.601  1.2446  1.5176  1.1199
 7029SOL    HW232550   0.335   4.397   0.606  1.2945 -0.5288  1.3204
 7030SOL     OW32551   4.225   4.358   6.025  0.2366 -0.7010  0.3893
 7030SOL    HW132552   4.225   4.363   6.121 -0.8911 -0.6287  0.3875
 7030SOL    HW232553   4.132   4.378   6.014 -0.1801 -2.5150  0.5549
 7031SOL     OW32554   0.099   1.018   7.114  0.1094  0.0871  0.5233
 7031SOL    HW132555   0.148   1.044   7.036 -1.0249  2.2037  0.5238
 7031SOL    HW232556   0.134   0.930   7.128  0.5668  0.4066  1.3997
 7032SOL     OW32557   0.523   1.318   1.794  0.6879  1.1252  0.4884
 7032SOL    HW132558   0.465   1.310   1.719  2.9380 -0.2168 -1.0870
 7032SOL    HW232559   0.481   1.263   1.860 -0.5443  0.6127 -0.7303
 7033SOL     OW32560   3.770   1.239  14.863 -0.0998  0.4504  0.1085
 7033SOL    HW132561   3.791   1.189  14.784 -1.4294 -0.3805  0.2745
 7033SOL    HW232562   3.724   1.167  14.907  0.9816  0.2181  0.8613
 7034SOL     OW32563   4.254   4.036  13.516  0.0827 -0.4900 -0.3415
 7034SOL    HW132564   4.220   4.126  13.515  0.8449 -0.1919  1.2366
 7034SOL    HW232565   4.193   3.991  13.458 -0.1387  0.5735 -0.9426
 7035SOL     OW32566   1.402   1.031   7.631  0.6365  0.2037  0.0240
 7035SOL    HW132567   1.448   1.114   7.617  1.0122 -0.3844 -2.1786
 7035SOL    HW232568   1.361   1.052   7.715 -1.0601  2.0629 -1.2600
 7036SOL     OW32569   2.465   1.860  14.146 -0.0219  0.2215 -0.0899
 7036SOL    HW132570   2.403   1.907  14.202  0.5407 -0.4846  1.1360
 7036SOL    HW232571   2.469   1.776  14.191 -0.8844 -0.2565 -0.9187
 7037SOL     OW32572   3.902   0.632   1.952  0.1926 -0.3632 -0.2102
 7037SOL    HW132573   3.921   0.564   2.016 -1.2826  1.2524  1.9570
 7037SOL    HW232574   3.977   0.633   1.894  0.6516 -0.0574  0.3889
 7038SOL     OW32575   3.017   1.149   9.206  0.5885 -0.0485  0.2220
 7038SOL    HW132576   3.094   1.205   9.207  0.6827 -0.0911 -2.6112
 7038SOL    HW232577   2.993   1.175   9.116  1.0653 -0.4226 -0.0116
 7039SOL     OW32578   1.630   0.284   0.009  0.5372  0.3952  0.5823
 7039SOL    HW132579   1.704   0.224   0.000 -0.0118 -0.3665  1.1646
 7039SOL    HW232580   1.681   0.362   0.033  0.0878  0.3138  1.8015
 7040SOL     OW32581   3.646   2.788  11.559  0.1586  0.2024 -0.3784
 7040SOL    HW132582   3.634   2.866  11.612 -1.5286  0.1673 -0.6900
 7040SOL    HW232583   3.724   2.812  11.509 -0.2284  3.1921  0.4606
 7041SOL     OW32584   0.176   1.655   9.693 -0.0585  0.3249  0.0371
 7041SOL    HW132585   0.234   1.579   9.679  1.4513  1.8817 -2.1822
 7041SOL    HW232586   0.217   1.727   9.646  0.2034  1.6131  2.2590
 7042SOL     OW32587   1.309   2.810   4.100  0.1062 -0.4290 -0.2941
 7042SOL    HW132588   1.235   2.768   4.057  1.1750  0.5345 -3.0660
 7042SOL    HW232589   1.299   2.901   4.071 -0.4031 -0.8208 -1.3568
 7043SOL     OW32590   3.715   2.683   6.534  0.0732 -0.1117 -0.1621
 7043SOL    HW132591   3.653   2.673   6.607 -0.9893 -1.3213 -1.2270
 7043SOL    HW232592   3.711   2.776   6.514  0.4141  0.3458  1.9292
 7044SOL     OW32593   0.718   4.406  17.650  0.0470  0.2035  0.4655
 7044SOL    HW132594   0.747   4.314  17.650  0.2452  0.2673 -1.4475
 7044SOL    HW232595   0.753   4.448  17.572  0.8709 -1.6644 -0.1640
 7045SOL     OW32596   1.125   3.836   0.342  0.7370  0.1891  0.2508
 7045SOL    HW132597   1.055   3.884   0.387 -0.6270  1.1638 -2.8893
 7045SOL    HW232598   1.131   3.882   0.258  2.0099 -1.5403 -0.5971
 7046SOL     OW32599   4.111   3.255   4.205  0.5767 -0.2429 -0.3047
 7046SOL    HW132600   4.059   3.227   4.130 -1.3879  1.6631  0.3260
 7046SOL    HW232601   4.051   3.233   4.276  0.3630 -0.8481 -0.6795
 7047SOL     OW32602   3.290   1.551   9.899 -0.1001 -0.6512 -0.4322
 7047SOL    HW132603   3.287   1.627   9.842  0.9701 -1.0697 -1.0304
 7047SOL    HW232604   3.240   1.585   9.974  0.4925  3.2771 -1.8116
 7048SOL     OW32605   4.608   2.648   8.091 -0.4250 -0.0885  0.9783
 7048SOL    HW132606   4.703   2.644   8.099 -0.2689 -0.1070 -0.8475
 7048SOL    HW232607   4.580   2.583   8.156  0.2622  1.2513  2.5884
 7049SOL     OW32608   2.274   3.652   9.312 -0.1492  0.0440  0.0584
 7049SOL    HW132609   2.300   3.712   9.382  1.2320  0.2948 -0.6722
 7049SOL    HW232610   2.178   3.659   9.318  0.0670  2.2211  1.2064
 7050SOL     OW32611   1.069   4.659   9.963  0.2487  0.3080 -0.3402
 7050SOL    HW132612   1.022   4.720  10.020 -0.0606 -0.1969 -0.0635
 7050SOL    HW232613   1.006   4.643   9.892  0.5922  0.3066 -0.6440
 7051SOL     OW32614   1.470   3.740   7.748  0.0260 -0.1408 -0.2954
 7051SOL    HW132615   1.422   3.765   7.827  0.1854 -1.6003  0.2513
 7051SOL    HW232616   1.420   3.797   7.689  0.6301 -0.4752 -1.1438
 7052SOL     OW32617   3.448   3.150   3.660  0.0936 -0.6884 -0.0772
 7052SOL    HW132618   3.390   3.192   3.597  1.8301  0.4964 -0.9189
 7052SOL    HW232619   3.540   3.164   3.634  0.6154 -3.0821  0.5518
 7053SOL     OW32620   0.640   3.342   2.378 -0.2820  0.2832  0.2152
 7053SOL    HW132621   0.626   3.262   2.429  3.0861 -0.0714  0.5697
 7053SOL    HW232622   0.722   3.321   2.334  0.0581  1.3903  0.3058
 7054SOL     OW32623   1.577   0.221   6.890 -0.5408  0.2860 -0.1356
 7054SOL    HW132624   1.499   0.272   6.912  0.1893  2.0333 -1.5880
 7054SOL    HW232625   1.544   0.131   6.892  0.1672  0.0827  3.1079
 7055SOL     OW32626   4.375   4.252   3.143 -0.2602 -0.3089  0.2448
 7055SOL    HW132627   4.400   4.310   3.071  2.1294  0.8862  2.0469
 7055SOL    HW232628   4.324   4.185   3.098 -0.7294  0.3995 -0.2642
 7056SOL     OW32629   3.053   3.716   7.488 -0.6619 -0.4181 -0.1127
 7056SOL    HW132630   3.025   3.721   7.580  0.4565  0.7329  0.1782
 7056SOL    HW232631   3.035   3.804   7.455 -0.5727  0.7557  2.9736
 7057SOL     OW32632   3.560   2.636   7.012 -0.1891  0.1641  0.5455
 7057SOL    HW132633   3.515   2.565   7.057 -0.5031 -0.1154 -0.2096
 7057SOL    HW232634   3.638   2.632   7.067  0.4593 -0.9660 -0.4410
 7058SOL     OW32635   4.621   1.577  12.533  0.0686 -0.2458 -0.1380
 7058SOL    HW132636   4.559   1.626  12.588 -0.1355  0.7513 -1.2582
 7058SOL    HW232637   4.591   1.487  12.544 -1.9255  0.1288 -2.4414
 7059SOL     OW32638   3.393   2.497   1.848  0.1356  0.0834  0.0871
 7059SOL    HW132639   3.442   2.418   1.824  1.1070  1.2170 -1.7008
 7059SOL    HW232640   3.459   2.540   1.903 -1.2867  3.4156 -0.8495
 7060SOL     OW32641   2.754   2.517   4.398  0.1855 -0.2210 -0.2073
 7060SOL    HW132642   2.746   2.464   4.318  1.5549 -0.2009 -0.3666
 7060SOL    HW232643   2.666   2.508   4.435  1.0148 -0.1011  1.7879
 7061SOL     OW32644   2.586   1.540  15.205 -0.4170  0.4116 -0.3433
 7061SOL    HW132645   2.670   1.552  15.159 -1.6442  0.2673 -2.6123
 7061SOL    HW232646   2.571   1.629  15.239 -0.6721  0.5944 -0.9347
 7062SOL     OW32647   0.594   0.230   4.856 -0.3315  0.0460 -0.6583
 7062SOL    HW132648   0.500   0.247   4.848 -0.2552 -0.1706 -2.0427
 7062SOL    HW232649   0.619   0.321   4.870 -1.1698  0.2294 -0.3642
 7063SOL     OW32650   2.662   3.420  17.433 -0.1809 -0.3662  0.3272
 7063SOL    HW132651   2.743   3.468  17.445 -1.3337  1.7457 -0.3785
 7063SOL    HW232652   2.608   3.484  17.386 -0.5807 -1.7193 -1.0633
 7064SOL     OW32653   0.602   0.682   9.293 -0.7618  0.3684  0.1521
 7064SOL    HW132654   0.525   0.714   9.246 -0.5946  1.5667  0.7005
 7064SOL    HW232655   0.632   0.614   9.232 -0.6579  1.4128 -0.9573
 7065SOL     OW32656   1.571   4.097   3.623 -0.2228 -0.2315  0.4473
 7065SOL    HW132657   1.605   4.149   3.695 -0.3879  1.3648 -0.6417
 7065SOL    HW232658   1.607   4.011   3.644  1.1907  0.3426  0.3816
 7066SOL     OW32659   4.507   0.807   1.911  0.2215 -0.4075  0.1075
 7066SOL    HW132660   4.505   0.807   2.006 -1.9284 -2.6936  0.0633
 7066SOL    HW232661   4.444   0.735   1.904  2.6363 -2.3223 -2.1109
 7067SOL     OW32662   3.474   4.254   6.179  0.7311  0.2824 -0.0848
 7067SOL    HW132663   3.522   4.292   6.105 -1.3173  1.3178 -0.8582
 7067SOL    HW232664   3.507   4.164   6.181 -0.7370 -0.2564 -0.4138
 7068SOL     OW32665   0.447   2.399   3.511 -0.0748 -0.2589  0.3201
 7068SOL    HW132666   0.377   2.427   3.452  0.3549 -1.8851 -0.9575
 7068SOL    HW232667   0.499   2.479   3.508 -0.2525 -0.2268 -1.4410
 7069SOL     OW32668   3.341   2.766   7.967  0.0429 -0.0763  0.0886
 7069SOL    HW132669   3.362   2.704   7.898 -1.5221 -0.2296 -0.2446
 7069SOL    HW232670   3.308   2.846   7.926  1.0495  0.1925 -0.1978
 7070SOL     OW32671   2.855   4.530   7.110 -0.2601  0.0667 -0.1986
 7070SOL    HW132672   2.828   4.473   7.181 -1.0219 -2.2140 -2.3073
 7070SOL    HW232673   2.950   4.541   7.123 -0.5800  2.0344  0.4515
 7071SOL     OW32674   3.437   0.671   6.740  0.5611 -0.3275  0.6876
 7071SOL    HW132675   3.473   0.644   6.825  0.4194 -1.4858  0.3792
 7071SOL    HW232676   3.512   0.722   6.709 -0.6586 -0.5420 -2.5996
 7072SOL     OW32677   1.480   0.696   2.284 -0.2302 -0.3543  0.3584
 7072SOL    HW132678   1.457   0.724   2.195  3.7706 -1.9645 -1.1800
 7072SOL    HW232679   1.532   0.768   2.320 -0.9832  1.0940 -1.4453
 7073SOL     OW32680   2.019   1.094  12.141 -0.3592  0.0633 -0.4691
 7073SOL    HW132681   2.042   1.017  12.193 -0.7008 -0.7489 -1.5230
 7073SOL    HW232682   2.104   1.123  12.108 -1.4150  1.5049 -1.9288
 7074SOL     OW32683   1.186   1.828   7.821 -0.1259  0.2043 -0.4232
 7074SOL    HW132684   1.168   1.920   7.837 -1.0641  0.0234 -0.4609
 7074SOL    HW232685   1.141   1.801   7.901 -0.3687 -0.6696 -0.8554
 7075SOL     OW32686   1.663   2.099   4.808  0.4866  0.4443  0.4219
 7075SOL    HW132687   1.629   2.181   4.842 -2.3433 -0.2413 -0.7427
 7075SOL    HW232688   1.740   2.090   4.864  0.5889  0.4678  0.2838
 7076SOL     OW32689   4.170   1.590  12.079  0.0526  0.1825  0.2294
 7076SOL    HW132690   4.215   1.582  12.163 -1.7028  3.7099  1.5300
 7076SOL    HW232691   4.078   1.606  12.103  0.1184  0.8476  0.0528
 7077SOL     OW32692   4.436   1.314   3.593 -0.6397 -0.1012 -0.5441
 7077SOL    HW132693   4.516   1.266   3.573 -0.4220  0.1241 -0.2264
 7077SOL    HW232694   4.474   1.379   3.652 -0.0659 -0.6257 -0.3399
 7078SOL     OW32695   3.806   2.820  15.423  0.5919 -0.9711  0.0036
 7078SOL    HW132696   3.839   2.809  15.512 -2.0274  0.7872  1.2022
 7078SOL    HW232697   3.884   2.776  15.390  1.7683  2.1497 -1.3214
 7079SOL     OW32698   0.687   1.110  15.509 -0.2682 -0.2756  0.5338
 7079SOL    HW132699   0.768   1.062  15.526  0.0944  0.8622  2.0254
 7079SOL    HW232700   0.690   1.175  15.578 -3.4419  2.7258 -2.1575
 7080SOL     OW32701   3.293   4.276  10.741 -0.5765 -0.0669  0.0303
 7080SOL    HW132702   3.283   4.347  10.677  0.6717  1.8070  1.8832
 7080SOL    HW232703   3.368   4.226  10.710  0.4654  1.9576 -0.7333
 7081SOL     OW32704   0.830   1.093   8.251 -0.4662 -0.0440  0.3778
 7081SOL    HW132705   0.850   1.037   8.176 -0.2289  0.7571 -0.1556
 7081SOL    HW232706   0.807   1.174   8.206 -1.0235  0.5731  1.7893
 7082SOL     OW32707   2.730   2.262   3.918 -0.0416 -0.4428 -0.4589
 7082SOL    HW132708   2.783   2.281   3.841 -0.1663  1.3733 -0.0908
 7082SOL    HW232709   2.778   2.300   3.991  1.1989 -3.0869  0.1017
 7083SOL     OW32710   1.418   4.283   2.309 -0.0046 -0.0990 -0.5990
 7083SOL    HW132711   1.339   4.269   2.257 -1.3037 -1.3665  1.6989
 7083SOL    HW232712   1.482   4.299   2.240  0.6846 -0.3508 -0.0096
 7084SOL     OW32713   4.054   4.076   7.768  0.2174 -0.4638  0.2887
 7084SOL    HW132714   4.087   3.995   7.807  1.0906 -0.5446 -0.6024
 7084SOL    HW232715   4.083   4.064   7.677 -1.6163  0.4663 -0.4188
 7085SOL     OW32716   3.255   2.172   1.835 -0.1561  0.3995 -0.0340
 7085SOL    HW132717   3.189   2.116   1.795 -0.6880  1.1376 -0.2014
 7085SOL    HW232718   3.312   2.185   1.759 -0.4243 -3.8522 -0.9304
 7086SOL     OW32719   4.434   2.669   0.772  0.5490 -0.5392 -0.2609
 7086SOL    HW132720   4.444   2.708   0.859 -1.2129  2.3891 -1.4045
 7086SOL    HW232721   4.345   2.633   0.773  0.2265  0.3097  2.0057
 7087SOL     OW32722   3.379   2.385   6.044 -0.5325 -0.1197 -0.1940
 7087SOL    HW132723   3.309   2.325   6.070  0.0358 -0.7478 -0.1152
 7087SOL    HW232724   3.460   2.334   6.053 -1.7564 -2.2962 -1.4440
 7088SOL     OW32725   4.388   0.295  13.606  0.8917 -0.0764 -0.3537
 7088SOL    HW132726   4.427   0.373  13.565 -2.9004  1.8077 -0.4172
 7088SOL    HW232727   4.451   0.228  13.579 -0.7882 -1.3900 -1.0156
 7089SOL     OW32728   1.708   2.611   0.347 -0.0885 -0.2770  0.3707
 7089SOL    HW132729   1.747   2.679   0.292 -1.2556 -0.2675 -0.4425
 7089SOL    HW232730   1.753   2.531   0.319  2.0384  0.3545  1.9859
 7090SOL     OW32731   3.958   4.298   6.497 -0.2418 -0.3793  0.1512
 7090SOL    HW132732   3.963   4.363   6.566  0.1252 -1.1270  0.8291
 7090SOL    HW232733   4.047   4.263   6.501  1.1530  3.1536  0.0449
 7091SOL     OW32734   1.005   2.811   5.893  0.6682 -0.0865 -0.2885
 7091SOL    HW132735   0.987   2.824   5.986 -0.0749  2.6950 -0.8414
 7091SOL    HW232736   1.063   2.735   5.893  3.0558  1.7413  1.1065
 7092SOL     OW32737   2.623   0.497   6.988 -0.0580 -0.6678  0.0852
 7092SOL    HW132738   2.685   0.507   6.916  1.1112 -0.2073  1.1439
 7092SOL    HW232739   2.571   0.425   6.953  2.0825 -1.8233 -0.7683
 7093SOL     OW32740   1.212   0.713   0.845 -0.5251 -0.0615 -0.4282
 7093SOL    HW132741   1.300   0.739   0.817 -0.7764 -0.9845 -2.0799
 7093SOL    HW232742   1.231   0.710   0.938 -0.2700 -1.1935 -0.5077
 7094SOL     OW32743   0.727   1.612   1.551  0.0262 -0.3358  0.0831
 7094SOL    HW132744   0.769   1.581   1.470  0.0991 -0.3014  0.1075
 7094SOL    HW232745   0.698   1.701   1.529  0.1305 -0.8401 -2.0685
 7095SOL     OW32746   3.827   3.541   9.530 -0.1305  0.5254 -0.0129
 7095SOL    HW132747   3.792   3.581   9.451 -1.3027  1.7874  1.1431
 7095SOL    HW232748   3.882   3.472   9.494  0.9011  1.1930  0.2730
 7096SOL     OW32749   0.335   2.603   8.350 -0.5730  0.0046 -0.5072
 7096SOL    HW132750   0.259   2.546   8.337 -0.0829 -0.7866  0.0715
 7096SOL    HW232751   0.322   2.631   8.441  0.5730 -0.9291 -0.0583
 7097SOL     OW32752   1.355   2.864   4.555 -0.2519 -0.3441 -0.2022
 7097SOL    HW132753   1.426   2.908   4.599 -0.1788 -0.4374 -0.2263
 7097SOL    HW232754   1.277   2.915   4.577  1.3166  1.8771  0.1196
 7098SOL     OW32755   2.110   3.677   9.932 -0.8769 -0.3738 -0.0567
 7098SOL    HW132756   2.200   3.654   9.909 -1.0668 -1.1244 -0.0436
 7098SOL    HW232757   2.110   3.751   9.871 -1.3684 -1.5133 -1.4482
 7099SOL     OW32758   4.429   1.511   0.634 -0.2258  0.5314  0.2142
 7099SOL    HW132759   4.460   1.448   0.569 -3.0147 -2.7848  2.1588
 7099SOL    HW232760   4.514   1.539   0.668 -1.3190  3.9263  0.1498
 7100SOL     OW32761   0.632   2.643   8.244  0.1798  0.1884 -0.1374
 7100SOL    HW132762   0.549   2.600   8.263  1.0679  0.3238  4.0425
 7100SOL    HW232763   0.603   2.734   8.252  0.8816  0.3437  0.5552
 7101SOL     OW32764   3.513   0.026   4.932 -0.5621  0.0347  0.1301
 7101SOL    HW132765   3.573   4.679   4.956  0.7910  0.9230 -0.6283
 7101SOL    HW232766   3.424   4.719   4.917 -1.7041  2.1635  2.3091
 7102SOL     OW32767   2.896   3.007   7.533 -0.0364  0.0299 -0.1749
 7102SOL    HW132768   2.893   3.098   7.563  0.5330 -0.3901  1.1618
 7102SOL    HW232769   2.932   2.966   7.612  1.5949 -0.4741 -1.1903
 7103SOL     OW32770   2.064   2.004   7.744  0.0708 -0.2592  0.2617
 7103SOL    HW132771   1.972   1.983   7.762 -0.3110  1.0282 -0.1600
 7103SOL    HW232772   2.076   2.095   7.772  0.7060  0.0649 -1.0737
 7104SOL     OW32773   1.318   0.515   6.726  0.4339 -0.4995  0.9468
 7104SOL    HW132774   1.303   0.459   6.802  0.0563 -2.2213 -0.4022
 7104SOL    HW232775   1.384   0.572   6.766  0.8274  0.1104 -0.5801
 7105SOL     OW32776   4.662   2.917  13.591 -0.0692  0.5934 -0.3416
 7105SOL    HW132777   4.586   2.928  13.649  0.4931  0.9576  0.3231
 7105SOL    HW232778   0.002   2.978  13.627  0.1971 -0.2544  0.6295
 7106SOL     OW32779   3.912   1.455  15.813 -0.1169  0.4398 -0.2372
 7106SOL    HW132780   3.945   1.467  15.902 -2.9476 -1.1483  1.0219
 7106SOL    HW232781   3.982   1.465  15.748 -0.0187  0.1090 -0.1830
 7107SOL     OW32782   4.367   1.592   4.120 -0.6882  0.0321 -0.2000
 7107SOL    HW132783   4.381   1.686   4.108  1.0829 -0.2343 -0.1999
 7107SOL    HW232784   4.371   1.579   4.215 -0.9113  0.1391 -0.1779
 7108SOL     OW32785   2.027   0.493   3.702 -0.4865  0.4409  0.0659
 7108SOL    HW132786   2.006   0.585   3.718 -0.7637  0.6025 -1.2211
 7108SOL    HW232787   1.971   0.453   3.768 -1.0442  2.5628  0.8843
 7109SOL     OW32788   0.439   3.979   7.432  0.0487 -0.2145 -0.3071
 7109SOL    HW132789   0.512   3.976   7.495  0.3780  0.1096 -0.6706
 7109SOL    HW232790   0.415   3.886   7.433  2.0301 -0.7337 -0.1155
 7110SOL     OW32791   2.473   2.543   2.620  0.1308 -0.2178 -0.5276
 7110SOL    HW132792   2.567   2.537   2.637 -0.0913 -2.7769 -0.1712
 7110SOL    HW232793   2.475   2.588   2.536 -0.2754  0.7672 -0.0157
 7111SOL     OW32794   4.048   3.132   8.839 -0.4621 -0.2426  0.0243
 7111SOL    HW132795   4.017   3.041   8.847  2.5249 -1.2794 -0.1913
 7111SOL    HW232796   3.963   3.172   8.854  0.8121  2.3295  0.3052
 7112SOL     OW32797   4.026   4.393  10.414 -0.1071  0.5697  0.0623
 7112SOL    HW132798   4.010   4.401  10.320  0.5066  1.9488  0.0738
 7112SOL    HW232799   4.013   4.485  10.438  0.9798  0.7186  0.1090
 7113SOL     OW32800   3.691   3.278   8.277 -0.6304  0.2518 -0.3335
 7113SOL    HW132801   3.663   3.342   8.211 -0.8737  0.4294 -0.0560
 7113SOL    HW232802   3.642   3.202   8.246 -0.2474  0.5701 -1.7141
 7114SOL     OW32803   2.399   0.437   6.648 -0.2070  0.1811 -0.1927
 7114SOL    HW132804   2.389   0.352   6.693  4.8192  0.1240  0.7499
 7114SOL    HW232805   2.323   0.487   6.678 -0.3823 -0.0968 -0.1714
 7115SOL     OW32806   4.509   2.034   9.733 -0.1086  0.7007 -0.7364
 7115SOL    HW132807   4.594   2.008   9.769  0.8984  2.4330 -1.8468
 7115SOL    HW232808   4.518   2.129   9.731 -2.9821  0.9627 -0.3961
 7116SOL     OW32809   1.746   4.423  10.321 -0.3547  0.2149 -0.0374
 7116SOL    HW132810   1.650   4.424  10.315 -0.3136 -1.0475 -0.9646
 7116SOL    HW232811   1.760   4.344  10.269  4.4998  1.6640 -0.9295
 7117SOL     OW32812   3.898   0.904   5.070  0.0037 -0.4118 -0.5151
 7117SOL    HW132813   3.959   0.862   5.131  0.9728 -1.3824 -2.1450
 7117SOL    HW232814   3.954   0.967   5.025 -0.0529 -0.7730 -1.0903
 7118SOL     OW32815   0.938   3.765   3.225 -0.0165  0.2505  0.0923
 7118SOL    HW132816   0.954   3.671   3.238 -1.9110  0.2349  2.3586
 7118SOL    HW232817   0.853   3.767   3.270 -0.0484  2.0125 -0.0595
 7119SOL     OW32818   2.258   4.145   2.319 -0.1652 -0.5941 -0.1057
 7119SOL    HW132819   2.188   4.087   2.291 -0.6480 -0.1263  0.1424
 7119SOL    HW232820   2.272   4.194   2.237 -1.4901 -0.9627 -0.5371
 7120SOL     OW32821   1.974   2.824   3.563  0.4372  0.1689 -0.7843
 7120SOL    HW132822   1.992   2.876   3.484 -2.0011 -0.6044 -1.8584
 7120SOL    HW232823   1.938   2.890   3.622 -3.3858 -0.0173 -2.8861
 7121SOL     OW32824   0.432   0.587   4.230  0.1106  0.0348 -0.7932
 7121SOL    HW132825   0.340   0.598   4.208  0.0008  2.1229  0.7363
 7121SOL    HW232826   0.456   0.508   4.182  0.1787 -0.4516  0.0535
 7122SOL     OW32827   2.592   1.199   3.754  0.7708 -0.3268  0.2877
 7122SOL    HW132828   2.681   1.185   3.787  0.8143 -0.0764  0.2763
 7122SOL    HW232829   2.546   1.142   3.816 -0.4336  0.6976  0.3412
 7123SOL     OW32830   0.247   3.933  15.284 -0.3304 -0.5467  0.2107
 7123SOL    HW132831   0.302   3.902  15.356 -0.7089 -0.9771  0.3147
 7123SOL    HW232832   0.262   3.866  15.217 -2.2219 -1.7699  1.0243
 7124SOL     OW32833   2.327   0.353   9.594 -0.0990 -0.2102  0.0758
 7124SOL    HW132834   2.423   0.350   9.602 -0.2396 -1.2568  1.3307
 7124SOL    HW232835   2.303   0.262   9.581 -0.6549  0.1364 -1.3787
 7125SOL     OW32836   2.800   1.172   6.479  0.2486 -0.0725 -0.7302
 7125SOL    HW132837   2.706   1.160   6.462 -0.0173 -0.4548  0.9521
 7125SOL    HW232838   2.806   1.266   6.490  1.9902 -0.0289 -2.0450
 7126SOL     OW32839   1.400   1.116   1.776  0.3822 -0.0763  0.4405
 7126SOL    HW132840   1.331   1.158   1.726  0.3780 -0.8169 -0.1701
 7126SOL    HW232841   1.418   1.029   1.739  2.2050  0.7186 -0.5440
 7127SOL     OW32842   0.005   0.915  13.530 -0.1556 -0.4203 -0.2206
 7127SOL    HW132843   4.639   0.927  13.502  0.3828  0.9839 -1.3640
 7127SOL    HW232844   0.063   0.985  13.500 -1.5885  0.5138 -0.8237
 7128SOL     OW32845   2.849   2.216   3.658  0.6259  0.4858  0.2512
 7128SOL    HW132846   2.861   2.151   3.727 -0.1621  0.4190  0.3311
 7128SOL    HW232847   2.906   2.184   3.589  1.1472  1.5949  0.1641
 7129SOL     OW32848   3.284   4.354  10.365 -0.4659 -0.2409  0.3104
 7129SOL    HW132849   3.189   4.340  10.364 -0.7263  1.3268  1.6545
 7129SOL    HW232850   3.304   4.396  10.282  1.4343 -0.7168  0.5400
 7130SOL     OW32851   2.964   3.409  10.006 -0.6315 -0.7402  0.0249
 7130SOL    HW132852   3.037   3.388  10.065 -0.7408 -4.0951 -1.0177
 7130SOL    HW232853   2.889   3.358  10.037 -3.1567  4.8853  3.0802
 7131SOL     OW32854   0.989   4.353   5.003  0.2405  0.4531  0.3132
 7131SOL    HW132855   0.897   4.347   4.979  0.3090  0.7496 -0.0323
 7131SOL    HW232856   1.009   4.264   4.974  0.0723  0.3006  0.6724
 7132SOL     OW32857   2.534   1.810   2.667  0.0337  0.5517  0.3717
 7132SOL    HW132858   2.453   1.842   2.629 -1.2102 -0.6250  2.0381
 7132SOL    HW232859   2.529   1.717   2.645 -1.9303  0.5289  0.9875
 7133SOL     OW32860   0.023   1.748   5.610  0.0670  0.3842  0.0133
 7133SOL    HW132861   4.658   1.715   5.600  0.7923 -1.1803 -1.2761
 7133SOL    HW232862   0.048   1.757   5.518 -2.1646  1.3440 -0.4967
 7134SOL     OW32863   4.258   0.397  16.567  0.1492 -0.1335 -0.3888
 7134SOL    HW132864   4.265   0.368  16.476 -1.1585  2.6231 -1.3605
 7134SOL    HW232865   4.162   0.400  16.571  0.2262  0.2161  1.0334
 7135SOL     OW32866   2.077   0.287   5.916  0.1230 -0.0266 -0.4492
 7135SOL    HW132867   2.107   0.231   5.844  0.9751 -1.6577  1.1467
 7135SOL    HW232868   2.156   0.308   5.966  0.8282  2.6534 -2.7111
 7136SOL     OW32869   3.742   2.210   8.941 -0.7765 -0.1188 -0.0031
 7136SOL    HW132870   3.651   2.216   8.970 -0.8395  2.6472 -0.7670
 7136SOL    HW232871   3.746   2.277   8.873 -0.6293  1.8115  1.9017
 7137SOL     OW32872   1.332   2.112  17.227 -0.0619 -0.0182  0.2731
 7137SOL    HW132873   1.271   2.158  17.285 -0.3822 -0.3598  0.2133
 7137SOL    HW232874   1.319   2.159  17.145 -1.2358 -2.1923 -0.8083
 7138SOL     OW32875   1.133   0.325   1.436  0.3677 -0.0178  0.1428
 7138SOL    HW132876   1.120   0.261   1.506 -2.1133 -0.3733 -0.6112
 7138SOL    HW232877   1.041   0.354   1.441  0.3133 -0.1775  0.0765
 7139SOL     OW32878   1.476   3.533   7.956 -0.2756  0.1218  0.3166
 7139SOL    HW132879   1.529   3.454   7.949 -0.9141 -0.3839  1.2424
 7139SOL    HW232880   1.489   3.574   7.870  0.8437 -0.4279  0.2242
 7140SOL     OW32881   2.633   2.922  12.494 -0.5406  0.0887  0.1074
 7140SOL    HW132882   2.671   2.945  12.579  0.7014 -1.7424  0.0594
 7140SOL    HW232883   2.697   2.859  12.460 -1.7044 -1.5407  1.0164
 7141SOL     OW32884   1.091   2.997   3.493 -0.0307  0.7379  0.7371
 7141SOL    HW132885   1.035   3.061   3.537 -1.7073 -0.3076  0.1210
 7141SOL    HW232886   1.049   2.995   3.407 -1.6602  0.5531  1.5400
 7142SOL     OW32887   2.679   1.383  16.262 -0.0512  0.2245 -0.0367
 7142SOL    HW132888   2.739   1.319  16.302 -1.1131 -0.4026  0.5519
 7142SOL    HW232889   2.692   1.466  16.308 -1.4714  0.9900 -1.0243
 7143SOL     OW32890   3.050   3.334   5.636 -0.1943  0.5873  0.4389
 7143SOL    HW132891   3.118   3.383   5.592  0.9670 -0.5019  1.0308
 7143SOL    HW232892   3.016   3.286   5.560 -1.6036  2.4583 -0.1164
 7144SOL     OW32893   0.395   0.097   5.215  0.0834  0.1531  0.2661
 7144SOL    HW132894   0.424   0.186   5.233  3.3715 -1.1705  1.5887
 7144SOL    HW232895   0.361   0.076   5.302  0.0877  1.3732  0.5635
 7145SOL     OW32896   2.240   2.841   4.855 -1.0253  0.0413 -0.1603
 7145SOL    HW132897   2.326   2.882   4.858 -0.4589 -1.1173 -0.4511
 7145SOL    HW232898   2.259   2.793   4.775 -0.1181 -1.8230  1.1779
 7146SOL     OW32899   2.513   4.373  12.952 -0.1403 -0.1476  0.0157
 7146SOL    HW132900   2.454   4.309  12.994 -0.8972  0.9160  0.5777
 7146SOL    HW232901   2.585   4.366  13.014  0.2799  1.7533 -0.2600
 7147SOL     OW32902   4.227   2.935   6.950 -0.3923  0.0334 -0.5130
 7147SOL    HW132903   4.271   2.879   7.015 -0.8439  0.1150 -0.1343
 7147SOL    HW232904   4.205   3.014   6.999  2.6485  1.3630 -1.2891
 7148SOL     OW32905   0.220   1.031   4.911 -0.2039  0.0443 -0.1400
 7148SOL    HW132906   0.290   1.090   4.882  0.4795 -1.6436 -1.9762
 7148SOL    HW232907   0.265   0.985   4.981  0.4175 -0.0114 -0.5704
 7149SOL     OW32908   1.448   4.162  13.075 -0.3154  0.7699 -0.2996
 7149SOL    HW132909   1.514   4.094  13.089 -0.4184  0.3887 -1.7562
 7149SOL    HW232910   1.462   4.174  12.981  1.7860 -0.2066 -0.1187
 7150SOL     OW32911   2.565   4.472   9.064 -0.6847 -0.4414  0.2928
 7150SOL    HW132912   2.581   4.432   9.149 -0.5745 -1.5599 -0.2564
 7150SOL    HW232913   2.631   4.541   9.069 -0.9974 -0.0522 -0.8535
 7151SOL     OW32914   1.051   0.663   8.757 -0.0050  0.4276  0.3116
 7151SOL    HW132915   1.142   0.678   8.784 -0.1223  0.1028  0.8700
 7151SOL    HW232916   1.000   0.732   8.799 -1.0321  0.9530 -1.7490
 7152SOL     OW32917   3.417   2.975   6.569 -0.8020  0.0776  0.9774
 7152SOL    HW132918   3.374   2.982   6.655  1.1119  1.5453  1.8108
 7152SOL    HW232919   3.397   2.889   6.532  1.2223  0.0143  0.0371
 7153SOL     OW32920   1.908   3.589   7.981  0.1080 -0.4607 -0.4221
 7153SOL    HW132921   1.948   3.519   7.930  0.6555 -2.5481  2.8312
 7153SOL    HW232922   1.890   3.554   8.068  0.4860  1.8698  0.6018
 7154SOL     OW32923   2.978   2.862   5.156 -0.5523 -0.0335  0.0868
 7154SOL    HW132924   2.946   2.812   5.081  1.5118  0.3900 -1.0634
 7154SOL    HW232925   2.984   2.790   5.220 -0.6193 -1.3104 -1.3376
 7155SOL     OW32926   2.686   3.457   2.593 -0.0550 -0.5327 -0.1599
 7155SOL    HW132927   2.669   3.525   2.528  2.3522 -1.0017 -1.2807
 7155SOL    HW232928   2.739   3.397   2.541  2.3879  0.9365  0.6102
 7156SOL     OW32929   3.435   1.822  14.669  0.3729 -0.2084 -0.1870
 7156SOL    HW132930   3.356   1.810  14.616 -0.8151  1.7578  1.1182
 7156SOL    HW232931   3.462   1.730  14.663 -0.3399 -0.3466 -1.2164
 7157SOL     OW32932   4.671   0.019   1.485 -0.0775  0.0536  0.1097
 7157SOL    HW132933   0.009   4.681   1.448  0.9512  0.6469  0.8593
 7157SOL    HW232934   0.003   0.054   1.554  0.5876 -1.3680  0.2805
 7158SOL     OW32935   0.991   0.864   8.932  0.1276  0.2434 -0.0770
 7158SOL    HW132936   1.059   0.879   8.998 -0.3325  0.4956  0.3312
 7158SOL    HW232937   0.916   0.910   8.969  0.5571  1.9348 -1.3515
 7159SOL     OW32938   4.172   3.285   8.418 -0.0136 -1.0268 -0.0930
 7159SOL    HW132939   4.089   3.274   8.372 -0.6688 -0.2102  0.8947
 7159SOL    HW232940   4.143   3.323   8.501 -0.7666  0.1493 -0.9087
 7160SOL     OW32941   0.469   3.349   8.114 -0.1750 -0.2576 -0.0154
 7160SOL    HW132942   0.433   3.411   8.050 -1.7115  0.1998  1.2822
 7160SOL    HW232943   0.388   3.301   8.130 -1.0571  0.0158 -3.8216
 7161SOL     OW32944   4.410   4.322  10.099 -0.1423  0.0322 -0.0328
 7161SOL    HW132945   4.359   4.242  10.090  1.7456 -0.9450 -2.2362
 7161SOL    HW232946   4.334   4.374  10.124  1.5320  2.7232 -0.5267
 7162SOL     OW32947   0.031   3.779  15.576  0.4075  0.3606 -0.2908
 7162SOL    HW132948   4.680   3.727  15.549 -2.0254  4.0039 -0.5124
 7162SOL    HW232949   0.020   3.776  15.671 -1.4108 -0.3028 -0.5160
 7163SOL     OW32950   0.906   4.703   7.827 -0.0895  0.2775  0.1208
 7163SOL    HW132951   0.881   4.686   7.918  0.9808 -0.4506  0.2802
 7163SOL    HW232952   0.995   4.668   7.824  0.8004  2.3061  2.5656
 7164SOL     OW32953   3.146   3.519   6.393  0.7661  0.0649  0.0196
 7164SOL    HW132954   3.182   3.431   6.376  1.6621 -0.1817  3.0943
 7164SOL    HW232955   3.132   3.498   6.485  0.2642 -1.5448 -0.4168
 7165SOL     OW32956   1.578   1.130  13.245 -0.0304 -0.0879  0.1504
 7165SOL    HW132957   1.643   1.166  13.184 -0.0512  2.3548  1.5790
 7165SOL    HW232958   1.518   1.115  13.171  0.2319  1.9682 -0.4788
 7166SOL     OW32959   0.145   3.063   8.626  0.1567  0.1417  0.7100
 7166SOL    HW132960   0.085   3.097   8.693  2.2688  2.3463  1.4442
 7166SOL    HW232961   0.216   3.016   8.670 -0.8295 -1.2530  0.8268
 7167SOL     OW32962   2.305   0.644   7.971  0.0494  0.1751 -0.3161
 7167SOL    HW132963   2.297   0.702   7.896 -1.0647  1.8237  1.0768
 7167SOL    HW232964   2.237   0.679   8.029 -1.1823 -0.4008 -1.4276
 7168SOL     OW32965   3.880   3.172   4.840 -0.1492 -0.1583  0.7900
 7168SOL    HW132966   3.941   3.245   4.828 -0.7512  0.1722 -0.2537
 7168SOL    HW232967   3.916   3.104   4.783 -0.2880 -0.1283  0.6673
 7169SOL     OW32968   3.839   0.283   4.953 -0.7902  0.3050  0.1766
 7169SOL    HW132969   3.847   0.265   4.859 -0.6375  2.5935 -0.2491
 7169SOL    HW232970   3.914   0.246   4.998 -0.9476  1.3086  1.2560
 7170SOL     OW32971   2.716   3.278  10.096  0.2982  0.9433  0.3397
 7170SOL    HW132972   2.710   3.200  10.040  0.2027  0.0949  1.5182
 7170SOL    HW232973   2.644   3.266  10.157 -0.4204 -0.2793 -0.7477
 7171SOL     OW32974   1.170   0.751   9.151 -0.0081 -0.3966 -0.7045
 7171SOL    HW132975   1.204   0.680   9.205  1.1956 -0.5317 -1.6228
 7171SOL    HW232976   1.246   0.810   9.148  0.3856 -0.9360 -1.3829
 7172SOL     OW32977   4.646   4.301   8.204  0.0138  0.6858  0.3559
 7172SOL    HW132978   4.564   4.328   8.247 -0.5899 -0.8163  0.1553
 7172SOL    HW232979   4.629   4.331   8.115 -0.4186 -1.5293 -0.3234
 7173SOL     OW32980   2.488   2.086  16.960 -0.8817 -0.0265 -0.5007
 7173SOL    HW132981   2.457   2.038  16.883  0.9008 -2.6533  0.4298
 7173SOL    HW232982   2.571   2.112  16.920 -0.9212  1.7882  0.6038
 7174SOL     OW32983   0.013   2.272   1.600  0.1360  0.4401 -0.0253
 7174SOL    HW132984   0.100   2.278   1.638  0.3052 -0.5213 -0.2580
 7174SOL    HW232985   0.011   2.180   1.574  2.5548  0.6078 -0.7829
 7175SOL     OW32986   3.657   1.495   5.259 -0.1553  0.1694  0.1164
 7175SOL    HW132987   3.712   1.563   5.299 -2.5876  1.6708  0.9157
 7175SOL    HW232988   3.630   1.549   5.184  1.2246 -2.0051 -1.9635
 7176SOL     OW32989   2.982   3.537   7.224 -0.4472 -0.2099  0.2539
 7176SOL    HW132990   2.915   3.576   7.279  1.6563 -0.3084  2.8724
 7176SOL    HW232991   3.053   3.520   7.287  0.4840 -1.0137 -0.9880
 7177SOL     OW32992   1.876   3.461   4.891  0.1844  0.0480  0.0114
 7177SOL    HW132993   1.946   3.503   4.841 -0.0578 -1.9820 -2.0401
 7177SOL    HW232994   1.855   3.386   4.835  2.0493 -0.9995  0.7249
 7178SOL     OW32995   1.994   0.952  12.444  0.2633  0.0627 -0.2777
 7178SOL    HW132996   2.078   0.957  12.398  0.2646 -1.2233 -0.4144
 7178SOL    HW232997   2.020   1.002  12.521  2.1000 -0.7888 -0.3387
 7179SOL     OW32998   1.168   4.163  13.575  0.1029 -0.4729 -0.5077
 7179SOL    HW132999   1.255   4.202  13.568  0.7102 -1.5687  1.2462
 7179SOL    HW233000   1.123   4.197  13.653 -0.3907 -1.8360 -0.2086
 7180SOL     OW33001   2.830   1.384   6.766 -0.0453 -0.2004  0.2690
 7180SOL    HW133002   2.849   1.408   6.676  0.9716 -1.2683  0.2019
 7180SOL    HW233003   2.783   1.460   6.799  0.0185 -1.1124  2.4733
 7181SOL     OW33004   1.120   1.087   8.583 -0.4219  0.3095 -0.3444
 7181SOL    HW133005   1.047   1.027   8.565  1.1227 -1.3180 -1.2571
 7181SOL    HW233006   1.085   1.142   8.653 -1.1499 -1.7019  0.8710
 7182SOL     OW33007   4.654   3.459   2.567  0.0829 -0.0683 -0.3161
 7182SOL    HW133008   4.664   3.547   2.532  0.6529  0.6280  1.6135
 7182SOL    HW233009   0.018   3.424   2.552 -0.5888 -0.1588 -4.0990
 7183SOL     OW33010   4.380   3.733  11.978 -0.5761 -0.5796  0.2913
 7183SOL    HW133011   4.407   3.710  12.067  1.6660  1.2711  0.0701
 7183SOL    HW233012   4.442   3.801  11.951 -1.5128  0.0990 -0.1578
 7184SOL     OW33013   2.946   0.057   5.710 -0.4123  0.5398 -0.9454
 7184SOL    HW133014   2.985   0.137   5.674  1.2111 -0.0480 -0.4563
 7184SOL    HW233015   3.018   0.026   5.765 -1.4949  0.4862  0.4561
 7185SOL     OW33016   1.265   3.297  10.377  0.9340 -0.6000 -0.3075
 7185SOL    HW133017   1.274   3.216  10.427 -1.4873 -0.6884 -0.0298
 7185SOL    HW233018   1.242   3.255  10.294 -2.1360  0.4505  0.0219
 7186SOL     OW33019   3.342   3.438   4.129  0.0597 -0.4981  0.1219
 7186SOL    HW133020   3.347   3.370   4.062  1.7006 -1.2274  0.9844
 7186SOL    HW233021   3.251   3.463   4.113  0.3312  1.7331  2.0383
 7187SOL     OW33022   3.147   2.723  11.399  0.2120  0.1990  0.0367
 7187SOL    HW133023   3.193   2.639  11.389 -0.3495 -0.1034 -0.0075
 7187SOL    HW233024   3.219   2.776  11.432 -0.7912  2.5937 -1.7179
 7188SOL     OW33025   3.521   4.290   8.615 -0.3458 -0.0025  0.0803
 7188SOL    HW133026   3.498   4.226   8.681 -1.6588  1.4641  1.0382
 7188SOL    HW233027   3.436   4.328   8.593 -0.9456  0.6365  3.5430
 7189SOL     OW33028   0.820   3.250   5.360  0.3066  0.2323 -0.1858
 7189SOL    HW133029   0.797   3.322   5.418  1.1170  0.7359 -0.4840
 7189SOL    HW233030   0.851   3.184   5.422  0.2721 -2.0784 -2.6212
 7190SOL     OW33031   1.916   2.228   2.940 -0.2100  0.5655  0.1994
 7190SOL    HW133032   1.916   2.144   2.894  0.5841  1.6978 -1.8370
 7190SOL    HW233033   1.977   2.277   2.885  1.2142 -1.6300 -0.1984
 7191SOL     OW33034   3.066   3.132   4.672  0.1559 -0.3813  0.5989
 7191SOL    HW133035   3.058   3.134   4.767  1.0415  3.5233  0.5845
 7191SOL    HW233036   3.152   3.092   4.674 -0.1831 -1.1016  0.8546
 7192SOL     OW33037   3.543   3.579   5.282 -0.2966 -0.6524  0.0544
 7192SOL    HW133038   3.634   3.609   5.276 -0.0643 -1.9500 -2.9439
 7192SOL    HW233039   3.553   3.483   5.286 -1.3089 -0.8255 -1.7190
 7193SOL     OW33040   3.433   3.292  16.763 -0.1854  0.6743  0.2974
 7193SOL    HW133041   3.511   3.255  16.806 -2.9507 -1.0607  3.7633
 7193SOL    HW233042   3.368   3.279  16.832 -0.2877 -0.0225  0.0658
 7194SOL     OW33043   0.354   2.989  13.626  0.5295  0.7526 -0.1105
 7194SOL    HW133044   0.350   2.913  13.569  1.3696  0.1882  0.5864
 7194SOL    HW233045   0.417   3.043  13.578 -1.3757  3.3273  0.2457
 7195SOL     OW33046   1.924   1.882   1.674  0.7837  0.4922 -0.3820
 7195SOL    HW133047   1.903   1.946   1.606 -1.5722  0.4247  0.2824
 7195SOL    HW233048   1.899   1.806   1.622 -1.2306  1.3837 -0.7264
 7196SOL     OW33049   0.518   2.280   2.099 -0.3994  0.0850 -0.5386
 7196SOL    HW133050   0.435   2.263   2.054 -0.0413  0.8165 -1.4846
 7196SOL    HW233051   0.578   2.281   2.024 -0.3953  1.3735 -0.5286
 7197SOL     OW33052   4.035   0.704   5.212  0.0450  0.0316 -0.2102
 7197SOL    HW133053   4.045   0.611   5.192 -0.3339 -0.3388  1.2751
 7197SOL    HW233054   4.118   0.717   5.258  0.0638 -1.7173  0.2563
 7198SOL     OW33055   1.803   4.003   6.854 -0.9034 -0.7985  0.4304
 7198SOL    HW133056   1.713   3.981   6.878 -1.3852  1.8792  1.0645
 7198SOL    HW233057   1.810   3.993   6.759 -1.8105 -1.7876  0.4711
 7199SOL     OW33058   0.796   4.425   3.926 -0.1662  0.3005  0.6565
 7199SOL    HW133059   0.772   4.391   4.013  2.1050  1.1126  1.5976
 7199SOL    HW233060   0.799   4.518   3.950  0.1346  0.4793 -0.0982
 7200SOL     OW33061   0.968   2.981   4.373  0.1435  0.1870 -0.4527
 7200SOL    HW133062   0.984   2.921   4.301  0.8295 -3.3437  2.6011
 7200SOL    HW233063   0.874   2.973   4.385  0.0693 -0.1549 -1.3462
 7201SOL     OW33064   1.322   0.684  13.115 -0.6211  0.0357 -0.2161
 7201SOL    HW133065   1.268   0.751  13.073 -0.0426  0.2324 -0.6323
 7201SOL    HW233066   1.290   0.682  13.206 -0.3063 -0.9677 -0.1262
 7202SOL     OW33067   1.119   1.386   7.714  0.4016  0.1302  0.5066
 7202SOL    HW133068   1.158   1.305   7.746  0.1372 -0.2346 -0.0978
 7202SOL    HW233069   1.104   1.434   7.796  0.4921 -1.8615  1.6888
 7203SOL     OW33070   1.660   3.734  10.252 -0.0179  0.0342  0.8315
 7203SOL    HW133071   1.722   3.775  10.313 -1.7041  1.5715  1.4995
 7203SOL    HW233072   1.576   3.765  10.286 -0.3602 -0.3728  0.3625
 7204SOL     OW33073   0.613   3.148  11.350 -0.0413 -0.3152 -0.3459
 7204SOL    HW133074   0.648   3.112  11.432 -0.7155 -2.5345 -1.0386
 7204SOL    HW233075   0.669   3.225  11.342 -2.2554  1.3361 -0.0080
 7205SOL     OW33076   4.417   4.059  10.341 -0.3498  0.2017  0.0658
 7205SOL    HW133077   4.345   4.006  10.305 -0.6390  0.7469 -0.1732
 7205SOL    HW233078   4.371   4.137  10.373 -2.4212 -1.1772  0.4781
 7206SOL     OW33079   1.764   4.048  11.668  0.4638  0.0005  0.4775
 7206SOL    HW133080   1.729   3.982  11.728  0.2768 -2.2263 -2.0815
 7206SOL    HW233081   1.850   4.016  11.641 -0.3741 -1.2367 -0.7301
 7207SOL     OW33082   0.584   0.929  11.640  0.2863  0.4580  0.5537
 7207SOL    HW133083   0.570   1.010  11.688 -1.9460  0.8236 -0.6646
 7207SOL    HW233084   0.553   0.950  11.551 -0.8503 -0.4047  0.7420
 7208SOL     OW33085   2.806   3.255   4.785 -0.0035  0.9643  0.0409
 7208SOL    HW133086   2.721   3.265   4.741 -0.2085 -0.6273  0.0666
 7208SOL    HW233087   2.873   3.283   4.723  1.5456 -0.8109  0.9015
 7209SOL     OW33088   4.549   3.527   2.839 -0.9835 -0.6612  0.2249
 7209SOL    HW133089   4.609   3.470   2.790  0.9150  1.0332  0.5884
 7209SOL    HW233090   4.589   3.613   2.825 -3.0478  0.0646 -1.2499
 7210SOL     OW33091   4.595   2.213   3.134  0.2189 -0.1851  0.0214
 7210SOL    HW133092   4.640   2.137   3.172  0.8851  0.8196  1.2315
 7210SOL    HW233093   4.668   2.264   3.098  1.3080 -2.2744 -0.8049
 7211SOL     OW33094   0.706   3.737   6.036 -0.6684  0.1396  0.3245
 7211SOL    HW133095   0.800   3.755   6.034 -1.1608  2.6814  0.0482
 7211SOL    HW233096   0.703   3.677   5.962 -0.2510 -0.5688  0.8787
 7212SOL     OW33097   1.525   1.077   3.044  0.5950 -0.6783  0.1225
 7212SOL    HW133098   1.541   0.985   3.067 -0.1441 -0.8779 -0.1582
 7212SOL    HW233099   1.558   1.116   3.125 -0.5410  1.3153 -0.3908
 7213SOL     OW33100   2.774   3.147   8.993 -0.3040  0.4831  0.1527
 7213SOL    HW133101   2.761   3.197   8.912  0.2276  1.1135  0.4620
 7213SOL    HW233102   2.836   3.082   8.960 -3.1771 -1.1621 -2.1137
 7214SOL     OW33103   3.066   3.859   9.711 -0.0629 -0.1786  0.1350
 7214SOL    HW133104   3.033   3.929   9.767  0.7022  1.3148 -1.2726
 7214SOL    HW233105   3.045   3.776   9.754  0.5571  0.8685  2.4780
 7215SOL     OW33106   0.001   3.986   0.200 -0.0210 -0.2829 -0.2308
 7215SOL    HW133107   0.074   3.969   0.260 -0.6345 -1.3825  0.2087
 7215SOL    HW233108   4.690   3.901   0.173 -1.0433  0.5626 -1.5225
 7216SOL     OW33109   3.790   4.333   4.035 -0.4613 -0.0698  0.0724
 7216SOL    HW133110   3.703   4.293   4.033 -0.6280  0.2457  1.6654
 7216SOL    HW233111   3.832   4.299   3.955 -1.2412 -0.7235 -0.0608
 7217SOL     OW33112   0.473   4.135   0.760  0.1168 -0.0742  0.2999
 7217SOL    HW133113   0.399   4.107   0.814 -0.4077  1.5317  0.3964
 7217SOL    HW233114   0.508   4.052   0.727 -0.0581  0.8251 -2.1105
 7218SOL     OW33115   0.556   1.192   2.685 -0.6334 -0.3247  0.3763
 7218SOL    HW133116   0.625   1.251   2.655 -0.1246 -0.0214  2.1585
 7218SOL    HW233117   0.488   1.199   2.618 -0.8355 -0.1510  0.6034
 7219SOL     OW33118   2.416   3.473   3.925  0.1936  0.1195  0.2788
 7219SOL    HW133119   2.427   3.403   3.990  1.3503  1.0446  1.0886
 7219SOL    HW233120   2.422   3.554   3.976  4.0627 -0.1919  0.3424
 7220SOL     OW33121   3.393   0.764   5.765 -0.1643 -0.5952 -0.2629
 7220SOL    HW133122   3.355   0.676   5.777 -0.2479 -0.3903  1.0372
 7220SOL    HW233123   3.326   0.809   5.713  0.7079  0.3795 -0.5259
 7221SOL     OW33124   0.407   0.324  15.595 -0.0032 -0.1323 -0.2394
 7221SOL    HW133125   0.367   0.411  15.590 -0.1677 -0.1165  1.4115
 7221SOL    HW233126   0.331   0.270  15.578 -0.3609  0.1829  0.3681
 7222SOL     OW33127   3.974   3.101  16.933  0.1284  0.2818  0.8728
 7222SOL    HW133128   3.976   3.035  17.002 -0.6357 -0.8895 -0.2190
 7222SOL    HW233129   3.898   3.152  16.964 -1.1146 -1.9693  1.5368
 7223SOL     OW33130   0.666   2.089   3.716 -0.4443  0.5865  0.5876
 7223SOL    HW133131   0.599   2.052   3.773 -0.5622  1.1114  0.7923
 7223SOL    HW233132   0.624   2.083   3.630  0.6874 -0.6197  0.1205
 7224SOL     OW33133   0.442   2.113   6.684 -0.8539  0.0873  0.3742
 7224SOL    HW133134   0.397   2.072   6.609  1.1524 -0.0949 -0.7250
 7224SOL    HW233135   0.420   2.058   6.759  0.6132 -0.6444  0.2719
 7225SOL     OW33136   3.768   2.694   3.334  0.2889 -0.1260  0.0629
 7225SOL    HW133137   3.687   2.742   3.318 -1.1700 -2.6418 -0.1073
 7225SOL    HW233138   3.825   2.768   3.356 -0.5561  0.5771 -0.1524
 7226SOL     OW33139   4.150   1.764   7.046  0.1814 -0.0093 -0.6630
 7226SOL    HW133140   4.212   1.692   7.061  0.2111 -0.1998 -1.6935
 7226SOL    HW233141   4.168   1.817   7.124 -2.1563 -1.1552  0.6891
 7227SOL     OW33142   4.128   4.048   7.499 -0.0096  0.3275 -0.0531
 7227SOL    HW133143   4.191   4.110   7.462 -0.2471 -0.1478 -1.2630
 7227SOL    HW233144   4.162   3.972   7.451 -1.0117  1.0114 -1.8441
 7228SOL     OW33145   0.615   4.364   4.282 -0.3509  0.0459  0.3446
 7228SOL    HW133146   0.563   4.443   4.292  1.2629  1.4218 -2.1267
 7228SOL    HW233147   0.706   4.396   4.280  0.1070 -1.3909 -1.6790
 7229SOL     OW33148   2.116   2.952  16.677  0.2235  0.0576 -0.0862
 7229SOL    HW133149   2.086   3.013  16.610 -0.7182 -0.3976 -0.0830
 7229SOL    HW233150   2.032   2.919  16.710  0.2257  1.8146  1.6738
 7230SOL     OW33151   4.188   4.620   2.521 -0.0406 -0.3861 -0.2314
 7230SOL    HW133152   4.197   4.637   2.427 -0.6953  0.2698 -0.1815
 7230SOL    HW233153   4.205   4.526   2.523  1.7983 -0.0902 -1.8713
 7231SOL     OW33154   0.687   3.288   3.993  0.2823  0.6927  0.2681
 7231SOL    HW133155   0.646   3.371   3.968  1.0051  0.9104 -0.1908
 7231SOL    HW233156   0.780   3.302   3.977  0.4356  1.5992  2.0088
 7232SOL     OW33157   0.212   2.102   8.922  0.1946  0.8242 -0.3679
 7232SOL    HW133158   0.261   2.037   8.873  0.6521  0.8718  0.0224
 7232SOL    HW233159   0.237   2.086   9.013  3.1771 -0.6416 -1.4519
 7233SOL     OW33160   2.916   1.981   7.578  0.2533  0.1604  0.3815
 7233SOL    HW133161   2.868   1.953   7.500 -0.2703 -1.7209  1.3844
 7233SOL    HW233162   3.007   1.979   7.546 -0.5095 -0.6248 -1.7185
 7234SOL     OW33163   1.716   4.106  11.991 -0.3149 -0.0731 -0.1680
 7234SOL    HW133164   1.808   4.111  11.965 -0.3638 -2.4258 -0.7802
 7234SOL    HW233165   1.695   4.020  11.955 -1.1232  0.8703 -1.9871
 7235SOL     OW33166   4.407   4.330   4.693 -0.3485 -0.4075  0.4186
 7235SOL    HW133167   4.357   4.303   4.616 -1.1357  1.7511  0.1622
 7235SOL    HW233168   4.465   4.396   4.655  1.0113 -1.2885  0.9815
 7236SOL     OW33169   3.907   3.320   6.225  0.2583 -0.2028  0.2912
 7236SOL    HW133170   3.966   3.395   6.232 -1.3111  1.1631 -1.0604
 7236SOL    HW233171   3.942   3.266   6.295  0.3353 -3.0239 -1.9198
 7237SOL     OW33172   3.220   2.190  13.394  0.2096 -0.7305  0.7662
 7237SOL    HW133173   3.125   2.178  13.392 -0.1556  2.3170  0.8347
 7237SOL    HW233174   3.229   2.275  13.437  1.0320  0.4877 -1.7745
 7238SOL     OW33175   0.380   4.613  11.676 -0.0987  0.6735 -0.0132
 7238SOL    HW133176   0.426   4.578  11.753 -2.4737 -0.2246  1.0075
 7238SOL    HW233177   0.297   4.567  11.673 -0.1097  0.7078 -0.1911
 7239SOL     OW33178   2.080   2.649   9.191 -0.3498  0.5783 -0.4619
 7239SOL    HW133179   2.054   2.703   9.266 -2.2863 -2.1389  0.8243
 7239SOL    HW233180   2.132   2.586   9.241 -0.7786  0.1359 -0.5772
 7240SOL     OW33181   1.680   3.617   3.814 -0.6282  0.2097  0.7867
 7240SOL    HW133182   1.770   3.597   3.842  0.5939  3.3151 -1.0539
 7240SOL    HW233183   1.630   3.567   3.879 -1.9050  0.9201  0.3486
 7241SOL     OW33184   1.053   3.171   6.372 -0.0396 -0.2252  0.3448
 7241SOL    HW133185   0.972   3.121   6.378 -0.0279 -0.2306  0.4544
 7241SOL    HW233186   1.058   3.207   6.461  3.2323  0.0089  0.0723
 7242SOL     OW33187   0.295   4.096   7.875 -0.2355  0.0334  0.0357
 7242SOL    HW133188   0.340   4.176   7.904 -1.2770 -0.0600  1.9301
 7242SOL    HW233189   0.320   4.033   7.942  1.1670  1.0801  0.5028
 7243SOL     OW33190   2.848   4.668   4.354  0.0794  0.2826  0.8058
 7243SOL    HW133191   2.878   4.698   4.440 -1.3789  1.7425  0.8245
 7243SOL    HW233192   2.864   4.574   4.358  1.5838  0.5371  0.6222
 7244SOL     OW33193   3.645   2.220   9.366 -0.5510  0.3889 -0.2136
 7244SOL    HW133194   3.610   2.292   9.419 -0.3723 -0.2976  0.8151
 7244SOL    HW233195   3.651   2.146   9.425 -1.3747  0.3053 -0.2270
 7245SOL     OW33196   0.302   0.872  14.733  0.2547  0.3542 -0.3322
 7245SOL    HW133197   0.341   0.847  14.649 -0.9463 -1.0459 -0.4710
 7245SOL    HW233198   0.330   0.798  14.787 -0.3288  1.0872  0.9666
 7246SOL     OW33199   1.878   2.161   9.229 -0.1015  0.1180  0.3588
 7246SOL    HW133200   1.831   2.084   9.195 -0.8767  1.3084 -1.2462
 7246SOL    HW233201   1.859   2.216   9.153 -1.0902 -2.3211 -1.1678
 7247SOL     OW33202   0.205   3.417   3.149 -0.1924 -0.3913  0.4735
 7247SOL    HW133203   0.149   3.422   3.071 -0.1925  1.6959  0.6150
 7247SOL    HW233204   0.167   3.348   3.203  1.4202 -1.4717  0.2230
 7248SOL     OW33205   3.316   2.707   6.142 -0.3204 -0.1597  0.0568
 7248SOL    HW133206   3.248   2.655   6.100 -1.5864  1.8486 -0.3636
 7248SOL    HW233207   3.262   2.744   6.213 -1.3038 -0.4983 -0.5168
 7249SOL     OW33208   0.205   1.290   5.159  0.0447 -0.5850  0.0976
 7249SOL    HW133209   0.155   1.351   5.104  1.6330  0.6218 -0.0003
 7249SOL    HW233210   0.138   1.223   5.173  0.6253 -1.3740 -0.8878
 7250SOL     OW33211   4.599   2.931   8.097  0.1513  0.0956  0.8434
 7250SOL    HW133212   4.592   2.840   8.066  0.1761  0.6744 -0.8420
 7250SOL    HW233213   4.682   2.951   8.055 -0.5118 -1.6040 -1.3052
 7251SOL     OW33214   2.904   2.330   5.432  0.4171  0.0292  0.2728
 7251SOL    HW133215   2.951   2.391   5.489 -0.8142  1.3321 -0.1066
 7251SOL    HW233216   2.965   2.265   5.395  0.4117 -0.0786  0.4548
 7252SOL     OW33217   3.156   3.670  10.211  0.5530  0.9314  0.9624
 7252SOL    HW133218   3.069   3.662  10.252  0.4739 -1.6897  0.3218
 7252SOL    HW233219   3.172   3.575  10.214  2.4806  1.2850  1.8218
 7253SOL     OW33220   2.032   2.169   5.763 -0.1641  0.0571  0.5291
 7253SOL    HW133221   2.054   2.256   5.796  0.0014 -0.0957  0.8219
 7253SOL    HW233222   2.067   2.118   5.836  2.4949  0.2310 -0.6107
 7254SOL     OW33223   3.815   1.190   8.357 -0.2750 -0.2327 -0.1511
 7254SOL    HW133224   3.782   1.270   8.399  0.3798  0.7586 -1.5120
 7254SOL    HW233225   3.899   1.169   8.398 -0.7965  0.4256  1.2754
 7255SOL     OW33226   2.567   2.335   5.534 -0.3761 -0.1274 -0.6108
 7255SOL    HW133227   2.493   2.396   5.538 -1.1295 -1.1406  0.5941
 7255SOL    HW233228   2.612   2.377   5.607 -0.1836 -0.4948 -0.5210
 7256SOL     OW33229   4.716   2.648   3.246 -0.3202 -0.3508  0.1768
 7256SOL    HW133230   4.698   2.573   3.302  0.6691  0.1119  1.0975
 7256SOL    HW233231   4.682   2.710   3.310  0.6994  0.4992 -0.1040
 7257SOL     OW33232   0.910   1.422  13.620 -0.0029 -0.8566 -0.3420
 7257SOL    HW133233   0.983   1.420  13.682 -0.1658 -0.6536 -0.1419
 7257SOL    HW233234   0.964   1.439  13.543 -2.0318  2.1540 -1.1394
 7258SOL     OW33235   2.387   0.250   7.264 -0.4268 -0.7744  0.0396
 7258SOL    HW133236   2.399   0.343   7.286  1.1198 -1.8800  3.9343
 7258SOL    HW233237   2.296   0.250   7.233  0.0547 -2.0151 -1.3545
 7259SOL     OW33238   2.095   2.414   5.824 -0.3885 -0.0098 -0.2167
 7259SOL    HW133239   2.098   2.406   5.919  2.3767 -1.7995 -0.4498
 7259SOL    HW233240   2.140   2.495   5.801 -1.4093  0.8344  0.7733
 7260SOL     OW33241   1.835   3.846   2.278 -0.9818 -0.4155  0.3000
 7260SOL    HW133242   1.796   3.933   2.273 -0.3492 -0.1500  0.0281
 7260SOL    HW233243   1.811   3.829   2.369 -0.2249  0.7508  0.7078
 7261SOL     OW33244   0.239   4.259   1.341  0.5895 -0.2027 -0.1772
 7261SOL    HW133245   0.289   4.261   1.423  0.4403 -2.3496 -0.0552
 7261SOL    HW233246   0.150   4.274   1.375  0.1010 -0.9008 -1.1718
 7262SOL     OW33247   3.679   2.832   0.687  0.0436 -0.3584 -0.5737
 7262SOL    HW133248   3.595   2.815   0.644 -0.7609 -0.8854  1.2216
 7262SOL    HW233249   3.684   2.925   0.663 -1.5653  0.4052  2.0394
 7263SOL     OW33250   4.005   0.975   5.550 -0.7688  0.2085 -0.4297
 7263SOL    HW133251   4.043   1.009   5.469  1.7245 -0.8656  0.2856
 7263SOL    HW233252   3.915   1.002   5.532 -0.7911 -1.6857 -3.1644
 7264SOL     OW33253   0.449   0.782   4.468  0.0821  0.5412  0.4064
 7264SOL    HW133254   0.431   0.696   4.505 -2.4310  0.7330 -0.3238
 7264SOL    HW233255   0.390   0.785   4.393 -0.2056  0.9614  0.6465
 7265SOL     OW33256   3.955   1.480   2.543  0.5528 -0.1220 -0.3139
 7265SOL    HW133257   4.032   1.513   2.589 -0.2618 -1.1318  1.7949
 7265SOL    HW233258   3.975   1.386   2.545 -1.6112 -0.5323  2.5067
 7266SOL     OW33259   0.200   2.937   5.675  0.1416 -0.0745  0.0656
 7266SOL    HW133260   0.228   2.846   5.681  0.0037 -0.0211  1.5195
 7266SOL    HW233261   0.269   2.970   5.618 -1.8989  1.6637 -1.3955
 7267SOL     OW33262   3.572   2.650   5.093 -0.1263 -0.5048 -0.2547
 7267SOL    HW133263   3.583   2.641   4.998  0.3642  1.0955 -0.3432
 7267SOL    HW233264   3.647   2.707   5.111 -0.4293  0.3283 -1.6365
 7268SOL     OW33265   3.059   3.257   8.527 -0.3892  0.0125  0.4818
 7268SOL    HW133266   3.115   3.314   8.580 -0.6668  0.3493  0.4180
 7268SOL    HW233267   3.116   3.183   8.509 -0.8193  0.5793 -3.2037
 7269SOL     OW33268   4.013   3.857   4.651  0.1882  0.0509  0.8778
 7269SOL    HW133269   4.015   3.824   4.740  0.6059 -2.3889 -0.0461
 7269SOL    HW233270   3.967   3.939   4.671  2.3405  1.9494 -1.7955
 7270SOL     OW33271   1.049   2.507   4.662  0.1611  0.9179 -0.2807
 7270SOL    HW133272   0.995   2.583   4.641  1.1060  1.2177 -1.6137
 7270SOL    HW233273   1.077   2.521   4.752  2.3489 -1.0380 -0.6594
 7271SOL     OW33274   2.095   0.057   5.772  0.2714  0.2672  0.1855
 7271SOL    HW133275   2.020   0.057   5.831 -1.8576 -2.6903 -2.5251
 7271SOL    HW233276   2.085   4.696   5.729  1.0549  0.3287 -0.1223
 7272SOL     OW33277   2.733   4.635   5.752  0.0726  0.4763 -0.2794
 7272SOL    HW133278   2.814   4.677   5.724  0.2290  0.7127  0.5199
 7272SOL    HW233279   2.740   4.656   5.845  0.9554  0.3305 -0.3071
 7273SOL     OW33280   1.846   1.362   6.894 -0.3219 -0.5462 -0.3582
 7273SOL    HW133281   1.803   1.299   6.837  0.5598 -0.6073 -0.9510
 7273SOL    HW233282   1.863   1.300   6.965 -0.6083  0.5264  0.6675
 7274SOL     OW33283   2.006   0.164   2.857  0.5469  0.1332 -0.0941
 7274SOL    HW133284   1.989   0.241   2.910  0.3385 -0.2040  0.3293
 7274SOL    HW233285   1.945   0.094   2.881  1.7491 -1.0335 -0.3930
 7275SOL     OW33286   3.028   3.659  12.022  0.0633 -0.1339  0.4824
 7275SOL    HW133287   2.941   3.689  12.046 -0.6612 -1.3925 -0.5931
 7275SOL    HW233288   3.064   3.744  11.995  1.9196 -1.2179 -0.4533
 7276SOL     OW33289   1.329   0.096   9.082  0.2779 -0.0167 -0.1524
 7276SOL    HW133290   1.353   0.007   9.057  0.1634 -0.3784  0.9855
 7276SOL    HW233291   1.401   0.113   9.143 -0.1179 -1.7053  0.8014
 7277SOL     OW33292   2.766   2.867  12.214 -0.0689  0.1466  0.3457
 7277SOL    HW133293   2.755   2.775  12.236 -1.1271  0.4790  1.2427
 7277SOL    HW233294   2.848   2.882  12.260 -0.0544 -1.0322  0.6929
 7278SOL     OW33295   0.577   4.636   9.061 -0.2961 -0.5618  0.2328
 7278SOL    HW133296   0.486   4.630   9.032  0.1192  0.6548 -1.3622
 7278SOL    HW233297   0.569   4.575   9.134  0.7569 -1.4188 -0.3665
 7279SOL     OW33298   4.708   3.463   0.004 -0.3950 -0.5689  0.5087
 7279SOL    HW133299   0.007   3.552  17.675  1.4186 -0.8875  1.0111
 7279SOL    HW233300   4.649   3.493   0.074  0.1081 -0.6609  0.9682
 7280SOL     OW33301   0.568   1.298   6.864 -0.1835  0.0904  0.0573
 7280SOL    HW133302   0.520   1.292   6.946 -1.9241 -1.8500 -1.0745
 7280SOL    HW233303   0.491   1.307   6.807 -0.5684  0.6238  0.6638
 7281SOL     OW33304   2.849   3.396   6.722  0.1091  0.5186 -0.6467
 7281SOL    HW133305   2.903   3.396   6.801 -2.3922 -0.4242  1.0665
 7281SOL    HW233306   2.773   3.450   6.747  0.3571  0.8794 -0.6700
 7282SOL     OW33307   2.846   0.605   1.231 -0.5869 -0.1381  0.2750
 7282SOL    HW133308   2.828   0.531   1.173 -1.5957  0.4812 -0.2038
 7282SOL    HW233309   2.931   0.634   1.201 -0.0148 -0.9959  1.0610
 7283SOL     OW33310   4.223   0.909   3.038  0.4522  0.2694 -0.3864
 7283SOL    HW133311   4.234   0.815   3.030  1.5633  0.3618  0.0731
 7283SOL    HW233312   4.304   0.940   3.079 -0.4620  0.2348  1.4567
 7284SOL     OW33313   4.438   3.091   7.835 -0.3497  0.6119  0.0067
 7284SOL    HW133314   4.498   3.017   7.835 -1.3147 -0.1773 -1.4665
 7284SOL    HW233315   4.497   3.164   7.852 -0.3847  1.1240 -2.0713
 7285SOL     OW33316   2.496   3.269  10.231  0.2047 -0.4951 -0.0816
 7285SOL    HW133317   2.483   3.203  10.299 -0.2148 -0.4911 -0.1586
 7285SOL    HW233318   2.458   3.341  10.281  1.3381  0.4158 -0.5293
 7286SOL     OW33319   2.338   4.087   4.681 -0.4409 -0.4902 -0.5449
 7286SOL    HW133320   2.263   4.102   4.738  0.0523 -0.7190  0.1700
 7286SOL    HW233321   2.303   4.069   4.594 -1.4874  0.1248 -0.2490
 7287SOL     OW33322   1.191   1.054  11.048 -0.2970 -0.3559  0.1797
 7287SOL    HW133323   1.129   0.998  11.094 -1.0163 -0.2815 -0.6937
 7287SOL    HW233324   1.265   0.995  11.038  0.8880  1.3658 -1.1429
 7288SOL     OW33325   2.657   2.088  14.153 -0.4968 -0.1482 -0.2473
 7288SOL    HW133326   2.596   2.145  14.201  0.4131  1.1498 -0.6238
 7288SOL    HW233327   2.603   2.011  14.170  0.0462 -0.2286  1.1796
 7289SOL     OW33328   1.836   4.190   7.076  0.8449 -0.2114 -0.0608
 7289SOL    HW133329   1.821   4.142   6.995  0.0489 -0.6690  0.3687
 7289SOL    HW233330   1.761   4.164   7.128  0.4799  3.1117  1.0943
 7290SOL     OW33331   0.858   0.116   6.819  0.3713  0.2589 -0.0498
 7290SOL    HW133332   0.925   0.106   6.752 -1.2676  0.0783 -1.6708
 7290SOL    HW233333   0.881   0.200   6.859 -2.4479  1.7009 -1.4376
 7291SOL     OW33334   3.973   3.981  16.145  0.1144  0.0602 -0.7801
 7291SOL    HW133335   4.013   4.007  16.228 -0.1698  1.7175 -1.1804
 7291SOL    HW233336   3.966   4.069  16.109 -2.5392  0.2697  0.2785
 7292SOL     OW33337   0.186   1.555  11.149 -0.0005 -0.1613  0.4166
 7292SOL    HW133338   0.119   1.523  11.209  0.5071 -1.6058  0.2171
 7292SOL    HW233339   0.207   1.632  11.202  1.3641 -0.3792  0.1919
 7293SOL     OW33340   1.705   1.494   2.377 -0.6225 -0.1310  0.2573
 7293SOL    HW133341   1.785   1.449   2.350 -0.1424  1.2084 -0.5600
 7293SOL    HW233342   1.727   1.535   2.461  0.2185  2.7419 -1.3841
 7294SOL     OW33343   0.248   4.040  16.258  0.0382  0.4753 -0.4540
 7294SOL    HW133344   0.168   3.990  16.270  0.2230  0.0511 -0.9773
 7294SOL    HW233345   0.271   4.012  16.169  0.3417 -2.4656  0.5598
 7295SOL     OW33346   2.839   3.041   1.012 -0.7436  0.1080  0.3581
 7295SOL    HW133347   2.931   3.057   1.033  0.7268 -3.1711 -3.4937
 7295SOL    HW233348   2.809   3.051   1.102  0.3646 -0.6001  0.8041
 7296SOL     OW33349   1.512   0.847   4.044 -0.2762 -0.1677 -0.2690
 7296SOL    HW133350   1.470   0.901   4.111 -0.7241 -0.3627 -0.3913
 7296SOL    HW233351   1.588   0.901   4.024 -1.3266  0.3729 -2.8369
 7297SOL     OW33352   0.987   1.473  11.017 -0.7749 -0.4457 -0.0115
 7297SOL    HW133353   1.002   1.542  10.953 -0.6137 -0.6407 -0.1867
 7297SOL    HW233354   0.892   1.464  11.020 -0.8755  0.5835 -0.3109
 7298SOL     OW33355   2.267   0.280   8.824  0.4976  0.3706 -0.3024
 7298SOL    HW133356   2.358   0.273   8.797  1.3432  0.6002  2.4443
 7298SOL    HW233357   2.277   0.341   8.897 -0.7765  0.7975 -0.4786
 7299SOL     OW33358   1.184   1.932   9.287 -0.5394  0.0746  0.3908
 7299SOL    HW133359   1.188   1.901   9.197  0.4580 -1.2710  0.9033
 7299SOL    HW233360   1.105   1.884   9.312  0.7012 -3.2095 -1.9873
 7300SOL     OW33361   0.888   3.013   3.940 -0.0259 -0.4270  0.3541
 7300SOL    HW133362   0.935   2.953   3.998  0.0975  0.1516  0.8540
 7300SOL    HW233363   0.823   3.045   4.003  0.9898 -0.5569  1.4688
 7301SOL     OW33364   0.570   2.737   2.724 -0.1670  0.7935  0.8358
 7301SOL    HW133365   0.580   2.651   2.763 -0.8653  0.1689 -0.3568
 7301SOL    HW233366   0.660   2.768   2.732 -0.3685  1.8674 -0.9277
 7302SOL     OW33367   0.514   0.127  10.420 -0.5499 -0.6697  0.4071
 7302SOL    HW133368   0.594   0.168  10.451  1.2579 -4.0339  0.1436
 7302SOL    HW233369   0.527   0.111  10.326  0.5959 -0.5494  0.5481
 7303SOL     OW33370   3.991   2.646   5.399  0.3295  0.7648  0.0240
 7303SOL    HW133371   3.969   2.554   5.381 -0.4054  0.8797  0.3216
 7303SOL    HW233372   4.086   2.635   5.407  0.3466  0.1765 -1.0852
 7304SOL     OW33373   4.044   2.696   7.945  0.4743  0.1328  0.3389
 7304SOL    HW133374   4.098   2.752   7.890  1.8356 -0.6767  0.8578
 7304SOL    HW233375   4.089   2.704   8.029 -0.4023  1.6267  0.6688
 7305SOL     OW33376   1.490   0.692   6.874 -0.4343  0.5223  0.4491
 7305SOL    HW133377   1.471   0.750   6.948 -0.4351  1.7113 -0.4886
 7305SOL    HW233378   1.524   0.745   6.803 -1.5617  0.3735 -0.2012
 7306SOL     OW33379   4.050   4.307  11.615  0.3522  0.2918 -0.1821
 7306SOL    HW133380   4.005   4.236  11.569  1.7041 -0.3061 -0.5948
 7306SOL    HW233381   3.977   4.351  11.659 -1.4419 -3.1585  0.2701
 7307SOL     OW33382   3.442   2.661   5.582  0.2439  0.0070  0.0437
 7307SOL    HW133383   3.533   2.664   5.611 -0.3201  1.7503  1.6776
 7307SOL    HW233384   3.402   2.672   5.669 -0.8464  2.7602 -0.8055
 7308SOL     OW33385   1.949   0.410  10.023  0.8624  0.3854  0.3533
 7308SOL    HW133386   1.903   0.327  10.008  2.4519 -0.6801  1.3615
 7308SOL    HW233387   2.034   0.375  10.051  0.5407 -0.1048  0.7246
 7309SOL     OW33388   2.672   0.240  10.948  0.7811 -0.0111  0.1755
 7309SOL    HW133389   2.710   0.294  10.878 -0.6982  0.7239 -0.0494
 7309SOL    HW233390   2.672   0.298  11.025  0.5391 -0.3217  0.4068
 7310SOL     OW33391   0.396   2.790   5.901 -0.8410 -0.3930 -0.4929
 7310SOL    HW133392   0.398   2.884   5.919  0.8980 -0.0797 -2.3668
 7310SOL    HW233393   0.479   2.768   5.944 -1.4745  2.6838  2.2382
 7311SOL     OW33394   4.480   0.222   6.276 -0.5295 -0.4875  0.5836
 7311SOL    HW133395   4.514   0.298   6.230 -1.0437 -0.1806  0.7142
 7311SOL    HW233396   4.536   0.208   6.353  1.6506  0.6150 -0.8077
 7312SOL     OW33397   3.399   4.511  10.573  0.5636 -0.1241 -0.5882
 7312SOL    HW133398   3.375   4.468  10.491  2.4871 -0.3125 -1.0477
 7312SOL    HW233399   3.487   4.541  10.552  1.3515  0.0685  3.1384
 7313SOL     OW33400   0.899   0.213   9.754 -0.3842 -0.4468  0.7821
 7313SOL    HW133401   0.931   0.160   9.680  0.5887  0.3140  0.6536
 7313SOL    HW233402   0.867   0.289   9.706  1.0451 -0.8879 -0.8630
 7314SOL     OW33403   4.105   1.104  15.019  0.1414 -0.2287 -0.2401
 7314SOL    HW133404   4.107   1.097  14.923 -1.2905 -2.1796 -0.1269
 7314SOL    HW233405   4.050   1.183  15.020 -1.9163 -1.6743  0.1779
 7315SOL     OW33406   3.271   0.066  12.048 -0.2075 -0.1854 -0.2115
 7315SOL    HW133407   3.323   0.015  12.110  0.0223  0.9547  0.5219
 7315SOL    HW233408   3.306   0.152  12.071 -1.8539  0.4684 -0.2186
 7316SOL     OW33409   0.015   3.726   8.743 -0.0552  0.1753 -0.1866
 7316SOL    HW133410   4.696   3.774   8.674  0.0111  2.1247  1.1293
 7316SOL    HW233411   4.709   3.637   8.723  1.4165 -0.7547  1.6891
 7317SOL     OW33412   2.516   2.191   5.848  0.7606 -0.3184  0.0312
 7317SOL    HW133413   2.542   2.282   5.863  1.3042 -0.5476  0.4832
 7317SOL    HW233414   2.516   2.149   5.934  0.3081  0.2045  0.2808
 7318SOL     OW33415   3.343   0.938   4.952  0.4325 -0.6494  0.1241
 7318SOL    HW133416   3.326   0.920   4.859  0.2729  0.5812 -0.0788
 7318SOL    HW233417   3.307   0.858   4.990 -1.1391  1.1702  2.4758
 7319SOL     OW33418   1.161   0.302   0.384 -0.2468  0.1623  0.0130
 7319SOL    HW133419   1.248   0.339   0.390  0.7139 -2.0622 -0.0835
 7319SOL    HW233420   1.121   0.343   0.308  2.1885 -0.3586 -1.5224
 7320SOL     OW33421   2.155   0.435   8.244 -0.3196 -0.1410  0.1196
 7320SOL    HW133422   2.181   0.372   8.177  1.6631  2.1732 -1.3008
 7320SOL    HW233423   2.134   0.512   8.191 -1.2751 -0.9497 -0.6877
 7321SOL     OW33424   4.222   4.649   3.233 -0.0090 -0.2136 -0.0215
 7321SOL    HW133425   4.156   4.582   3.215 -0.0390  0.3281 -1.9083
 7321SOL    HW233426   4.177   0.007   3.218 -0.9084 -0.6004  0.5434
 7322SOL     OW33427   3.553   1.674   9.345  0.2141 -0.0873 -0.3697
 7322SOL    HW133428   3.489   1.624   9.396  0.0397  0.1668 -0.3332
 7322SOL    HW233429   3.612   1.721   9.404 -1.3112  1.7366 -0.2792
 7323SOL     OW33430   3.713   0.782   1.828 -0.2366 -0.2763 -0.0714
 7323SOL    HW133431   3.707   0.848   1.897 -3.7516  0.9230 -1.5152
 7323SOL    HW233432   3.781   0.724   1.863  0.9143 -0.0812 -1.9504
 7324SOL     OW33433   3.448   0.298   8.978 -0.0577  0.1507  0.2504
 7324SOL    HW133434   3.512   0.276   9.046 -0.1703 -1.3795 -0.1428
 7324SOL    HW233435   3.474   0.389   8.963  1.2783 -0.2215  0.2879
 7325SOL     OW33436   1.748   3.619  11.730  0.1205 -0.2519  0.3896
 7325SOL    HW133437   1.839   3.612  11.760  1.7590  1.1288 -4.2216
 7325SOL    HW233438   1.770   3.606  11.638 -0.7787 -0.5247  0.2088
 7326SOL     OW33439   0.326   4.251   6.660  0.0828 -0.6905  0.0535
 7326SOL    HW133440   0.408   4.212   6.689  0.5581  0.9236  0.8819
 7326SOL    HW233441   0.287   4.179   6.610 -1.8007 -0.2207  0.8406
 7327SOL     OW33442   4.172   1.312   4.997  0.1209 -0.5025 -0.3784
 7327SOL    HW133443   4.083   1.312   4.961  0.1226 -0.4911 -0.3827
 7327SOL    HW233444   4.161   1.346   5.085 -1.5866  1.0961 -1.1969
 7328SOL     OW33445   2.409   0.159   1.723 -0.4811 -0.2950 -0.1948
 7328SOL    HW133446   2.347   0.131   1.656 -0.5594  0.0630 -0.2744
 7328SOL    HW233447   2.487   0.171   1.669  0.5913  0.1489  1.4346
 7329SOL     OW33448   3.667   3.407  11.232 -0.3771 -0.1132  0.3468
 7329SOL    HW133449   3.648   3.491  11.191 -0.1154 -1.1691 -1.9426
 7329SOL    HW233450   3.613   3.343  11.186  1.4408 -0.6975 -1.0118
 7330SOL     OW33451   4.628   0.794   2.202 -0.2154 -0.4835  0.2957
 7330SOL    HW133452   4.657   0.704   2.193  1.4470 -0.0923  1.6969
 7330SOL    HW233453   4.702   0.830   2.251  0.9799 -2.0941 -0.3375
 7331SOL     OW33454   1.486   2.254   7.441  0.1619  0.0028 -0.0175
 7331SOL    HW133455   1.567   2.217   7.406  2.0012  4.9468 -0.9590
 7331SOL    HW233456   1.448   2.304   7.368 -0.8785  0.0722  0.5750
 7332SOL     OW33457   1.805   1.357   6.297 -0.6464 -0.1581  0.1023
 7332SOL    HW133458   1.802   1.401   6.212 -0.3934  1.0119  0.7060
 7332SOL    HW233459   1.819   1.265   6.274 -0.5716 -0.4111  1.1466
 7333SOL     OW33460   2.443   4.387   6.318  0.6733  0.1711 -0.5225
 7333SOL    HW133461   2.391   4.360   6.393  1.1881  1.4059  0.2893
 7333SOL    HW233462   2.533   4.392   6.352 -0.3021  0.0659  2.0908
 7334SOL     OW33463   1.482   2.282   1.433  0.5362  0.9443 -0.5213
 7334SOL    HW133464   1.515   2.355   1.486 -1.0385  0.6124  0.9028
 7334SOL    HW233465   1.390   2.292   1.456  0.7528  0.1714  0.7075
 7335SOL     OW33466   4.121   2.441   3.583 -0.0119 -0.0102 -0.4583
 7335SOL    HW133467   4.048   2.407   3.635 -0.7011 -0.3997 -1.6629
 7335SOL    HW233468   4.069   2.472   3.508  1.2009 -0.7030 -1.5828
 7336SOL     OW33469   1.432   0.569   1.534  0.2738  0.0592  0.0416
 7336SOL    HW133470   1.398   0.623   1.463 -1.1608 -1.0257 -0.0889
 7336SOL    HW233471   1.350   0.545   1.577 -0.0106 -1.2347 -1.2265
 7337SOL     OW33472   4.549   1.065   7.662 -0.1357 -0.3826  0.6048
 7337SOL    HW133473   4.607   1.050   7.737  0.5209  2.6388  0.7417
 7337SOL    HW233474   4.493   0.990   7.682  0.8626 -1.8384 -2.2016
 7338SOL     OW33475   0.752   0.487  14.147  0.2414  0.8981  0.7949
 7338SOL    HW133476   0.764   0.526  14.234 -0.4960  0.2663  1.1804
 7338SOL    HW233477   0.780   0.562  14.095  0.5880  1.6431  2.0637
 7339SOL     OW33478   2.560   3.095   7.930  0.3473 -0.1931 -0.0242
 7339SOL    HW133479   2.650   3.124   7.916  0.5400  0.3321  2.2133
 7339SOL    HW233480   2.571   3.001   7.918  1.1005 -0.1880  0.5693
 7340SOL     OW33481   2.956   0.015  14.646 -0.3690 -0.0815  0.6488
 7340SOL    HW133482   2.932   0.059  14.727 -0.2203 -0.3348  0.8283
 7340SOL    HW233483   2.922   4.653  14.667  0.1003 -0.3586  0.2705
 7341SOL     OW33484   1.919   2.876  15.654  0.2536  0.0737  0.2352
 7341SOL    HW133485   1.842   2.872  15.711 -1.0530  1.2886 -1.4608
 7341SOL    HW233486   1.986   2.825  15.699 -2.5843 -3.5804  0.3151
 7342SOL     OW33487   1.012   0.430   9.184 -0.3049  0.0776 -0.0946
 7342SOL    HW133488   1.063   0.368   9.132  0.6428  0.0740  0.8370
 7342SOL    HW233489   1.057   0.513   9.175 -1.0065  0.7498  2.6997
 7343SOL     OW33490   2.588   0.380   7.890  0.0564 -0.9399 -0.2901
 7343SOL    HW133491   2.622   0.387   7.801  1.1705  1.4743  0.3358
 7343SOL    HW233492   2.667   0.358   7.939  0.0044 -0.8223 -0.1530
 7344SOL     OW33493   1.912   1.686   4.170  0.8093 -0.0254  0.1380
 7344SOL    HW133494   2.007   1.687   4.174  0.8976 -2.0532 -1.2434
 7344SOL    HW233495   1.890   1.683   4.263 -0.4474 -0.7530 -0.1813
 7345SOL     OW33496   1.684   3.456   8.629  0.6532 -0.3053  0.1679
 7345SOL    HW133497   1.746   3.422   8.694 -1.7932  0.2040  2.7604
 7345SOL    HW233498   1.644   3.373   8.601  0.3864  0.4231 -1.6133
 7346SOL     OW33499   0.713   3.026   2.182 -0.3644  0.3299  1.1309
 7346SOL    HW133500   0.760   3.097   2.140 -0.7067 -0.1300 -0.0242
 7346SOL    HW233501   0.747   2.945   2.144 -3.7849 -1.0533  1.0115
 7347SOL     OW33502   0.047   4.577  12.686 -0.0093  0.8441  0.4660
 7347SOL    HW133503   0.055   4.670  12.704 -0.5562  1.3146 -1.7508
 7347SOL    HW233504   0.056   4.538  12.772  0.4668  0.4209  0.2254
 7348SOL     OW33505   1.026   4.332   0.204 -0.7899  0.7140  0.5796
 7348SOL    HW133506   0.965   4.297   0.269 -1.0331  0.1994  0.0761
 7348SOL    HW233507   1.111   4.300   0.236 -1.1465  0.9949  1.8112
 7349SOL     OW33508   3.231   0.706   1.723  0.0006  0.5486  0.0743
 7349SOL    HW133509   3.224   0.759   1.645  1.7126  1.1888  0.3544
 7349SOL    HW233510   3.144   0.668   1.730 -1.4215  4.0162  1.3058
 7350SOL     OW33511   3.662   4.632   5.484  0.1090  0.0005 -0.4794
 7350SOL    HW133512   3.668   4.629   5.388  1.8866  0.2032 -0.3709
 7350SOL    HW233513   3.572   4.657   5.505 -0.3307 -0.7415 -1.4497
 7351SOL     OW33514   3.710   3.291   2.840  0.1855 -0.7704 -0.0190
 7351SOL    HW133515   3.657   3.240   2.778 -0.9733  0.4193 -0.0037
 7351SOL    HW233516   3.793   3.243   2.843  0.2836 -0.5647  0.4794
 7352SOL     OW33517   1.293   1.746   1.197 -0.0823 -0.9893 -0.7360
 7352SOL    HW133518   1.267   1.764   1.107  1.3042 -0.4119 -1.0112
 7352SOL    HW233519   1.354   1.674   1.181  0.7384 -0.3683 -0.3720
 7353SOL     OW33520   2.855   1.354   5.542 -0.2124 -0.2304 -0.0593
 7353SOL    HW133521   2.861   1.331   5.449 -4.1250  4.8543 -1.5815
 7353SOL    HW233522   2.842   1.448   5.543 -2.2201 -0.4561 -2.2722
 7354SOL     OW33523   1.660   1.519  15.575  0.5019 -0.2231  0.5019
 7354SOL    HW133524   1.596   1.450  15.557  0.5792  0.5884 -2.9128
 7354SOL    HW233525   1.741   1.474  15.598  0.6421  0.9888  2.3904
 7355SOL     OW33526   3.836   0.810  16.097 -0.0280  0.3785  0.3162
 7355SOL    HW133527   3.787   0.888  16.069 -1.7593 -0.4016  1.1803
 7355SOL    HW233528   3.920   0.836  16.060 -0.1461  0.4159  0.0703
 7356SOL     OW33529   0.951   2.543   0.129 -0.9885 -0.4466  0.1669
 7356SOL    HW133530   0.899   2.596   0.068 -1.9765 -1.5994 -0.0036
 7356SOL    HW233531   0.875   2.498   0.167  0.6768 -1.6067  2.1041
 7357SOL     OW33532   3.527   3.916   5.553 -0.4189  0.0012 -0.2161
 7357SOL    HW133533   3.592   3.911   5.482 -0.4747  0.0013 -0.2664
 7357SOL    HW233534   3.491   4.003   5.538 -1.0536  0.3131  2.9702
 7358SOL     OW33535   0.063   0.118   4.353  0.0775  0.5129 -0.3470
 7358SOL    HW133536   0.079   0.125   4.259  2.9353  0.7798  0.1423
 7358SOL    HW233537   4.713   0.058   4.360  1.9534 -1.7904 -0.0569
 7359SOL     OW33538   3.278   0.650   9.360 -1.5236  0.2801 -0.5830
 7359SOL    HW133539   3.355   0.603   9.393 -3.4628 -1.1481  1.8911
 7359SOL    HW233540   3.236   0.582   9.307 -0.5089 -1.7106  1.1770
 7360SOL     OW33541   2.608   2.654   9.909 -0.2573  0.2840 -0.6381
 7360SOL    HW133542   2.672   2.718   9.878 -0.7024  0.4302 -1.2504
 7360SOL    HW233543   2.534   2.714   9.914 -0.4667 -0.1244  1.2371
 7361SOL     OW33544   0.615   4.489   0.549 -0.4641  0.3354 -0.6180
 7361SOL    HW133545   0.587   4.434   0.622 -0.3450 -1.2157 -1.7486
 7361SOL    HW233546   0.645   4.566   0.597 -2.3940  1.9012 -1.9170
 7362SOL     OW33547   0.909   1.644   9.087 -0.2818 -0.1949 -0.5733
 7362SOL    HW133548   0.936   1.610   9.172  3.1816  0.5223 -1.3727
 7362SOL    HW233549   0.831   1.594   9.061 -0.2915 -0.6801  0.3743
 7363SOL     OW33550   2.424   1.442   5.391  0.3530 -0.2564 -0.1157
 7363SOL    HW133551   2.381   1.373   5.441 -1.2842  0.9611  0.1411
 7363SOL    HW233552   2.370   1.448   5.312  0.0111 -0.0891  0.1314
 7364SOL     OW33553   3.442   4.364   8.131 -0.2707 -0.4378 -0.1973
 7364SOL    HW133554   3.444   4.310   8.052  0.0897 -2.7057  1.3908
 7364SOL    HW233555   3.355   4.402   8.122  0.2194  0.4052 -1.5124
 7365SOL     OW33556   4.663   0.562   2.766 -0.2377  0.1418 -0.3593
 7365SOL    HW133557   4.699   0.493   2.711 -0.2050 -1.1921  1.3476
 7365SOL    HW233558   4.716   0.539   2.843  1.1163  0.0116 -1.3272
 7366SOL     OW33559   3.933   0.342   8.243  0.2127  0.7686 -0.0130
 7366SOL    HW133560   3.841   0.343   8.217  0.1105 -0.6446  0.2722
 7366SOL    HW233561   3.961   0.250   8.247  1.5115  1.1222 -0.7306
 7367SOL     OW33562   0.691   3.038   5.192 -0.8733  0.3013 -0.3969
 7367SOL    HW133563   0.601   3.072   5.186 -0.5774  0.9797 -1.0180
 7367SOL    HW233564   0.727   3.101   5.253 -0.4072 -1.0416  0.7066
 7368SOL     OW33565   2.800   4.334   2.034 -0.1382 -0.4917 -0.4056
 7368SOL    HW133566   2.783   4.341   1.940  2.8725  0.9742 -0.8530
 7368SOL    HW233567   2.853   4.410   2.059 -0.0977 -0.6137 -0.1259
 7369SOL     OW33568   1.287   1.830   8.521 -0.0426  0.5531 -0.3571
 7369SOL    HW133569   1.360   1.869   8.474  1.6857 -0.7279  1.2402
 7369SOL    HW233570   1.221   1.829   8.452  0.8060  3.7337 -1.1826
 7370SOL     OW33571   1.266   2.823   4.977  0.1262 -0.3547  0.2210
 7370SOL    HW133572   1.254   2.858   4.889 -0.5496  0.4110  0.6199
 7370SOL    HW233573   1.318   2.899   5.001  0.6455 -0.1289 -1.5789
 7371SOL     OW33574   4.351   3.356   8.886  0.7003  0.3181 -0.1952
 7371SOL    HW133575   4.371   3.276   8.935 -2.3699 -1.6793 -2.2374
 7371SOL    HW233576   4.388   3.414   8.953  1.2164 -0.8548  0.5314
 7372SOL     OW33577   4.181   0.514   8.231 -0.6573  0.4162 -0.2297
 7372SOL    HW133578   4.091   0.491   8.257 -0.9478  0.0598 -1.5369
 7372SOL    HW233579   4.163   0.604   8.204 -3.2883 -0.8489 -2.6849
 7373SOL     OW33580   4.681   2.397   6.543 -0.0170  0.2706 -0.5775
 7373SOL    HW133581   0.046   2.386   6.575 -0.6970 -1.0302  0.8245
 7373SOL    HW233582   4.642   2.457   6.606  1.0380  0.6334 -0.2663
 7374SOL     OW33583   3.067   0.731  14.607 -0.3314  0.0878 -0.3872
 7374SOL    HW133584   3.155   0.706  14.579 -1.6930 -1.4753 -3.3108
 7374SOL    HW233585   3.025   0.732  14.520  0.7662 -0.9528 -0.9289
 7375SOL     OW33586   0.239   2.265   2.020  0.4342  0.4712  0.1551
 7375SOL    HW133587   0.199   2.191   2.065 -0.3359  0.6936 -0.1696
 7375SOL    HW233588   0.162   2.312   1.989 -2.2723 -4.5223 -0.7084
 7376SOL     OW33589   3.178   2.037   9.189  0.0172  0.1746 -0.8206
 7376SOL    HW133590   3.256   1.990   9.160  0.2178  0.4239 -0.6782
 7376SOL    HW233591   3.202   2.068   9.276  2.3135 -1.4229 -0.8916
 7377SOL     OW33592   4.232   1.370   2.095 -0.2596 -0.1350  0.5175
 7377SOL    HW133593   4.238   1.351   2.001 -0.5787  1.0690  0.2530
 7377SOL    HW233594   4.160   1.432   2.106 -1.3586 -1.2683 -0.2261
 7378SOL     OW33595   1.656   2.056   4.091 -0.1947 -0.1769  0.3185
 7378SOL    HW133596   1.743   2.036   4.125  0.1980  1.1370  0.0942
 7378SOL    HW233597   1.650   2.149   4.113  1.0265 -0.0393  0.0735
 7379SOL     OW33598   2.744   0.486   7.338 -0.1977  0.0968 -0.1384
 7379SOL    HW133599   2.757   0.581   7.340  0.9308 -0.0361 -0.9854
 7379SOL    HW233600   2.802   0.462   7.266 -0.1485 -1.1683  0.3297
 7380SOL     OW33601   3.272   3.023   5.564  0.1491 -0.1479 -0.0465
 7380SOL    HW133602   3.297   3.098   5.619 -1.6082  0.5633 -0.2240
 7380SOL    HW233603   3.347   2.971   5.592  0.7996  0.7673 -0.0679
 7381SOL     OW33604   3.662   1.105  13.273  0.0450 -0.1026 -0.1411
 7381SOL    HW133605   3.730   1.039  13.291  1.7766  0.9777 -2.6651
 7381SOL    HW233606   3.672   1.164  13.347 -1.0166  0.3227 -0.3371
 7382SOL     OW33607   2.205   3.725   6.989  0.3499 -0.0113 -0.4015
 7382SOL    HW133608   2.175   3.755   7.075  1.7852  0.3694 -0.0221
 7382SOL    HW233609   2.134   3.687   6.939 -0.2657  0.2483  0.2738
 7383SOL     OW33610   3.507   2.709   6.749 -0.8353 -0.0850  0.2983
 7383SOL    HW133611   3.534   2.667   6.831 -0.1838  1.1494  0.7115
 7383SOL    HW233612   3.432   2.657   6.718 -1.0179  0.1523  0.3394
 7384SOL     OW33613   4.704   0.051   3.658  0.0122 -0.0691 -0.3215
 7384SOL    HW133614   0.029   0.113   3.603  2.0847 -1.7673 -0.3752
 7384SOL    HW233615   4.614   0.079   3.644  0.8954  2.4939 -0.8496
 7385SOL     OW33616   1.585   0.315   2.110 -0.7808 -0.2923  0.3003
 7385SOL    HW133617   1.507   0.361   2.142 -0.0234  1.9722 -1.1619
 7385SOL    HW233618   1.635   0.377   2.058  0.0059  0.4232  1.9366
 7386SOL     OW33619   0.300   1.129  16.889 -0.0527 -0.0474  0.7992
 7386SOL    HW133620   0.208   1.132  16.916 -0.6378  0.1933 -1.2143
 7386SOL    HW233621   0.327   1.046  16.929  0.0019 -0.1964  0.4450
 7387SOL     OW33622   3.568   0.144   4.011 -0.4974 -0.2175  0.1233
 7387SOL    HW133623   3.659   0.113   4.004 -0.8014 -1.5731  1.9339
 7387SOL    HW233624   3.556   0.195   3.931  1.9552 -0.8553 -0.6666
 7388SOL     OW33625   3.676   1.261   5.688 -0.1196 -0.0811  0.3988
 7388SOL    HW133626   3.672   1.217   5.773 -2.1530 -1.0516 -0.1803
 7388SOL    HW233627   3.654   1.192   5.625  1.9412 -0.1526 -0.2358
 7389SOL     OW33628   0.056   3.539   6.993  0.0604 -0.3124 -0.4442
 7389SOL    HW133629   0.110   3.537   6.914 -0.0535  1.2674 -0.5578
 7389SOL    HW233630   0.075   3.627   7.025 -2.4283  0.0818 -0.0221
 7390SOL     OW33631   0.550   0.640   0.145  0.4312  0.0357 -0.2972
 7390SOL    HW133632   0.507   0.600   0.220 -0.4463  0.6482 -0.4746
 7390SOL    HW233633   0.638   0.651   0.183 -0.1561 -1.3903  1.4595
 7391SOL     OW33634   1.072   3.428   3.510 -0.2776  0.1269  0.2083
 7391SOL    HW133635   1.123   3.353   3.542  0.8005 -0.1519 -2.1560
 7391SOL    HW233636   1.133   3.500   3.526  1.5753 -1.4227  0.2453
 7392SOL     OW33637   2.948   2.057   2.287  0.1552 -0.1116 -0.0733
 7392SOL    HW133638   2.947   2.094   2.198  0.2661  0.7625  0.2845
 7392SOL    HW233639   2.855   2.053   2.306  0.3242 -0.1697  0.7123
 7393SOL     OW33640   3.029   1.239  11.996 -0.5853  0.5555 -0.0528
 7393SOL    HW133641   2.967   1.312  11.998  0.2183  1.2674 -1.0660
 7393SOL    HW233642   3.078   1.254  11.915  0.4238 -1.5978  0.1712
 7394SOL     OW33643   2.133   2.324   5.222  0.4175 -0.3078 -0.0558
 7394SOL    HW133644   2.205   2.264   5.240  1.7834  1.5330  0.7132
 7394SOL    HW233645   2.063   2.282   5.272 -0.2152 -1.1663 -1.6932
 7395SOL     OW33646   2.653   2.381   6.855 -0.2749 -0.1375  0.3197
 7395SOL    HW133647   2.564   2.364   6.825 -0.3174  2.3932 -0.9793
 7395SOL    HW233648   2.693   2.417   6.775  0.1834 -0.8208  0.2357
 7396SOL     OW33649   1.514   0.832   0.641 -0.2764  0.0636 -0.3985
 7396SOL    HW133650   1.591   0.870   0.600  0.6106 -1.6339 -0.2865
 7396SOL    HW233651   1.545   0.745   0.666  1.3651  0.3263 -1.5710
 7397SOL     OW33652   3.931   1.534   6.561 -0.4308  0.3922 -0.2692
 7397SOL    HW133653   3.898   1.580   6.638 -0.3685 -1.2154  0.7324
 7397SOL    HW233654   3.995   1.588   6.515  2.0441 -0.8505  1.7284
 7398SOL     OW33655   1.278   1.775   6.167  0.2190 -0.1466  0.1104
 7398SOL    HW133656   1.271   1.802   6.259 -0.2194  0.9755 -0.2571
 7398SOL    HW233657   1.373   1.771   6.160  0.4175  0.8775  2.0856
 7399SOL     OW33658   0.459   1.627  15.099  0.1338 -0.4507 -0.0267
 7399SOL    HW133659   0.366   1.644  15.088  0.1798 -0.1077  0.1239
 7399SOL    HW233660   0.463   1.531  15.106  0.5349 -0.4782 -0.6457
 7400SOL     OW33661   3.798   2.499   6.100  0.0852  0.4551 -0.0892
 7400SOL    HW133662   3.773   2.566   6.163  0.5925  2.1447 -1.6788
 7400SOL    HW233663   3.883   2.533   6.073  1.8607 -1.1927  3.4908
 7401SOL     OW33664   0.379   3.374   7.710  0.2410  0.1608  0.4035
 7401SOL    HW133665   0.370   3.469   7.713  0.9599  0.1905  1.5575
 7401SOL    HW233666   0.470   3.376   7.681 -0.2087  0.1861 -1.0041
 7402SOL     OW33667   0.196   0.018  13.495  0.6615 -0.3023 -0.3228
 7402SOL    HW133668   0.101   0.010  13.506  0.7734  0.7436  1.4824
 7402SOL    HW233669   0.212   4.648  13.493 -1.5683 -0.6925  0.1928
 7403SOL     OW33670   0.426   0.300   7.570 -0.6131  0.2836  0.2678
 7403SOL    HW133671   0.443   0.302   7.664 -1.4460  2.5109  0.3749
 7403SOL    HW233672   0.473   0.224   7.536  1.2637  1.9195 -0.6987
 7404SOL     OW33673   2.461   1.354   1.799 -0.3689 -0.3825  0.7980
 7404SOL    HW133674   2.437   1.380   1.888  0.2466  0.1204  0.8143
 7404SOL    HW233675   2.379   1.368   1.752 -0.3495  0.0225  0.8848
 7405SOL     OW33676   1.311   0.250   3.023  0.0075 -0.4895 -0.4846
 7405SOL    HW133677   1.281   0.159   3.025 -2.1725  0.2567  0.3982
 7405SOL    HW233678   1.226   0.287   3.048  1.3292  1.7448  0.6846
 7406SOL     OW33679   0.962   1.778   5.080  0.4877 -0.3355 -0.2534
 7406SOL    HW133680   0.950   1.871   5.065  0.9887 -0.0149  1.3303
 7406SOL    HW233681   1.057   1.769   5.076  0.3610 -0.6067 -2.4743
 7407SOL     OW33682   2.202   0.996   8.081  0.4097  0.2228  0.6081
 7407SOL    HW133683   2.277   0.975   8.137  0.8085 -0.0344 -0.0080
 7407SOL    HW233684   2.197   0.920   8.022 -1.6009 -0.5512  1.7751
 7408SOL     OW33685   2.873   1.460  11.975 -0.5364 -0.1868 -0.4724
 7408SOL    HW133686   2.894   1.537  12.027  1.1944 -1.3808  0.5919
 7408SOL    HW233687   2.791   1.439  12.020 -0.7527  0.1966 -0.6902
 7409SOL     OW33688   4.065   0.897   8.006  0.2310  0.7352 -0.1941
 7409SOL    HW133689   3.996   0.897   7.940  0.5081  1.3790 -0.4883
 7409SOL    HW233690   4.135   0.854   7.957  1.3260 -0.2547  2.1946
 7410SOL     OW33691   2.280   2.346   2.137  0.1029  0.8846  0.6582
 7410SOL    HW133692   2.185   2.333   2.128  0.2053  0.7595 -0.3315
 7410SOL    HW233693   2.317   2.261   2.114 -1.5899  0.8880 -2.1788
 7411SOL     OW33694   1.158   3.231  12.293  0.1255  0.8267 -0.5389
 7411SOL    HW133695   1.144   3.325  12.302 -2.4470  0.7601 -3.6042
 7411SOL    HW233696   1.068   3.202  12.276  0.1265 -0.0199  0.9457
 7412SOL     OW33697   3.725   0.284  12.441  0.1474  0.8679  0.2918
 7412SOL    HW133698   3.771   0.206  12.471  1.3109  0.5504 -2.3095
 7412SOL    HW233699   3.685   0.250  12.361  0.0486  0.7700  0.3820
 7413SOL     OW33700   3.368   2.096   8.890 -0.4665  0.4350  0.1436
 7413SOL    HW133701   3.409   2.106   8.976 -2.6034  0.8607  1.1157
 7413SOL    HW233702   3.383   2.002   8.875  1.4423  0.2996  2.9134
 7414SOL     OW33703   0.923   0.955   4.481 -0.1423 -0.1986  0.1414
 7414SOL    HW133704   0.963   0.912   4.406 -1.9344 -3.2027  0.8666
 7414SOL    HW233705   0.828   0.947   4.470  0.1290 -0.4588 -1.9068
 7415SOL     OW33706   1.556   1.890  16.994  0.0069 -0.4314  0.2610
 7415SOL    HW133707   1.493   1.917  16.927 -1.9692 -0.2699  2.2005
 7415SOL    HW233708   1.575   1.797  16.980 -0.6710 -0.3126 -1.5403
 7416SOL     OW33709   2.535   0.396  11.559  0.3853 -0.3112 -0.1008
 7416SOL    HW133710   2.609   0.427  11.507 -0.2961  0.9655 -0.3319
 7416SOL    HW233711   2.581   0.346  11.626  1.0992 -1.9067 -1.7736
 7417SOL     OW33712   1.117   1.599   9.587  0.0754  0.1081 -0.1158
 7417SOL    HW133713   1.204   1.576   9.620  0.2962 -2.0824 -2.2611
 7417SOL    HW233714   1.069   1.630   9.664  0.0870  1.2121 -0.5607
 7418SOL     OW33715   2.522   1.555  12.735 -0.3514 -0.0930 -0.6265
 7418SOL    HW133716   2.498   1.522  12.648 -1.8418 -2.9626  0.8841
 7418SOL    HW233717   2.601   1.504  12.753 -0.4175  0.5212  1.3970
 7419SOL     OW33718   2.911   0.050  17.051 -0.2915 -0.6847 -0.1069
 7419SOL    HW133719   2.875   0.107  16.983  0.1787  0.7706  0.8597
 7419SOL    HW233720   2.887   0.104  17.127  0.0783  0.3790 -0.7459
 7420SOL     OW33721   1.416   1.397  16.051 -0.0645  0.3476 -0.2868
 7420SOL    HW133722   1.471   1.408  15.974 -0.3895  0.4506 -0.5050
 7420SOL    HW233723   1.465   1.452  16.112  1.5013 -2.1294  0.6635
 7421SOL     OW33724   3.405   1.899   7.665 -0.6627 -0.3746  0.3715
 7421SOL    HW133725   3.387   1.870   7.755 -4.0908  1.9116  0.4289
 7421SOL    HW233726   3.353   1.839   7.611  0.5636 -0.5451 -0.6187
 7422SOL     OW33727   2.909   3.985   7.481 -0.4553  0.1155 -0.1703
 7422SOL    HW133728   2.835   4.045   7.475  1.0014  1.7779 -1.9193
 7422SOL    HW233729   2.926   3.980   7.575  3.4415 -1.7242 -0.9643
 7423SOL     OW33730   1.030   0.775   6.397 -0.6222  0.7287 -0.6418
 7423SOL    HW133731   0.948   0.774   6.445 -0.3230  0.0492 -0.1449
 7423SOL    HW233732   1.088   0.745   6.467 -1.3744  0.7856 -0.0003
 7424SOL     OW33733   2.473   3.258   4.110 -0.3333 -0.4345 -0.2147
 7424SOL    HW133734   2.414   3.203   4.162  0.3453  0.3275  1.3727
 7424SOL    HW233735   2.556   3.251   4.158 -1.1839  2.1000  1.6154
 7425SOL     OW33736   3.300   1.985   5.511  0.2500  0.3141  0.0464
 7425SOL    HW133737   3.332   1.902   5.547 -0.1232 -0.1607 -0.7203
 7425SOL    HW233738   3.373   2.003   5.452  1.5012  1.3533  1.9187
 7426SOL     OW33739   0.473   3.112  10.550 -0.0374 -0.0809 -0.4327
 7426SOL    HW133740   0.417   3.188  10.565 -0.5936 -0.4271 -0.7329
 7426SOL    HW233741   0.422   3.046  10.597  0.4144  0.8020  1.2935
 7427SOL     OW33742   4.521   1.929   4.867  0.1789 -0.5292  0.1585
 7427SOL    HW133743   4.579   1.899   4.797  0.5319  0.0660  0.1955
 7427SOL    HW233744   4.581   1.924   4.941  0.1688  2.8679  0.3925
 7428SOL     OW33745   2.188   3.219  12.781  0.3360 -0.4972 -0.2352
 7428SOL    HW133746   2.130   3.217  12.705 -0.3361 -1.7225  0.3039
 7428SOL    HW233747   2.256   3.276  12.747  0.5395 -0.4934  0.1788
 7429SOL     OW33748   0.764   1.561   9.707 -0.2318  0.0155  0.7424
 7429SOL    HW133749   0.851   1.561   9.746 -0.0118  0.7622  0.2541
 7429SOL    HW233750   0.725   1.634   9.756  1.0582  0.4193  1.1770
 7430SOL     OW33751   3.131   0.875   4.499 -0.3763  0.5398 -0.4302
 7430SOL    HW133752   3.040   0.905   4.497 -0.9182 -1.2637 -2.5039
 7430SOL    HW233753   3.119   0.786   4.532  2.5288 -0.5691 -2.3758
 7431SOL     OW33754   1.599   1.880   8.162  0.1242 -0.4541 -0.3522
 7431SOL    HW133755   1.508   1.904   8.180  0.4144  1.3478 -1.3793
 7431SOL    HW233756   1.628   1.867   8.252 -1.8808 -1.0513  0.2183
 7432SOL     OW33757   2.600   0.931   7.770 -0.0798 -0.5280  0.1985
 7432SOL    HW133758   2.582   0.870   7.841 -1.2309 -0.3781  0.0412
 7432SOL    HW233759   2.602   0.870   7.696  1.5286 -1.6409  1.1768
 7433SOL     OW33760   0.806   3.760   2.258 -0.2591 -0.1445 -0.6448
 7433SOL    HW133761   0.759   3.749   2.341 -0.5673 -0.6699 -0.8951
 7433SOL    HW233762   0.739   3.725   2.200 -0.8604 -1.6999  1.0093
 7434SOL     OW33763   4.122   0.200   3.501 -0.1398  0.0702 -0.3687
 7434SOL    HW133764   4.035   0.229   3.527  0.5740  1.0666  0.9084
 7434SOL    HW233765   4.151   0.157   3.581 -2.1046  1.5975  1.1552
 7435SOL     OW33766   0.881   2.131   1.397 -0.2577  0.3703 -0.1561
 7435SOL    HW133767   0.806   2.115   1.339  0.5098  2.2361 -1.6774
 7435SOL    HW233768   0.910   2.201   1.338  1.9937  0.1479  0.7023
 7436SOL     OW33769   1.319   0.883   5.460 -0.0382 -0.0347  0.1599
 7436SOL    HW133770   1.368   0.818   5.510  1.7494  0.3087 -1.1585
 7436SOL    HW233771   1.336   0.966   5.505  0.3653  0.1667 -0.3709
 7437SOL     OW33772   3.961   2.733   5.861 -0.4276 -0.8717 -0.3073
 7437SOL    HW133773   4.002   2.688   5.787 -0.4676 -2.5032  0.6901
 7437SOL    HW233774   4.034   2.785   5.894 -2.1452  0.6372  1.1373
 7438SOL     OW33775   2.741   1.857   7.087 -0.5874 -0.1340 -0.1852
 7438SOL    HW133776   2.655   1.889   7.057  0.5518  0.6103 -2.6246
 7438SOL    HW233777   2.799   1.891   7.019 -0.8571 -0.3988 -0.5481
 7439SOL     OW33778   2.851   2.326   1.883 -0.4736  0.7209 -0.0834
 7439SOL    HW133779   2.780   2.389   1.867  0.7172  1.2953 -3.2035
 7439SOL    HW233780   2.885   2.301   1.797  1.0878 -0.4637  0.8775
 7440SOL     OW33781   1.538   0.705  11.313 -0.2488  0.1837  0.7155
 7440SOL    HW133782   1.515   0.670  11.399  1.4177  1.7615  1.8000
 7440SOL    HW233783   1.455   0.750  11.298  0.7678  1.9427  0.3749
 7441SOL     OW33784   0.807   4.688  12.314 -0.0469 -0.5717  0.2558
 7441SOL    HW133785   0.836   4.699  12.404  2.6707  1.9837 -0.9306
 7441SOL    HW233786   0.849   0.039  12.273  0.5817  0.0059  1.9490
 7442SOL     OW33787   0.220   4.443   9.410  0.4014  0.4536  0.1662
 7442SOL    HW133788   0.215   4.406   9.498  0.9409 -0.5384 -0.2231
 7442SOL    HW233789   0.251   4.365   9.366  0.1368  1.0438 -1.0636
 7443SOL     OW33790   1.490   4.463   5.769 -0.0141 -0.2004 -0.3135
 7443SOL    HW133791   1.462   4.495   5.855  1.0368 -2.7829  0.9947
 7443SOL    HW233792   1.525   4.375   5.784  1.4792  0.2606 -1.1406
 7444SOL     OW33793   1.223   3.817   2.914 -0.0734  0.1526 -0.0935
 7444SOL    HW133794   1.285   3.888   2.930  0.2283  0.4418 -2.4767
 7444SOL    HW233795   1.269   3.770   2.844 -2.6459  1.8738 -2.9891
 7445SOL     OW33796   3.241   4.581   9.127 -0.2449  0.2880  0.1191
 7445SOL    HW133797   3.328   4.552   9.154  0.4083  0.1166 -2.2243
 7445SOL    HW233798   3.265   4.614   9.041 -0.2897 -1.2359 -0.4843
 7446SOL     OW33799   2.024   0.778   9.122 -0.1066  0.1174 -0.3065
 7446SOL    HW133800   2.089   0.765   9.191 -1.3465 -3.0706  0.2290
 7446SOL    HW233801   2.035   0.697   9.072 -2.7543 -0.8398  0.6815
 7447SOL     OW33802   4.279   3.600   2.005  0.4753 -0.0671 -0.0959
 7447SOL    HW133803   4.272   3.571   1.914 -3.3546  1.1107 -0.2141
 7447SOL    HW233804   4.186   3.620   2.018  0.5606 -0.2900  0.9058
 7448SOL     OW33805   4.336   3.888   6.779 -0.1131  0.1147  0.0865
 7448SOL    HW133806   4.255   3.877   6.829  0.3832 -0.0916  0.8300
 7448SOL    HW233807   4.372   3.800   6.771 -0.5935  0.0274 -1.1586
 7449SOL     OW33808   4.712   1.632   5.334 -0.5506 -0.2186 -0.4155
 7449SOL    HW133809   0.016   1.672   5.252  1.2693  0.8912  0.7571
 7449SOL    HW233810   4.632   1.589   5.303 -0.6926  1.5092 -2.4717
 7450SOL     OW33811   4.471   2.352   7.500  0.4076  0.3476  0.1077
 7450SOL    HW133812   4.493   2.355   7.407 -2.6756  2.5743 -0.5766
 7450SOL    HW233813   4.406   2.282   7.503  0.7611 -0.0342 -1.1828
 7451SOL     OW33814   1.242   3.519  16.893  0.3395 -0.2626  0.7901
 7451SOL    HW133815   1.292   3.438  16.903 -1.8121 -1.6381  0.4341
 7451SOL    HW233816   1.221   3.515  16.800  0.0048 -0.5151  0.8761
 7452SOL     OW33817   0.333   4.605   8.930 -0.2017  0.6963 -0.5845
 7452SOL    HW133818   0.253   4.559   8.956  1.0613 -0.8216  0.5887
 7452SOL    HW233819   0.292   4.674   8.877  0.9737 -0.4833 -2.9917
 7453SOL     OW33820   1.341   4.297   3.165 -0.7351 -1.0883  0.3481
 7453SOL    HW133821   1.361   4.297   3.259  1.0730  2.0216 -0.0480
 7453SOL    HW233822   1.401   4.357   3.122  1.2424 -2.1178  1.6360
 7454SOL     OW33823   1.635   2.260   6.751  0.5028 -0.0004  0.2689
 7454SOL    HW133824   1.705   2.221   6.698  0.2881 -1.0306  0.7619
 7454SOL    HW233825   1.631   2.344   6.704 -0.6135 -0.3450 -0.2489
 7455SOL     OW33826   3.286   2.607   8.238  0.3318 -0.0883 -0.0397
 7455SOL    HW133827   3.377   2.636   8.227 -0.4039  1.8550 -1.0734
 7455SOL    HW233828   3.287   2.524   8.189  1.7361 -0.1227  0.0538
 7456SOL     OW33829   1.023   3.111  11.893 -1.0032 -0.2167 -0.3051
 7456SOL    HW133830   1.040   3.097  11.800  0.6789  2.1188 -0.3513
 7456SOL    HW233831   1.076   3.185  11.923 -1.4137  0.0692 -0.2904
 7457SOL     OW33832   3.028   0.609   3.545 -0.2969 -0.6397 -0.1529
 7457SOL    HW133833   2.952   0.656   3.581 -1.4655 -2.4208 -0.2707
 7457SOL    HW233834   3.066   0.567   3.622 -2.8425 -1.1692  0.8428
 7458SOL     OW33835   0.271   0.064   9.259  0.3499  0.1483 -0.4084
 7458SOL    HW133836   0.210   0.055   9.186 -0.7123  1.1399  0.3592
 7458SOL    HW233837   0.252   0.150   9.295  1.7490  1.3006 -2.4629
 7459SOL     OW33838   4.642   2.923   5.768  0.5528 -0.0385  0.0930
 7459SOL    HW133839   0.011   2.905   5.782  0.2626 -0.0722  1.8981
 7459SOL    HW233840   4.606   2.908   5.855  1.7634  0.6977  0.7296
 7460SOL     OW33841   0.501   0.220  16.780  0.3919 -0.1017 -0.5219
 7460SOL    HW133842   0.466   0.174  16.856 -2.1813 -2.3420 -3.0792
 7460SOL    HW233843   0.587   0.250  16.811  0.2401  0.2529 -0.4441
 7461SOL     OW33844   2.795   3.130   8.475 -0.0814  0.0846  0.2258
 7461SOL    HW133845   2.856   3.199   8.502 -1.0329  0.2583  1.9125
 7461SOL    HW233846   2.848   3.051   8.476  0.3820  0.3987  0.3428
 7462SOL     OW33847   0.802   4.638   0.714 -0.1996 -0.2192  0.7422
 7462SOL    HW133848   0.850   4.642   0.796 -0.0434  1.4939  0.5725
 7462SOL    HW233849   0.743   4.711   0.734  0.8889  1.2127 -1.2063
 7463SOL     OW33850   2.877   4.550   6.395  0.3094 -0.3527  0.1556
 7463SOL    HW133851   2.972   4.554   6.404  0.1840  3.0808 -0.3065
 7463SOL    HW233852   2.857   4.559   6.488 -0.5509  1.0344 -0.1689
 7464SOL     OW33853   1.148   2.154   4.213  0.1174 -0.0809 -0.3834
 7464SOL    HW133854   1.240   2.150   4.239  0.7667  1.4232 -2.4745
 7464SOL    HW233855   1.101   2.164   4.297  1.1730  2.0472 -0.0414
 7465SOL     OW33856   3.338   4.619   7.689 -0.5226  0.6342  0.6725
 7465SOL    HW133857   3.362   4.630   7.781  1.3363 -0.6611  0.3476
 7465SOL    HW233858   3.248   4.589   7.701 -0.1415  0.7463  3.6847
 7466SOL     OW33859   2.549   0.476   4.720  0.7526  0.5635 -0.0011
 7466SOL    HW133860   2.469   0.455   4.672  0.0259 -0.6574  1.7385
 7466SOL    HW233861   2.518   0.500   4.807  1.3746  0.5769  0.2157
 7467SOL     OW33862   0.255   3.391   5.778 -0.1318 -0.5174 -0.0259
 7467SOL    HW133863   0.200   3.462   5.811 -0.3980  0.7151 -3.0950
 7467SOL    HW233864   0.335   3.444   5.779 -0.4797 -0.0835  3.5618
 7468SOL     OW33865   2.478   4.358  15.649  0.4095  0.3458 -0.3301
 7468SOL    HW133866   2.472   4.282  15.591 -0.3388  0.6525 -0.6583
 7468SOL    HW233867   2.413   4.342  15.718  0.7289  0.2367 -0.0577
 7469SOL     OW33868   3.533   3.097  10.432  0.4098 -0.7319 -0.4551
 7469SOL    HW133869   3.593   3.048  10.488  1.4745 -0.5506 -1.4220
 7469SOL    HW233870   3.445   3.061  10.443  0.2709  0.0296  0.8828
 7470SOL     OW33871   0.396   1.646   1.557  0.0624  0.0734  0.2817
 7470SOL    HW133872   0.488   1.646   1.586 -0.1269 -0.9205  0.8671
 7470SOL    HW233873   0.383   1.563   1.512  1.4777 -1.0419  1.9280
 7471SOL     OW33874   3.738   1.111   3.716  0.1348  0.2667  0.0559
 7471SOL    HW133875   3.696   1.064   3.644 -1.1664  1.7457 -0.1525
 7471SOL    HW233876   3.816   1.058   3.730  0.6648  0.6437 -1.5389
 7472SOL     OW33877   3.861   3.301  14.563 -0.0375 -0.8709  0.1538
 7472SOL    HW133878   3.846   3.393  14.542 -1.6328 -1.8179 -2.9425
 7472SOL    HW233879   3.863   3.259  14.477 -0.6956  1.2414 -0.8964
 7473SOL     OW33880   2.681   1.420   0.873  0.1720 -0.5890 -0.1269
 7473SOL    HW133881   2.609   1.460   0.824  2.1805  2.5881 -0.4834
 7473SOL    HW233882   2.749   1.444   0.810  0.3925 -1.3129 -0.1558
 7474SOL     OW33883   0.579   4.208   1.492 -0.5423 -0.6469  0.2499
 7474SOL    HW133884   0.569   4.209   1.397 -0.3831 -1.2661  0.2253
 7474SOL    HW233885   0.611   4.298   1.501  1.2944 -1.3273  0.5982
 7475SOL     OW33886   3.953   1.812   4.827  0.4295  0.3956 -0.3412
 7475SOL    HW133887   3.931   1.877   4.893  1.2884  1.3112 -0.9566
 7475SOL    HW233888   3.895   1.816   4.751  0.6536  0.2980 -0.5160
 7476SOL     OW33889   3.080   2.604   5.989 -0.4882 -0.0228  0.0796
 7476SOL    HW133890   3.005   2.575   6.040 -0.3903  1.8825  1.3219
 7476SOL    HW233891   3.097   2.524   5.940 -0.2890  0.3431 -0.4504
 7477SOL     OW33892   0.769   1.319   5.728  0.2490 -0.4273 -0.0119
 7477SOL    HW133893   0.695   1.329   5.789 -0.2016 -1.1233 -0.4458
 7477SOL    HW233894   0.727   1.323   5.642  0.6927  2.8208 -0.0779
 7478SOL     OW33895   4.012   1.072   4.876 -0.3627 -0.1380  0.3287
 7478SOL    HW133896   4.061   1.040   4.801 -0.5969 -0.6553  0.3994
 7478SOL    HW233897   3.926   1.084   4.835  0.2947 -1.9623 -1.5582
 7479SOL     OW33898   3.484   3.320   9.290  0.5115 -0.4194  0.3799
 7479SOL    HW133899   3.505   3.413   9.297 -0.6226 -0.0507 -1.2529
 7479SOL    HW233900   3.402   3.302   9.336  0.4784 -0.2434  0.3886
 7480SOL     OW33901   2.218   4.118   5.364  0.1674  0.3340 -0.0463
 7480SOL    HW133902   2.275   4.042   5.377  0.6337  0.5410 -0.8610
 7480SOL    HW233903   2.153   4.100   5.432  0.4611 -0.0527  0.1348
 7481SOL     OW33904   0.181   4.600   4.132 -0.1829 -0.3065  0.2343
 7481SOL    HW133905   0.209   4.514   4.100  1.2908 -0.4779  1.9379
 7481SOL    HW233906   0.118   4.631   4.068 -0.2829  2.5582  1.7013
 7482SOL     OW33907   1.516   3.094   6.231  0.1067  0.2118 -0.3720
 7482SOL    HW133908   1.474   3.069   6.313  1.1638 -1.5441 -0.3545
 7482SOL    HW233909   1.442   3.132   6.184  1.1347 -0.2521 -2.3522
 7483SOL     OW33910   0.907   2.092   4.413 -0.4792 -0.2465 -0.0798
 7483SOL    HW133911   0.864   2.157   4.469 -0.2612 -0.8471  0.7874
 7483SOL    HW233912   0.885   2.128   4.327  0.6274  1.6456  0.4281
 7484SOL     OW33913   1.184   0.123   4.226 -0.5355 -0.0122 -0.4497
 7484SOL    HW133914   1.227   0.111   4.142  0.9404  0.5942  0.2117
 7484SOL    HW233915   1.244   0.087   4.291  0.4425  1.3491 -0.5937
 7485SOL     OW33916   2.765   1.027   1.404 -0.3607  0.0007  0.3366
 7485SOL    HW133917   2.756   1.013   1.498 -2.3403 -1.1452 -0.0321
 7485SOL    HW233918   2.685   0.994   1.362 -0.7431 -0.0263  1.0859
 7486SOL     OW33919   2.552   3.413   7.150 -0.3049 -0.0450  0.1874
 7486SOL    HW133920   2.476   3.453   7.107  0.0329  0.6866  0.2771
 7486SOL    HW233921   2.502   3.340   7.185 -0.0418 -0.8417 -1.0967
 7487SOL     OW33922   0.852   3.036   8.604  0.0637 -0.1962  0.4125
 7487SOL    HW133923   0.907   2.966   8.639 -0.7888 -0.3628  1.4221
 7487SOL    HW233924   0.884   3.120   8.636 -0.0577  0.4321 -1.0906
 7488SOL     OW33925   3.824   0.040   5.649 -0.2790 -0.0122  0.3029
 7488SOL    HW133926   3.773   0.011   5.725  0.0465  0.9351  0.8949
 7488SOL    HW233927   3.765   0.003   5.584 -0.4974  0.8001  0.0348
 7489SOL     OW33928   4.400   0.628  12.500  0.6660  0.5445  0.0495
 7489SOL    HW133929   4.318   0.600  12.541 -0.5026 -0.4919 -2.9391
 7489SOL    HW233930   4.432   0.547  12.461 -2.7802 -0.2426 -1.1425
 7490SOL     OW33931   4.620   3.078   2.472 -0.4533  0.1678  0.7692
 7490SOL    HW133932   4.663   2.995   2.491  0.1839 -0.3878 -3.1663
 7490SOL    HW233933   4.693   3.113   2.421  0.5795 -1.7510  0.9382
 7491SOL     OW33934   4.541   0.302   7.024  0.4780 -0.9377  0.1466
 7491SOL    HW133935   4.478   0.321   7.093  3.5088  0.5063  2.4774
 7491SOL    HW233936   4.604   0.239   7.059  1.3035 -0.8586 -1.1759
 7492SOL     OW33937   1.118   1.023  12.666  0.2045 -0.1091 -0.0693
 7492SOL    HW133938   1.141   1.114  12.685 -1.6757  0.2466  0.5039
 7492SOL    HW233939   1.026   1.028  12.642  0.0962 -0.7125  0.2067
 7493SOL     OW33940   2.074   1.659  11.726 -0.1146 -0.0408  0.6162
 7493SOL    HW133941   2.114   1.702  11.802 -0.9815 -0.4232  1.2922
 7493SOL    HW233942   1.999   1.716  11.710  0.4803  0.7101  0.5101
 7494SOL     OW33943   3.377   0.556   2.765 -0.2613 -0.6933  0.0505
 7494SOL    HW133944   3.449   0.573   2.704 -0.7156  2.0278  0.2438
 7494SOL    HW233945   3.384   0.641   2.809  1.1673 -0.2314 -1.0748
 7495SOL     OW33946   2.512   1.378   4.311  0.0142 -0.0521  0.4201
 7495SOL    HW133947   2.599   1.339   4.324 -0.2815 -0.7865  0.1986
 7495SOL    HW233948   2.511   1.418   4.223  1.6848 -0.1570  0.3479
 7496SOL     OW33949   0.113   2.989  14.827 -0.3007  0.4758 -0.5732
 7496SOL    HW133950   0.129   3.083  14.820  0.6151  0.3991  0.4077
 7496SOL    HW233951   0.099   2.966  14.735  0.9413 -1.9957 -0.1630
 7497SOL     OW33952   4.486   1.802  12.102 -0.2214 -0.6494  0.5633
 7497SOL    HW133953   4.569   1.847  12.113 -0.7805  0.9938 -1.8292
 7497SOL    HW233954   4.514   1.719  12.062 -0.7769 -0.0857 -0.9995
 7498SOL     OW33955   3.609   3.184   7.077  0.8808 -0.0691  0.0381
 7498SOL    HW133956   3.611   3.176   6.982 -0.1408 -4.2134  0.3499
 7498SOL    HW233957   3.592   3.091   7.094 -0.0270  0.0893  0.0392
 7499SOL     OW33958   3.718   2.971   4.345  0.6545  0.7231 -0.3671
 7499SOL    HW133959   3.781   2.970   4.272 -0.2356  0.3448 -1.1288
 7499SOL    HW233960   3.715   2.876   4.349 -0.5298  0.6612 -2.3068
 7500SOL     OW33961   4.658   0.049   8.598 -0.4225 -0.0440  0.8561
 7500SOL    HW133962   4.681   4.680   8.599  0.9565  0.2787 -0.9015
 7500SOL    HW233963   4.649   0.063   8.504  0.2464  0.4183  0.8598
 7501SOL     OW33964   4.488   0.998  13.466 -0.1751  0.0619  0.3751
 7501SOL    HW133965   4.446   0.914  13.485  1.6811 -1.3135 -1.5052
 7501SOL    HW233966   4.421   1.035  13.409  0.2347  0.2070 -0.0186
 7502SOL     OW33967   0.669   3.439   3.160  0.3216 -0.4326  0.6499
 7502SOL    HW133968   0.689   3.474   3.073  0.7515 -0.4591  0.7374
 7502SOL    HW233969   0.745   3.468   3.212 -1.8601  0.5029  3.2941
 7503SOL     OW33970   1.802   0.110  15.224 -0.2831 -0.7117  0.1634
 7503SOL    HW133971   1.709   0.107  15.246 -0.1917  1.0217  0.7916
 7503SOL    HW233972   1.827   0.156  15.304  2.3689 -2.1083  0.1403
 7504SOL     OW33973   2.809   1.331   1.793  0.3267 -0.1554  0.0754
 7504SOL    HW133974   2.805   1.381   1.875  0.7045  0.0333 -0.0200
 7504SOL    HW233975   2.900   1.300   1.783 -0.0326 -0.4792 -2.1343
 7505SOL     OW33976   2.232   4.305  17.295  0.2949 -0.1888  0.2911
 7505SOL    HW133977   2.284   4.342  17.224 -0.1382 -0.2709 -0.0629
 7505SOL    HW233978   2.143   4.306  17.261  0.8740  0.0551 -1.1907
 7506SOL     OW33979   4.155   0.691   8.669  0.2152  0.3543  0.2784
 7506SOL    HW133980   4.188   0.693   8.759 -0.1168  0.2980  0.4041
 7506SOL    HW233981   4.188   0.608   8.636 -1.8346 -0.2356 -0.2896
 7507SOL     OW33982   1.410   2.056   4.297  0.1957  0.0192 -0.0079
 7507SOL    HW133983   1.446   2.014   4.219  0.5689  2.8828 -1.3417
 7507SOL    HW233984   1.448   2.144   4.295 -3.5210  1.6490  1.7440
 7508SOL     OW33985   2.408   3.590   8.637  0.0094 -0.3232 -0.2599
 7508SOL    HW133986   2.439   3.606   8.548  2.1627  0.4858  0.6436
 7508SOL    HW233987   2.492   3.610   8.678  0.8665 -2.1022 -1.1477
 7509SOL     OW33988   3.612   4.435   2.919  0.5696 -0.4325 -0.5140
 7509SOL    HW133989   3.631   4.374   2.990  0.9059 -1.2693 -1.3132
 7509SOL    HW233990   3.653   4.371   2.859 -1.1879 -2.0440  0.0199
 7510SOL     OW33991   2.287   0.825  10.457  0.1185 -0.5755  0.3877
 7510SOL    HW133992   2.335   0.742  10.453  0.9008 -0.1094 -0.0094
 7510SOL    HW233993   2.359   0.883  10.483 -0.9150  0.8579  0.0349
 7511SOL     OW33994   0.564   2.922   1.185 -0.4038 -0.7534 -0.3898
 7511SOL    HW133995   0.605   2.861   1.247  0.7054  1.4615  1.0407
 7511SOL    HW233996   0.521   2.990   1.237  0.9873 -1.3688  1.5948
 7512SOL     OW33997   1.024   1.998   7.321  0.4811  0.1257 -0.0777
 7512SOL    HW133998   1.047   1.905   7.333 -0.8870 -0.0763  0.9191
 7512SOL    HW233999   1.026   2.006   7.226  0.9127  0.8494 -0.0090
 7513SOL     OW34000   2.009   0.817   4.502  0.6536  0.0489 -0.4473
 7513SOL    HW134001   2.085   0.876   4.509  1.0922 -0.4936 -0.6820
 7513SOL    HW234002   1.972   0.840   4.588 -1.4673 -4.5743 -0.1130
 7514SOL     OW34003   2.432   3.516   7.976 -0.4886 -0.1657 -0.3555
 7514SOL    HW134004   2.364   3.584   7.974 -1.1628 -0.8606 -1.6920
 7514SOL    HW234005   2.393   3.462   8.045  0.5012 -0.0095  0.3164
 7515SOL     OW34006   4.313   1.614  13.774  0.0544  0.5504 -0.1416
 7515SOL    HW134007   4.358   1.531  13.755  1.0542  1.0206  0.1484
 7515SOL    HW234008   4.334   1.662  13.694  0.3979 -0.6612 -0.7814
 7516SOL     OW34009   1.010   4.077   2.777  0.2530  0.2386  0.1617
 7516SOL    HW134010   0.930   4.081   2.725 -0.2877 -0.9542  0.8924
 7516SOL    HW234011   0.993   4.150   2.837  1.4512  0.0597  0.7271
 7517SOL     OW34012   1.837   0.462   5.512  0.1449 -0.6312  0.3430
 7517SOL    HW134013   1.885   0.416   5.580 -0.7622 -1.4510  0.4270
 7517SOL    HW234014   1.750   0.448   5.549 -0.6362  0.7774 -0.9492
 7518SOL     OW34015   0.066   2.516   4.090  0.1658  0.1455 -0.0161
 7518SOL    HW134016   0.112   2.580   4.145 -2.6738  2.0742  0.1779
 7518SOL    HW234017   0.014   2.572   4.032 -0.5613 -0.5553 -0.0411
 7519SOL     OW34018   4.067   1.159   6.164  0.3369  0.0753  0.4743
 7519SOL    HW134019   4.009   1.108   6.108 -0.2457  0.2575  0.9140
 7519SOL    HW234020   4.043   1.128   6.251  0.4752  3.5965  1.7836
 7520SOL     OW34021   3.783   0.073   6.043 -0.5432  0.0046 -0.1752
 7520SOL    HW134022   3.872   0.050   6.017 -0.6383  1.7757 -2.1034
 7520SOL    HW234023   3.767   0.157   6.000 -1.1308  0.7866  1.5550
 7521SOL     OW34024   3.723   1.280   8.100 -0.1674 -0.1103  0.2671
 7521SOL    HW134025   3.720   1.220   8.174  1.9872 -0.4324  0.0966
 7521SOL    HW234026   3.819   1.284   8.091 -0.1824 -0.8473 -0.3007
 7522SOL     OW34027   0.483   1.057  15.343  0.3745  0.1768 -0.6727
 7522SOL    HW134028   0.555   1.081  15.402 -1.1797  1.9604  0.5166
 7522SOL    HW234029   0.411   1.035  15.402 -0.5485  0.0341 -1.8620
 7523SOL     OW34030   3.717   3.833   8.223  0.1803 -0.5478 -0.2956
 7523SOL    HW134031   3.802   3.803   8.255  0.0731  0.4892  0.9836
 7523SOL    HW234032   3.738   3.913   8.174 -0.3093  0.9081  1.8370
 7524SOL     OW34033   3.102   1.539  15.847  0.1119  0.3586 -0.2345
 7524SOL    HW134034   3.065   1.453  15.869  1.5069 -0.3755 -0.7056
 7524SOL    HW234035   3.189   1.518  15.811  0.8756  2.6880  0.2726
 7525SOL     OW34036   1.581   2.822   7.232 -0.1326  0.0021 -0.0794
 7525SOL    HW134037   1.634   2.744   7.215 -1.7223 -1.4516  1.5626
 7525SOL    HW234038   1.529   2.798   7.309  1.8746 -0.6744  1.0685
 7526SOL     OW34039   1.949   4.669   7.332  0.0688  0.8496 -0.0376
 7526SOL    HW134040   1.990   4.621   7.404 -1.4481  0.3237  0.4839
 7526SOL    HW234041   1.949   4.609   7.257 -0.2641 -1.3695  1.7301
 7527SOL     OW34042   3.214   3.365  13.422  0.0249 -0.4309 -0.2664
 7527SOL    HW134043   3.251   3.452  13.439  0.1649 -0.7658  1.1019
 7527SOL    HW234044   3.124   3.386  13.444 -0.1157  0.2218 -1.4480
 7528SOL     OW34045   2.653   1.091   8.521 -0.2564 -0.2121  0.4312
 7528SOL    HW134046   2.566   1.067   8.552  0.5543 -3.2518  0.3812
 7528SOL    HW234047   2.651   1.024   8.453 -2.5844  2.0018 -1.6980
 7529SOL     OW34048   2.052   0.538   9.012  0.7482 -0.3435  0.2595
 7529SOL    HW134049   2.147   0.533   9.023  0.8656 -0.7532 -0.9179
 7529SOL    HW234050   2.040   0.526   8.918  2.8913 -0.7934  0.0253
 7530SOL     OW34051   0.361   0.633   6.410 -0.1060 -0.1594 -0.7854
 7530SOL    HW134052   0.424   0.641   6.339  1.4542 -0.8176  0.5105
 7530SOL    HW234053   0.325   0.721   6.420  0.3805 -0.0458 -0.0163
 7531SOL     OW34054   1.725   1.413  13.647 -0.5308  0.1927  0.7402
 7531SOL    HW134055   1.784   1.486  13.667 -1.4132  1.1838 -0.2644
 7531SOL    HW234056   1.782   1.345  13.683  0.0865 -0.5195 -1.5842
 7532SOL     OW34057   4.420   2.830   5.654 -0.0111  0.0376  0.1481
 7532SOL    HW134058   4.399   2.787   5.736  0.1761 -0.2879  0.0248
 7532SOL    HW234059   4.505   2.863   5.685  0.3888 -1.5530  0.7234
 7533SOL     OW34060   4.264   2.091   4.618  0.7025  0.6173 -0.2346
 7533SOL    HW134061   4.306   2.077   4.533  0.4894 -0.2907 -0.1934
 7533SOL    HW234062   4.176   2.117   4.593  0.4144 -0.5715 -0.4583
 7534SOL     OW34063   0.199   3.982   5.059 -0.4958  0.7173  0.1181
 7534SOL    HW134064   0.112   4.004   5.091 -0.3954  1.0081  0.1901
 7534SOL    HW234065   0.249   3.976   5.140 -1.2015  0.7554  0.5589
 7535SOL     OW34066   3.744   2.603   2.789 -0.1048  0.0819  0.8625
 7535SOL    HW134067   3.786   2.654   2.720 -1.2774  0.6078  0.5419
 7535SOL    HW234068   3.756   2.517   2.750  0.7586  0.8137 -0.4818
 7536SOL     OW34069   3.525   2.677   2.270  0.1214  0.5816  0.1243
 7536SOL    HW134070   3.529   2.773   2.275  0.5604  0.5874 -0.4271
 7536SOL    HW234071   3.602   2.655   2.322  0.3301  2.4351  0.5909
 7537SOL     OW34072   2.626   1.926   6.783  0.3899 -0.5891 -0.4821
 7537SOL    HW134073   2.714   1.961   6.795 -0.1490  2.0685 -4.2413
 7537SOL    HW234074   2.630   1.863   6.710  1.2301  0.3623 -1.2617
 7538SOL     OW34075   0.271   4.370   3.337 -0.0630 -0.3504 -0.9256
 7538SOL    HW134076   0.180   4.384   3.361 -0.2487 -0.7676 -1.3783
 7538SOL    HW234077   0.271   4.291   3.283  0.4813 -0.9034 -0.1224
 7539SOL     OW34078   3.613   3.447  15.740  0.2711 -0.3700  0.0653
 7539SOL    HW134079   3.578   3.535  15.757 -4.0134 -1.8287 -1.2281
 7539SOL    HW234080   3.708   3.463  15.741  0.3088 -0.6452  0.8999
 7540SOL     OW34081   3.591   3.100  13.677  0.1327 -0.5976  0.0892
 7540SOL    HW134082   3.571   3.190  13.650  2.5158 -0.2143 -0.4401
 7540SOL    HW234083   3.545   3.048  13.610 -0.4126  0.3750 -0.2907
 7541SOL     OW34084   2.385   1.174   5.099  0.2861 -0.0026  0.1791
 7541SOL    HW134085   2.433   1.234   5.043  0.1409 -0.7854 -0.7824
 7541SOL    HW234086   2.369   1.108   5.032 -1.0591  0.6612 -0.1549
 7542SOL     OW34087   1.299   3.332   2.553 -0.7015 -0.7478  0.4861
 7542SOL    HW134088   1.274   3.321   2.462 -1.2273 -2.4704  0.8380
 7542SOL    HW234089   1.216   3.347   2.598  0.2836  0.8807  1.7771
 7543SOL     OW34090   3.256   3.698   0.394  0.2254  0.9368  0.2078
 7543SOL    HW134091   3.170   3.656   0.396 -0.4172  2.2680  0.8250
 7543SOL    HW234092   3.235   3.788   0.367 -0.5419  0.9654  0.8883
 7544SOL     OW34093   3.656   4.069  11.403  0.2876 -0.5466  0.4566
 7544SOL    HW134094   3.571   4.088  11.364 -0.6103 -1.0116  2.1859
 7544SOL    HW234095   3.627   4.031  11.486  0.3824  0.5609  0.9982
 7545SOL     OW34096   0.627   3.096   0.348 -0.2676  0.4363  0.0620
 7545SOL    HW134097   0.656   3.183   0.377  1.0615  0.3165 -0.9327
 7545SOL    HW234098   0.672   3.043   0.413  0.1547  1.4960  0.6400
 7546SOL     OW34099   0.541   0.818   3.257 -0.2283 -0.5215  0.9426
 7546SOL    HW134100   0.611   0.838   3.319  1.2592 -1.4658 -0.4184
 7546SOL    HW234101   0.535   0.896   3.201  0.2449 -0.6823  0.6729
 7547SOL     OW34102   2.670   4.696   6.264 -0.0835 -0.1556 -0.2334
 7547SOL    HW134103   2.749   4.670   6.311 -0.3391 -0.7074 -0.1167
 7547SOL    HW234104   2.601   4.709   6.329  0.8260 -1.6598  1.0248
 7548SOL     OW34105   1.655   2.430   3.311  0.2083 -0.6173  0.2994
 7548SOL    HW134106   1.589   2.362   3.296  0.4536 -0.9756  0.8460
 7548SOL    HW234107   1.681   2.403   3.399  0.1953 -0.9771  0.1945
 7549SOL     OW34108   2.780   3.881   5.199  0.1716  0.2240  0.1076
 7549SOL    HW134109   2.772   3.827   5.121  0.7026  1.6864 -0.9538
 7549SOL    HW234110   2.719   3.831   5.254  0.6095  0.8409  1.1515
 7550SOL     OW34111   2.659   0.212   1.619  0.3543 -0.1623  0.0965
 7550SOL    HW134112   2.706   0.134   1.588 -0.6537 -0.3933 -0.8804
 7550SOL    HW234113   2.716   0.287   1.604 -0.2267  0.1108 -0.7342
 7551SOL     OW34114   0.701   4.395  13.567  0.1282  0.1714 -0.0605
 7551SOL    HW134115   0.626   4.357  13.612 -0.3365  0.0088 -0.9903
 7551SOL    HW234116   0.662   4.470  13.522  1.4361  1.4396  0.9061
 7552SOL     OW34117   4.061   2.757   4.763 -0.0534 -0.2871  0.0316
 7552SOL    HW134118   4.086   2.670   4.730  2.0579  0.6693 -0.8456
 7552SOL    HW234119   4.090   2.768   4.853  3.2048  0.2701 -1.1089
 7553SOL     OW34120   2.605   4.307  17.378 -0.0464 -0.4193 -0.1980
 7553SOL    HW134121   2.622   4.258  17.297 -1.5323 -1.8023  0.3387
 7553SOL    HW234122   2.528   4.256  17.403 -0.2517 -0.2732 -0.5184
 7554SOL     OW34123   0.723   2.127   9.274  0.4685 -0.7223 -0.5507
 7554SOL    HW134124   0.770   2.070   9.212 -0.1382  0.7608 -2.3750
 7554SOL    HW234125   0.770   2.110   9.355 -1.7168 -0.3658  0.7857
 7555SOL     OW34126   4.170   3.293   1.670 -0.3563  0.5637 -0.4992
 7555SOL    HW134127   4.186   3.333   1.585  0.5003  1.2369 -0.0186
 7555SOL    HW234128   4.181   3.198   1.660 -0.3218  0.7936 -2.5162
 7556SOL     OW34129   1.329   3.390   4.701  0.2921  0.2056 -0.3070
 7556SOL    HW134130   1.359   3.386   4.610  0.8512 -3.3956  0.0388
 7556SOL    HW234131   1.259   3.454   4.690 -1.0452 -1.2421 -0.1934
 7557SOL     OW34132   1.633   1.044   6.882  0.1943  0.0752 -0.1411
 7557SOL    HW134133   1.594   0.967   6.924 -0.2802 -1.6654 -3.8321
 7557SOL    HW234134   1.695   1.068   6.951  0.5796 -0.5195 -0.2867
 7558SOL     OW34135   2.292   1.340   1.526 -0.2391  0.3042 -0.1289
 7558SOL    HW134136   2.231   1.406   1.493 -1.1775 -0.0843  0.8321
 7558SOL    HW234137   2.226   1.270   1.528 -1.1556  1.1276 -1.8678
 7559SOL     OW34138   0.077   0.399  10.421 -0.5289 -0.3772  0.2435
 7559SOL    HW134139   0.167   0.401  10.388 -1.3645 -0.4439 -2.0813
 7559SOL    HW234140   0.032   0.473  10.379  0.5447 -0.1177 -0.4515
 7560SOL     OW34141   1.400   4.209   8.515 -0.4756 -0.5149 -0.1127
 7560SOL    HW134142   1.453   4.274   8.561 -0.0226 -0.1448 -1.1599
 7560SOL    HW234143   1.375   4.252   8.433 -0.5799  0.3981  0.4069
 7561SOL     OW34144   4.233   0.622   4.776 -0.4027  0.4242 -0.4889
 7561SOL    HW134145   4.230   0.599   4.683  0.9401 -0.8946 -0.2032
 7561SOL    HW234146   4.318   0.665   4.778 -1.1306  1.8266 -0.1619
 7562SOL     OW34147   3.890   0.580  16.282  0.5162 -0.2214  0.1553
 7562SOL    HW134148   3.940   0.529  16.218 -0.6470  1.6670 -2.2654
 7562SOL    HW234149   3.877   0.662  16.233  0.6885 -0.2005  0.1431
 7563SOL     OW34150   1.606   0.784   6.612  0.1996  0.1776  0.4588
 7563SOL    HW134151   1.639   0.719   6.550 -0.3112  1.3306 -1.0202
 7563SOL    HW234152   1.691   0.826   6.623  0.8398 -1.0326  0.1792
 7564SOL     OW34153   4.025   3.296  13.084 -0.2440  0.1794 -0.7148
 7564SOL    HW134154   4.007   3.365  13.021 -0.5156  0.2014 -0.6150
 7564SOL    HW234155   4.041   3.353  13.160  0.9014  1.0077 -1.5788
 7565SOL     OW34156   4.647   0.157   8.335  0.0234  0.5247  0.1206
 7565SOL    HW134157   4.675   0.246   8.353  0.3055  0.7075 -1.2238
 7565SOL    HW234158   4.562   0.165   8.291 -0.5597  0.2238  1.1843
 7566SOL     OW34159   3.486   1.904  14.930 -0.1588  0.0748 -0.2819
 7566SOL    HW134160   3.487   1.876  14.839 -1.0465 -0.1034 -0.2336
 7566SOL    HW234161   3.560   1.853  14.963 -0.3094  0.8322  1.2526
 7567SOL     OW34162   3.000   1.091   1.325 -0.1620 -0.2284 -0.9674
 7567SOL    HW134163   2.919   1.050   1.358  0.5955 -0.5100  0.5282
 7567SOL    HW234164   2.964   1.170   1.286 -1.8174 -0.7224 -0.4951
 7568SOL     OW34165   1.614   2.574   3.569  0.0391  0.2101  0.3178
 7568SOL    HW134166   1.575   2.652   3.607  1.5576  0.3728  1.5280
 7568SOL    HW234167   1.566   2.507   3.618 -0.7867  0.6088  0.0572
 7569SOL     OW34168   0.687   4.352   4.678 -0.0190  0.2575 -0.0141
 7569SOL    HW134169   0.672   4.414   4.749 -1.0352  0.3611 -0.3178
 7569SOL    HW234170   0.717   4.278   4.730  1.1778  0.0842 -0.9521
 7570SOL     OW34171   3.611   4.676   1.833  0.6801 -0.1096 -0.2828
 7570SOL    HW134172   3.629   4.662   1.741 -0.4965 -0.7767 -0.4011
 7570SOL    HW234173   3.563   0.034   1.827 -0.7005 -0.7751  1.5553
 7571SOL     OW34174   4.232   3.964   4.564 -0.4344 -0.5550  0.1966
 7571SOL    HW134175   4.153   3.939   4.610 -0.3703 -0.9427  0.0934
 7571SOL    HW234176   4.230   3.894   4.499  3.2928 -2.2226  1.8486
 7572SOL     OW34177   2.790   4.632   9.093  0.0295  0.0924 -0.4746
 7572SOL    HW134178   2.817   4.709   9.143 -2.8419  0.0688  1.1177
 7572SOL    HW234179   2.874   4.590   9.075 -0.8188 -0.9172 -2.0631
 7573SOL     OW34180   0.557   3.027   7.523 -0.3930 -0.5851 -0.0119
 7573SOL    HW134181   0.602   2.998   7.602 -0.5837 -3.1499 -0.8606
 7573SOL    HW234182   0.619   3.079   7.472  0.3145  1.7970  3.2851
 7574SOL     OW34183   0.190   0.038  10.478  0.0888  0.2384 -0.2554
 7574SOL    HW134184   0.218   4.684  10.431 -1.5755 -0.6947  0.3377
 7574SOL    HW234185   0.268   0.093  10.471 -2.4145  3.9349  0.7678
 7575SOL     OW34186   2.036   0.374   4.492 -0.4946  0.0872  0.3338
 7575SOL    HW134187   2.026   0.437   4.420 -0.8734 -0.0405  0.2766
 7575SOL    HW234188   2.000   0.423   4.566 -0.3871 -1.9229  1.6965
 7576SOL     OW34189   1.935   0.514   4.732  0.2948 -0.0160 -0.5457
 7576SOL    HW134190   1.992   0.591   4.729  0.3506  0.1882  5.4219
 7576SOL    HW234191   1.856   0.552   4.769  0.1281 -0.2612 -0.6480
 7577SOL     OW34192   1.686   1.789   4.870  0.5808 -0.3295 -0.3348
 7577SOL    HW134193   1.664   1.824   4.956  0.7118  0.2690 -0.5442
 7577SOL    HW234194   1.655   1.865   4.821 -1.8709 -0.6158  0.7346
 7578SOL     OW34195   1.998   0.743   3.228  0.4361 -0.3315 -0.2581
 7578SOL    HW134196   1.965   0.654   3.218 -0.3054  0.0263 -0.9461
 7578SOL    HW234197   2.091   0.727   3.246  0.1345 -1.0250  0.6818
 7579SOL     OW34198   4.596   3.586   2.020  0.3478  0.2042  0.0879
 7579SOL    HW134199   4.505   3.560   2.004  1.2548 -2.3495 -0.9505
 7579SOL    HW234200   4.635   3.564   1.935 -0.9476  1.2653 -0.7840
 7580SOL     OW34201   1.351   3.785   3.175  0.9152  0.1699  0.0794
 7580SOL    HW134202   1.280   3.798   3.112 -0.0349  0.4340  1.2090
 7580SOL    HW234203   1.413   3.736   3.122  1.0579 -1.7656  2.0858
 7581SOL     OW34204   0.530   4.227  14.371 -0.3566  0.4491 -0.1812
 7581SOL    HW134205   0.485   4.235  14.455 -1.5939 -0.1843 -0.7963
 7581SOL    HW234206   0.619   4.234  14.407 -0.3951  0.2016 -0.0326
 7582SOL     OW34207   1.768   1.061   8.320  0.4109  0.6618  0.5063
 7582SOL    HW134208   1.723   1.035   8.240 -0.9039 -3.0674  2.4689
 7582SOL    HW234209   1.852   1.092   8.286 -0.6730 -1.6177 -4.1890
 7583SOL     OW34210   1.482   2.105  14.031 -0.0524  0.5594  0.5208
 7583SOL    HW134211   1.420   2.080  14.099 -1.1666  1.7206 -0.0636
 7583SOL    HW234212   1.441   2.076  13.950 -0.7905 -0.4699  1.2638
 7584SOL     OW34213   3.731   4.143   1.138  0.1589 -0.1742 -0.2118
 7584SOL    HW134214   3.722   4.096   1.055 -0.1934  1.4636 -1.0967
 7584SOL    HW234215   3.645   4.125   1.177 -0.4780 -0.4342 -1.7102
 7585SOL     OW34216   2.653   4.040   9.234  0.2994  0.5205  0.0779
 7585SOL    HW134217   2.716   4.044   9.163  1.2962  0.6487  0.9717
 7585SOL    HW234218   2.663   3.949   9.262 -0.5230  0.4708  0.2189
 7586SOL     OW34219   1.137   2.393  15.543  0.5276  0.8498 -0.3032
 7586SOL    HW134220   1.212   2.414  15.599 -0.2571 -0.0619  1.1011
 7586SOL    HW234221   1.091   2.320  15.584  1.3271 -0.0718 -1.0533
 7587SOL     OW34222   3.311   1.273   6.674 -0.0505 -0.7570  0.0776
 7587SOL    HW134223   3.229   1.228   6.656  0.8555 -2.5164  0.3938
 7587SOL    HW234224   3.299   1.316   6.759  0.1145 -1.1408  0.2949
 7588SOL     OW34225   3.297   2.745   4.755 -0.0670  0.0681  0.2787
 7588SOL    HW134226   3.391   2.739   4.767  0.2898 -0.5232 -2.9885
 7588SOL    HW234227   3.285   2.837   4.732 -3.6678 -0.1870  1.0665
 7589SOL     OW34228   1.202   3.061   3.987 -0.4125 -0.1596  0.1624
 7589SOL    HW134229   1.249   3.133   3.945 -1.4151  1.1499  1.2957
 7589SOL    HW234230   1.156   3.113   4.053  0.4871  0.6994  0.1182
 7590SOL     OW34231   3.454   0.129  11.453 -0.1413  0.1569  0.1469
 7590SOL    HW134232   3.442   0.203  11.512  0.7467 -0.1724  0.7550
 7590SOL    HW234233   3.402   0.059  11.492 -0.0692 -0.8421 -1.5551
 7591SOL     OW34234   4.634   0.424   6.138  0.1924  0.0872  1.0722
 7591SOL    HW134235   4.699   0.377   6.087 -2.0129 -0.0290 -1.6278
 7591SOL    HW234236   4.693   0.480   6.189 -0.8799  2.9836 -0.8298
 7592SOL     OW34237   4.313   1.865   2.499  0.1507  0.1909  0.5475
 7592SOL    HW134238   4.333   1.774   2.520 -0.8961  0.2480  1.7669
 7592SOL    HW234239   4.387   1.908   2.456  0.9757 -2.7674 -0.9823
 7593SOL     OW34240   3.138   2.173  10.745  0.1106  0.0272  0.4250
 7593SOL    HW134241   3.103   2.130  10.667 -1.3240  1.4922  0.2501
 7593SOL    HW234242   3.054   2.170  10.792  0.2272 -0.5162  0.5934
 7594SOL     OW34243   1.353   2.659   1.621 -0.3073  0.0461 -0.7132
 7594SOL    HW134244   1.398   2.609   1.688 -1.2748  0.3972  0.1907
 7594SOL    HW234245   1.376   2.602   1.547  2.5007 -1.2334  1.1713
 7595SOL     OW34246   4.567   1.312  12.547 -0.1176  0.1577  0.0111
 7595SOL    HW134247   4.536   1.286  12.460 -2.8246 -1.0206  1.3166
 7595SOL    HW234248   4.481   1.313  12.590 -2.3310 -0.1310 -4.4098
 7596SOL     OW34249   0.320   0.173  12.845 -0.4302  0.0692 -0.3184
 7596SOL    HW134250   0.394   0.114  12.827 -1.8047 -1.6029 -0.5259
 7596SOL    HW234251   0.360   0.259  12.835 -0.6654  0.3752  1.4190
 7597SOL     OW34252   0.243   2.155   7.029 -0.0558 -0.1106  0.3489
 7597SOL    HW134253   0.238   2.096   6.954 -1.7615  0.8204 -0.2586
 7597SOL    HW234254   0.328   2.195   7.011 -0.1636  0.5149  1.2590
 7598SOL     OW34255   3.170   4.329   8.369 -0.4947 -0.2947  0.0495
 7598SOL    HW134256   3.255   4.350   8.408 -0.4747  1.1241 -0.7277
 7598SOL    HW234257   3.118   4.358   8.443 -0.0816  0.3612  0.0849
 7599SOL     OW34258   2.847   1.753   7.689  0.1516  0.2791  0.1578
 7599SOL    HW134259   2.813   1.777   7.776 -2.6811 -0.5956 -0.7043
 7599SOL    HW234260   2.861   1.840   7.651  2.2401  0.4911  1.4108
 7600SOL     OW34261   3.454   2.451   7.228  0.1330  0.5179 -0.3001
 7600SOL    HW134262   3.534   2.407   7.259 -1.3871 -0.2480  2.5282
 7600SOL    HW234263   3.387   2.383   7.240  1.2618 -0.6835 -0.7821
 7601SOL     OW34264   0.142   3.086  10.266  0.0634 -0.6780 -0.1277
 7601SOL    HW134265   0.234   3.062  10.253  0.3330  0.0281  0.4995
 7601SOL    HW234266   0.110   3.032  10.338 -1.1684  1.5678  1.0261
 7602SOL     OW34267   2.705   1.502   6.131 -0.1958 -0.3153 -0.6960
 7602SOL    HW134268   2.676   1.411   6.121  0.2175 -0.4863 -0.3454
 7602SOL    HW234269   2.616   1.537   6.135 -0.6951 -1.4435 -1.9699
 7603SOL     OW34270   3.330   3.902   8.002 -0.0422  0.1982 -0.4280
 7603SOL    HW134271   3.292   3.849   7.931  0.1532 -0.6805  0.1188
 7603SOL    HW234272   3.395   3.841   8.037 -1.0144 -0.1647  0.7467
 7604SOL     OW34273   3.859   0.786   1.602 -0.5057 -0.0320  0.0733
 7604SOL    HW134274   3.811   0.774   1.684  1.4964  0.3648  1.3011
 7604SOL    HW234275   3.847   0.702   1.558  0.1663 -0.0727 -0.0282
 7605SOL     OW34276   2.693   1.071   9.121  0.3720  0.1666  0.2632
 7605SOL    HW134277   2.673   1.114   9.038  2.4448  1.6372  0.5146
 7605SOL    HW234278   2.762   1.015   9.086 -0.8831 -1.7227  0.8051
 7606SOL     OW34279   2.015   1.493   7.976 -0.0274  0.1858  0.0971
 7606SOL    HW134280   2.066   1.412   7.981 -0.5420 -0.2058 -1.1039
 7606SOL    HW234281   1.955   1.466   7.907 -0.1999  0.0075  0.3145
 7607SOL     OW34282   1.077   0.740   8.318 -0.0278 -0.0873  0.3730
 7607SOL    HW134283   1.146   0.806   8.326  0.6914 -0.7618 -0.2785
 7607SOL    HW234284   1.010   0.783   8.264  1.1748  0.7869 -0.4324
 7608SOL     OW34285   3.654   0.605   4.051  0.4668 -0.1269  0.0018
 7608SOL    HW134286   3.660   0.517   4.089 -2.1919 -0.6226 -0.7037
 7608SOL    HW234287   3.689   0.591   3.963 -1.0008 -1.0641 -0.4299
 7609SOL     OW34288   3.362   4.358   0.118 -0.0160  0.3446  0.3766
 7609SOL    HW134289   3.366   4.283   0.058 -0.7362  0.7484 -0.1793
 7609SOL    HW234290   3.457   4.370   0.126 -0.0046  0.6778 -0.2414
 7610SOL     OW34291   0.512   1.000  11.413 -0.1022 -0.2476 -0.1475
 7610SOL    HW134292   0.488   1.084  11.375  2.6380 -0.1747 -1.6832
 7610SOL    HW234293   0.579   0.987  11.346  1.2259  0.0414  1.1183
 7611SOL     OW34294   2.099   2.964   8.683 -0.0264 -0.6387  0.9525
 7611SOL    HW134295   2.123   2.922   8.766  0.4106 -2.2174  0.0146
 7611SOL    HW234296   2.035   3.032   8.708 -0.5115 -0.3132 -1.2312
 7612SOL     OW34297   1.225   3.527  13.115 -0.2427 -0.1218 -0.1363
 7612SOL    HW134298   1.205   3.544  13.023 -0.9303  1.1188  0.2382
 7612SOL    HW234299   1.267   3.441  13.118 -1.1526 -0.4975  2.1445
 7613SOL     OW34300   2.833   4.711   9.381  0.6625 -0.1289  0.0459
 7613SOL    HW134301   2.913   4.659   9.372  0.9523  0.4756 -0.9267
 7613SOL    HW234302   2.763   4.656   9.418 -0.2756  1.7319  1.0301
 7614SOL     OW34303   3.272   1.535   3.914 -0.3511  0.0545 -0.0560
 7614SOL    HW134304   3.302   1.512   4.002  1.7366  0.6921 -0.6153
 7614SOL    HW234305   3.207   1.467   3.896 -0.8841  0.7094 -0.6009
 7615SOL     OW34306   2.631   1.213   3.456 -0.0939  0.3420  0.1368
 7615SOL    HW134307   2.612   1.191   3.547  2.3419  2.4184  1.1591
 7615SOL    HW234308   2.711   1.164   3.435  1.0126  1.7213  1.0544
 7616SOL     OW34309   1.873   0.173   4.333 -0.5469  0.2989 -0.0222
 7616SOL    HW134310   1.876   0.089   4.379 -1.9359  0.5235  0.4969
 7616SOL    HW234311   1.914   0.222   4.404 -0.4772  2.5668 -1.6424
 7617SOL     OW34312   0.490   1.551  13.818  0.1025  0.0924  0.1834
 7617SOL    HW134313   0.420   1.565  13.754 -0.7438 -0.0078  1.0806
 7617SOL    HW234314   0.509   1.462  13.788 -3.6843 -0.2786 -1.2014
 7618SOL     OW34315   3.064   1.361  17.037  0.7769 -0.0318  0.1952
 7618SOL    HW134316   3.032   1.286  17.086  0.5276 -0.5062 -0.6839
 7618SOL    HW234317   3.076   1.420  17.112 -2.6897 -0.5030  1.1153
 7619SOL     OW34318   1.380   2.677   9.706 -0.1236  0.1600  0.5192
 7619SOL    HW134319   1.360   2.711   9.619 -0.6963  1.3842  1.1339
 7619SOL    HW234320   1.475   2.688   9.701 -0.4133  1.0120 -2.6999
 7620SOL     OW34321   4.284   4.215   5.048  0.0168  0.1302  0.5400
 7620SOL    HW134322   4.332   4.268   4.984  0.5129  0.3233  1.0737
 7620SOL    HW234323   4.237   4.154   4.991 -0.5172  0.1823  0.9277
 7621SOL     OW34324   4.017   3.544   5.347  0.0596 -0.2483  0.2400
 7621SOL    HW134325   3.996   3.461   5.305  0.0781 -1.1114  1.9385
 7621SOL    HW234326   3.933   3.587   5.333 -0.0527 -0.7135 -0.4984
 7622SOL     OW34327   4.517   1.651   8.243 -0.4060  0.2756  0.4594
 7622SOL    HW134328   4.461   1.718   8.283  1.9140  1.9608  0.9029
 7622SOL    HW234329   4.572   1.715   8.198  0.2704 -0.8323 -0.2870
 7623SOL     OW34330   3.338   2.520  11.370  0.5592 -0.3023 -0.3219
 7623SOL    HW134331   3.369   2.454  11.432 -1.8287 -1.3308 -0.2252
 7623SOL    HW234332   3.299   2.462  11.304 -0.3933  1.5085 -1.3486
 7624SOL     OW34333   0.060   1.339   5.704 -0.3067  0.0861  0.3787
 7624SOL    HW134334   4.692   1.313   5.702  0.0547 -1.2410  0.8686
 7624SOL    HW234335   0.094   1.250   5.709  0.2652  0.2147 -1.0959
 7625SOL     OW34336   3.205   1.094   2.701  0.4309  0.0850  0.0101
 7625SOL    HW134337   3.287   1.098   2.652  1.0041  0.4488  0.9899
 7625SOL    HW234338   3.170   1.016   2.659 -2.1242  1.6338 -0.7139
 7626SOL     OW34339   2.059   4.586   3.810 -0.1200  0.4149  0.3495
 7626SOL    HW134340   2.146   4.598   3.846  1.1206  1.4268 -2.9105
 7626SOL    HW234341   2.074   4.597   3.716 -1.6908 -0.0227  0.0448
 7627SOL     OW34342   3.916   0.832   4.388  0.4614 -0.2031 -0.3989
 7627SOL    HW134343   3.960   0.766   4.334 -0.7312 -0.0316 -1.5778
 7627SOL    HW234344   3.878   0.781   4.459  1.5922  0.5712  0.7566
 7628SOL     OW34345   3.168   2.008   7.025 -0.1397  0.1025 -0.2977
 7628SOL    HW134346   3.211   2.017   6.940 -0.7369  1.7509 -0.4344
 7628SOL    HW234347   3.197   1.919   7.046  0.8484  0.0462 -1.9103
 7629SOL     OW34348   4.110   4.556   7.857 -0.2644  0.6328  0.5332
 7629SOL    HW134349   4.147   4.469   7.844  1.0714  1.2268  0.3138
 7629SOL    HW234350   4.028   4.541   7.904 -1.1540  0.5308 -1.0335
 7630SOL     OW34351   4.359   2.691  15.191  0.1100 -0.2917  0.4188
 7630SOL    HW134352   4.340   2.659  15.103 -0.7522  1.0179  0.1345
 7630SOL    HW234353   4.440   2.738  15.171 -0.1309  0.5446  1.4119
 7631SOL     OW34354   1.900   2.680  13.464  0.2272 -0.6851 -0.5531
 7631SOL    HW134355   1.945   2.718  13.389  0.6671  1.1365  0.6256
 7631SOL    HW234356   1.809   2.672  13.439  0.1518 -3.7791  0.6047
 7632SOL     OW34357   1.322   0.562   7.609 -0.3933  0.1476  0.2610
 7632SOL    HW134358   1.274   0.508   7.672 -1.0566  1.0368  0.5048
 7632SOL    HW234359   1.411   0.528   7.620 -0.7020 -1.1382 -1.1926
 7633SOL     OW34360   0.514   3.458  11.468  0.1473 -0.2056  0.1207
 7633SOL    HW134361   0.542   3.523  11.533  0.9349  0.1401 -0.5604
 7633SOL    HW234362   0.590   3.420  11.424  0.8876  1.4433 -0.0148
 7634SOL     OW34363   0.469   0.009   1.979 -0.3424  0.0370 -0.0937
 7634SOL    HW134364   0.500   4.676   1.910 -0.7793 -0.0561 -0.2113
 7634SOL    HW234365   0.546   0.065   1.991  0.3658 -0.7755 -0.9032
 7635SOL     OW34366   1.821   4.077  15.440  0.0064  0.4415  0.0087
 7635SOL    HW134367   1.853   4.061  15.529 -0.2883 -3.0633 -0.4971
 7635SOL    HW234368   1.799   3.984  15.438 -0.7077  0.6157 -0.1467
 7636SOL     OW34369   1.942   3.179  14.519 -0.0530  0.0031 -0.0218
 7636SOL    HW134370   1.912   3.235  14.591  1.6242 -0.1997  0.8539
 7636SOL    HW234371   1.862   3.160  14.472 -0.1945 -0.3265  0.3518
 7637SOL     OW34372   0.643   4.607   5.795 -0.8018 -0.4675 -0.3176
 7637SOL    HW134373   0.679   4.683   5.841 -0.4939 -1.3605  0.9212
 7637SOL    HW234374   0.590   4.569   5.866 -1.3700  1.2791  0.1996
 7638SOL     OW34375   3.992   4.009  11.918  0.2185 -0.0836 -0.0234
 7638SOL    HW134376   3.901   3.979  11.925  0.5311 -0.7860  1.0341
 7638SOL    HW234377   3.986   4.104  11.914 -0.4180 -0.2887 -3.5658
 7639SOL     OW34378   1.273   2.735  13.386  0.0698  0.0553  0.4563
 7639SOL    HW134379   1.301   2.659  13.335 -2.6411  0.8654 -2.2977
 7639SOL    HW234380   1.357   2.781  13.379  0.8182 -1.5028 -0.7009
 7640SOL     OW34381   1.156   3.864  13.566 -0.1783 -0.0714  0.3905
 7640SOL    HW134382   1.102   3.907  13.499 -1.8770  0.0340  1.8276
 7640SOL    HW234383   1.246   3.891  13.552 -0.1175  0.0248  0.9752
 7641SOL     OW34384   3.644   3.104  14.123  0.0878  0.2634  0.3654
 7641SOL    HW134385   3.619   3.142  14.039 -1.3706 -0.4425  0.4742
 7641SOL    HW234386   3.736   3.130  14.127  0.4942 -0.5612 -3.9300
 7642SOL     OW34387   3.598   3.600   6.828  0.1611  0.4738  0.0575
 7642SOL    HW134388   3.651   3.570   6.901  0.4652  1.5978  0.3065
 7642SOL    HW234389   3.618   3.537   6.759  1.0331  0.7436  0.0717
 7643SOL     OW34390   3.587   4.539  13.857 -0.8071 -0.1587  0.3487
 7643SOL    HW134391   3.596   4.627  13.823  2.0529 -0.0565  1.3087
 7643SOL    HW234392   3.494   4.535  13.879 -1.2052  0.8465 -1.2075
 7644SOL     OW34393   4.300   3.657   2.791  0.0070  0.6681  0.4269
 7644SOL    HW134394   4.281   3.590   2.725 -1.6389  1.0810  0.4978
 7644SOL    HW234395   4.369   3.622   2.846 -0.2785  1.5807  1.3599
 7645SOL     OW34396   0.337   0.551  10.586 -0.3821  0.7740  0.1200
 7645SOL    HW134397   0.386   0.615  10.534  1.0655 -0.5308 -0.1316
 7645SOL    HW234398   0.356   0.472  10.535 -0.6199 -0.8367  2.5429
 7646SOL     OW34399   2.994   4.384   2.588 -0.4372  0.2441 -0.3979
 7646SOL    HW134400   3.047   4.307   2.569  0.0970  0.8750 -1.5330
 7646SOL    HW234401   3.066   4.446   2.602 -0.6767  0.0619  1.5606
 7647SOL     OW34402   2.091   2.692   6.193 -0.3296  0.6413  0.0451
 7647SOL    HW134403   2.052   2.708   6.279 -0.9357  0.8952 -0.2861
 7647SOL    HW234404   2.055   2.774   6.160 -0.1379  0.5421 -0.4155
 7648SOL     OW34405   0.868   0.443  10.732 -0.3437 -0.3335 -0.0476
 7648SOL    HW134406   0.959   0.466  10.715 -0.0639 -2.2799 -1.1530
 7648SOL    HW234407   0.884   0.379  10.801 -2.5450 -0.5468  0.2604
 7649SOL     OW34408   0.565   1.661   3.963  0.3675  0.0272  0.0136
 7649SOL    HW134409   0.571   1.694   4.053  0.3533  1.0567 -0.3672
 7649SOL    HW234410   0.647   1.695   3.928  1.2282  0.7418  2.7333
 7650SOL     OW34411   3.239   0.448  14.715  0.5154 -0.0857  0.0702
 7650SOL    HW134412   3.146   0.430  14.701  0.3477  0.9284 -0.1194
 7650SOL    HW234413   3.269   0.389  14.784 -1.6849 -0.0049  1.0691
 7651SOL     OW34414   2.619   3.696   7.573  0.5707 -0.0134 -0.0463
 7651SOL    HW134415   2.696   3.678   7.627  0.0430  0.1475  0.7689
 7651SOL    HW234416   2.555   3.651   7.628 -1.0385 -0.2097 -2.0757
 7652SOL     OW34417   0.041   3.634   9.454 -0.1124  0.2266  0.0169
 7652SOL    HW134418   0.092   3.642   9.535  1.6186 -1.6345 -0.8788
 7652SOL    HW234419   0.086   3.560   9.413 -2.5529 -1.8173  0.9861
 7653SOL     OW34420   1.064   4.449   6.121 -0.6509  0.5068  0.1629
 7653SOL    HW134421   1.034   4.490   6.039 -1.0999  1.4390  0.7946
 7653SOL    HW234422   1.088   4.528   6.170  0.6505 -0.1435  0.5621
 7654SOL     OW34423   4.420   3.826   2.021  0.4979 -0.0166  0.2594
 7654SOL    HW134424   4.360   3.760   1.985  0.4068  0.0384  0.3106
 7654SOL    HW234425   4.484   3.838   1.950  0.0108 -0.6141 -0.2823
 7655SOL     OW34426   0.342   3.584  14.870  1.1739 -0.8716  0.6948
 7655SOL    HW134427   0.266   3.526  14.882 -1.4502  2.0747 -1.6527
 7655SOL    HW234428   0.296   3.644  14.812  1.9781  0.6620  1.6539
 7656SOL     OW34429   1.811   3.201   0.814 -0.1366 -0.2667 -0.4579
 7656SOL    HW134430   1.731   3.177   0.861  1.0361 -0.8144  1.2535
 7656SOL    HW234431   1.766   3.250   0.746  0.2410  1.5799  0.6117
 7657SOL     OW34432   2.378   4.067   2.677 -0.2380  0.0699  0.3723
 7657SOL    HW134433   2.305   4.026   2.630 -1.5204  2.4871  0.2260
 7657SOL    HW234434   2.432   3.992   2.702  1.7000  0.6328 -2.1311
 7658SOL     OW34435   4.663   2.761   5.290  0.1954  0.4688  0.0613
 7658SOL    HW134436   0.018   2.709   5.305 -0.3996 -0.6611 -0.7322
 7658SOL    HW234437   4.701   2.849   5.281 -0.1651  0.6864  0.6533
 7659SOL     OW34438   1.532   1.019  11.049 -0.3314 -0.2358 -0.0532
 7659SOL    HW134439   1.604   0.986  11.102 -1.0313 -1.5010  0.1080
 7659SOL    HW234440   1.590   1.054  10.981 -0.0472 -1.0244 -0.2144
 7660SOL     OW34441   2.045   2.532   1.068  0.7314 -0.0155 -0.1207
 7660SOL    HW134442   1.977   2.592   1.099  0.0533  0.9297 -3.4011
 7660SOL    HW234443   1.993   2.455   1.044  2.2036 -0.4197 -2.0281
 7661SOL     OW34444   1.468   2.960  10.640  0.5046 -0.2030  0.3937
 7661SOL    HW134445   1.393   2.996  10.594 -1.3516 -2.1166  1.9483
 7661SOL    HW234446   1.522   2.947  10.562 -0.0088 -0.8871  0.1636
 7662SOL     OW34447   3.685   2.790   7.735 -0.7239 -0.5496 -0.6145
 7662SOL    HW134448   3.714   2.845   7.807 -0.3325 -1.4015 -0.1160
 7662SOL    HW234449   3.720   2.705   7.762  0.9046  0.2335 -0.2658
 7663SOL     OW34450   0.218   3.454  10.063  0.6912 -0.3338 -0.9229
 7663SOL    HW134451   0.232   3.411   9.979  0.0010  0.8451 -1.6394
 7663SOL    HW234452   0.305   3.452  10.103 -0.8696 -0.2422  2.5332
 7664SOL     OW34453   3.861   2.508   4.955 -1.5538 -0.0466  0.0809
 7664SOL    HW134454   3.805   2.559   4.896  3.1366  0.6403 -3.7328
 7664SOL    HW234455   3.849   2.424   4.912 -0.6998  0.0446 -0.3291
 7665SOL     OW34456   0.114   1.038  17.485 -0.3082 -0.6137  0.2399
 7665SOL    HW134457   0.144   0.959  17.531  0.8536  0.8926  2.0555
 7665SOL    HW234458   0.114   1.010  17.394 -2.1808 -1.7534  0.5856
 7666SOL     OW34459   0.948   0.157  12.212 -0.4475  0.2911  0.5459
 7666SOL    HW134460   1.032   0.159  12.257 -0.2096 -2.1971  0.1982
 7666SOL    HW234461   0.968   0.156  12.119 -0.0641 -0.9075  0.6544
 7667SOL     OW34462   4.278   1.494  12.529  0.0625 -0.0253 -0.0654
 7667SOL    HW134463   4.277   1.571  12.472  1.5742  0.2641  0.3142
 7667SOL    HW234464   4.203   1.518  12.585 -0.5903  0.2520 -1.0521
 7668SOL     OW34465   3.223   2.394   3.821  0.0811  0.0317 -0.8431
 7668SOL    HW134466   3.151   2.456   3.835  0.3276  0.5603 -1.9189
 7668SOL    HW234467   3.272   2.450   3.761 -2.7945 -1.6691 -4.7617
 7669SOL     OW34468   1.545   3.105  17.596  0.4055  0.0865 -0.3854
 7669SOL    HW134469   1.569   3.190  17.560  4.2615 -1.1014 -0.5891
 7669SOL    HW234470   1.450   3.117  17.604  0.6784  2.5753 -0.7795
 7670SOL     OW34471   0.408   1.142   7.369 -0.0989  0.5192  0.0187
 7670SOL    HW134472   0.316   1.160   7.352  0.0240  1.6650  0.5903
 7670SOL    HW234473   0.405   1.106   7.458 -3.7815 -1.6965 -1.0327
 7671SOL     OW34474   3.580   2.175   1.144  0.2629 -0.1746  0.2294
 7671SOL    HW134475   3.598   2.235   1.216  1.3048  0.4022 -0.5003
 7671SOL    HW234476   3.663   2.128   1.134  0.1165 -0.5547  0.8309
 7672SOL     OW34477   1.285   2.620   8.708  0.2030  0.2005  0.6978
 7672SOL    HW134478   1.302   2.577   8.624  1.9845  2.2615 -0.0329
 7672SOL    HW234479   1.198   2.653   8.687  0.3378 -1.7841 -3.0174
 7673SOL     OW34480   3.577   1.067   0.913 -0.0057  0.2691 -0.5231
 7673SOL    HW134481   3.581   1.135   0.845  2.6306  3.4384  2.7832
 7673SOL    HW234482   3.483   1.050   0.905 -0.5129  2.5797  0.4455
 7674SOL     OW34483   0.104   0.568   2.967  0.2443  0.4651 -0.4040
 7674SOL    HW134484   0.141   0.565   3.056  0.1327  2.6406 -0.2971
 7674SOL    HW234485   0.181   0.548   2.914  0.5188 -2.9151  1.2044
 7675SOL     OW34486   3.010   4.692   8.813 -0.0025  0.2494  0.6761
 7675SOL    HW134487   3.027   4.625   8.879  1.3976  1.3712  1.4485
 7675SOL    HW234488   2.914   4.697   8.806  0.0114 -2.0596 -0.9766
 7676SOL     OW34489   1.098   3.412   7.282 -0.4773  0.3485  0.3286
 7676SOL    HW134490   1.079   3.486   7.340  0.0362  1.0775 -0.4501
 7676SOL    HW234491   1.018   3.362   7.299 -0.6557  0.2878 -0.7272
 7677SOL     OW34492   1.571   0.149   0.284 -0.7895  0.3119  0.1479
 7677SOL    HW134493   1.585   0.149   0.189 -0.0686 -1.4735  0.2526
 7677SOL    HW234494   1.519   0.229   0.296  0.6748  1.1772  0.7245
 7678SOL     OW34495   2.456   2.238  14.265  0.4418  0.0561 -0.1823
 7678SOL    HW134496   2.470   2.270  14.354 -2.2112  0.0817  0.2318
 7678SOL    HW234497   2.372   2.194  14.282  0.9735 -0.6407  0.6239
 7679SOL     OW34498   2.904   0.729   2.590 -0.0141 -0.5586 -0.1997
 7679SOL    HW134499   2.815   0.695   2.587 -0.4943  0.6499  0.4324
 7679SOL    HW234500   2.908   0.738   2.685 -0.2825 -1.9794 -0.0599
 7680SOL     OW34501   2.276   0.937   2.773  0.1678  0.1819 -0.3533
 7680SOL    HW134502   2.197   0.976   2.812  0.8545  0.5678  0.6498
 7680SOL    HW234503   2.329   1.013   2.750  0.7107 -0.1488 -0.1990
 7681SOL     OW34504   0.612   0.391   6.382  0.4742 -0.2788  0.5822
 7681SOL    HW134505   0.675   0.455   6.416  1.0338  0.4967 -1.9363
 7681SOL    HW234506   0.663   0.356   6.309 -0.7779  0.1088 -0.4797
 7682SOL     OW34507   2.473   0.682   1.626  0.1454  0.5042  0.5524
 7682SOL    HW134508   2.566   0.699   1.641  0.0101  1.4059  0.3670
 7682SOL    HW234509   2.475   0.599   1.578  0.0313  2.5073 -2.9496
 7683SOL     OW34510   4.664   2.735   6.021  0.3934  0.5369 -0.1040
 7683SOL    HW134511   4.723   2.675   6.066 -0.0585  0.3837  0.2856
 7683SOL    HW234512   4.633   2.686   5.944  0.7193 -0.2715  0.2756
 7684SOL     OW34513   1.337   1.044   4.516  0.0376  0.3581  0.2956
 7684SOL    HW134514   1.301   0.956   4.520 -1.7271  1.1414  1.6450
 7684SOL    HW234515   1.383   1.034   4.600 -1.3655  0.2357  1.0500
 7685SOL     OW34516   3.947   0.112   1.313 -0.2748 -0.7806  0.3157
 7685SOL    HW134517   3.925   0.158   1.394 -0.8494  1.1574 -0.9330
 7685SOL    HW234518   4.038   0.142   1.305 -0.5116 -0.1203  0.0737
 7686SOL     OW34519   0.857   4.274   0.398  0.4962 -0.0822 -0.2143
 7686SOL    HW134520   0.872   4.347   0.458 -0.0955  0.9118 -1.2674
 7686SOL    HW234521   0.767   4.285   0.365  1.0730 -1.4729 -2.2781
 7687SOL     OW34522   2.438   4.368   6.044  0.3470 -0.0510 -0.5841
 7687SOL    HW134523   2.496   4.293   6.033  1.4390  0.5124  1.2898
 7687SOL    HW234524   2.436   4.376   6.140 -1.2161 -2.0759 -0.4618
 7688SOL     OW34525   2.101   3.980   9.361 -0.0392 -0.2977  0.4840
 7688SOL    HW134526   2.069   4.069   9.381  0.2911 -0.1437  0.3136
 7688SOL    HW234527   2.190   3.985   9.395  0.3582 -1.6121 -0.3725
 7689SOL     OW34528   2.573   1.526   4.079 -0.0121  0.3542  0.3892
 7689SOL    HW134529   2.580   1.592   4.148 -0.3371 -0.4240  1.1725
 7689SOL    HW234530   2.557   1.584   4.004  0.3466 -0.2561 -0.1566
 7690SOL     OW34531   3.922   3.649   2.465  0.4236 -0.2350 -0.6490
 7690SOL    HW134532   3.903   3.704   2.540  0.5884  1.3871 -1.8072
 7690SOL    HW234533   4.017   3.637   2.467  0.4804  0.0063 -2.1459
 7691SOL     OW34534   3.141   2.018  11.082  0.5258 -0.2029  0.2237
 7691SOL    HW134535   3.065   2.029  11.024  0.2715  0.5035  0.6860
 7691SOL    HW234536   3.153   1.925  11.065 -0.0034 -0.5347  1.6952
 7692SOL     OW34537   2.208   0.860   5.521  0.1768 -0.0755  0.0946
 7692SOL    HW134538   2.185   0.917   5.594  0.5326 -0.2029  0.3058
 7692SOL    HW234539   2.191   0.921   5.449 -1.1114 -1.6039 -0.9022
 7693SOL     OW34540   0.028   2.413   2.950 -0.4703  0.0935  0.1053
 7693SOL    HW134541   0.011   2.491   2.898  0.0878  0.8305  1.0281
 7693SOL    HW234542   0.016   2.355   2.875 -2.5804  0.5631  0.0846
 7694SOL     OW34543   4.226   0.031   7.056  0.6507  0.1111 -0.5521
 7694SOL    HW134544   4.245   4.678   7.110  2.4293 -0.2346 -1.6909
 7694SOL    HW234545   4.314   0.068   7.046  1.3356 -0.6906  2.4867
 7695SOL     OW34546   4.704   1.873  15.112 -0.1699  0.2427  0.3178
 7695SOL    HW134547   4.691   1.932  15.186  1.2540  0.1986  0.5881
 7695SOL    HW234548   4.614   1.845  15.094 -0.4422  2.4346 -1.8994
 7696SOL     OW34549   0.686   2.474   3.250 -0.2432 -0.4191 -1.0639
 7696SOL    HW134550   0.690   2.497   3.343 -1.2953  0.9052 -1.3292
 7696SOL    HW234551   0.627   2.399   3.255 -0.2164 -0.4468 -1.1659
 7697SOL     OW34552   1.965   1.291   5.150  0.3424 -0.6248 -0.4130
 7697SOL    HW134553   1.939   1.324   5.236  0.8557  0.9001 -0.8356
 7697SOL    HW234554   1.997   1.375   5.116 -0.1768 -0.2957 -0.0911
 7698SOL     OW34555   1.741   1.967   6.989  0.1618  0.6686 -0.1193
 7698SOL    HW134556   1.775   1.948   7.076  1.5647  0.3893 -0.7360
 7698SOL    HW234557   1.779   2.051   6.966  1.5010 -0.2453 -1.2541
 7699SOL     OW34558   1.375   2.497  15.863 -0.7762  0.0758 -0.5201
 7699SOL    HW134559   1.307   2.434  15.887 -1.4926  1.3927  0.8350
 7699SOL    HW234560   1.443   2.472  15.926 -0.6353 -2.4337 -1.6643
 7700SOL     OW34561   1.270   0.117  11.866  0.4126  0.4794 -0.1340
 7700SOL    HW134562   1.365   0.112  11.879 -0.0206 -1.3178  2.2466
 7700SOL    HW234563   1.275   0.117  11.771  0.8674 -2.0748 -0.1061
 7701SOL     OW34564   0.699   1.146  13.014 -0.2934 -0.5527  0.1624
 7701SOL    HW134565   0.643   1.195  13.074  0.4696 -0.8065  1.0754
 7701SOL    HW234566   0.688   1.184  12.926 -1.9570 -2.0192 -0.2608
 7702SOL     OW34567   3.511   1.619   8.901 -0.2598  0.2290 -0.9350
 7702SOL    HW134568   3.472   1.558   8.839  0.9927 -1.1654 -0.3606
 7702SOL    HW234569   3.565   1.559   8.952  0.2052  1.5238  0.1288
 7703SOL     OW34570   3.179   0.320   9.034 -0.1983  0.0712  0.2817
 7703SOL    HW134571   3.272   0.298   9.026  0.1798  1.7353  0.0188
 7703SOL    HW234572   3.181   0.335   9.128 -0.6477 -0.7229  0.4176
 7704SOL     OW34573   4.608   3.657  16.344  0.3876 -0.0095  0.1736
 7704SOL    HW134574   4.646   3.569  16.352  1.1989  0.5577  2.4861
 7704SOL    HW234575   4.518   3.630  16.365 -0.1683  2.2346  0.6238
 7705SOL     OW34576   1.957   2.107  16.535  0.2267  0.0682  0.2128
 7705SOL    HW134577   1.985   2.044  16.469 -1.6776  0.8927 -1.3946
 7705SOL    HW234578   1.869   2.130  16.504 -0.2890 -2.0485  0.0883
 7706SOL     OW34579   1.886   0.629  11.209  0.2692 -0.2415  0.3603
 7706SOL    HW134580   1.911   0.543  11.175 -0.5686 -0.2901 -0.1110
 7706SOL    HW234581   1.949   0.690  11.170  0.4492 -0.0121  1.0030
 7707SOL     OW34582   0.422   1.096  17.252 -0.3055  0.3403  0.1827
 7707SOL    HW134583   0.441   1.066  17.341 -0.9246  2.0952  0.9172
 7707SOL    HW234584   0.338   1.057  17.230 -0.5856  1.8482 -1.4565
 7708SOL     OW34585   4.142   3.526   3.179 -0.5121 -0.3447  0.0416
 7708SOL    HW134586   4.224   3.537   3.131 -0.3394  0.7013  0.5661
 7708SOL    HW234587   4.105   3.447   3.141  0.9415 -1.0295  0.0415
 7709SOL     OW34588   4.358   0.342   2.969  0.1289 -0.5249 -0.1142
 7709SOL    HW134589   4.346   0.315   3.060  2.5269 -2.3280 -0.3445
 7709SOL    HW234590   4.438   0.295   2.946  1.0231  0.8726  0.1245
 7710SOL     OW34591   4.640   0.316  13.386  0.8723  0.0942  0.2703
 7710SOL    HW134592   4.628   0.278  13.299 -1.6720  1.7796 -0.1103
 7710SOL    HW234593   4.631   0.236  13.438 -0.4711 -0.8495 -1.4315
 7711SOL     OW34594   3.280   2.479  10.642 -0.2716  0.4863  0.1247
 7711SOL    HW134595   3.201   2.526  10.671  0.5311  0.2788  2.6593
 7711SOL    HW234596   3.265   2.387  10.665 -0.9248  0.6373  0.3190
 7712SOL     OW34597   0.887   3.562   7.407  0.1156 -0.4688 -0.0418
 7712SOL    HW134598   0.906   3.577   7.500 -1.3404 -0.5931  0.2810
 7712SOL    HW234599   0.794   3.537   7.411  0.9522 -3.2486  2.7085
 7713SOL     OW34600   2.550   3.738  16.286  0.1391 -0.4506  0.3716
 7713SOL    HW134601   2.545   3.727  16.381 -0.4847  0.6493  0.4595
 7713SOL    HW234602   2.630   3.791  16.293  0.6686 -1.0231 -1.3766
 7714SOL     OW34603   2.066   1.092   2.823 -0.4266 -0.1965  0.3355
 7714SOL    HW134604   2.060   1.114   2.916 -1.9715 -2.9551  0.8903
 7714SOL    HW234605   2.018   1.168   2.792 -1.9163 -0.5097  1.8695
 7715SOL     OW34606   3.041   0.236   1.720 -0.1733  0.4887  0.1787
 7715SOL    HW134607   2.980   0.308   1.704  1.1026  1.4352 -0.4133
 7715SOL    HW234608   3.000   0.174   1.660  0.2073 -0.1438  0.5749
 7716SOL     OW34609   2.340   3.914  10.882  0.1912 -0.2813 -0.2518
 7716SOL    HW134610   2.382   3.884  10.801  0.4982  1.6030 -0.7785
 7716SOL    HW234611   2.312   3.999  10.847  0.7895 -0.2547 -0.6752
 7717SOL     OW34612   3.502   0.354  10.501  0.2789  0.5382  0.3566
 7717SOL    HW134613   3.514   0.375  10.594  0.4448  1.3576  0.1506
 7717SOL    HW234614   3.494   0.259  10.505 -0.1659  0.6195  1.7023
 7718SOL     OW34615   3.734   3.320  10.048 -0.3476 -0.2727  0.0222
 7718SOL    HW134616   3.658   3.273  10.013  0.9260 -2.2462 -0.1252
 7718SOL    HW234617   3.749   3.272  10.130  0.1876  1.1296  0.7352
 7719SOL     OW34618   2.807   3.700   5.575 -0.1214  0.5810 -0.8687
 7719SOL    HW134619   2.862   3.778   5.583 -0.3629  0.4562  2.0958
 7719SOL    HW234620   2.727   3.741   5.543 -1.0161  0.5755  1.3502
 7720SOL     OW34621   3.447   1.520   7.712 -0.0870  0.4523 -0.1463
 7720SOL    HW134622   3.370   1.501   7.766  0.0465 -1.9492 -0.7606
 7720SOL    HW234623   3.498   1.583   7.762  0.3754 -0.3992  0.4590
 7721SOL     OW34624   2.246   1.344   4.315 -0.3647 -0.4491 -0.2279
 7721SOL    HW134625   2.252   1.249   4.313 -0.0476 -0.4295 -0.1970
 7721SOL    HW234626   2.340   1.363   4.323 -0.5484  0.0963  0.6773
 7722SOL     OW34627   0.152   1.982   2.635 -0.3924 -0.3901 -0.1636
 7722SOL    HW134628   0.243   1.968   2.663 -0.7860 -1.9348  0.3529
 7722SOL    HW234629   0.155   2.045   2.564 -2.5386 -1.1206 -0.9003
 7723SOL     OW34630   0.144   4.517   9.171 -0.1308 -0.1586 -0.3930
 7723SOL    HW134631   0.163   4.501   9.263  1.0911  0.2324 -0.5846
 7723SOL    HW234632   0.120   4.425   9.156  0.8414 -0.2748 -1.2439
 7724SOL     OW34633   4.661   2.636   1.465  0.4443  1.0600  0.0200
 7724SOL    HW134634   4.574   2.603   1.442  0.9193 -1.2255  1.5237
 7724SOL    HW234635   4.647   2.713   1.519  0.3967  0.7298  0.4750
 7725SOL     OW34636   0.720   4.615   4.185  0.9404 -0.7342 -0.0357
 7725SOL    HW134637   0.757   4.610   4.273  1.6312  0.5628 -0.2566
 7725SOL    HW234638   0.765   4.686   4.139  0.1008  0.3795  0.8480
 7726SOL     OW34639   0.321   0.869   2.938 -0.0140 -0.2230 -0.2909
 7726SOL    HW134640   0.344   0.785   2.978 -1.7608 -0.8572 -0.6474
 7726SOL    HW234641   0.340   0.849   2.846  0.1028  0.9623 -0.5196
 7727SOL     OW34642   4.276   4.106   1.998  0.2072  0.2169 -0.4968
 7727SOL    HW134643   4.235   4.085   2.082  0.0514  1.5196 -0.2444
 7727SOL    HW234644   4.346   4.041   2.003  1.1027  1.2185  0.0693
 7728SOL     OW34645   3.775   3.172   2.415  0.2596  0.4219 -0.0278
 7728SOL    HW134646   3.850   3.204   2.466 -0.8336  2.0867  0.5361
 7728SOL    HW234647   3.766   3.083   2.449  0.2067  1.5148  2.8285
 7729SOL     OW34648   4.570   0.524  13.596  0.3274  0.1607  0.3867
 7729SOL    HW134649   4.576   0.496  13.505 -0.1255 -2.0027  1.0359
 7729SOL    HW234650   4.662   0.541  13.617  0.0414  0.6317  1.2561
 7730SOL     OW34651   3.219   3.871   1.119  0.4408 -0.1622 -0.6098
 7730SOL    HW134652   3.171   3.940   1.073  0.5724 -0.2127 -0.8268
 7730SOL    HW234653   3.192   3.887   1.209 -0.4214  2.0183 -1.2366
 7731SOL     OW34654   3.374   1.178  12.303  0.3635 -0.2667 -0.2528
 7731SOL    HW134655   3.399   1.090  12.276 -0.4581 -0.6594  0.2749
 7731SOL    HW234656   3.461   1.218  12.303  0.2086  0.0557  1.5453
 7732SOL     OW34657   3.314   3.818   3.096 -0.4628  0.2502 -0.2148
 7732SOL    HW134658   3.320   3.849   3.006  0.1971  2.8917  0.7559
 7732SOL    HW234659   3.394   3.854   3.135 -1.3771  0.5142  1.4185
 7733SOL     OW34660   1.677   3.527   3.567  0.2430 -0.2398 -0.1634
 7733SOL    HW134661   1.672   3.571   3.651 -0.6178 -0.2856 -0.1861
 7733SOL    HW234662   1.770   3.537   3.547  0.1373 -1.4005 -1.3094
 7734SOL     OW34663   2.797   0.453   1.475  0.0343  0.1960 -0.4268
 7734SOL    HW134664   2.743   0.477   1.400 -0.2384  0.6809 -0.0707
 7734SOL    HW234665   2.878   0.419   1.436  0.5772  1.3155 -0.2856
 7735SOL     OW34666   1.116   2.834  17.667 -0.0305 -0.3903 -0.3106
 7735SOL    HW134667   1.066   2.914  17.684  0.4552  0.0044 -0.7440
 7735SOL    HW234668   1.044   2.772  17.679  0.4909 -0.7395  1.0619
 7736SOL     OW34669   2.739   1.761   6.301 -0.5041  0.4272  0.4053
 7736SOL    HW134670   2.696   1.677   6.281 -2.0370  2.1648 -3.5055
 7736SOL    HW234671   2.758   1.792   6.213  0.5483  1.3203  0.9534
 7737SOL     OW34672   3.516   3.650   4.451 -0.2382  0.6335  0.4170
 7737SOL    HW134673   3.575   3.725   4.462  2.0212 -1.1285  0.3345
 7737SOL    HW234674   3.519   3.636   4.356 -2.3498 -3.3068  0.9572
 7738SOL     OW34675   3.003   3.149   0.085 -0.1531  0.5612 -0.1248
 7738SOL    HW134676   2.966   3.148  17.696  0.6006 -1.8416 -0.4277
 7738SOL    HW234677   3.063   3.223   0.077  0.5872 -0.0182  0.0238
 7739SOL     OW34678   4.538   2.530   0.398  0.2678 -0.1292 -0.3448
 7739SOL    HW134679   4.512   2.514   0.307  2.1977 -0.3385 -0.8549
 7739SOL    HW234680   4.460   2.577   0.427  0.2575  0.1067 -0.7430
 7740SOL     OW34681   1.386   2.447  10.075  0.5016 -0.3762  0.0591
 7740SOL    HW134682   1.428   2.433  10.159 -0.1046 -2.7633 -0.0443
 7740SOL    HW234683   1.443   2.521  10.052 -0.8730  0.6274 -0.1646
 7741SOL     OW34684   1.372   2.621   4.698  0.0431 -0.5850  0.3403
 7741SOL    HW134685   1.452   2.599   4.651 -0.6031 -1.0396 -0.5379
 7741SOL    HW234686   1.348   2.700   4.648  3.4515  0.9299  1.1169
 7742SOL     OW34687   3.269   1.536   6.494  0.2501 -0.0455 -0.2784
 7742SOL    HW134688   3.268   1.484   6.575 -0.6688  0.6239  0.1411
 7742SOL    HW234689   3.318   1.613   6.523  1.0531  0.0203 -1.8390
 7743SOL     OW34690   3.622   2.215   3.501 -0.7839  0.4568  0.0780
 7743SOL    HW134691   3.574   2.289   3.465 -1.3343  0.7740  1.4462
 7743SOL    HW234692   3.639   2.172   3.418  0.0159  1.8279 -0.4679
 7744SOL     OW34693   3.872   0.188   1.637 -0.2882 -0.1379  0.1525
 7744SOL    HW134694   3.967   0.203   1.629 -0.6200  1.1537 -1.5034
 7744SOL    HW234695   3.841   0.276   1.654  2.1979  0.6935  0.3718
 7745SOL     OW34696   3.449   3.512   8.636 -0.6412  0.0381  0.2269
 7745SOL    HW134697   3.477   3.514   8.544  2.5137  1.3672  1.2485
 7745SOL    HW234698   3.534   3.529   8.675 -0.6299  0.7383 -0.0948
 7746SOL     OW34699   2.379   2.619  13.578 -0.1170 -0.0537  0.1703
 7746SOL    HW134700   2.316   2.613  13.650 -0.0235  1.8489  0.3861
 7746SOL    HW234701   2.407   2.710  13.578  0.5280 -0.2590  1.7539
 7747SOL     OW34702   0.356   4.220   5.125 -0.4200 -0.6025  0.2759
 7747SOL    HW134703   0.261   4.204   5.118 -0.9099  2.1613  0.8353
 7747SOL    HW234704   0.358   4.292   5.188  0.5803 -0.4190  0.0363
 7748SOL     OW34705   1.740   4.486   3.763  0.1344 -0.1245  0.1198
 7748SOL    HW134706   1.773   4.413   3.711  1.7796  1.5555 -1.2235
 7748SOL    HW234707   1.793   4.470   3.841 -1.1556 -0.1868  0.9752
 7749SOL     OW34708   1.673   0.628   5.065 -0.1796 -0.6161 -0.2764
 7749SOL    HW134709   1.617   0.685   5.116 -0.1867  0.7346 -1.8022
 7749SOL    HW234710   1.762   0.632   5.102  0.3928 -1.1012 -1.5961
 7750SOL     OW34711   0.653   4.464   2.183  0.0164 -0.1799 -0.3068
 7750SOL    HW134712   0.632   4.558   2.182  1.0533  0.0672  1.3632
 7750SOL    HW234713   0.702   4.452   2.102  0.3800  0.1867 -0.1404
 7751SOL     OW34714   0.009   1.930  14.511 -0.4626  0.1043  0.6349
 7751SOL    HW134715   4.697   1.880  14.583 -2.2455  0.7022  0.1556
 7751SOL    HW234716   4.676   1.900  14.440 -2.1669  0.6918  1.7635
 7752SOL     OW34717   3.663   3.376   3.628 -0.3583 -0.1990 -0.0926
 7752SOL    HW134718   3.642   3.323   3.551  1.2442 -1.9547  0.6846
 7752SOL    HW234719   3.580   3.421   3.644  0.6555  1.7082 -0.2268
 7753SOL     OW34720   4.490   1.316   4.084  0.0544  0.4734 -0.6582
 7753SOL    HW134721   4.561   1.303   4.146  1.7185 -0.5441 -2.8131
 7753SOL    HW234722   4.464   1.407   4.099  2.0157  0.6128  1.8363
 7754SOL     OW34723   1.914   1.568  13.761 -0.5471  0.0730 -0.2395
 7754SOL    HW134724   1.864   1.648  13.775  0.1718  0.6681 -1.0508
 7754SOL    HW234725   1.987   1.571  13.823 -1.4386  1.9043  0.7236
 7755SOL     OW34726   2.067   2.947   6.092 -0.6681  0.3741 -0.5553
 7755SOL    HW134727   2.135   2.994   6.139 -1.0593  1.2566 -0.8671
 7755SOL    HW234728   2.056   2.998   6.012  1.7013  1.2018 -0.3227
 7756SOL     OW34729   4.433   1.709   6.894 -0.4917  0.6597  0.4090
 7756SOL    HW134730   4.415   1.644   6.962 -0.2402 -0.0268 -0.1784
 7756SOL    HW234731   4.372   1.695   6.822 -0.1476 -1.1112  0.4522
 7757SOL     OW34732   4.181   2.541   2.707  0.8237  0.3084 -0.0719
 7757SOL    HW134733   4.250   2.495   2.755  3.9030  1.6645 -3.2336
 7757SOL    HW234734   4.220   2.558   2.622  0.4201 -0.7488 -0.4755
 7758SOL     OW34735   0.508   1.679   0.119  0.1884  0.5835 -0.6195
 7758SOL    HW134736   0.506   1.583   0.125  0.0929  0.6971  1.0548
 7758SOL    HW234737   0.490   1.695   0.211 -1.4660  3.7514 -1.5095
 7759SOL     OW34738   1.391   1.421  10.311 -0.2268 -0.2246 -0.3499
 7759SOL    HW134739   1.401   1.391  10.221 -2.5095  1.4701 -1.1752
 7759SOL    HW234740   1.408   1.339  10.356 -0.7977  0.0867  0.4263
 7760SOL     OW34741   1.333   1.795   3.941  0.5902  0.3120  0.3529
 7760SOL    HW134742   1.277   1.778   4.017  1.3607  0.0307  0.8548
 7760SOL    HW234743   1.271   1.805   3.869  0.4248  1.2946  0.6240
 7761SOL     OW34744   2.632   0.563   3.433  0.3727 -0.5871  0.0548
 7761SOL    HW134745   2.643   0.469   3.421  0.1758 -0.5458 -0.4164
 7761SOL    HW234746   2.537   0.576   3.441  0.4154  0.1051 -0.6143
 7762SOL     OW34747   1.086   2.489  14.154  0.5601  0.3812 -0.3364
 7762SOL    HW134748   1.091   2.396  14.178 -1.3658 -0.2316 -2.2720
 7762SOL    HW234749   0.993   2.508  14.156  0.8347  1.5602  1.3414
 7763SOL     OW34750   1.550   2.770   7.969  0.4741  0.0752 -0.4840
 7763SOL    HW134751   1.549   2.676   7.949 -1.5314  0.0528 -0.2968
 7763SOL    HW234752   1.615   2.806   7.909  0.0458 -2.1069 -2.2604
 7764SOL     OW34753   4.574   1.720  10.059  0.4640 -0.0670 -0.8594
 7764SOL    HW134754   4.555   1.719  10.153 -0.6058 -2.6064 -1.0907
 7764SOL    HW234755   4.630   1.797  10.049  0.5579  0.2154  1.8730
 7765SOL     OW34756   0.024   3.667  10.257  0.9480 -0.1322  0.4952
 7765SOL    HW134757   4.668   3.706  10.221  0.7588 -0.6848  0.3091
 7765SOL    HW234758   0.031   3.703  10.345  2.6432 -0.9574  0.6942
 7766SOL     OW34759   1.691   4.367   7.733 -0.0634 -0.1804 -0.5174
 7766SOL    HW134760   1.753   4.425   7.777 -0.1007 -0.1713 -0.4770
 7766SOL    HW234761   1.743   4.304   7.682  1.8196  0.4389  0.6491
 7767SOL     OW34762   0.481   0.941   9.109  0.2947  0.4845  0.3545
 7767SOL    HW134763   0.462   0.996   9.185  1.9816  0.2399  0.9539
 7767SOL    HW234764   0.427   0.863   9.121  1.0910 -0.0950  0.1564
 7768SOL     OW34765   0.791   0.215   0.769  0.0620  0.1044 -0.0891
 7768SOL    HW134766   0.873   0.211   0.720  1.7541 -0.8605  2.8454
 7768SOL    HW234767   0.816   0.248   0.856  1.7032 -0.0959 -0.4944
 7769SOL     OW34768   4.239   3.901   5.460  0.7003  0.1850  0.1776
 7769SOL    HW134769   4.258   3.835   5.527  0.3447  1.0588  1.1358
 7769SOL    HW234770   4.208   3.842   5.391 -1.0611  1.6397 -0.2659
 7770SOL     OW34771   4.466   0.785   4.425  0.2980  0.0579 -0.3490
 7770SOL    HW134772   4.559   0.761   4.422  0.1986 -0.2760 -0.9134
 7770SOL    HW234773   4.424   0.711   4.381 -2.5725  1.8176 -0.5383
 7771SOL     OW34774   0.850   0.159   3.634 -0.3711 -0.2658 -0.3523
 7771SOL    HW134775   0.942   0.136   3.646 -0.7887 -1.2155  1.0662
 7771SOL    HW234776   0.811   0.074   3.612  0.5154 -0.9287  0.6010
 7772SOL     OW34777   1.001   0.869   2.159  0.0757  0.3127  0.8595
 7772SOL    HW134778   1.014   0.943   2.218 -1.3468 -0.1860  1.7818
 7772SOL    HW234779   1.094   0.857   2.138 -0.8523  0.8230 -3.5912
 7773SOL     OW34780   4.182   2.802   8.338  0.6185 -0.4115 -0.0293
 7773SOL    HW134781   4.264   2.809   8.387  0.5151  2.8971 -0.3506
 7773SOL    HW234782   4.175   2.886   8.294 -0.1926  1.0351  2.8250
 7774SOL     OW34783   2.451   0.658  17.681  0.2767  0.1117 -0.3372
 7774SOL    HW134784   2.392   0.716  17.634 -0.1212  1.1338  1.4330
 7774SOL    HW234785   2.416   0.681   0.067  0.6063 -2.4861  0.5101
 7775SOL     OW34786   3.475   4.465   2.677 -0.0634 -0.2368 -0.3501
 7775SOL    HW134787   3.522   4.465   2.761  1.4241  0.0409 -1.1947
 7775SOL    HW234788   3.502   4.547   2.637  0.6077  0.4708  1.5229
 7776SOL     OW34789   3.611   3.887   7.343  0.1788 -0.4739  0.0468
 7776SOL    HW134790   3.651   3.970   7.369 -0.5230 -0.0341 -0.2960
 7776SOL    HW234791   3.525   3.898   7.384  0.8430  0.0025  1.3129
 7777SOL     OW34792   0.926   1.335   1.526  0.0280 -0.4871 -0.4733
 7777SOL    HW134793   0.960   1.338   1.436 -1.0400  0.7106 -0.8315
 7777SOL    HW234794   0.834   1.311   1.512 -0.4306  1.7323 -1.2140
 7778SOL     OW34795   0.425   4.655   3.182 -0.0018  0.4787  0.6286
 7778SOL    HW134796   0.365   4.716   3.138  0.3101  0.4810  0.2072
 7778SOL    HW234797   0.362   4.624   3.247 -1.4884 -0.5253 -1.2720
 7779SOL     OW34798   3.716   3.745   6.155 -0.2968  0.1460  0.1330
 7779SOL    HW134799   3.803   3.758   6.116 -0.5788  2.4348  0.2740
 7779SOL    HW234800   3.725   3.799   6.234  1.5188 -0.8233  0.5930
 7780SOL     OW34801   0.487   0.091   6.488  0.4219 -0.5572 -0.4904
 7780SOL    HW134802   0.518   0.135   6.409  0.2830 -1.2297 -0.9142
 7780SOL    HW234803   0.393   0.107   6.493  0.2841 -1.4470 -0.1868
 7781SOL     OW34804   0.068   3.290  13.114  0.1746 -0.1497 -0.0893
 7781SOL    HW134805   0.106   3.377  13.112  0.4770 -0.2347  2.0051
 7781SOL    HW234806   0.131   3.246  13.172  0.5280 -1.0454 -1.1388
 7782SOL     OW34807   3.923   3.260   2.613  0.0011  0.1325 -0.1098
 7782SOL    HW134808   4.010   3.244   2.576  0.7379  0.5860  1.4240
 7782SOL    HW234809   3.931   3.238   2.706  0.2191 -1.1756 -0.4311
 7783SOL     OW34810   4.157   4.041   4.888  0.1755 -0.5245 -0.1191
 7783SOL    HW134811   4.083   4.080   4.841  1.0743  2.3303  0.7833
 7783SOL    HW234812   4.141   3.949   4.870 -0.6776 -0.8748  2.4729
 7784SOL     OW34813   0.779   0.566   5.589  0.2578  0.1616  0.6108
 7784SOL    HW134814   0.769   0.616   5.508 -2.3932 -0.1452  0.7588
 7784SOL    HW234815   0.734   0.485   5.563 -2.1365  1.8851 -0.6230
 7785SOL     OW34816   1.486   1.875   7.382 -0.3354  0.0948  0.4847
 7785SOL    HW134817   1.446   1.936   7.321  0.5013 -0.0455 -0.1962
 7785SOL    HW234818   1.559   1.834   7.336 -0.5243  0.4233 -0.1012
 7786SOL     OW34819   3.311   0.776  14.784  0.1695 -0.4837  0.3328
 7786SOL    HW134820   3.393   0.726  14.780 -0.1720 -1.1028  1.1266
 7786SOL    HW234821   3.249   0.713  14.820 -1.4515 -0.2142 -1.9712
 7787SOL     OW34822   2.659   1.832   5.771  0.3852 -0.0078  0.2662
 7787SOL    HW134823   2.683   1.739   5.764  0.7421 -0.1587  3.5637
 7787SOL    HW234824   2.722   1.869   5.709  2.8552 -1.8868  1.6368
 7788SOL     OW34825   1.800   4.189   2.012  0.0308 -0.5758  0.6818
 7788SOL    HW134826   1.858   4.194   1.937 -1.0085 -2.0099 -0.2183
 7788SOL    HW234827   1.745   4.112   1.996 -0.4580  0.1575 -1.0555
 7789SOL     OW34828   0.306   3.033   7.388 -0.2792 -0.3397  0.1868
 7789SOL    HW134829   0.306   3.003   7.297  1.3926 -1.2971  0.4939
 7789SOL    HW234830   0.399   3.042   7.412 -0.6184 -1.3763  1.8917
 7790SOL     OW34831   2.188   3.576  10.181 -0.2188 -0.0518 -0.4895
 7790SOL    HW134832   2.160   3.562  10.090  1.3495  3.4238 -1.4942
 7790SOL    HW234833   2.168   3.669  10.184  0.2944 -0.0149  1.9717
 7791SOL     OW34834   0.915   0.552  11.593  0.2713  0.3764  0.6997
 7791SOL    HW134835   0.966   0.510  11.523 -0.1660  0.4487  0.3440
 7791SOL    HW234836   0.855   0.483  11.619  1.5046 -1.4459 -1.3440
 7792SOL     OW34837   1.817   0.014  16.821  0.9436  0.8279  0.7669
 7792SOL    HW134838   1.794   0.107  16.830 -1.9295  0.4327 -2.4514
 7792SOL    HW234839   1.902   0.017  16.778  0.1572 -1.4887 -0.8990
 7793SOL     OW34840   2.352   4.504  15.406 -0.2105 -0.1015 -0.4116
 7793SOL    HW134841   2.372   4.410  15.405  1.8770  0.3573 -2.1552
 7793SOL    HW234842   2.353   4.516  15.501 -1.3629 -2.0173 -0.1543
 7794SOL     OW34843   3.647   4.018   2.780  0.0222 -0.0083 -0.1043
 7794SOL    HW134844   3.556   4.048   2.777 -0.1618 -0.6672 -1.3626
 7794SOL    HW234845   3.686   4.104   2.771 -0.0717 -0.0250 -0.7035
 7795SOL     OW34846   2.722   4.227   4.337  0.1155 -0.7638  0.1019
 7795SOL    HW134847   2.644   4.261   4.381  0.2319 -2.1437  1.3481
 7795SOL    HW234848   2.729   4.286   4.261 -0.1625  0.5188  1.0743
 7796SOL     OW34849   1.619   2.248   1.187  0.5937  0.5032 -0.1215
 7796SOL    HW134850   1.612   2.169   1.134 -0.4454  0.3492  0.2468
 7796SOL    HW234851   1.547   2.252   1.250  1.5871  0.6237  1.0015
 7797SOL     OW34852   1.607   1.376  13.407 -0.2842 -0.0881 -0.1430
 7797SOL    HW134853   1.688   1.401  13.362 -0.9284 -0.7592 -1.6567
 7797SOL    HW234854   1.633   1.391  13.498 -2.8157  0.4704  0.4800
 7798SOL     OW34855   3.193   2.828   1.599  0.0092  0.2754 -0.4390
 7798SOL    HW134856   3.213   2.734   1.609  4.2547  1.2315  0.1289
 7798SOL    HW234857   3.252   2.870   1.662 -0.7940  0.3716  0.2482
 7799SOL     OW34858   3.488   1.761   2.871  0.6120 -0.3266 -0.1684
 7799SOL    HW134859   3.491   1.747   2.777 -0.7569 -1.0165 -0.1153
 7799SOL    HW234860   3.552   1.697   2.902  2.0156  0.6969 -0.9158
 7800SOL     OW34861   0.236   4.695   1.205 -0.0605 -0.2532  0.5891
 7800SOL    HW134862   0.179   4.639   1.259 -3.2397  2.3093 -0.1697
 7800SOL    HW234863   0.177   0.004   1.138 -0.7174  0.5257  1.5393
 7801SOL     OW34864   1.566   1.835  11.655  0.4607 -0.1062  0.1153
 7801SOL    HW134865   1.588   1.799  11.741 -0.8466  0.0998  0.5447
 7801SOL    HW234866   1.495   1.779  11.625 -0.0152  0.0562  0.9127
 7802SOL     OW34867   4.500   4.036   7.471 -0.7064 -0.3521  0.3045
 7802SOL    HW134868   4.567   4.096   7.438  1.0924 -1.0741  2.6566
 7802SOL    HW234869   4.434   4.079   7.417 -0.5246 -1.6462 -0.9425
 7803SOL     OW34870   2.335   0.972   9.135 -0.5021 -0.4016 -0.2394
 7803SOL    HW134871   2.402   0.981   9.202 -0.9765  0.1946  0.1493
 7803SOL    HW234872   2.293   0.891   9.165  2.2485 -2.0154 -0.7650
 7804SOL     OW34873   2.130   3.481  12.416  0.4490 -0.2379 -0.2451
 7804SOL    HW134874   2.068   3.423  12.460 -0.3483  1.0716  0.3471
 7804SOL    HW234875   2.068   3.541  12.374  0.5444 -0.8323 -1.2467
 7805SOL     OW34876   0.998   0.454   7.231 -0.0164  0.6264  0.1085
 7805SOL    HW134877   0.976   0.363   7.248 -0.6333  0.9333  0.9409
 7805SOL    HW234878   1.087   0.461   7.266  1.0927 -1.5378 -2.2367
 7806SOL     OW34879   2.871   3.606   2.300  0.5076 -0.0537  0.2595
 7806SOL    HW134880   2.787   3.639   2.333  1.4423  1.4705  1.0723
 7806SOL    HW234881   2.834   3.547   2.234 -0.9346 -0.6206  1.5624
 7807SOL     OW34882   2.440   2.977   2.766 -0.2390 -0.0700 -0.0071
 7807SOL    HW134883   2.510   2.961   2.830  0.3994  2.4712 -0.0827
 7807SOL    HW234884   2.482   3.011   2.687 -0.3038  1.5714  0.6729
 7808SOL     OW34885   2.777   2.889  16.285 -0.1132  0.4172 -0.0948
 7808SOL    HW134886   2.817   2.869  16.370 -0.1572  2.5722  0.4476
 7808SOL    HW234887   2.685   2.893  16.311  0.3115  1.6334  1.2505
 7809SOL     OW34888   1.463   3.988   3.313 -0.8752 -0.3006  0.1744
 7809SOL    HW134889   1.411   3.930   3.258 -0.1822  1.2680 -2.1493
 7809SOL    HW234890   1.548   3.946   3.299 -1.6317 -1.7899  0.0932
 7810SOL     OW34891   3.118   4.079  13.860 -0.0477 -0.5075 -0.4355
 7810SOL    HW134892   3.033   4.109  13.827 -0.5658 -0.3181  1.0590
 7810SOL    HW234893   3.098   4.013  13.926  1.0378 -0.0126  0.3922
 7811SOL     OW34894   2.052   1.163   4.936 -0.0704  0.2124 -0.2426
 7811SOL    HW134895   2.109   1.098   4.977 -0.2937  0.6312  0.7183
 7811SOL    HW234896   2.010   1.184   5.019 -0.9576 -0.8090 -0.4327
 7812SOL     OW34897   0.472   3.886   8.978 -0.5156 -0.1872 -0.2434
 7812SOL    HW134898   0.473   3.938   8.898  0.0699  0.9053  0.4747
 7812SOL    HW234899   0.420   3.942   9.036  2.5786  1.3595  1.0272
 7813SOL     OW34900   2.909   0.138   0.541 -0.9903 -0.5549  0.2316
 7813SOL    HW134901   2.899   0.222   0.585  1.2699 -0.9478  1.5195
 7813SOL    HW234902   2.847   0.150   0.469 -0.2223 -0.8200 -0.4705
 7814SOL     OW34903   3.685   2.419   8.756  0.3730 -0.3891 -0.4111
 7814SOL    HW134904   3.743   2.452   8.825  0.5718  2.5401 -2.0025
 7814SOL    HW234905   3.598   2.426   8.797  0.7338  0.1487  0.2561
 7815SOL     OW34906   4.349   3.328   3.829 -0.1653 -0.4318 -0.8355
 7815SOL    HW134907   4.366   3.264   3.898 -0.6731  0.3062 -0.0222
 7815SOL    HW234908   4.372   3.280   3.749 -1.5429 -1.7375 -0.4330
 7816SOL     OW34909   1.440   2.563   0.456 -0.0247 -0.1638  0.0618
 7816SOL    HW134910   1.529   2.568   0.422 -0.6375 -1.8227 -1.7312
 7816SOL    HW234911   1.445   2.469   0.472 -3.8438 -0.8126 -2.5433
 7817SOL     OW34912   4.250   3.515  15.419  0.3520 -0.5498  0.0805
 7817SOL    HW134913   4.270   3.588  15.478 -0.7831 -0.7626  0.7337
 7817SOL    HW234914   4.234   3.443  15.479 -2.4214 -0.2363 -0.2879
 7818SOL     OW34915   2.238   4.251   0.716  0.3198  0.0878  0.4044
 7818SOL    HW134916   2.187   4.228   0.794 -1.5852  0.6025 -0.6925
 7818SOL    HW234917   2.248   4.344   0.737 -0.3952  0.3330 -0.3443
 7819SOL     OW34918   1.692   0.610   7.015  0.3376  0.3164  0.1541
 7819SOL    HW134919   1.617   0.622   6.957  0.6285  1.4224  0.0122
 7819SOL    HW234920   1.661   0.674   7.079  1.1986 -0.2945  1.1819
 7820SOL     OW34921   4.241   1.659   7.453  0.2753 -0.2143  0.1961
 7820SOL    HW134922   4.323   1.628   7.491 -0.5022  0.4966  2.5079
 7820SOL    HW234923   4.207   1.576   7.421 -1.4802  0.2836  0.7694
 7821SOL     OW34924   3.919   4.156  13.367  0.4072  0.8373 -0.2125
 7821SOL    HW134925   3.985   4.198  13.422 -1.0443  0.8105  1.5487
 7821SOL    HW234926   3.968   4.075  13.354  0.5057  0.5874  1.6392
 7822SOL     OW34927   4.463   4.687   2.354  0.3829  0.2532  0.2413
 7822SOL    HW134928   4.391   4.650   2.303  1.4385 -2.1692  0.4808
 7822SOL    HW234929   4.434   0.053   2.367  0.7993  0.6322 -1.5153
 7823SOL     OW34930   0.133   0.644  13.584  0.6242  0.4461 -0.2180
 7823SOL    HW134931   0.110   0.642  13.677  0.9217  0.4137 -0.1433
 7823SOL    HW234932   0.119   0.737  13.566 -0.6911 -0.1695 -2.3338
 7824SOL     OW34933   1.462   0.511  16.410 -0.7245  0.5498  1.0784
 7824SOL    HW134934   1.431   0.600  16.392 -1.5969  0.3815  1.7305
 7824SOL    HW234935   1.491   0.520  16.501 -1.8050  0.1500  1.4674
 7825SOL     OW34936   4.314   4.578   8.471  1.0527 -0.1635 -0.2587
 7825SOL    HW134937   4.264   4.547   8.547  0.7446 -0.6292 -0.6527
 7825SOL    HW234938   4.392   4.523   8.475  0.3207 -1.3537 -2.4558
 7826SOL     OW34939   3.903   3.420  15.727 -0.5164  0.0456 -0.4361
 7826SOL    HW134940   3.907   3.389  15.637  0.7132 -1.9522  0.3181
 7826SOL    HW234941   3.976   3.370  15.762  0.6596  1.7318 -0.4369
 7827SOL     OW34942   4.120   0.897   8.504  0.4949 -0.3646 -0.0899
 7827SOL    HW134943   4.090   0.871   8.416  0.9150  0.2632 -0.4163
 7827SOL    HW234944   4.101   0.817   8.554  3.7398 -0.5675  0.8072
 7828SOL     OW34945   3.683   3.440  15.460  0.4047 -0.2795  0.1000
 7828SOL    HW134946   3.669   3.436  15.554 -1.5768 -1.4086 -0.2459
 7828SOL    HW234947   3.778   3.441  15.450  0.4444 -2.0746  0.2539
 7829SOL     OW34948   4.391   0.275  10.372  0.4638  0.0006 -0.2138
 7829SOL    HW134949   4.392   0.229  10.456  0.9236  1.6091  0.6606
 7829SOL    HW234950   4.468   0.330  10.385 -0.7810  1.6972 -0.0061
 7830SOL     OW34951   1.131   1.714   3.044  0.1385 -0.3329 -0.6577
 7830SOL    HW134952   1.187   1.716   2.966  0.2753  4.8147 -0.3880
 7830SOL    HW234953   1.105   1.806   3.038  1.9361  0.2100 -0.0615
 7831SOL     OW34954   2.314   3.744   7.592 -0.2406  0.2881  0.2852
 7831SOL    HW134955   2.336   3.654   7.616 -2.8501 -0.3647  0.1914
 7831SOL    HW234956   2.305   3.792   7.674  0.0706  2.0597 -0.7143
 7832SOL     OW34957   1.721   3.944  10.435  0.6254  0.1734  0.1234
 7832SOL    HW134958   1.667   3.982  10.504  1.2317  1.0083  0.1277
 7832SOL    HW234959   1.809   3.936  10.471  0.6030 -0.9140 -0.0684
 7833SOL     OW34960   2.405   0.087  12.355 -0.1446 -0.2105 -0.5129
 7833SOL    HW134961   2.387   0.023  12.286 -0.9141 -0.3516 -0.1853
 7833SOL    HW234962   2.448   0.155  12.304  2.7607 -0.1803  1.9822
 7834SOL     OW34963   3.267   3.846   5.888  0.3773 -0.4633 -0.1649
 7834SOL    HW134964   3.321   3.776   5.925 -0.1525 -0.5861  0.3757
 7834SOL    HW234965   3.210   3.795   5.830  1.6737  0.2408 -2.0272
 7835SOL     OW34966   3.396   4.510   4.205  0.1844  0.3567  0.2227
 7835SOL    HW134967   3.359   4.437   4.155  1.9493  0.9290 -1.9389
 7835SOL    HW234968   3.352   4.577   4.152 -1.2692 -1.4329 -0.8318
 7836SOL     OW34969   2.572   2.252   3.403 -0.5942  0.4428 -0.4349
 7836SOL    HW134970   2.608   2.324   3.352 -0.9470  0.3698 -0.7871
 7836SOL    HW234971   2.575   2.296   3.487  0.4929  0.0384 -0.2613
 7837SOL     OW34972   2.784   3.819  13.381  0.0845  0.2687 -0.5657
 7837SOL    HW134973   2.734   3.750  13.338  1.3008 -0.7875 -0.2853
 7837SOL    HW234974   2.742   3.830  13.466  1.6054  0.1828  0.1878
 7838SOL     OW34975   1.093   3.481  12.346  0.4006 -0.7020  0.2504
 7838SOL    HW134976   1.066   3.572  12.360  0.8663 -0.7161  1.2301
 7838SOL    HW234977   1.015   3.433  12.372 -0.9161  1.9976  1.2986
 7839SOL     OW34978   2.670   2.482   8.375 -0.1113 -0.1701  0.0388
 7839SOL    HW134979   2.681   2.529   8.457 -2.1505  0.6771 -0.1689
 7839SOL    HW234980   2.585   2.441   8.392  1.1462 -0.5025  5.3792
 7840SOL     OW34981   1.867   1.864   7.546 -0.2475 -0.2244 -0.1145
 7840SOL    HW134982   1.807   1.798   7.581 -0.1604 -0.0177  0.4309
 7840SOL    HW234983   1.940   1.811   7.514  0.0898 -0.0456  0.3531
 7841SOL     OW34984   0.569   1.032  13.631 -0.8606 -0.3307  0.5422
 7841SOL    HW134985   0.635   1.099  13.651  1.1015 -1.8656 -0.8362
 7841SOL    HW234986   0.580   0.980  13.710  0.3062 -0.4440  0.3132
 7842SOL     OW34987   3.011   2.565  10.673  0.2317 -0.0459  0.0060
 7842SOL    HW134988   2.972   2.642  10.714 -1.9864 -0.2640 -1.6911
 7842SOL    HW234989   2.958   2.489  10.698  1.7068 -1.0267  0.1731
 7843SOL     OW34990   4.165   4.486  10.123  0.0797  0.9338  0.0420
 7843SOL    HW134991   4.157   4.512  10.031  0.2048  1.2793  0.1284
 7843SOL    HW234992   4.100   4.419  10.143 -0.1720  1.0879 -0.2684
 7844SOL     OW34993   0.999   4.211   4.240 -0.1220 -0.0930 -0.0245
 7844SOL    HW134994   0.989   4.238   4.331 -0.2879 -1.3277  0.3182
 7844SOL    HW234995   0.926   4.152   4.221  0.1574 -0.0426 -1.2503
 7845SOL     OW34996   2.523   0.368   7.568 -0.9734 -0.2328 -0.3358
 7845SOL    HW134997   2.489   0.365   7.479 -1.9816  2.0526 -0.0236
 7845SOL    HW234998   2.510   0.278   7.600 -2.1561  0.2726  0.6133
 7846SOL     OW34999   0.307   0.866   5.895 -0.0196 -0.2401 -0.5933
 7846SOL    HW135000   0.343   0.784   5.862 -0.0378 -0.1068 -0.9541
 7846SOL    HW235001   0.257   0.828   5.967  2.9137 -0.1718  1.5009
 7847SOL     OW35002   1.192   2.349  11.585  0.0235  0.0010 -0.0383
 7847SOL    HW135003   1.195   2.405  11.507 -0.2420  1.0902  0.7309
 7847SOL    HW235004   1.099   2.362  11.607  0.2918  1.4768  0.2210
 7848SOL     OW35005   0.513   0.063  12.589 -0.6442 -0.1787  0.6978
 7848SOL    HW135006   0.570   0.034  12.659  2.1103 -0.5446 -1.7074
 7848SOL    HW235007   0.541   0.155  12.585 -1.0305 -0.1065 -0.3440
 7849SOL     OW35008   4.630   2.030  13.386 -0.0021  0.1030  0.0819
 7849SOL    HW135009   0.001   2.024  13.384 -0.0440 -0.6823  0.4653
 7849SOL    HW235010   4.606   1.963  13.322  0.4362  1.6826 -1.7236
 7850SOL     OW35011   2.514   2.412   8.598 -0.1046  0.1449  0.5201
 7850SOL    HW135012   2.420   2.411   8.583  0.0659  0.2591 -0.5720
 7850SOL    HW235013   2.525   2.499   8.637  2.3364 -0.1714  0.5666
 7851SOL     OW35014   2.329   2.117   1.163 -0.3793 -0.3815  0.9489
 7851SOL    HW135015   2.286   2.195   1.197  1.7110  1.2243 -0.0857
 7851SOL    HW235016   2.358   2.069   1.240  0.8470  0.7771  1.2153
 7852SOL     OW35017   3.567   2.216  13.150 -0.4869 -0.0189  0.2740
 7852SOL    HW135018   3.477   2.185  13.155 -0.3215 -0.6377 -0.5692
 7852SOL    HW235019   3.589   2.178  13.065  2.4530  0.2449  0.9006
 7853SOL     OW35020   0.825   2.791  16.317 -0.2068 -0.5082  0.5139
 7853SOL    HW135021   0.904   2.837  16.288  0.3506 -0.0500  2.7483
 7853SOL    HW235022   0.807   2.853  16.388  1.1020 -1.2378  1.4705
 7854SOL     OW35023   1.476   2.297   0.460 -0.1021 -0.6541 -0.2348
 7854SOL    HW135024   1.472   2.330   0.550  1.5141 -0.2539 -0.2973
 7854SOL    HW235025   1.528   2.219   0.480  1.7522  0.4323 -0.7369
 7855SOL     OW35026   2.949   3.854   2.137  0.6391 -0.5602  0.1651
 7855SOL    HW135027   2.900   3.869   2.056 -0.2102  1.8399  1.1372
 7855SOL    HW235028   2.918   3.776   2.182 -0.6129  0.3175  0.8194
 7856SOL     OW35029   3.273   3.641   1.019 -0.0791 -0.1360 -0.2206
 7856SOL    HW135030   3.272   3.669   0.928  2.9886  2.7942  0.6496
 7856SOL    HW235031   3.239   3.717   1.066  1.0303 -1.0596  2.0728
 7857SOL     OW35032   0.001   3.537   4.125  0.1862  1.3510 -0.2216
 7857SOL    HW135033   0.066   3.589   4.172  0.4402  0.0267  0.8740
 7857SOL    HW235034   4.719   3.462   4.184  0.1365  0.0231 -1.9058
 7858SOL     OW35035   0.149   3.553  13.123  0.2736 -0.7236  0.5318
 7858SOL    HW135036   0.160   3.609  13.200 -4.1408 -0.3358  0.8708
 7858SOL    HW235037   0.123   3.615  13.056 -0.1926 -1.9112 -0.3783
 7859SOL     OW35038   3.970   0.275   5.731  0.4671  0.6729  0.7350
 7859SOL    HW135039   3.908   0.289   5.803 -4.0444 -0.4279 -2.9294
 7859SOL    HW235040   3.950   0.186   5.703  0.0504  0.3261  2.1181
 7860SOL     OW35041   1.635   1.632  10.874 -0.6228 -0.5332 -0.6126
 7860SOL    HW135042   1.572   1.699  10.849 -0.3211 -1.2652 -3.2517
 7860SOL    HW235043   1.580   1.589  10.940 -0.1174  0.4315  0.4272
 7861SOL     OW35044   2.706   3.212   4.238 -0.0332 -0.0148  0.4649
 7861SOL    HW135045   2.702   3.161   4.319 -0.3108  2.0978  1.7675
 7861SOL    HW235046   2.758   3.288   4.264  0.3751 -1.0998  2.8172
 7862SOL     OW35047   4.708   0.185   7.761 -0.2315 -0.1734  0.4668
 7862SOL    HW135048   4.684   0.094   7.746  0.9890 -0.5955  1.0156
 7862SOL    HW235049   0.074   0.177   7.791 -0.2028  1.6052  0.8938
 7863SOL     OW35050   3.559   0.910   8.400  0.7411  0.5650  0.0828
 7863SOL    HW135051   3.569   0.932   8.492 -0.1332 -0.3484  0.4070
 7863SOL    HW235052   3.576   0.995   8.359 -0.4255  0.5206 -0.5036
 7864SOL     OW35053   4.213   3.366   7.909 -0.0983  0.1848 -0.4967
 7864SOL    HW135054   4.296   3.402   7.940 -0.2788 -0.0831  0.3033
 7864SOL    HW235055   4.202   3.299   7.977  2.3417  1.8709  1.5348
 7865SOL     OW35056   1.837   3.510  11.469 -0.8288 -0.5525  0.2756
 7865SOL    HW135057   1.867   3.582  11.413 -2.5495  1.0089  1.3590
 7865SOL    HW235058   1.805   3.448  11.404 -0.3481 -1.9941  1.4239
 7866SOL     OW35059   0.263   4.637  16.109 -0.2100  0.5535 -0.3631
 7866SOL    HW135060   0.225   4.551  16.096  1.3390 -0.7346  3.4416
 7866SOL    HW235061   0.340   4.617  16.162  0.5666  0.8433 -1.3834
 7867SOL     OW35062   3.458   0.924   7.976 -0.0601  0.5463  0.2500
 7867SOL    HW135063   3.373   0.882   7.987 -0.3324  0.8167 -0.7636
 7867SOL    HW235064   3.437   1.004   8.025 -0.0614  0.4672  0.3768
 7868SOL     OW35065   2.810   3.699   1.077 -0.1402  0.6799 -0.0009
 7868SOL    HW135066   2.722   3.664   1.091 -1.0122  2.4573 -0.9773
 7868SOL    HW235067   2.864   3.622   1.091 -0.1648  0.7430  0.4407
 7869SOL     OW35068   0.904   0.850   8.121 -1.1454 -0.2143 -0.6367
 7869SOL    HW135069   0.854   0.786   8.071 -2.2871 -0.2296  0.5186
 7869SOL    HW235070   0.972   0.875   8.059  1.7927 -0.9069  2.3042
 7870SOL     OW35071   1.686   0.223  10.120 -0.1712  0.4302 -0.4084
 7870SOL    HW135072   1.697   0.132  10.148 -0.3304  0.9343  1.2658
 7870SOL    HW235073   1.637   0.218  10.038  0.9718  0.1657 -1.0842
 7871SOL     OW35074   0.880   3.630   3.568  0.0556 -0.1505 -0.2979
 7871SOL    HW135075   0.824   3.679   3.508  2.7292  4.6606  1.1578
 7871SOL    HW235076   0.908   3.554   3.517 -1.7866 -0.7947 -0.3842
 7872SOL     OW35077   1.396   4.472   7.835  0.3132  0.2472 -0.1605
 7872SOL    HW135078   1.488   4.456   7.815 -0.2492 -0.8309 -1.9747
 7872SOL    HW235079   1.381   4.428   7.918  0.3001  1.7191  0.6102
 7873SOL     OW35080   1.857   0.348  12.652  0.3684 -0.0459  0.3540
 7873SOL    HW135081   1.870   0.276  12.589 -4.0841 -1.5094  1.1352
 7873SOL    HW235082   1.789   0.314  12.710 -0.6928 -0.7746 -1.3105
 7874SOL     OW35083   1.114   3.525  14.189  0.4082  0.5138  0.3072
 7874SOL    HW135084   1.194   3.545  14.141  0.7460 -0.0102  0.6455
 7874SOL    HW235085   1.112   3.431  14.207 -1.0337  0.3798 -0.5527
 7875SOL     OW35086   2.366   0.611   4.878 -0.6630  0.3598 -0.1806
 7875SOL    HW135087   2.311   0.686   4.858 -3.7681 -1.6233  0.9286
 7875SOL    HW235088   2.432   0.656   4.930 -1.0887 -0.9055  1.4584
 7876SOL     OW35089   2.526   1.310  15.375 -0.4237  0.4050 -0.1495
 7876SOL    HW135090   2.574   1.276  15.300 -0.6956  0.4115 -0.3257
 7876SOL    HW235091   2.546   1.402  15.360  0.7923  0.5003  2.0738
 7877SOL     OW35092   3.385   4.005   5.183  0.0186  0.1048 -0.0701
 7877SOL    HW135093   3.419   3.927   5.140  2.0413  1.8729 -1.6963
 7877SOL    HW235094   3.363   4.057   5.106  1.5780 -2.7815 -2.4433
 7878SOL     OW35095   0.042   4.655   3.901  0.3274  0.9176  0.3679
 7878SOL    HW135096   4.723   0.006   3.941  1.0705  0.7405  1.4998
 7878SOL    HW235097   0.027   4.684   3.811  2.3013  2.8294  0.6654
 7879SOL     OW35098   2.701   2.102  10.365 -0.3278  0.0537  0.8569
 7879SOL    HW135099   2.738   2.017  10.343 -0.1816  0.2321  0.4205
 7879SOL    HW235100   2.633   2.077  10.428  0.5077 -1.7997  1.0210
 7880SOL     OW35101   4.302   2.759   8.045  0.4873 -0.5368 -0.3546
 7880SOL    HW135102   4.327   2.707   8.122  4.2562  2.7755  0.6432
 7880SOL    HW235103   4.274   2.841   8.086  3.4579  0.3154 -0.0653
 7881SOL     OW35104   0.759   1.193   1.805  0.2314 -0.4341 -0.3425
 7881SOL    HW135105   0.674   1.237   1.808  0.1995 -0.4711 -0.6130
 7881SOL    HW235106   0.731   1.134   1.875  0.8999 -1.0469 -0.5932
 7882SOL     OW35107   1.808   4.410   4.032 -0.3702 -0.1102  0.2837
 7882SOL    HW135108   1.836   4.320   4.018  0.2521  0.0760  0.2869
 7882SOL    HW235109   1.747   4.403   4.105  0.2971 -0.3505  0.8249
 7883SOL     OW35110   0.336   0.337   6.433 -0.0422  0.2052 -0.2140
 7883SOL    HW135111   0.430   0.328   6.413  0.4067  0.0919  1.9371
 7883SOL    HW235112   0.342   0.426   6.468 -1.6462  0.7847 -1.4247
 7884SOL     OW35113   2.166   0.173   4.059  0.1674 -0.0620 -0.2474
 7884SOL    HW135114   2.230   0.106   4.082 -0.6671 -0.2024  1.6944
 7884SOL    HW235115   2.077   0.136   4.059 -0.0442  0.4138  1.4600
 7885SOL     OW35116   3.239   2.522   9.111 -0.1386  0.5516  0.3187
 7885SOL    HW135117   3.279   2.488   9.191  1.1608  2.7179  0.5970
 7885SOL    HW235118   3.219   2.611   9.141 -2.7143 -0.1586  0.7488
 7886SOL     OW35119   1.806   0.991   4.963 -0.6309  0.0689 -0.4419
 7886SOL    HW135120   1.731   1.049   4.975 -1.1135 -0.9003  1.1653
 7886SOL    HW235121   1.847   1.004   5.048 -1.0093 -3.3697  0.2629
 7887SOL     OW35122   0.495   4.554  16.266 -0.0289 -0.4066  0.6319
 7887SOL    HW135123   0.578   4.533  16.309  0.4471  0.3175  0.0540
 7887SOL    HW235124   0.474   4.473  16.219 -2.1898  2.7328 -3.7694
 7888SOL     OW35125   2.771   0.571   6.740  0.1946  0.0400  0.0582
 7888SOL    HW135126   2.854   0.604   6.706  0.4800 -1.8215 -1.0584
 7888SOL    HW235127   2.724   0.524   6.671  1.8072 -1.6191  0.0811
 7889SOL     OW35128   4.427   0.059  14.270 -0.0161 -0.1973  0.4177
 7889SOL    HW135129   4.434   0.152  14.250  1.7662 -0.7955 -1.7704
 7889SOL    HW235130   4.519   0.040  14.287  0.2322  0.6666  0.0698
 7890SOL     OW35131   1.533   2.012   1.803  0.0198  0.0248 -0.3815
 7890SOL    HW135132   1.504   1.924   1.828  0.2395 -0.0263 -0.3125
 7890SOL    HW235133   1.595   1.990   1.734  0.1374  0.4056 -0.3940
 7891SOL     OW35134   3.867   3.787   7.873  0.4912  0.0497 -0.0564
 7891SOL    HW135135   3.849   3.777   7.779 -0.8268  1.6556  0.0177
 7891SOL    HW235136   3.828   3.711   7.916  0.0362  1.1748  1.5359
 7892SOL     OW35137   2.358   4.426   9.518  0.3569  0.0042 -0.1056
 7892SOL    HW135138   2.347   4.395   9.607 -0.8176  0.3038 -0.1501
 7892SOL    HW235139   2.361   4.342   9.473  1.8792 -1.4855  2.7988
 7893SOL     OW35140   0.916   2.498   7.216  0.2666  0.3306  0.1243
 7893SOL    HW135141   0.949   2.458   7.297  1.6389 -1.7922 -1.4863
 7893SOL    HW235142   0.963   2.445   7.152  0.9476  0.3262  0.6268
 7894SOL     OW35143   3.334   3.586   7.866 -0.2587  0.6283  0.1605
 7894SOL    HW135144   3.365   3.543   7.945 -3.9646  1.2568  1.9743
 7894SOL    HW235145   3.245   3.616   7.886  0.4135  0.7815  2.9670
 7895SOL     OW35146   3.172   2.998   8.737  0.2095 -0.1770  0.0840
 7895SOL    HW135147   3.155   2.949   8.657  1.5279 -0.4757 -0.0119
 7895SOL    HW235148   3.255   2.955   8.754  1.6298  2.4282 -0.2720
 7896SOL     OW35149   1.375   2.017   8.748  0.6189  0.1969  0.1687
 7896SOL    HW135150   1.371   1.950   8.679 -1.7834  3.7028 -3.0749
 7896SOL    HW235151   1.466   2.012   8.776  0.6380  1.9246  0.3663
 7897SOL     OW35152   3.500   4.475  11.495  0.1965  0.0695 -1.1207
 7897SOL    HW135153   3.503   4.524  11.578  2.0274  0.8786 -1.6647
 7897SOL    HW235154   3.461   4.395  11.530  3.3870 -0.6096  0.9519
 7898SOL     OW35155   0.317   2.703   4.829 -0.1352  0.8548  0.4362
 7898SOL    HW135156   0.400   2.656   4.838  0.0102  1.2931  1.4443
 7898SOL    HW235157   0.271   2.662   4.903 -0.6016 -1.2616 -1.0363
 7899SOL     OW35158   0.980   0.997   1.721 -0.1246 -0.3594  0.4194
 7899SOL    HW135159   0.912   0.980   1.787 -1.6970  2.8886 -0.3185
 7899SOL    HW235160   1.020   1.076   1.757  1.4911 -0.2635 -1.5733
 7900SOL     OW35161   1.199   4.539   2.976 -0.2907  0.5934  0.0488
 7900SOL    HW135162   1.283   4.501   3.002 -0.7528 -1.3938 -1.3389
 7900SOL    HW235163   1.205   4.626   3.016  0.3327  0.1796  0.8444
 7901SOL     OW35164   1.742   1.887   9.443  0.2899  0.5502 -0.1559
 7901SOL    HW135165   1.830   1.868   9.410  0.5984  1.1894  0.3031
 7901SOL    HW235166   1.758   1.887   9.537 -0.1161  1.2111 -0.0925
 7902SOL     OW35167   3.576   4.549  14.590  0.1085 -0.0115  0.3197
 7902SOL    HW135168   3.527   4.529  14.510 -1.7990  1.0435  1.2386
 7902SOL    HW235169   3.584   4.463  14.631 -3.6678 -0.6367 -0.2502
 7903SOL     OW35170   4.473   2.716   2.908  0.4188 -0.4553 -0.1556
 7903SOL    HW135171   4.435   2.628   2.913  0.5386 -0.4286  1.2727
 7903SOL    HW235172   4.489   2.740   2.817 -1.0955  1.0341 -0.0337
 7904SOL     OW35173   2.369   1.760   6.548 -0.0207  0.3090  0.0221
 7904SOL    HW135174   2.284   1.715   6.542  0.8921 -1.4796  0.5293
 7904SOL    HW235175   2.384   1.766   6.642 -0.4607 -0.9458  0.1830
 7905SOL     OW35176   0.185   3.849   8.035  0.4655 -0.1962  0.0570
 7905SOL    HW135177   0.274   3.871   8.062 -0.2851  2.6080  0.2983
 7905SOL    HW235178   0.136   3.915   8.084  0.6788 -0.9906  1.3259
 7906SOL     OW35179   0.659   2.950   8.906 -1.1661  0.1387  0.2435
 7906SOL    HW135180   0.751   2.964   8.929 -0.7049  0.7041 -1.9177
 7906SOL    HW235181   0.637   3.035   8.868  0.3377 -0.0509 -1.0611
 7907SOL     OW35182   3.412   2.292   4.946  0.1003  0.4072  0.3777
 7907SOL    HW135183   3.357   2.364   4.914  3.0050  2.8664  0.8220
 7907SOL    HW235184   3.350   2.220   4.945  0.5817 -0.0015 -0.2666
 7908SOL     OW35185   3.158   3.658  17.420 -0.1374 -0.2750  0.0355
 7908SOL    HW135186   3.094   3.701  17.363 -0.6816 -0.5159  0.4655
 7908SOL    HW235187   3.144   3.726  17.486  0.3650  1.4232 -1.6259
 7909SOL     OW35188   1.296   2.012  14.249 -0.3647  0.3055 -0.3455
 7909SOL    HW135189   1.239   1.936  14.233 -0.4812  0.3468 -0.1350
 7909SOL    HW235190   1.284   2.024  14.343  1.9122  1.2171 -0.1737
 7910SOL     OW35191   1.847   3.381   0.214  0.3862  0.2420  0.3681
 7910SOL    HW135192   1.868   3.471   0.239 -1.5438  0.3977  1.3587
 7910SOL    HW235193   1.767   3.358   0.262  0.3883  0.1588  0.3321
 7911SOL     OW35194   0.115   3.870   1.659 -0.4618  0.0782 -0.0517
 7911SOL    HW135195   0.157   3.898   1.578 -0.0310 -0.9314 -0.1796
 7911SOL    HW235196   0.180   3.890   1.727 -2.1711 -0.4362  1.7517
 7912SOL     OW35197   2.779   3.048   2.636 -0.0213 -0.0706  0.4407
 7912SOL    HW135198   2.835   3.033   2.713  0.7498 -1.6256 -0.4221
 7912SOL    HW235199   2.845   3.093   2.583 -0.4149 -0.8605 -0.6880
 7913SOL     OW35200   3.828   3.675   5.636 -0.0278 -0.5404 -0.1308
 7913SOL    HW135201   3.885   3.737   5.682 -0.6243  0.8105 -1.2161
 7913SOL    HW235202   3.876   3.593   5.648 -1.5310 -1.2671  0.7671
 7914SOL     OW35203   1.473   2.871   9.973  0.1344 -0.0480  0.6095
 7914SOL    HW135204   1.391   2.899  10.014  1.4253  1.4458  2.1979
 7914SOL    HW235205   1.470   2.776   9.978  1.8781 -0.2304 -1.6207
 7915SOL     OW35206   0.152   1.177  13.455 -0.2764 -0.2116  0.2632
 7915SOL    HW135207   0.239   1.208  13.430 -0.0298  0.0340  1.4343
 7915SOL    HW235208   0.105   1.175  13.372 -0.7022 -1.3059  0.5335
 7916SOL     OW35209   2.794   1.158  15.895 -0.0751 -0.4432  0.2136
 7916SOL    HW135210   2.728   1.098  15.861  0.5929 -0.1925 -1.5230
 7916SOL    HW235211   2.744   1.236  15.921 -0.3376 -0.6560  0.3507
 7917SOL     OW35212   0.562   2.297   4.181  0.1618 -0.3462 -0.6233
 7917SOL    HW135213   0.487   2.329   4.130 -1.3259 -0.5579  1.4558
 7917SOL    HW235214   0.560   2.351   4.260  1.2828  0.8905 -1.4106
 7918SOL     OW35215   1.923   4.621   4.429 -0.2036  0.1757 -0.0596
 7918SOL    HW135216   1.992   4.597   4.366  2.7486  0.4785  3.0337
 7918SOL    HW235217   1.852   4.561   4.408  0.5120 -0.9281  0.6787
 7919SOL     OW35218   3.387   0.176   9.680 -0.4877 -0.1007 -0.0644
 7919SOL    HW135219   3.409   0.269   9.681  1.1720 -0.4795 -0.7703
 7919SOL    HW235220   3.312   0.184   9.740 -1.7101 -0.8703 -1.4778
 7920SOL     OW35221   2.684   0.337   0.289  0.0108 -0.0314  0.2427
 7920SOL    HW135222   2.713   0.376   0.207  0.0683 -1.7756 -0.5662
 7920SOL    HW235223   2.749   0.363   0.355  0.5907 -0.3422 -0.2030
 7921SOL     OW35224   0.104   4.410   7.040 -0.3955 -0.3021  0.2868
 7921SOL    HW135225   0.083   4.407   6.946 -1.5832 -0.8122  0.5705
 7921SOL    HW235226   0.152   4.327   7.044  0.2748  0.1399  1.3646
 7922SOL     OW35227   1.873   2.052  14.997 -0.4127 -0.8511  0.0879
 7922SOL    HW135228   1.846   1.967  14.962 -1.5690 -1.0559  1.4888
 7922SOL    HW235229   1.966   2.041  14.978 -0.1119 -0.5745  1.3912
 7923SOL     OW35230   1.136   4.648   6.826 -0.4024 -0.1784 -0.0374
 7923SOL    HW135231   1.103   0.010   6.852  0.8181  1.5194 -4.0160
 7923SOL    HW235232   1.064   4.597   6.863  1.7160 -2.6994  0.6148
 7924SOL     OW35233   2.662   3.728   5.953  0.5825 -0.3786 -0.3537
 7924SOL    HW135234   2.721   3.666   5.997 -1.3026 -0.3494  2.2415
 7924SOL    HW235235   2.678   3.800   6.014  2.3344  0.1715 -1.4678
 7925SOL     OW35236   0.715   0.262  10.567 -0.1318 -0.0633 -0.9286
 7925SOL    HW135237   0.753   0.343  10.601  0.3251  0.4809 -2.7435
 7925SOL    HW235238   0.713   0.199  10.639  2.8838  0.7253 -0.1275
 7926SOL     OW35239   3.922   3.174   3.673 -0.4115  0.0522 -0.5116
 7926SOL    HW135240   3.833   3.158   3.705  0.2134  1.7033  2.0239
 7926SOL    HW235241   3.964   3.187   3.758 -0.4600 -1.5797 -0.2344
 7927SOL     OW35242   0.056   2.291   9.658 -0.4974  0.0490 -0.2506
 7927SOL    HW135243   0.066   2.307   9.752 -1.4200 -1.8320  0.1648
 7927SOL    HW235244   0.100   2.207   9.644  0.2939  0.2919  0.6998
 7928SOL     OW35245   3.014   2.510   4.448  0.1641 -0.0144 -0.2014
 7928SOL    HW135246   3.022   2.421   4.482 -0.5119 -0.4398 -1.1260
 7928SOL    HW235247   2.919   2.504   4.439  0.0239  0.3681  1.0437
 7929SOL     OW35248   0.745   0.400   3.582  0.5524 -0.0155  0.0098
 7929SOL    HW135249   0.838   0.419   3.571  0.8597 -1.1678  0.5504
 7929SOL    HW235250   0.758   0.305   3.577 -1.6142 -0.3207  0.3498
 7930SOL     OW35251   1.243   1.637  10.375  0.5344  0.4668 -0.5026
 7930SOL    HW135252   1.290   1.554  10.368  1.9420  1.4696 -2.7951
 7930SOL    HW235253   1.176   1.607  10.313 -0.9385  0.0760  1.2687
 7931SOL     OW35254   4.222   1.367   9.185 -0.4110 -0.5646  0.2362
 7931SOL    HW135255   4.293   1.313   9.152  0.0027 -0.1334  0.4216
 7931SOL    HW235256   4.232   1.363   9.280 -1.0748 -3.3673  0.1727
 7932SOL     OW35257   3.036   1.362   3.969 -0.4485  0.3946  0.1178
 7932SOL    HW135258   2.976   1.393   4.036 -0.8026  0.0316 -0.0307
 7932SOL    HW235259   2.982   1.387   3.893  0.4584 -2.0550 -1.3237
 7933SOL     OW35260   0.405   1.144   6.111  0.3055  0.0906 -0.3232
 7933SOL    HW135261   0.331   1.110   6.061 -1.0257  0.3438  1.4882
 7933SOL    HW235262   0.385   1.108   6.197  1.6061  0.3933  0.1080
 7934SOL     OW35263   2.344   4.351  10.245 -0.0389 -0.1793  0.3702
 7934SOL    HW135264   2.337   4.337  10.340 -0.4195  0.3023  0.4130
 7934SOL    HW235265   2.329   4.445  10.241 -1.7061 -0.3375  3.0835
 7935SOL     OW35266   1.068   3.979   3.372 -0.0305  0.1713  0.0067
 7935SOL    HW135267   1.064   3.920   3.296  0.2755  0.6568 -0.3881
 7935SOL    HW235268   1.078   3.920   3.446 -0.4655 -1.5093 -1.2648
 7936SOL     OW35269   1.447   4.658   6.618 -0.1418  0.2914  0.0270
 7936SOL    HW135270   1.499   4.716   6.563 -0.1235 -0.1798 -0.4554
 7936SOL    HW235271   1.482   4.572   6.592 -0.6722 -0.1540  0.8061
 7937SOL     OW35272   1.663   0.052  14.479 -0.2042  0.2869  0.6360
 7937SOL    HW135273   1.573   0.080  14.500 -0.7731 -0.8104 -0.3446
 7937SOL    HW235274   1.659   0.081  14.388  0.2792 -1.4691  0.0636
 7938SOL     OW35275   2.543   2.623   4.177  0.2865  0.0361 -0.0245
 7938SOL    HW135276   2.532   2.581   4.091 -1.2387  1.4436 -0.5087
 7938SOL    HW235277   2.506   2.555   4.235  2.3628 -2.2856 -1.4155
 7939SOL     OW35278   1.956   1.496  12.496 -0.0621 -0.2462 -0.1728
 7939SOL    HW135279   1.927   1.441  12.424  1.3833 -0.6146 -0.4567
 7939SOL    HW235280   1.876   1.490  12.549 -1.4756 -0.1652 -2.3002
 7940SOL     OW35281   1.041   0.164   1.636  0.0015  0.3108 -0.5946
 7940SOL    HW135282   1.045   0.147   1.730  1.6097  3.3994 -0.1092
 7940SOL    HW235283   0.974   0.232   1.629 -1.3287 -1.2317 -2.8358
 7941SOL     OW35284   3.297   4.321   5.903  0.5185 -0.2120  0.3129
 7941SOL    HW135285   3.391   4.306   5.913  0.4855 -0.7607 -0.1894
 7941SOL    HW235286   3.257   4.234   5.907  0.6387 -0.2019  1.6428
 7942SOL     OW35287   4.483   3.717   3.721 -0.8427  0.2497 -0.1792
 7942SOL    HW135288   4.437   3.707   3.803 -0.3239 -2.1698 -0.2028
 7942SOL    HW235289   4.531   3.635   3.715 -0.6613  0.2463  1.5601
 7943SOL     OW35290   1.990   0.281   4.869 -0.4261  0.1478  0.3118
 7943SOL    HW135291   2.076   0.299   4.908  0.0685 -0.4547 -0.4850
 7943SOL    HW235292   1.968   0.352   4.810 -2.2327  1.0940  2.1495
 7944SOL     OW35293   1.259   0.635   5.138  0.1546  0.4526 -0.1227
 7944SOL    HW135294   1.295   0.592   5.215 -2.8289  1.9490  2.0826
 7944SOL    HW235295   1.169   0.654   5.164  1.1109 -0.5477  3.8448
 7945SOL     OW35296   2.252   0.426   4.001  0.2191 -0.1573 -0.5163
 7945SOL    HW135297   2.223   0.338   4.023 -0.4481 -0.1102 -1.2123
 7945SOL    HW235298   2.320   0.411   3.935 -1.7393 -1.6448 -2.2063
 7946SOL     OW35299   3.581   4.355  11.810 -0.0609 -0.0931 -0.2468
 7946SOL    HW135300   3.619   4.284  11.863 -1.1139 -0.9141 -0.5859
 7946SOL    HW235301   3.525   4.301  11.754 -1.4463 -1.7240  2.7378
 7947SOL     OW35302   0.217   2.128  14.224  0.4574 -0.0458  0.0118
 7947SOL    HW135303   0.251   2.039  14.216  0.6022  0.0472 -0.4416
 7947SOL    HW235304   0.292   2.180  14.254 -0.3058  0.3670  1.2027
 7948SOL     OW35305   0.420   2.225   0.846  0.8033  0.1292  0.4711
 7948SOL    HW135306   0.457   2.313   0.835 -3.8892  1.9402 -0.9360
 7948SOL    HW235307   0.331   2.236   0.878  0.1275  0.6237 -1.5536
 7949SOL     OW35308   0.059   2.283   7.648 -0.1033 -0.2602  0.2983
 7949SOL    HW135309   0.066   2.347   7.577 -0.2682 -0.6798 -0.0969
 7949SOL    HW235310   0.030   2.342   7.718 -1.6721  0.4289 -0.9420
 7950SOL     OW35311   4.473   1.674   7.646 -0.2301 -0.2231 -0.4431
 7950SOL    HW135312   4.548   1.722   7.611  1.2458 -1.8765  0.4117
 7950SOL    HW235313   4.484   1.705   7.736 -1.6098  0.5928 -0.5684
 7951SOL     OW35314   2.499   2.862   7.481  0.3597  0.0336 -0.1319
 7951SOL    HW135315   2.529   2.779   7.444 -1.3737 -0.1899 -1.0435
 7951SOL    HW235316   2.464   2.910   7.406  3.8648 -0.1962 -1.8976
 7952SOL     OW35317   4.669   3.664   0.946 -0.4853  0.1333 -0.1567
 7952SOL    HW135318   4.613   3.591   0.973 -0.0759 -0.1413 -0.0559
 7952SOL    HW235319   4.615   3.692   0.872 -0.5742  2.1013  0.6366
 7953SOL     OW35320   1.797   1.572   8.622  0.0124  0.0817 -0.1792
 7953SOL    HW135321   1.886   1.536   8.618  0.3590  0.6580  2.8226
 7953SOL    HW235322   1.799   1.646   8.561  0.1363  0.6711  0.5419
 7954SOL     OW35323   3.470   3.228   7.575  0.3277 -0.1225 -0.0102
 7954SOL    HW135324   3.388   3.276   7.585  0.8031  0.9629 -1.3380
 7954SOL    HW235325   3.439   3.175   7.501 -0.5749  0.7242 -0.2388
 7955SOL     OW35326   3.121   4.419   3.344  0.0134  0.2092  0.0196
 7955SOL    HW135327   3.195   4.433   3.403 -1.3579  1.0592  1.5397
 7955SOL    HW235328   3.157   4.360   3.278  1.2397 -0.3811  1.2207
 7956SOL     OW35329   0.272   3.858  16.762 -0.2603  0.5363  0.0809
 7956SOL    HW135330   0.224   3.799  16.705 -2.4186  0.3766  2.0860
 7956SOL    HW235331   0.252   3.940  16.718 -1.8176  0.3663  0.4943
 7957SOL     OW35332   4.052   1.043   1.879 -0.3087  0.8962 -0.5701
 7957SOL    HW135333   4.078   0.989   1.804  0.7768 -0.4409  0.7538
 7957SOL    HW235334   4.131   1.098   1.880  0.4258 -0.1304 -1.8352
 7958SOL     OW35335   2.932   1.918   3.123  0.1592 -0.1675 -0.3999
 7958SOL    HW135336   2.876   1.841   3.134  1.0338 -0.8599 -0.8588
 7958SOL    HW235337   2.908   1.964   3.203 -1.7881 -2.9113  0.5741
 7959SOL     OW35338   4.664   0.721  13.858  0.0651 -0.1955  0.0051
 7959SOL    HW135339   4.676   0.645  13.914 -1.2560 -0.8477 -0.5880
 7959SOL    HW235340   0.023   0.766  13.851 -0.1534  0.1170 -0.5550
 7960SOL     OW35341   1.337   4.547   5.574  0.2535  0.6782 -0.1176
 7960SOL    HW135342   1.344   4.472   5.515  1.2417 -0.1818  1.0772
 7960SOL    HW235343   1.399   4.514   5.639 -0.5713  0.6523  0.6526
 7961SOL     OW35344   4.021   1.064  13.765 -0.0194 -0.0727  0.2272
 7961SOL    HW135345   3.967   1.136  13.732  0.4212  0.8442  1.5269
 7961SOL    HW235346   4.052   1.019  13.686  0.8429 -1.8162  1.5648
 7962SOL     OW35347   4.607   0.954  11.614  0.9579 -0.0198 -0.9621
 7962SOL    HW135348   4.628   0.885  11.678 -2.0851  2.0456  2.2727
 7962SOL    HW235349   4.690   1.001  11.612 -0.2518  2.0910 -1.8850
 7963SOL     OW35350   4.197   4.033   3.835  0.1808 -0.0250 -0.0907
 7963SOL    HW135351   4.186   4.124   3.807  1.2327  0.2247  0.3278
 7963SOL    HW235352   4.280   4.022   3.789 -0.2497 -0.8640 -0.6844
 7964SOL     OW35353   3.895   0.248  13.587  0.7970 -0.2346  0.0304
 7964SOL    HW135354   3.860   0.327  13.629 -0.1820 -0.5300 -0.2337
 7964SOL    HW235355   3.953   0.223  13.658  1.5731  1.6000  0.0459
 7965SOL     OW35356   0.739   1.729   2.674 -0.4678  0.0659  0.1900
 7965SOL    HW135357   0.712   1.762   2.760 -1.9383  0.8631 -0.5677
 7965SOL    HW235358   0.814   1.785   2.651  1.1940 -2.4681 -0.5708
 7966SOL     OW35359   0.660   2.131  17.359  0.3683  0.6430  0.4461
 7966SOL    HW135360   0.705   2.210  17.391 -0.1540  1.1316 -0.0282
 7966SOL    HW235361   0.569   2.135  17.386 -0.1711 -0.9872 -1.1819
 7967SOL     OW35362   2.445   4.557   7.646 -0.6099 -0.5795  0.0472
 7967SOL    HW135363   2.470   4.622   7.712 -0.4273 -0.2715 -0.3267
 7967SOL    HW235364   2.520   4.499   7.658 -0.4064 -0.2036  0.5871
 7968SOL     OW35365   2.186   2.380   2.559 -0.2364  0.0324 -0.2592
 7968SOL    HW135366   2.199   2.447   2.626  2.0575 -0.8193  0.1618
 7968SOL    HW235367   2.245   2.407   2.489  0.2298  1.3795  0.6479
 7969SOL     OW35368   4.645   3.921   2.770  0.4403  0.4109  0.1884
 7969SOL    HW135369   4.697   3.879   2.701  0.5652  1.0297 -0.1009
 7969SOL    HW235370   4.671   3.877   2.851 -1.5436 -1.7025 -0.3405
 7970SOL     OW35371   2.248   3.897   7.828 -0.6730 -0.6455 -0.3637
 7970SOL    HW135372   2.243   3.979   7.779  0.3796  0.3811  1.2393
 7970SOL    HW235373   2.167   3.885   7.877 -0.8846 -1.0824 -0.8228
 7971SOL     OW35374   0.501   4.593   1.246  0.1823  0.4799  0.2234
 7971SOL    HW135375   0.412   4.629   1.256  0.8290  0.9099  4.4886
 7971SOL    HW235376   0.478   4.506   1.215 -1.5602  1.0160 -0.0293
 7972SOL     OW35377   4.322   1.488   4.382 -0.4970 -0.2194  0.4813
 7972SOL    HW135378   4.339   1.406   4.427 -0.5601 -0.7525 -0.4624
 7972SOL    HW235379   4.236   1.460   4.351 -1.1960  0.5126  1.7388
 7973SOL     OW35380   0.160   0.881   8.235 -0.9849  0.4325 -0.2260
 7973SOL    HW135381   0.204   0.958   8.199  1.1351 -1.4406 -1.6818
 7973SOL    HW235382   0.072   0.918   8.241 -1.1021  0.2379 -0.7377
 7974SOL     OW35383   3.845   4.442  11.736  0.4561  0.0011 -0.0771
 7974SOL    HW135384   3.753   4.430  11.759  0.5373  1.5559  1.0660
 7974SOL    HW235385   3.862   4.529  11.699  3.0701 -0.5812 -0.2788
 7975SOL     OW35386   3.512   0.213   5.418 -0.4528 -0.1859  0.2450
 7975SOL    HW135387   3.548   0.197   5.506  1.5967 -2.7899 -1.0750
 7975SOL    HW235388   3.576   0.182   5.355  0.5202  1.3316  0.4844
 7976SOL     OW35389   4.142   3.441  11.127 -0.5719  0.3003 -0.4712
 7976SOL    HW135390   4.124   3.356  11.167  0.3308  0.4809  0.3172
 7976SOL    HW235391   4.216   3.470  11.181  0.3540 -0.3147 -1.4201
 7977SOL     OW35392   1.011   3.623   5.263 -0.3928 -0.5093  0.3820
 7977SOL    HW135393   1.014   3.530   5.238  0.8941 -0.2304 -0.5143
 7977SOL    HW235394   0.925   3.642   5.225  0.3980 -0.4143 -1.3683
 7978SOL     OW35395   4.707   0.333   0.744 -0.3616  0.7319 -0.9960
 7978SOL    HW135396   0.020   0.246   0.736  0.4405  1.1566 -1.8819
 7978SOL    HW235397   4.665   0.337   0.830 -0.1596  1.5716 -0.9347
 7979SOL     OW35398   1.743   3.678   5.012  0.1587  0.4458 -0.0725
 7979SOL    HW135399   1.743   3.737   4.938  2.9076  2.8280  1.8444
 7979SOL    HW235400   1.778   3.597   4.975 -1.9239 -0.3043 -0.3954
 7980SOL     OW35401   0.291   3.140   2.462 -0.3186 -0.0026  0.0889
 7980SOL    HW135402   0.275   3.052   2.495 -0.7747  1.0579  2.7214
 7980SOL    HW235403   0.247   3.132   2.378  0.3974 -0.2798 -0.2569
 7981SOL     OW35404   4.029   3.776   3.701  0.1445 -0.2727 -0.0134
 7981SOL    HW135405   3.964   3.706   3.710 -0.2041  0.3030  1.8299
 7981SOL    HW235406   4.110   3.727   3.692  0.4083 -0.2014  2.0510
 7982SOL     OW35407   1.310   4.405   8.316  0.6164  0.2672 -0.0872
 7982SOL    HW135408   1.348   4.491   8.336  0.9925  0.0071  0.3127
 7982SOL    HW235409   1.226   4.408   8.361  0.0222 -0.2556 -1.1634
 7983SOL     OW35410   4.507   2.955   6.068 -0.3121 -0.1553 -0.3630
 7983SOL    HW135411   4.537   2.954   6.159 -0.5992 -1.0689 -0.2829
 7983SOL    HW235412   4.543   2.871   6.041  0.9353  0.2677  0.0035
 7984SOL     OW35413   4.717   3.310   4.887  0.5763 -0.5286  0.0848
 7984SOL    HW135414   4.707   3.355   4.971 -2.3479  0.9364 -1.0313
 7984SOL    HW235415   4.708   3.219   4.916  0.5525  0.6183  3.5976
 7985SOL     OW35416   1.125   3.374   5.380 -0.1532  0.3104 -0.4855
 7985SOL    HW135417   1.199   3.420   5.420  0.6096 -1.9332  0.7309
 7985SOL    HW235418   1.072   3.361   5.458 -0.6484 -1.6633 -1.1419
 7986SOL     OW35419   2.797   4.470   7.858  0.0260  0.1373 -0.0969
 7986SOL    HW135420   2.742   4.395   7.883  0.3720 -0.1697 -0.2703
 7986SOL    HW235421   2.875   4.459   7.912  0.5884 -0.5773 -1.0615
 7987SOL     OW35422   0.849   1.599   5.609  0.3804  0.2386  0.0837
 7987SOL    HW135423   0.849   1.599   5.513  1.3284 -0.1949  0.0839
 7987SOL    HW235424   0.794   1.676   5.624  1.1392  0.8174 -0.1124
 7988SOL     OW35425   2.174   0.260  11.022  0.1875 -0.3582 -0.7296
 7988SOL    HW135426   2.096   0.310  11.044 -0.8729 -1.4754 -1.9736
 7988SOL    HW235427   2.231   0.324  10.980 -2.8108  1.8913 -1.3210
 7989SOL     OW35428   3.688   4.292  14.389 -0.2464 -0.3879  0.1957
 7989SOL    HW135429   3.620   4.359  14.396 -1.1878 -0.8851 -4.7570
 7989SOL    HW235430   3.761   4.348  14.363  0.1916 -0.5108  1.1460
 7990SOL     OW35431   1.504   3.689   4.795  0.6370  0.3464 -0.1921
 7990SOL    HW135432   1.454   3.764   4.826 -0.6315 -0.5056 -0.1645
 7990SOL    HW235433   1.436   3.624   4.809 -0.9504  2.2910  1.1819
 7991SOL     OW35434   2.736   4.479  15.737  0.2719 -0.3321  0.2820
 7991SOL    HW135435   2.795   4.489  15.662 -0.0638  0.2887  0.0966
 7991SOL    HW235436   2.661   4.438  15.695 -1.3541  0.6343  2.2316
 7992SOL     OW35437   4.364   0.180   1.682  0.2551  0.3412 -0.3238
 7992SOL    HW135438   4.287   0.233   1.661 -0.1601  0.9519  2.7325
 7992SOL    HW235439   4.329   0.137   1.759 -0.0991  1.8174  0.3399
 7993SOL     OW35440   0.418   3.468   4.597  0.3392  0.3592  0.1052
 7993SOL    HW135441   0.504   3.498   4.568  1.0113 -1.0528  0.6427
 7993SOL    HW235442   0.405   3.507   4.684 -0.3853  1.5695 -0.5480
 7994SOL     OW35443   0.713   1.353  16.278 -0.1361  0.3142  0.5640
 7994SOL    HW135444   0.637   1.300  16.256  0.5808 -1.0943  1.4832
 7994SOL    HW235445   0.719   1.323  16.369  0.0246 -1.0036  0.1278
 7995SOL     OW35446   0.585   3.539  13.397  0.1629 -0.7258  0.5659
 7995SOL    HW135447   0.553   3.565  13.483  0.0951  0.0196  0.3114
 7995SOL    HW235448   0.500   3.516  13.359  0.7761 -0.1394 -1.1633
 7996SOL     OW35449   0.768   2.188   2.512 -0.4733 -0.1406  0.1576
 7996SOL    HW135450   0.772   2.200   2.607  1.5114 -0.9538  0.1774
 7996SOL    HW235451   0.858   2.160   2.495 -0.7407 -1.1336  0.3733
 7997SOL     OW35452   1.902   3.734   4.573  0.4647 -0.3524 -0.2076
 7997SOL    HW135453   1.913   3.640   4.587 -1.8683 -0.6765 -0.5538
 7997SOL    HW235454   1.952   3.746   4.493 -1.3057 -0.5975 -1.3603
 7998SOL     OW35455   0.423   2.025   1.079 -0.3326 -0.3956  0.0473
 7998SOL    HW135456   0.397   2.089   1.145  0.0782  0.8623 -1.0085
 7998SOL    HW235457   0.468   2.087   1.021 -0.4139 -2.7947 -2.5798
 7999SOL     OW35458   3.739   2.475   1.832  0.0308  0.0481  0.1271
 7999SOL    HW135459   3.670   2.411   1.818  0.4930 -0.3805 -0.1967
 7999SOL    HW235460   3.702   2.516   1.910 -0.8763  1.2028 -0.9136
 8000SOL     OW35461   3.029   2.505   5.594 -0.6503 -0.1303 -0.3671
 8000SOL    HW135462   3.084   2.468   5.662 -0.1859 -1.0964 -1.2684
 8000SOL    HW235463   3.076   2.588   5.583  0.9784 -0.7977  1.7131
 8001SOL     OW35464   2.817   1.141   2.212  0.3753  0.0152 -0.4576
 8001SOL    HW135465   2.871   1.200   2.159  1.8102  0.0482  1.0277
 8001SOL    HW235466   2.793   1.079   2.143 -1.5768 -2.5655  2.5724
 8002SOL     OW35467   3.355   0.607   7.498 -0.2703 -0.4253  0.5871
 8002SOL    HW135468   3.305   0.575   7.573 -2.3121 -0.4730 -0.8213
 8002SOL    HW235469   3.359   0.700   7.521  0.0132 -0.4091  0.4787
 8003SOL     OW35470   1.364   3.310   8.379 -0.6780  0.2581 -0.5103
 8003SOL    HW135471   1.369   3.379   8.313  1.9665  0.7063  0.1904
 8003SOL    HW235472   1.272   3.322   8.404 -0.5552 -0.1085  0.1106
 8004SOL     OW35473   2.800   2.500   0.974  0.7116 -0.1398 -0.5584
 8004SOL    HW135474   2.869   2.472   1.034 -0.1465 -0.2513  0.3830
 8004SOL    HW235475   2.788   2.419   0.923  3.0768 -1.9085  1.7153
 8005SOL     OW35476   1.539   4.290   6.005  0.4757 -0.3182  0.0572
 8005SOL    HW135477   1.449   4.290   6.038 -0.0131 -0.7351 -1.2778
 8005SOL    HW235478   1.564   4.351   6.073  0.5888  0.9801 -1.1551
 8006SOL     OW35479   3.947   0.679  11.598  0.3700  0.0056  0.4405
 8006SOL    HW135480   3.920   0.686  11.506 -0.2695  2.2351  0.8034
 8006SOL    HW235481   4.011   0.608  11.604 -2.4545 -2.6145 -0.3930
 8007SOL     OW35482   0.035   1.522  11.360  0.1011 -1.2802 -0.2347
 8007SOL    HW135483   0.054   1.586  11.429 -0.5594 -1.0123 -0.2965
 8007SOL    HW235484   4.719   1.446  11.402  2.2208 -2.1433  0.2258
 8008SOL     OW35485   0.078   4.644   7.199  0.5237 -0.2057 -0.2083
 8008SOL    HW135486   0.172   4.659   7.190  0.4879  2.1782  3.5835
 8008SOL    HW235487   0.062   4.579   7.130 -0.0107  0.0238 -0.2984
 8009SOL     OW35488   4.569   4.515   0.092  0.4796  0.5964 -0.3585
 8009SOL    HW135489   4.641   4.453   0.106  1.4053  1.8753  0.4736
 8009SOL    HW235490   4.506   4.487   0.159 -0.4940  1.1672 -1.0299
 8010SOL     OW35491   1.583   2.592   4.537 -0.3159 -0.0601 -1.1061
 8010SOL    HW135492   1.670   2.570   4.572  0.2665  0.3802 -2.2906
 8010SOL    HW235493   1.583   2.552   4.450  2.4638 -0.5403 -0.9049
 8011SOL     OW35494   1.637   1.474  14.662 -0.6812  0.0981 -0.2619
 8011SOL    HW135495   1.624   1.535  14.735 -2.1960 -0.2547 -0.2307
 8011SOL    HW235496   1.549   1.448  14.634 -0.6991  1.1419 -1.1518
 8012SOL     OW35497   3.527   0.052  10.475  0.2167 -0.3542 -0.0061
 8012SOL    HW135498   3.530   0.034  10.381  2.8001  0.5524 -0.1129
 8012SOL    HW235499   3.574   4.701  10.512  1.6326 -0.9245 -2.9640
 8013SOL     OW35500   4.401   0.995   8.075  0.4315  0.3433 -0.1170
 8013SOL    HW135501   4.483   1.008   8.122  0.3126 -1.1782  0.5367
 8013SOL    HW235502   4.404   1.067   8.012 -0.6450  0.6004  0.1138
 8014SOL     OW35503   4.605   2.865   3.382  0.0988 -0.6080  0.9506
 8014SOL    HW135504   4.635   2.902   3.466 -0.9997  0.5976  0.8013
 8014SOL    HW235505   4.513   2.889   3.386 -0.0637 -1.0665 -0.1215
 8015SOL     OW35506   0.916   4.414   7.212  0.5601 -0.3290 -0.2485
 8015SOL    HW135507   0.972   4.402   7.289  1.1538 -0.1325 -0.6510
 8015SOL    HW235508   0.833   4.430   7.256  1.4529 -2.1307  2.1181
 8016SOL     OW35509   4.465   1.748  15.068 -0.3288 -0.0460 -0.9983
 8016SOL    HW135510   4.435   1.803  14.996  0.2232  0.9340 -0.4754
 8016SOL    HW235511   4.521   1.681  15.029 -0.4926 -2.3094  2.6078
 8017SOL     OW35512   0.197   0.285  16.951 -0.0397 -0.0525  0.3096
 8017SOL    HW135513   0.223   0.353  16.888  0.2413 -0.7047 -0.2702
 8017SOL    HW235514   0.195   0.209  16.893 -0.3622 -0.5626  0.9861
 8018SOL     OW35515   0.223   3.973   0.800 -0.2722  0.3251 -0.1536
 8018SOL    HW135516   0.232   3.890   0.754  0.6696 -0.0486  0.7053
 8018SOL    HW235517   0.132   3.995   0.781 -0.4809 -0.2236  0.2032
 8019SOL     OW35518   3.882   0.013   4.125  0.3369  0.2902 -0.3153
 8019SOL    HW135519   3.931   4.660   4.151 -2.6382 -1.0016  1.5006
 8019SOL    HW235520   3.796   4.698   4.140  0.1013  0.0642 -2.2301
 8020SOL     OW35521   3.985   0.389   0.369  0.2314  0.3502  0.2403
 8020SOL    HW135522   4.071   0.393   0.410  0.7656 -0.5261 -0.8021
 8020SOL    HW235523   4.025   0.362   0.287  0.6254 -0.7867  0.8046
 8021SOL     OW35524   1.273   1.322   8.225 -0.2678 -0.5885 -0.1631
 8021SOL    HW135525   1.290   1.326   8.319  1.6874  3.2999 -0.6666
 8021SOL    HW235526   1.258   1.414   8.207 -0.4732 -0.5542  0.1987
 8022SOL     OW35527   2.714   1.595   9.050 -0.0139  0.1264  0.2269
 8022SOL    HW135528   2.702   1.607   8.955 -1.6729  4.3607  0.9489
 8022SOL    HW235529   2.809   1.609   9.053 -0.1177  0.4335  1.8343
 8023SOL     OW35530   0.870   2.542  10.592 -0.3237  0.1982  0.2581
 8023SOL    HW135531   0.833   2.514  10.676 -1.9088  0.5796 -0.3015
 8023SOL    HW235532   0.958   2.573  10.610  0.8428 -2.0267 -1.5554
 8024SOL     OW35533   3.665   1.961   7.619 -0.2046 -0.8577  0.4138
 8024SOL    HW135534   3.656   1.903   7.544  0.1818 -0.8627  0.3711
 8024SOL    HW235535   3.576   1.968   7.654  1.6774  2.4572  4.5227
 8025SOL     OW35536   1.603   2.698   5.813 -0.2053  0.0355  0.4145
 8025SOL    HW135537   1.696   2.691   5.832 -0.0166  0.8518 -0.2269
 8025SOL    HW235538   1.596   2.749   5.733 -1.6811  0.1785  0.6183
 8026SOL     OW35539   0.533   4.430   3.451  0.2311  0.4598  0.4208
 8026SOL    HW135540   0.568   4.357   3.502  1.2702  0.3498 -0.4475
 8026SOL    HW235541   0.446   4.398   3.429  1.4229 -1.5203 -1.4147
 8027SOL     OW35542   4.655   1.334   0.740 -0.0402 -0.3355  0.1324
 8027SOL    HW135543   4.591   1.263   0.738 -0.7874  0.2459  2.7845
 8027SOL    HW235544   4.673   1.362   0.651  0.3538  2.1173  0.9908
 8028SOL     OW35545   3.938   4.133   3.070  0.2341 -0.2423  0.7459
 8028SOL    HW135546   3.938   4.199   3.139  0.1159  1.7388 -1.1172
 8028SOL    HW235547   3.983   4.180   3.000  1.2023 -2.3035  0.0064
 8029SOL     OW35548   0.739   3.530   6.277 -1.0641  0.0442 -0.5232
 8029SOL    HW135549   0.771   3.590   6.345 -0.6778 -0.1588 -0.5264
 8029SOL    HW235550   0.779   3.577   6.203  0.8678 -1.5136 -0.4730
 8030SOL     OW35551   1.662   2.902   5.631 -0.7280  0.5539 -0.0114
 8030SOL    HW135552   1.646   2.948   5.548 -1.6423  0.8740  0.3455
 8030SOL    HW235553   1.738   2.946   5.668 -0.0701 -1.0377  0.5095
 8031SOL     OW35554   0.801   2.698   3.687  0.2121  0.2460  0.1569
 8031SOL    HW135555   0.833   2.723   3.601 -0.4261  0.0383 -0.1439
 8031SOL    HW235556   0.730   2.762   3.690  0.0476  0.1281 -1.1767
 8032SOL     OW35557   1.203   2.282   5.044  0.8043 -0.4369  0.1641
 8032SOL    HW135558   1.286   2.261   5.000  1.0587 -0.1217  0.4828
 8032SOL    HW235559   1.198   2.375   5.021 -1.3168 -0.0479  2.2368
 8033SOL     OW35560   1.009   3.608   2.224 -0.3934 -0.1780 -0.7864
 8033SOL    HW135561   0.961   3.547   2.166 -0.9309 -0.3768 -0.1303
 8033SOL    HW235562   0.967   3.689   2.197 -1.9770  0.6893  4.3022
 8034SOL     OW35563   3.091   2.902   7.402 -0.2828  0.3913  0.1048
 8034SOL    HW135564   3.066   2.809   7.407  1.5472  0.0370  2.8294
 8034SOL    HW235565   3.022   2.948   7.448 -1.9230 -1.2947 -0.6509
 8035SOL     OW35566   0.936   1.863   9.673 -0.5275  0.1056 -0.1672
 8035SOL    HW135567   0.881   1.904   9.740  1.4946  1.8810  0.4002
 8035SOL    HW235568   1.012   1.836   9.724 -0.1895  0.3129 -0.5593
 8036SOL     OW35569   4.431   0.537   8.326 -0.3077 -0.1356 -0.0353
 8036SOL    HW135570   4.412   0.631   8.327 -0.3089 -0.1315 -0.3796
 8036SOL    HW235571   4.343   0.519   8.295 -0.2057 -1.5291  0.4832
 8037SOL     OW35572   4.218   2.688   3.524 -0.5194 -0.0573 -0.2879
 8037SOL    HW135573   4.193   2.609   3.573 -0.9744 -0.3025 -0.9241
 8037SOL    HW235574   4.137   2.712   3.479 -0.9706 -0.9909  0.0270
 8038SOL     OW35575   0.625   1.616  16.780  0.5896  0.2110  0.0726
 8038SOL    HW135576   0.567   1.653  16.846 -0.5498 -1.0706 -0.2017
 8038SOL    HW235577   0.674   1.553  16.833  0.1383 -0.7861 -0.6893
 8039SOL     OW35578   3.577   1.994  11.202 -0.3359  0.0895  0.1024
 8039SOL    HW135579   3.642   2.063  11.193  0.5430 -0.7258  0.1500
 8039SOL    HW235580   3.622   1.910  11.190  0.0062  0.1562  0.8768
 8040SOL     OW35581   0.809   0.408   7.712 -0.2008  0.3068 -0.2231
 8040SOL    HW135582   0.829   0.401   7.806 -0.2112 -0.4613 -0.2757
 8040SOL    HW235583   0.714   0.414   7.712 -0.4168 -2.7237 -2.2016
 8041SOL     OW35584   4.243   4.226  11.807 -0.2672  0.2526  0.4309
 8041SOL    HW135585   4.201   4.150  11.847 -0.3166  0.6607  1.1554
 8041SOL    HW235586   4.175   4.248  11.744  1.3366  0.9787 -1.0280
 8042SOL     OW35587   1.682   4.028  13.687  0.0163 -0.8299 -0.2724
 8042SOL    HW135588   1.753   4.078  13.726  0.1906 -1.8361  0.6990
 8042SOL    HW235589   1.678   4.059  13.597  1.0697  2.1615  0.7044
 8043SOL     OW35590   3.611   0.228   1.197 -0.4545 -0.0370 -0.0866
 8043SOL    HW135591   3.541   0.221   1.132  1.7899  0.8351 -2.6008
 8043SOL    HW235592   3.672   0.155   1.191 -0.7348 -0.4799  2.2079
 8044SOL     OW35593   1.320   0.275   5.657 -0.3991  0.0136  0.5424
 8044SOL    HW135594   1.252   0.290   5.592  0.9774 -0.4133 -1.0070
 8044SOL    HW235595   1.334   0.180   5.651 -1.0562 -0.0603  0.1880
 8045SOL     OW35596   0.431   4.050   5.322 -0.1414  1.0443  0.3202
 8045SOL    HW135597   0.413   4.103   5.245 -1.4519 -0.0714 -0.1327
 8045SOL    HW235598   0.346   4.007   5.325  0.7689 -0.7930 -0.0143
 8046SOL     OW35599   3.244   2.911  15.204 -0.4769  0.2264  0.2040
 8046SOL    HW135600   3.259   2.962  15.283 -1.4774  1.3257 -0.3273
 8046SOL    HW235601   3.242   2.984  15.142 -0.4447 -1.1772 -1.4767
 8047SOL     OW35602   4.267   2.180   6.326 -0.1384 -0.6262  0.6554
 8047SOL    HW135603   4.285   2.187   6.420 -3.3383 -2.7707  1.4499
 8047SOL    HW235604   4.277   2.271   6.299 -0.5830 -0.9156 -0.5113
 8048SOL     OW35605   0.517   1.874   7.578 -0.6851 -0.4386  0.4668
 8048SOL    HW135606   0.494   1.802   7.637  0.9672 -2.2382 -1.0719
 8048SOL    HW235607   0.452   1.940   7.601 -0.2693  0.2469 -0.3349
 8049SOL     OW35608   0.664   2.001   2.319  0.2498  0.1322 -0.4812
 8049SOL    HW135609   0.699   2.048   2.395  0.7357  0.6259 -1.0104
 8049SOL    HW235610   0.575   1.977   2.343 -0.5311  0.4179 -3.0362
 8050SOL     OW35611   4.498   3.472   7.590  0.0962 -0.0759  0.4309
 8050SOL    HW135612   4.575   3.468   7.646 -1.0328 -0.2071  1.9521
 8050SOL    HW235613   4.441   3.525   7.646 -0.4438 -1.9199  1.6088
 8051SOL     OW35614   0.452   2.305   6.168  0.1715  0.5002  0.4843
 8051SOL    HW135615   0.487   2.362   6.237  0.1274 -1.1555  1.8793
 8051SOL    HW235616   0.372   2.272   6.210  0.2571 -0.7373 -0.3256
 8052SOL     OW35617   1.382   3.495   9.257  0.2234 -0.1089 -0.7660
 8052SOL    HW135618   1.449   3.432   9.231  0.7770  0.2844 -0.3000
 8052SOL    HW235619   1.374   3.463   9.346  0.2423  0.6294 -0.4978
 8053SOL     OW35620   2.015   2.889   9.341 -0.3503  0.4038 -0.3303
 8053SOL    HW135621   1.956   2.830   9.389 -0.0440  0.3145 -0.0619
 8053SOL    HW235622   2.088   2.894   9.403 -0.5481  3.7885 -0.3809
 8054SOL     OW35623   3.631   4.061   8.755  0.4345  0.1070  0.2195
 8054SOL    HW135624   3.687   4.106   8.691 -0.1362  1.1566  0.4481
 8054SOL    HW235625   3.608   3.983   8.705 -1.3181  0.7734 -0.0025
 8055SOL     OW35626   0.107   1.534   7.992  0.0430 -0.1254 -0.3235
 8055SOL    HW135627   0.139   1.616   8.031 -0.9576 -1.2285  2.8479
 8055SOL    HW235628   0.061   1.493   8.065 -2.2714 -1.0363 -2.2907
 8056SOL     OW35629   3.027   0.322   0.200  0.1947  0.2026  0.3590
 8056SOL    HW135630   3.079   0.323   0.280 -1.9938  0.8558  1.7852
 8056SOL    HW235631   3.041   0.231   0.174  0.1742  0.5557 -0.8673
 8057SOL     OW35632   4.404   2.984   8.710  0.6385 -0.3658 -0.2876
 8057SOL    HW135633   4.470   3.013   8.647  1.3661  2.0884  1.5690
 8057SOL    HW235634   4.334   2.953   8.654 -0.0209 -1.5432  1.1893
 8058SOL     OW35635   1.899   3.882   5.747 -0.0341 -0.5438 -0.4695
 8058SOL    HW135636   1.866   3.892   5.658 -1.3360 -2.1737 -0.1600
 8058SOL    HW235637   1.860   3.958   5.791 -1.2545 -0.3602 -1.8619
 8059SOL     OW35638   4.695   1.795   7.179 -0.1905 -0.3249  0.3891
 8059SOL    HW135639   0.024   1.740   7.122 -0.7362 -0.8266  0.3550
 8059SOL    HW235640   4.658   1.861   7.120 -1.9051 -0.3276  1.4463
 8060SOL     OW35641   4.306   0.520   2.301  0.4348 -0.3060 -0.0002
 8060SOL    HW135642   4.210   0.510   2.302  0.2781  1.3663  1.2387
 8060SOL    HW235643   4.327   0.497   2.210 -4.2695  0.8223 -1.3604
 8061SOL     OW35644   3.167   1.360  13.844 -0.4788  0.3174 -0.3210
 8061SOL    HW135645   3.078   1.394  13.858 -1.2795 -1.8580 -0.2169
 8061SOL    HW235646   3.152   1.266  13.855 -0.6943  0.0580 -2.9320
 8062SOL     OW35647   0.692   3.454   8.887 -0.3504  0.9836 -0.2798
 8062SOL    HW135648   0.750   3.455   8.811  2.5106  0.6429  1.8973
 8062SOL    HW235649   0.705   3.540   8.925 -1.4914  1.5119 -1.0708
 8063SOL     OW35650   1.586   3.080  15.790  0.2026 -0.3797 -0.1348
 8063SOL    HW135651   1.521   3.077  15.860  0.0469  1.0081 -0.2191
 8063SOL    HW235652   1.638   3.002  15.809  1.4697  0.7913  1.2066
 8064SOL     OW35653   2.811   4.386   8.455  0.3128 -0.6579 -0.6040
 8064SOL    HW135654   2.743   4.453   8.450 -1.2090 -2.2772 -1.7556
 8064SOL    HW235655   2.772   4.310   8.412 -0.5916 -0.3246 -0.3731
 8065SOL     OW35656   2.070   0.731   5.079  0.0026 -0.2655  0.2829
 8065SOL    HW135657   2.001   0.691   5.131 -0.0700  0.7760  0.9831
 8065SOL    HW235658   2.140   0.668   5.095  0.4820 -0.3687 -2.2200
 8066SOL     OW35659   1.582   4.127   7.771 -0.2744 -0.2975  0.1738
 8066SOL    HW135660   1.627   4.106   7.853 -1.2271 -3.7898 -0.2162
 8066SOL    HW235661   1.568   4.222   7.780  2.6113  0.1001  0.3364
 8067SOL     OW35662   3.442   2.213   6.667  0.8139  0.9748 -0.7200
 8067SOL    HW135663   3.533   2.239   6.676  1.1997 -0.2854 -0.9697
 8067SOL    HW235664   3.441   2.197   6.572 -1.2749 -1.3711 -0.3085
 8068SOL     OW35665   3.142   2.583  15.524  0.5257  0.1692 -0.3431
 8068SOL    HW135666   3.234   2.579  15.495  1.4478 -0.0371  2.6474
 8068SOL    HW235667   3.097   2.509  15.483  2.6907  0.1836 -2.8041
 8069SOL     OW35668   2.831   3.608   1.929 -0.3349 -0.0558  0.8005
 8069SOL    HW135669   2.926   3.600   1.923 -0.0563  2.9309  0.9329
 8069SOL    HW235670   2.816   3.683   1.871 -0.3731 -0.0805  0.7783
 8070SOL     OW35671   1.395   4.308   8.028  0.0598  0.8798  0.1352
 8070SOL    HW135672   1.395   4.332   8.120 -1.3491 -0.8806  0.6155
 8070SOL    HW235673   1.457   4.237   8.042 -0.8310  0.6092  2.6776
 8071SOL     OW35674   3.212   2.516   4.932 -0.2476  0.4416 -0.2011
 8071SOL    HW135675   3.180   2.606   4.928 -1.9730 -0.2389 -1.4540
 8071SOL    HW235676   3.233   2.511   5.025 -2.5704 -1.8413  0.2093
 8072SOL     OW35677   3.372   0.707   8.910  0.0520  0.0860 -0.0580
 8072SOL    HW135678   3.456   0.748   8.930 -0.1462  0.1820  0.5858
 8072SOL    HW235679   3.399   0.629   8.861  1.3669  0.1503  0.5602
 8073SOL     OW35680   1.129   0.874  13.580 -0.2427 -0.5150 -0.2380
 8073SOL    HW135681   1.163   0.954  13.540  0.0613 -0.5125  0.0247
 8073SOL    HW235682   1.081   0.912  13.652  2.8359  1.5645  0.7243
 8074SOL     OW35683   0.864   3.949   6.387  1.0242 -0.2196 -0.0418
 8074SOL    HW135684   0.930   3.983   6.327  2.0641 -2.5550 -0.2427
 8074SOL    HW235685   0.789   3.977   6.336  2.6810  1.2343 -1.6785
 8075SOL     OW35686   1.312   1.510   5.943 -0.0628 -0.3959  0.2545
 8075SOL    HW135687   1.262   1.436   5.909  0.9899 -0.3190 -1.4216
 8075SOL    HW235688   1.244   1.577   5.937 -0.1679 -0.6868 -1.6408
 8076SOL     OW35689   3.915   4.370   1.075  0.4210 -0.3125  0.0580
 8076SOL    HW135690   3.970   4.339   1.146  1.1597  3.5623  1.1199
 8076SOL    HW235691   3.844   4.308   1.093 -0.2225  0.9754  1.9881
 8077SOL     OW35692   0.065   2.430   2.589 -0.1574  0.7685 -0.0787
 8077SOL    HW135693   0.077   2.353   2.533  1.9593  1.3109 -0.3959
 8077SOL    HW235694   0.156   2.459   2.600  0.1020 -1.2184  3.1140
 8078SOL     OW35695   3.361   3.866  13.877  0.2497 -0.1205  0.1080
 8078SOL    HW135696   3.283   3.817  13.901 -0.5615  0.9460 -0.3102
 8078SOL    HW235697   3.418   3.791  13.860 -0.5254 -0.7026  0.0768
 8079SOL     OW35698   2.884   0.447   9.302  0.0096  0.0824  0.0080
 8079SOL    HW135699   2.892   0.440   9.397  1.8563 -1.8972 -0.2909
 8079SOL    HW235700   2.907   0.360   9.271  2.9770  0.6113  0.7835
 8080SOL     OW35701   2.109   0.507   8.710 -0.1307 -0.6094 -0.4109
 8080SOL    HW135702   2.145   0.543   8.629 -1.2587 -1.6124 -1.3405
 8080SOL    HW235703   2.149   0.420   8.709  1.2007 -0.0391  1.6889
 8081SOL     OW35704   2.781   1.672   5.424  0.2785  0.4791  0.0132
 8081SOL    HW135705   2.696   1.652   5.463 -1.0340  0.7133 -2.7751
 8081SOL    HW235706   2.813   1.748   5.474 -1.4133  0.4240  1.1970
 8082SOL     OW35707   2.637   4.169   7.892 -0.2225  0.0576  0.1844
 8082SOL    HW135708   2.572   4.206   7.831 -1.3766 -0.0581  1.3561
 8082SOL    HW235709   2.606   4.079   7.881  0.4908  0.2440 -3.3502
 8083SOL     OW35710   1.251   1.829   7.119  0.7295 -0.8223  0.4614
 8083SOL    HW135711   1.177   1.787   7.163 -1.2166  0.5279 -1.5212
 8083SOL    HW235712   1.276   1.752   7.068  1.6338  0.2703 -0.7447
 8084SOL     OW35713   4.096   0.572   3.254 -0.0084  0.3102 -0.2873
 8084SOL    HW135714   4.144   0.519   3.318  0.0888 -1.4560 -1.8034
 8084SOL    HW235715   4.153   0.648   3.268 -1.1828  1.4151 -1.5573
 8085SOL     OW35716   2.577   3.020   6.580  0.3689 -0.1419 -0.4065
 8085SOL    HW135717   2.494   3.022   6.533 -0.0668 -1.7735  0.2653
 8085SOL    HW235718   2.621   3.077   6.517  1.9111 -1.6992 -0.7298
 8086SOL     OW35719   1.583   2.789  12.399 -0.2732 -0.1024  0.1614
 8086SOL    HW135720   1.622   2.876  12.384  2.2225 -0.9755  1.6333
 8086SOL    HW235721   1.489   2.805  12.405 -0.3607 -1.4640  2.4457
 8087SOL     OW35722   0.900   3.682   7.643 -0.2981 -0.7844  0.7320
 8087SOL    HW135723   0.897   3.673   7.738  0.5311 -0.2737  0.8056
 8087SOL    HW235724   0.868   3.772   7.638  0.5686 -0.5523 -0.5526
 8088SOL     OW35725   1.714   3.229   6.832 -0.4171 -0.3670 -0.0531
 8088SOL    HW135726   1.747   3.275   6.754  0.5742 -0.0308  0.5718
 8088SOL    HW235727   1.620   3.247   6.842 -0.2278  0.6355 -0.0657
 8089SOL     OW35728   3.895   1.457  13.338  0.2212  0.4233  0.0716
 8089SOL    HW135729   3.842   1.439  13.260 -2.8702 -0.3947  2.3434
 8089SOL    HW235730   3.974   1.409  13.316  0.6539  1.0493  0.2747
 8090SOL     OW35731   2.700   4.274   6.246  0.0437 -0.1699  0.2843
 8090SOL    HW135732   2.771   4.321   6.203 -2.8434  2.0831 -2.0264
 8090SOL    HW235733   2.737   4.251   6.331  1.2707 -3.0318 -1.0148
 8091SOL     OW35734   2.570   0.880   3.540  0.0776  0.2414 -0.3546
 8091SOL    HW135735   2.552   0.968   3.505  1.2289  1.5037  2.2787
 8091SOL    HW235736   2.540   0.831   3.463  1.5649 -1.0349 -0.1101
 8092SOL     OW35737   0.842   3.704   4.474  0.1006  0.1213 -0.7897
 8092SOL    HW135738   0.924   3.692   4.426 -1.0145  3.6279 -3.6123
 8092SOL    HW235739   0.813   3.791   4.445  2.6199  1.0378 -0.5339
 8093SOL     OW35740   1.843   3.141  10.256  0.1426  0.1548 -0.0861
 8093SOL    HW135741   1.865   3.208  10.320 -0.2232 -0.6821  0.9197
 8093SOL    HW235742   1.747   3.147  10.257  0.2944  2.3697  0.8013
 8094SOL     OW35743   1.196   1.412   1.484 -0.5464  0.8414  0.1552
 8094SOL    HW135744   1.290   1.412   1.462 -0.9732  3.9675 -1.6793
 8094SOL    HW235745   1.163   1.469   1.415 -1.0659  1.9036  1.2820
 8095SOL     OW35746   3.322   2.924  12.523 -0.3238 -0.0922  0.2718
 8095SOL    HW135747   3.252   2.990  12.517  1.5686  1.7697 -1.1764
 8095SOL    HW235748   3.394   2.977  12.557 -0.9913  0.3594  0.9888
 8096SOL     OW35749   1.873   2.980   7.916 -0.0340 -0.5764 -0.0697
 8096SOL    HW135750   1.883   2.903   7.972  0.3308  1.6208  2.8652
 8096SOL    HW235751   1.903   2.944   7.832 -1.2900 -0.7512 -0.4511
 8097SOL     OW35752   1.871   1.665   4.668  0.1889 -0.3922 -0.4692
 8097SOL    HW135753   1.918   1.586   4.695 -0.6341 -1.0454 -0.9539
 8097SOL    HW235754   1.801   1.674   4.732  1.0308  2.6540  0.0435
 8098SOL     OW35755   3.859   2.143   2.855  0.4768 -0.3015  0.3732
 8098SOL    HW135756   3.827   2.071   2.909  0.7100  2.0525  3.6507
 8098SOL    HW235757   3.952   2.133   2.875  0.6548  0.7705  0.0721
 8099SOL     OW35758   0.313   2.625   3.403  0.0387  0.1755 -0.4198
 8099SOL    HW135759   0.403   2.649   3.429  0.6244  0.0193 -2.3522
 8099SOL    HW235760   0.293   2.697   3.344 -0.2390 -0.4926 -1.1337
 8100SOL     OW35761   0.488   3.846  16.485 -0.7098 -0.1629  0.0697
 8100SOL    HW135762   0.479   3.941  16.473  0.7027  0.0706  0.8727
 8100SOL    HW235763   0.404   3.825  16.525 -0.4686 -2.0959 -0.4522
 8101SOL     OW35764   1.886   1.389  15.625  0.4162 -0.5704 -0.5572
 8101SOL    HW135765   1.928   1.306  15.648 -1.1525 -0.3673  3.0786
 8101SOL    HW235766   1.936   1.402  15.545  0.0329 -1.8724 -1.0011
 8102SOL     OW35767   0.130   3.396   4.650  0.0251  0.0480 -0.1926
 8102SOL    HW135768   0.092   3.479   4.621  0.8463  0.7173  0.6911
 8102SOL    HW235769   0.076   3.368   4.724 -1.1445  1.3879 -0.5506
 8103SOL     OW35770   1.418   4.694   6.892  0.2324 -0.0696  0.7851
 8103SOL    HW135771   1.335   4.657   6.920 -0.1942 -0.1777 -0.6418
 8103SOL    HW235772   1.420   4.689   6.796 -3.0869  1.6023  0.6517
 8104SOL     OW35773   0.414   1.137   9.278  0.0515  0.1700  0.1664
 8104SOL    HW135774   0.461   1.116   9.358 -2.9932  0.6026  2.0714
 8104SOL    HW235775   0.434   1.230   9.269  0.6267 -0.0807 -1.1343
 8105SOL     OW35776   1.426   1.259   7.045  0.1437 -0.0232 -0.7561
 8105SOL    HW135777   1.415   1.171   7.009  2.3732 -0.4192 -0.4331
 8105SOL    HW235778   1.483   1.299   6.979  1.4220 -0.9346 -0.1937
 8106SOL     OW35779   3.168   0.489   4.170  0.3225 -0.0076  0.1234
 8106SOL    HW135780   3.239   0.538   4.129  2.3248 -1.8958  1.3922
 8106SOL    HW235781   3.179   0.407   4.123 -1.0236  1.9563 -3.6188
 8107SOL     OW35782   2.550   3.868   2.793  0.3448  0.0155 -0.0600
 8107SOL    HW135783   2.566   3.804   2.861 -1.9844 -1.4505 -0.8889
 8107SOL    HW235784   2.630   3.921   2.794  0.1149  0.4140 -2.2012
 8108SOL     OW35785   3.309   0.521  14.116  0.5441  0.8200 -0.2251
 8108SOL    HW135786   3.309   0.444  14.060  1.7889  2.3897 -2.3746
 8108SOL    HW235787   3.233   0.554  14.069 -0.0120 -0.1187  0.0043
 8109SOL     OW35788   4.403   1.253   5.111 -0.2947  0.0789  0.3116
 8109SOL    HW135789   4.370   1.174   5.154 -0.4484 -0.3335 -0.5718
 8109SOL    HW235790   4.330   1.261   5.049 -1.2517 -2.1951  1.1209
 8110SOL     OW35791   0.009   4.249   0.201  0.0721  0.2618  0.1776
 8110SOL    HW135792   0.015   4.155   0.182 -1.5191  0.4517 -1.2908
 8110SOL    HW235793   0.040   4.248   0.291 -0.6986  1.3965  0.4615
 8111SOL     OW35794   0.062   3.149   3.723 -0.5175  0.3068  0.2930
 8111SOL    HW135795   0.023   3.185   3.643 -0.6762  0.3717  0.3977
 8111SOL    HW235796   0.152   3.176   3.705 -0.1646  0.6501  2.5415
 8112SOL     OW35797   0.912   0.979  12.952  0.3399  0.0069  0.2776
 8112SOL    HW135798   0.827   1.017  12.976  0.1672 -0.6197  0.6599
 8112SOL    HW235799   0.974   1.052  12.950 -0.6164  0.7943 -1.0544
 8113SOL     OW35800   2.453   4.510   5.071  0.4924 -0.5494  0.4562
 8113SOL    HW135801   2.506   4.584   5.102 -0.9619  1.3219 -1.5203
 8113SOL    HW235802   2.409   4.476   5.149 -0.7651  0.7411  0.3287
 8114SOL     OW35803   2.505   4.023   2.331  0.0528  0.3520  0.0403
 8114SOL    HW135804   2.457   3.963   2.274  2.1788 -0.0870 -1.2801
 8114SOL    HW235805   2.432   4.078   2.360  0.5695  0.2923  1.4942
 8115SOL     OW35806   3.273   1.081   8.620 -0.0928 -0.2839  0.5759
 8115SOL    HW135807   3.191   1.107   8.577  1.2156  1.8225 -0.6212
 8115SOL    HW235808   3.249   0.995   8.655  2.4474 -1.8935 -1.6684
 8116SOL     OW35809   3.006   2.137   7.234 -0.3502 -0.3809  1.1182
 8116SOL    HW135810   3.032   2.066   7.175 -0.5893  2.4234 -2.3749
 8116SOL    HW235811   3.085   2.163   7.282 -1.1309 -2.5727  3.5930
 8117SOL     OW35812   0.983   1.756   7.603  0.7024 -0.1336  0.0039
 8117SOL    HW135813   1.016   1.775   7.691 -0.7646  4.2424 -0.4069
 8117SOL    HW235814   0.945   1.837   7.569 -1.0564 -1.1194 -0.3935
 8118SOL     OW35815   0.754   0.706  11.860  0.2333 -0.2268 -0.3613
 8118SOL    HW135816   0.809   0.721  11.937 -1.3645 -0.6302  0.8780
 8118SOL    HW235817   0.666   0.708  11.898  1.5803  0.1056  2.7834
 8119SOL     OW35818   1.811   4.278  10.664 -0.2691 -0.3158 -0.2469
 8119SOL    HW135819   1.843   4.197  10.625 -0.2076 -1.0211  1.2728
 8119SOL    HW235820   1.717   4.274  10.643  0.1854 -1.7957 -1.9790
 8120SOL     OW35821   0.508   2.089  14.626 -0.9134  0.5987 -0.1866
 8120SOL    HW135822   0.542   2.178  14.626  0.8380 -0.0717  1.3524
 8120SOL    HW235823   0.423   2.108  14.666 -1.6034 -1.6806 -0.5832
 8121SOL     OW35824   4.427   4.311   1.876 -0.5322  0.2179 -0.3273
 8121SOL    HW135825   4.500   4.335   1.933 -1.6800  0.0217  1.2473
 8121SOL    HW235826   4.375   4.244   1.921 -0.0661 -0.2730 -0.5325
 8122SOL     OW35827   2.969   2.463  15.963 -0.5511 -0.5565  0.5450
 8122SOL    HW135828   2.946   2.547  16.002  1.1995  0.2157 -0.1040
 8122SOL    HW235829   2.924   2.463  15.879  1.4757  2.7946 -0.5329
 8123SOL     OW35830   0.593   1.898   4.638 -0.2353 -0.2837  0.2488
 8123SOL    HW135831   0.614   1.985   4.604 -1.8715  0.7269  1.8316
 8123SOL    HW235832   0.572   1.916   4.730 -1.7453  0.6998 -0.2822
 8124SOL     OW35833   4.609   2.633   6.651 -0.1949 -0.2983  0.3552
 8124SOL    HW135834   4.632   2.724   6.672 -1.1888 -0.1670  0.8590
 8124SOL    HW235835   4.598   2.607   6.742 -0.7352 -2.7090 -0.4124
 8125SOL     OW35836   3.826   1.746   8.897 -0.2823 -0.1936  0.1909
 8125SOL    HW135837   3.804   1.691   8.972  1.1638 -0.1613  0.6260
 8125SOL    HW235838   3.894   1.695   8.854 -0.0345  1.0049 -0.8793
 8126SOL     OW35839   4.149   1.291   6.973  0.0213  0.6402  0.0697
 8126SOL    HW135840   4.100   1.289   7.055  0.4698  1.5718  0.3643
 8126SOL    HW235841   4.122   1.205   6.942  1.1400  0.1851  0.3605
 8127SOL     OW35842   4.056   2.776   9.270  0.4927  0.0537 -0.0355
 8127SOL    HW135843   4.112   2.771   9.192  1.0862 -0.4256  0.4177
 8127SOL    HW235844   3.994   2.714   9.230 -0.2128  0.7309 -0.0053
 8128SOL     OW35845   0.600   1.580   6.201  0.1197 -0.3015 -0.2212
 8128SOL    HW135846   0.667   1.643   6.229  1.1825 -1.0652 -1.0703
 8128SOL    HW235847   0.566   1.546   6.284 -0.2524  0.9436  0.1421
 8129SOL     OW35848   2.014   3.007   0.542  0.5700  0.3061 -0.3004
 8129SOL    HW135849   2.018   3.095   0.579  0.8716  0.0846  0.1962
 8129SOL    HW235850   2.020   2.951   0.619 -0.2151  0.1016 -0.3886
 8130SOL     OW35851   2.191   3.609   8.825 -0.2019 -0.2079  0.8604
 8130SOL    HW135852   2.277   3.604   8.784 -1.3483  0.0790 -1.5396
 8130SOL    HW235853   2.177   3.514   8.829  1.0715 -0.4260  0.1463
 8131SOL     OW35854   2.717   0.365   5.005 -0.0590 -0.0273 -0.0172
 8131SOL    HW135855   2.649   0.383   5.071 -1.6306 -1.4277 -1.2421
 8131SOL    HW235856   2.756   0.448   4.978 -0.3243  0.8049  2.1138
 8132SOL     OW35857   2.368   4.439  17.112 -0.2645 -0.3619 -0.2187
 8132SOL    HW135858   2.350   4.530  17.086  0.5818  0.6106  2.5034
 8132SOL    HW235859   2.455   4.414  17.082 -1.6503 -1.0474 -3.5726
 8133SOL     OW35860   2.585   0.680   7.889  0.3190 -0.0507 -0.1817
 8133SOL    HW135861   2.504   0.650   7.931  1.1710 -2.3474 -0.1567
 8133SOL    HW235862   2.619   0.609   7.834  1.6175  0.0478  0.5157
 8134SOL     OW35863   4.409   0.576   2.783 -0.5132  0.6547  0.2349
 8134SOL    HW135864   4.502   0.571   2.764 -0.8022  0.1206 -1.0869
 8134SOL    HW235865   4.380   0.492   2.746 -0.3996  1.4377 -1.6309
 8135SOL     OW35866   1.317   2.446   7.300 -0.1855 -0.1642 -0.0755
 8135SOL    HW135867   1.331   2.528   7.347  0.8149 -1.0326  1.1414
 8135SOL    HW235868   1.239   2.416   7.346  0.2245 -0.6091  0.3261
 8136SOL     OW35869   2.264   1.174  16.993  0.1601 -0.0591 -0.4906
 8136SOL    HW135870   2.253   1.170  16.898 -0.5929 -1.1467 -0.3594
 8136SOL    HW235871   2.314   1.255  17.003 -0.4625  0.1950  0.6269
 8137SOL     OW35872   1.152   2.210   5.691  0.2918  0.3495  0.8541
 8137SOL    HW135873   1.187   2.155   5.620 -0.4512  0.4960  0.3850
 8137SOL    HW235874   1.064   2.181   5.714 -0.4736  0.7450 -1.6221
 8138SOL     OW35875   4.605   0.565   3.158 -0.6792  0.1588 -0.0022
 8138SOL    HW135876   4.564   0.572   3.244 -1.9927 -0.1380 -0.5992
 8138SOL    HW235877   4.640   0.476   3.158  0.7429  0.7269 -0.4409
 8139SOL     OW35878   3.898   0.195  12.122 -0.1178  0.1772 -0.1272
 8139SOL    HW135879   3.941   0.148  12.051 -1.4658  1.9718 -2.1488
 8139SOL    HW235880   3.932   0.163  12.206 -0.5074 -0.4569 -0.2146
 8140SOL     OW35881   1.016   1.853   4.509 -0.5265 -0.2723 -0.1749
 8140SOL    HW135882   0.976   1.935   4.480  0.9668  0.4308 -0.2628
 8140SOL    HW235883   1.101   1.891   4.534 -1.4503  1.2794  0.5612
 8141SOL     OW35884   1.113   1.971  15.711 -0.6746  0.4296  0.3132
 8141SOL    HW135885   1.202   2.004  15.706 -0.6765 -0.0243 -2.5186
 8141SOL    HW235886   1.102   1.955  15.805 -1.4342 -1.1830 -0.0508
 8142SOL     OW35887   0.805   4.712  14.259 -0.1901  0.1980 -0.6801
 8142SOL    HW135888   0.897   0.008  14.277  0.3145 -0.9182 -1.9836
 8142SOL    HW235889   0.792   4.623  14.292  2.4197 -0.5701 -1.7125
 8143SOL     OW35890   4.581   2.253   9.491 -0.4118  0.3774  0.2147
 8143SOL    HW135891   4.660   2.266   9.543  0.7836 -0.0238 -1.4791
 8143SOL    HW235892   4.611   2.192   9.424  1.5540  1.2639  0.2818
 8144SOL     OW35893   0.494   2.956   9.118  0.1265  0.2453  0.0555
 8144SOL    HW135894   0.417   2.999   9.082 -0.3918 -0.5235  0.2380
 8144SOL    HW235895   0.547   2.938   9.040 -1.0932  0.8776 -0.9071
 8145SOL     OW35896   4.050   2.730   0.551  0.2364  0.2090  0.2006
 8145SOL    HW135897   3.992   2.783   0.496 -1.8646 -0.7829  1.4582
 8145SOL    HW235898   3.996   2.725   0.630  3.5464  2.1114  2.5468
 8146SOL     OW35899   3.292   0.580   5.541  0.4087  1.0691 -0.6983
 8146SOL    HW135900   3.272   0.504   5.487  0.8737  1.0384 -0.8313
 8146SOL    HW235901   3.357   0.628   5.490  0.3778 -0.3056 -2.0154
 8147SOL     OW35902   1.686   2.174   8.541  0.0334  0.2914 -0.0640
 8147SOL    HW135903   1.753   2.182   8.609 -1.8524  0.3512  1.7866
 8147SOL    HW235904   1.722   2.232   8.474  1.0802  0.9798  1.0965
 8148SOL     OW35905   1.370   0.522   8.616  0.1003  0.2826 -0.5128
 8148SOL    HW135906   1.404   0.582   8.549  2.3266 -2.0408 -1.4783
 8148SOL    HW235907   1.374   0.576   8.695 -2.4906 -1.0643  0.5320
 8149SOL     OW35908   2.491   0.012   5.658 -0.3618 -0.3084  0.4956
 8149SOL    HW135909   2.452   0.040   5.741 -1.6514 -0.6375 -0.0051
 8149SOL    HW235910   2.577   4.706   5.687 -0.2928  0.2942  0.9336
 8150SOL     OW35911   0.632   3.440   7.459 -0.0261 -0.3109  0.8176
 8150SOL    HW135912   0.593   3.368   7.410 -1.1298  2.0982 -1.8186
 8150SOL    HW235913   0.658   3.388   7.536  0.8656  0.7190  1.2153
 8151SOL     OW35914   3.988   3.552   7.508 -0.8861  0.2081 -0.0451
 8151SOL    HW135915   3.976   3.528   7.416 -3.7864 -0.1289  0.4244
 8151SOL    HW235916   4.045   3.482   7.539  0.5169  1.0748 -0.6762
 8152SOL     OW35917   1.050   3.844   3.635  0.1295 -0.3655  0.7145
 8152SOL    HW135918   1.005   3.759   3.627 -0.5224  0.2423 -1.8463
 8152SOL    HW235919   0.973   3.898   3.650 -0.6279 -0.3970 -3.0353
 8153SOL     OW35920   2.804   0.385   4.670  0.0051  0.1675 -0.4109
 8153SOL    HW135921   2.828   0.453   4.608  0.2045  0.1469 -0.3578
 8153SOL    HW235922   2.712   0.403   4.685  0.2609  0.4122  0.8345
 8154SOL     OW35923   2.471   4.223   8.960  0.4075 -0.5323 -0.1514
 8154SOL    HW135924   2.539   4.166   8.995  1.8538  1.0017 -0.4478
 8154SOL    HW235925   2.501   4.305   9.001  1.1138 -1.0504  0.3818
 8155SOL     OW35926   3.337   3.046  10.989 -0.2260  0.7085 -0.0598
 8155SOL    HW135927   3.330   3.124  11.045 -1.1094 -0.8505  1.9789
 8155SOL    HW235928   3.302   3.073  10.904  1.3172  1.6931 -0.3868
 8156SOL     OW35929   1.405   0.646   6.444  0.1860  0.1204  0.1506
 8156SOL    HW135930   1.404   0.720   6.505 -0.0239  0.8936 -0.7887
 8156SOL    HW235931   1.424   0.686   6.359  0.4170  1.4601  0.8357
 8157SOL     OW35932   4.471   4.079   6.924 -0.2566 -0.1792 -0.0908
 8157SOL    HW135933   4.550   4.112   6.880  0.1794  1.2949  1.8197
 8157SOL    HW235934   4.436   4.030   6.849  0.6800  0.6374 -1.0635
 8158SOL     OW35935   3.954   4.425   4.977  0.1814 -0.2595 -0.2051
 8158SOL    HW135936   4.035   4.430   4.925  1.7794 -3.1255  2.0574
 8158SOL    HW235937   3.993   4.421   5.064  0.2794  0.0164 -0.2353
 8159SOL     OW35938   2.974   4.414   3.700  0.1946 -0.3747 -0.0906
 8159SOL    HW135939   2.938   4.456   3.622  2.1774  0.1354 -0.7438
 8159SOL    HW235940   3.022   4.340   3.664  0.0159 -0.1810 -0.7302
 8160SOL     OW35941   0.518   0.342   5.246 -0.0208 -0.5637  0.8559
 8160SOL    HW135942   0.610   0.332   5.269  0.2545 -0.7358 -0.3084
 8160SOL    HW235943   0.511   0.431   5.210  3.6567 -0.5104  0.2791
 8161SOL     OW35944   4.552   0.936  11.910  0.0161 -0.4196  0.5296
 8161SOL    HW135945   4.491   0.968  11.976 -0.5514 -0.3305 -0.0387
 8161SOL    HW235946   4.573   1.018  11.865 -2.7316 -0.5773 -1.0134
 8162SOL     OW35947   2.401   4.451   4.672  0.5485 -0.0899 -0.1519
 8162SOL    HW135948   2.342   4.526   4.667  0.3393 -0.2491 -0.0393
 8162SOL    HW235949   2.404   4.440   4.767  2.9822  0.3049 -0.1715
 8163SOL     OW35950   1.215   1.001   5.237 -0.1773  0.3348  0.2618
 8163SOL    HW135951   1.271   0.952   5.297 -0.0594  0.6839  0.4390
 8163SOL    HW235952   1.252   1.089   5.243 -0.0708  0.2338  1.1391
 8164SOL     OW35953   2.166   1.116   1.538 -0.0652 -0.1805  0.1258
 8164SOL    HW135954   2.114   1.041   1.509  1.3857 -0.3170 -2.1122
 8164SOL    HW235955   2.226   1.060   1.587  0.2605 -0.1357 -0.2232
 8165SOL     OW35956   0.746   4.438   5.269 -0.5123 -0.0873 -0.4179
 8165SOL    HW135957   0.742   4.461   5.362 -1.0897 -2.5861  0.1651
 8165SOL    HW235958   0.669   4.491   5.249 -0.9566 -0.8084 -0.6038
 8166SOL     OW35959   2.591   4.318  16.650  0.3072 -0.1602 -0.2372
 8166SOL    HW135960   2.588   4.326  16.555  2.3684  1.0516 -0.2117
 8166SOL    HW235961   2.675   4.359  16.670 -0.4783  1.7939 -0.9762
 8167SOL     OW35962   3.358   0.223   2.215  0.1718 -0.1911  0.5384
 8167SOL    HW135963   3.342   0.214   2.309  0.6180  1.8267  0.8034
 8167SOL    HW235964   3.452   0.234   2.205  0.2587 -0.0333  1.5429
 8168SOL     OW35965   3.490   3.437  10.794 -0.1220  0.1694  0.2115
 8168SOL    HW135966   3.444   3.513  10.758 -1.1303 -0.7215 -0.4055
 8168SOL    HW235967   3.526   3.394  10.716 -0.1488  1.0848 -0.3104
 8169SOL     OW35968   1.490   2.520   7.862 -0.1130 -0.0800  0.1380
 8169SOL    HW135969   1.569   2.479   7.827  0.0918 -0.8409  1.4890
 8169SOL    HW235970   1.428   2.450   7.880 -0.7066  0.5208  0.4171
 8170SOL     OW35971   2.255   1.930   7.577  0.1870  0.1502  0.4225
 8170SOL    HW135972   2.311   2.002   7.608  0.1658  0.8546 -1.2175
 8170SOL    HW235973   2.184   1.945   7.640 -0.0495  1.6709 -0.2220
 8171SOL     OW35974   0.169   0.166   7.503 -0.7755 -0.0264 -0.2349
 8171SOL    HW135975   0.161   0.075   7.531 -0.0810 -0.2385 -0.7024
 8171SOL    HW235976   0.185   0.217   7.582 -0.8361  1.2985 -1.0562
 8172SOL     OW35977   0.326   2.137   7.627  0.0809 -0.2860  0.1346
 8172SOL    HW135978   0.247   2.177   7.592  1.4101  0.7120 -1.7419
 8172SOL    HW235979   0.374   2.124   7.545 -0.2508  0.6521 -0.2135
 8173SOL     OW35980   2.156   1.753   9.617 -0.9667 -0.4965  0.7085
 8173SOL    HW135981   2.224   1.693   9.588 -0.3719  1.1544 -1.3100
 8173SOL    HW235982   2.175   1.767   9.710 -0.4370 -0.3978  0.5881
 8174SOL     OW35983   3.875   3.887   9.072  0.4608  0.1566  0.2105
 8174SOL    HW135984   3.898   3.803   9.112 -1.3391 -0.7383 -0.6082
 8174SOL    HW235985   3.820   3.860   8.998 -1.1367  2.4559  0.5835
 8175SOL     OW35986   0.882   2.950  16.534  0.3462 -0.3544 -0.2605
 8175SOL    HW135987   0.942   2.970  16.606 -0.6493  0.4741  0.3613
 8175SOL    HW235988   0.816   2.895  16.578  1.2825 -1.5259 -0.3113
 8176SOL     OW35989   4.560   2.612  14.799 -0.3992 -0.4979 -0.4284
 8176SOL    HW135990   4.495   2.672  14.762 -1.7816 -2.1078 -0.6377
 8176SOL    HW235991   4.493   2.575  14.858 -1.1183  1.0852 -0.2612
 8177SOL     OW35992   0.484   4.663   2.512  0.3075  0.5531  0.7384
 8177SOL    HW135993   0.551   4.595   2.520  0.7914  0.9795  0.3173
 8177SOL    HW235994   0.463   4.689   2.602  2.0355  0.0843  1.2691
 8178SOL     OW35995   3.875   3.514  14.787  0.1665  0.2723 -0.6352
 8178SOL    HW135996   3.857   3.516  14.693  1.5843  0.2496 -0.9095
 8178SOL    HW235997   3.959   3.561  14.787  0.4592 -0.2496 -1.2869
 8179SOL     OW35998   1.579   0.416   5.623  0.4980 -0.0172  0.3336
 8179SOL    HW135999   1.494   0.459   5.615  0.2756 -0.7023 -1.1158
 8179SOL    HW236000   1.549   0.332   5.587  0.1494 -0.5018  1.7671
 8180SOL     OW36001   0.610   1.603   7.001  0.3425 -0.0482  0.6759
 8180SOL    HW136002   0.529   1.597   6.949  0.0804  2.1534  0.8245
 8180SOL    HW236003   0.621   1.697   7.012  2.4829 -0.0916 -1.1582
 8181SOL     OW36004   0.760   4.526  17.397 -0.0386  0.5316 -0.0808
 8181SOL    HW136005   0.831   4.536  17.335 -0.3049 -0.7743 -0.5968
 8181SOL    HW236006   0.770   4.608  17.446 -1.5623 -0.5522  2.0474
 8182SOL     OW36007   3.396   1.222   8.395  0.3003 -0.0663  0.3392
 8182SOL    HW136008   3.371   1.173   8.473 -0.4032 -1.1687 -0.5851
 8182SOL    HW236009   3.437   1.296   8.440 -0.2192  0.4033  0.0245
 8183SOL     OW36010   0.664   2.307   1.082 -0.0155 -0.5621 -0.3660
 8183SOL    HW136011   0.619   2.380   1.125  1.7049 -0.2882  0.9241
 8183SOL    HW236012   0.651   2.340   0.993 -0.7289 -1.8880 -0.7632
 8184SOL     OW36013   4.102   0.168  10.358 -0.2427 -0.4708 -0.0833
 8184SOL    HW136014   4.130   0.243  10.306 -0.9731  0.6021  1.0992
 8184SOL    HW236015   4.173   0.106  10.339 -1.3758 -1.6788 -0.3852
 8185SOL     OW36016   4.633   3.884   5.395  0.3421  0.5647 -0.1653
 8185SOL    HW136017   4.562   3.846   5.343 -0.2207  2.7926 -1.0107
 8185SOL    HW236018   4.596   3.877   5.483 -0.2207  1.2353 -0.3459
 8186SOL     OW36019   1.220   4.310   2.101  0.1484 -0.3254  0.6606
 8186SOL    HW136020   1.186   4.399   2.091  2.9411  0.7729  0.7263
 8186SOL    HW236021   1.172   4.266   2.031  0.5623 -2.2073  1.5746
 8187SOL     OW36022   3.695   4.216   2.272 -0.3087 -0.4633 -0.7786
 8187SOL    HW136023   3.693   4.133   2.223 -0.1402 -1.2509  0.5566
 8187SOL    HW236024   3.758   4.259   2.214 -0.2034  1.7865  1.0105
 8188SOL     OW36025   2.449   3.341   5.605  0.5481 -0.4748 -0.2071
 8188SOL    HW136026   2.378   3.276   5.598  0.1105 -0.1203  1.0471
 8188SOL    HW236027   2.524   3.281   5.602 -1.3348 -2.8823  0.8058
 8189SOL     OW36028   4.147   1.823   3.581 -0.5584 -0.1352 -0.3126
 8189SOL    HW136029   4.067   1.784   3.616  0.6728 -1.6111  0.8829
 8189SOL    HW236030   4.208   1.757   3.614  0.1056  0.2870 -0.7130
 8190SOL     OW36031   4.281   2.603   4.397 -0.3309  0.2945  0.1882
 8190SOL    HW136032   4.243   2.524   4.435 -2.0384  0.7309 -0.6227
 8190SOL    HW236033   4.203   2.657   4.406 -0.5841 -0.1436  0.6546
 8191SOL     OW36034   1.880   1.911   9.693  0.3220  0.2270 -0.3359
 8191SOL    HW136035   1.916   1.992   9.656 -0.7838  1.1499  0.6259
 8191SOL    HW236036   1.819   1.946   9.758  1.4055 -0.7297  1.1970
 8192SOL     OW36037   1.985   1.241  13.882  0.0949 -0.1029  0.3206
 8192SOL    HW136038   1.896   1.214  13.860 -0.5557  0.1031  2.7252
 8192SOL    HW236039   2.031   1.174  13.832 -1.0872 -0.5306 -0.1971
 8193SOL     OW36040   3.287   3.756   4.859  0.3805 -0.2818 -0.1714
 8193SOL    HW136041   3.310   3.822   4.793 -0.5799  1.4002  1.1596
 8193SOL    HW236042   3.365   3.751   4.914 -0.1947  1.0609  0.7779
 8194SOL     OW36043   3.879   4.398   1.745 -0.2468  0.2970  0.8091
 8194SOL    HW136044   3.924   4.349   1.815 -1.6907 -0.0771  1.4785
 8194SOL    HW236045   3.944   4.467   1.733 -0.4263  0.3214 -0.0273
 8195SOL     OW36046   1.701   1.387   1.920 -0.0471  0.4387  0.0468
 8195SOL    HW136047   1.715   1.319   1.986  0.0957 -0.2659 -0.7136
 8195SOL    HW236048   1.609   1.406   1.938 -0.0973 -1.9702  2.3139
 8196SOL     OW36049   2.182   1.243  11.974 -0.2672 -0.1932 -0.4646
 8196SOL    HW136050   2.144   1.279  11.894 -0.9667 -1.2940 -0.6369
 8196SOL    HW236051   2.193   1.326  12.020 -1.6506 -0.6738  0.7456
 8197SOL     OW36052   0.539   0.468   7.155 -0.2546 -0.3569 -0.3019
 8197SOL    HW136053   0.475   0.416   7.202 -1.1129  0.4674 -0.5485
 8197SOL    HW236054   0.619   0.465   7.208  0.1710  1.8501 -0.7716
 8198SOL     OW36055   3.847   1.256   2.160  0.5552 -0.2225  0.0994
 8198SOL    HW136056   3.816   1.342   2.189 -0.7091  0.0165 -1.9385
 8198SOL    HW236057   3.916   1.239   2.224  1.1583 -2.6060 -1.2033
 8199SOL     OW36058   0.357   2.029   1.530  0.3803  0.2493 -0.0088
 8199SOL    HW136059   0.367   2.070   1.616 -1.2843 -0.0552  0.3414
 8199SOL    HW236060   0.300   1.955   1.553  2.2075 -0.9806  0.6022
 8200SOL     OW36061   2.079   1.336   6.629  0.5758 -0.3870 -0.4964
 8200SOL    HW136062   2.021   1.261   6.639  1.7056 -1.0228  1.3233
 8200SOL    HW236063   2.136   1.326   6.705  0.9386  0.7754 -0.6182
 8201SOL     OW36064   1.215   4.060   3.762  0.1843  0.5830 -0.1388
 8201SOL    HW136065   1.165   3.990   3.720  0.4263 -0.7328  1.7887
 8201SOL    HW236066   1.198   4.135   3.704 -3.2510 -0.1245 -0.0269
 8202SOL     OW36067   3.779   0.460  16.790 -0.0932 -0.7205 -0.4639
 8202SOL    HW136068   3.753   0.550  16.811  1.7681 -0.0347 -1.1176
 8202SOL    HW236069   3.807   0.476  16.700  2.1979 -1.8698  0.0395
 8203SOL     OW36070   1.416   4.534   4.215  0.1357  0.6890 -0.2063
 8203SOL    HW136071   1.421   4.605   4.279 -0.5822 -0.4858  1.1659
 8203SOL    HW236072   1.326   4.531   4.182 -0.1959  1.5793  0.5965
 8204SOL     OW36073   1.712   2.549   8.847 -0.3419 -0.2229  0.4049
 8204SOL    HW136074   1.630   2.546   8.897  0.5139 -0.2347  1.8167
 8204SOL    HW236075   1.701   2.629   8.796 -1.1530 -0.0885  0.7986
 8205SOL     OW36076   1.104   4.499   3.531  0.3818 -0.2421  0.0941
 8205SOL    HW136077   1.130   4.408   3.516  1.2059  0.2435 -1.4786
 8205SOL    HW236078   1.066   4.518   3.445 -1.8253 -0.9283  0.9329
 8206SOL     OW36079   3.788   4.173   4.984 -0.2000  0.6297  0.0385
 8206SOL    HW136080   3.815   4.153   5.074 -1.9474  0.0029  0.4358
 8206SOL    HW236081   3.827   4.261   4.984 -1.7661  1.3305  0.8804
 8207SOL     OW36082   1.741   1.778  13.790 -0.0043 -0.6347 -0.0642
 8207SOL    HW136083   1.686   1.802  13.716  0.3450  1.6531  0.4178
 8207SOL    HW236084   1.773   1.864  13.816 -0.8486 -0.2273 -0.3870
 8208SOL     OW36085   0.383   3.941   2.443 -0.3240 -0.6618 -1.1542
 8208SOL    HW136086   0.465   3.970   2.483 -1.5239  1.3112 -0.1306
 8208SOL    HW236087   0.421   3.916   2.359  0.4199 -1.8523 -0.4539
 8209SOL     OW36088   4.144   0.011   8.892 -0.1432  0.1813  0.1502
 8209SOL    HW136089   4.093   4.658   8.915 -0.0348 -0.8144 -2.8625
 8209SOL    HW236090   4.220   4.716   8.947 -0.1992 -0.3688  0.0334
 8210SOL     OW36091   0.987   0.018   8.639 -0.3241  0.4101 -0.1614
 8210SOL    HW136092   1.023   4.684   8.706 -1.1959 -0.0905 -0.1205
 8210SOL    HW236093   1.064   0.057   8.598 -0.3951 -0.9598 -1.6069
 8211SOL     OW36094   1.292   3.954   6.450 -0.2614 -0.0507  0.3778
 8211SOL    HW136095   1.360   3.977   6.386 -2.4321 -0.3865 -2.0356
 8211SOL    HW236096   1.321   4.001   6.528  1.2967  3.0238 -2.0583
 8212SOL     OW36097   3.751   3.586   9.784 -0.1394  0.5848 -0.4579
 8212SOL    HW136098   3.693   3.658   9.762  0.8009  0.7000 -2.5086
 8212SOL    HW236099   3.790   3.562   9.700  0.1168  0.7555 -0.3877
 8213SOL     OW36100   2.320   4.190  10.811  0.7238 -0.0728  0.4352
 8213SOL    HW136101   2.399   4.215  10.859  0.9198 -3.6966  2.0040
 8213SOL    HW236102   2.283   4.276  10.790  1.5599  0.5839  1.6703
 8214SOL     OW36103   2.109   3.239   2.713 -0.0970 -0.1043 -0.0760
 8214SOL    HW136104   2.063   3.319   2.688 -0.3875 -0.8061 -1.7489
 8214SOL    HW236105   2.152   3.213   2.632  0.6096  1.8997 -0.3581
 8215SOL     OW36106   4.492   0.107   4.323  0.1009 -0.6717  0.0506
 8215SOL    HW136107   4.402   0.132   4.344  0.1801 -0.5910  0.2986
 8215SOL    HW236108   4.531   0.191   4.297  2.5032 -1.3467  1.4336
 8216SOL     OW36109   0.669   2.985   4.932 -0.5806  0.1819 -0.5517
 8216SOL    HW136110   0.632   3.070   4.909  2.0526  1.6707  0.8102
 8216SOL    HW236111   0.662   2.977   5.027  0.1950 -0.9956 -0.5965
 8217SOL     OW36112   1.335   1.763   2.861 -0.1684  0.2459  0.2054
 8217SOL    HW136113   1.380   1.847   2.871 -2.6197  1.4659  1.0267
 8217SOL    HW236114   1.399   1.697   2.889 -0.3799 -0.0089  0.0897
 8218SOL     OW36115   2.737   3.735   0.464  0.1208 -0.0320  0.4377
 8218SOL    HW136116   2.680   3.810   0.479 -1.2660 -0.5906 -2.1935
 8218SOL    HW236117   2.740   3.728   0.369 -3.6258  0.4053  0.2850
 8219SOL     OW36118   3.657   1.247  11.544  0.3033 -0.0206  0.0316
 8219SOL    HW136119   3.730   1.298  11.510 -0.4833  1.0211 -0.0937
 8219SOL    HW236120   3.594   1.263  11.474 -0.7077 -0.6081  0.8117
 8220SOL     OW36121   2.327   0.421   4.498  0.3025 -0.3901  0.2644
 8220SOL    HW136122   2.307   0.481   4.426  0.0172  0.1956  0.8364
 8220SOL    HW236123   2.241   0.389   4.526  0.9827 -1.5700  1.0231
 8221SOL     OW36124   3.328   0.851   3.900  0.1970 -0.0914  0.2588
 8221SOL    HW136125   3.252   0.866   3.957 -2.7207  3.0711 -4.5387
 8221SOL    HW236126   3.365   0.939   3.894 -1.5832  0.6430  0.0499
 8222SOL     OW36127   3.837   1.774  13.324  0.0722 -0.5164  0.0624
 8222SOL    HW136128   3.906   1.820  13.275  1.6129 -1.2709  1.5491
 8222SOL    HW236129   3.767   1.784  13.260  1.1602  2.8738 -0.6068
 8223SOL     OW36130   4.211   2.011   1.137 -0.0053  0.0005 -0.3193
 8223SOL    HW136131   4.172   2.069   1.071  1.2689 -0.3258 -1.3308
 8223SOL    HW236132   4.150   2.008   1.211 -1.2462 -0.6060 -1.3547
 8224SOL     OW36133   2.382   1.753   2.184  0.0459  0.2786  0.3211
 8224SOL    HW136134   2.331   1.824   2.146 -0.8488 -0.5998 -0.1300
 8224SOL    HW236135   2.413   1.800   2.261 -0.4795  0.2329  0.5537
 8225SOL     OW36136   2.874   0.919   8.985  0.0929  0.2444 -0.2452
 8225SOL    HW136137   2.951   0.870   9.012 -1.2901 -1.0177  1.4225
 8225SOL    HW236138   2.928   0.992   8.953 -2.4453  1.7125 -1.1979
 8226SOL     OW36139   0.972   2.565   8.790 -0.3915 -0.3791 -0.1894
 8226SOL    HW136140   0.994   2.503   8.860 -0.0599  0.1697  0.1911
 8226SOL    HW236141   0.890   2.602   8.822  0.7171  1.7555  0.2342
 8227SOL     OW36142   1.122   1.616  17.218  0.0355 -0.2985 -0.3247
 8227SOL    HW136143   1.179   1.548  17.254  1.1174  2.0120  2.3029
 8227SOL    HW236144   1.152   1.690  17.271 -0.9654  0.8001 -1.2889
 8228SOL     OW36145   4.625   1.426  16.841  0.4148 -0.1611  0.3633
 8228SOL    HW136146   4.698   1.463  16.791  1.1492 -2.8667 -0.5186
 8228SOL    HW236147   4.594   1.510  16.876  2.8660  0.4325  1.0959
 8229SOL     OW36148   2.321   0.247   9.874 -0.5424  0.1399  0.6618
 8229SOL    HW136149   2.287   0.298   9.800  0.0931 -2.7123 -1.5745
 8229SOL    HW236150   2.243   0.260   9.929 -0.7277  0.6323  0.2860
 8230SOL     OW36151   3.968   1.973   7.349  0.1819 -0.2743  0.8359
 8230SOL    HW136152   4.061   1.958   7.329 -0.0442  1.7844 -1.8706
 8230SOL    HW236153   3.931   1.898   7.302  1.6127 -0.6291  0.2742
 8231SOL     OW36154   3.266   2.745   6.974  0.6486 -0.2862  0.4452
 8231SOL    HW136155   3.230   2.661   6.945 -0.4069  0.6128 -0.8741
 8231SOL    HW236156   3.357   2.745   6.944  0.2299 -0.8339 -0.8070
 8232SOL     OW36157   3.745   2.796   8.206  0.6154  0.3510  0.6022
 8232SOL    HW136158   3.691   2.718   8.200  0.9167  0.0906  1.2813
 8232SOL    HW236159   3.728   2.832   8.119  2.8147  0.3437  0.1534
 8233SOL     OW36160   4.376   2.093   5.197  0.4424  0.6982  0.4430
 8233SOL    HW136161   4.399   2.003   5.220 -0.3344  0.1686 -0.9013
 8233SOL    HW236162   4.301   2.079   5.140  0.8746  0.1880  0.0034
 8234SOL     OW36163   1.191   1.646   2.017  0.5611 -0.0907 -0.0194
 8234SOL    HW136164   1.217   1.630   1.927 -0.4765  1.2949 -0.5561
 8234SOL    HW236165   1.245   1.587   2.071  0.0809 -1.3855 -0.9715
 8235SOL     OW36166   0.945   0.021   9.006 -0.5851 -0.3636  0.0531
 8235SOL    HW136167   0.875   0.066   9.055 -0.7826 -0.5828 -0.0259
 8235SOL    HW236168   0.993   0.102   8.988  1.7516 -1.6337  0.5941
 8236SOL     OW36169   2.004   3.348  11.904 -0.0359 -0.5041  0.2663
 8236SOL    HW136170   2.076   3.347  11.967 -0.8238 -1.9393  1.1388
 8236SOL    HW236171   1.931   3.375  11.960  1.2153  0.7910  1.2696
 8237SOL     OW36172   0.211   2.067   7.969  0.6255 -0.1270 -0.2536
 8237SOL    HW136173   0.262   2.148   7.973 -0.5778  0.5747  0.5505
 8237SOL    HW236174   0.174   2.080   8.056 -0.5466  0.1066 -0.7832
 8238SOL     OW36175   3.415   1.479   1.259 -0.2753  0.0954 -0.4071
 8238SOL    HW136176   3.486   1.464   1.197  0.3541  1.1900  0.0441
 8238SOL    HW236177   3.387   1.389   1.276 -0.9691  0.6193  1.2696
 8239SOL     OW36178   0.053   2.823  13.153  0.3260  0.0919 -0.1616
 8239SOL    HW136179   0.027   2.906  13.194  1.2600  1.7069 -2.8761
 8239SOL    HW236180   0.129   2.841  13.098  0.1300  0.8342 -0.1977
 8240SOL     OW36181   1.481   2.059  11.494  0.2587  0.1116 -0.1280
 8240SOL    HW136182   1.547   2.023  11.553  0.4238  1.2349  0.3696
 8240SOL    HW236183   1.536   2.120  11.445 -2.5501  1.2989 -1.7984
 8241SOL     OW36184   0.976   2.178   4.866 -0.2860 -0.1947  0.0646
 8241SOL    HW136185   1.052   2.233   4.886 -0.6750 -0.1426  1.3892
 8241SOL    HW236186   1.019   2.092   4.871  0.3481  0.1777  0.9502
 8242SOL     OW36187   3.079   1.679   6.850  0.5826 -0.0482  0.3853
 8242SOL    HW136188   3.024   1.661   6.927 -1.8006  0.3744 -1.2190
 8242SOL    HW236189   3.154   1.725   6.888 -0.2569 -0.2519  2.3238
 8243SOL     OW36190   4.032   2.231   4.504  0.3343  0.0841 -0.3523
 8243SOL    HW136191   4.026   2.199   4.414  1.2067  0.6047 -0.6009
 8243SOL    HW236192   3.940   2.228   4.530  0.6353  1.5001  0.9104
 8244SOL     OW36193   4.595   1.735  14.628  0.5224 -0.2759 -0.0783
 8244SOL    HW136194   4.676   1.732  14.679 -0.1668  1.3025  1.0964
 8244SOL    HW236195   4.552   1.650  14.642  0.6655 -0.2752  0.3600
 8245SOL     OW36196   1.551   1.448   2.681  0.5323 -0.2755  0.2913
 8245SOL    HW136197   1.641   1.457   2.653  0.4015  0.4169  0.1042
 8245SOL    HW236198   1.518   1.371   2.634  1.0956 -0.0230 -0.5026
 8246SOL     OW36199   4.052   1.280   8.678  0.3609  0.2594 -0.2564
 8246SOL    HW136200   4.134   1.312   8.641 -0.2801  0.9677 -1.0708
 8246SOL    HW236201   4.065   1.281   8.773 -1.6992  0.0678  0.0351
 8247SOL     OW36202   2.977   2.717   6.467 -0.6890  0.1876 -0.3210
 8247SOL    HW136203   3.029   2.639   6.455 -1.7928 -0.4703 -0.8162
 8247SOL    HW236204   3.027   2.782   6.417 -0.1889  1.4524  1.8252
 8248SOL     OW36205   2.349   4.460   2.921  0.4028  0.0682  0.4545
 8248SOL    HW136206   2.408   4.413   2.862  2.4916  3.4544 -0.1493
 8248SOL    HW236207   2.299   4.514   2.860 -0.8784  0.7078  2.0736
 8249SOL     OW36208   3.441   4.676   2.948 -0.1172 -0.1234 -0.1410
 8249SOL    HW136209   3.390   4.665   2.868 -4.2321  1.8438  2.2527
 8249SOL    HW236210   3.486   4.591   2.955 -0.4100 -0.2744 -0.0961
 8250SOL     OW36211   2.664   3.045   6.073 -0.0635 -0.2976 -0.1727
 8250SOL    HW136212   2.719   2.982   6.119  0.4182  0.3623  0.1366
 8250SOL    HW236213   2.723   3.083   6.008  1.1484 -0.9200  0.5759
 8251SOL     OW36214   1.069   4.651   5.892  0.1930  0.3146 -0.0840
 8251SOL    HW136215   1.048   0.016   5.920  0.2605  0.8165 -1.6532
 8251SOL    HW236216   1.049   4.656   5.799  3.0907 -1.8181 -0.8387
 8252SOL     OW36217   4.467   2.962   0.480 -0.0251  0.4420  0.0769
 8252SOL    HW136218   4.552   2.997   0.454  0.1840 -0.0964  0.0396
 8252SOL    HW236219   4.485   2.925   0.566  0.2243  2.5321  0.9249
 8253SOL     OW36220   0.232   1.491   8.367  0.3360 -0.0070 -0.7795
 8253SOL    HW136221   0.149   1.472   8.323 -0.0898  0.0216  0.0123
 8253SOL    HW236222   0.211   1.510   8.459  0.7888 -0.9840 -0.4753
 8254SOL     OW36223   2.655   3.528   6.894  0.6017 -0.0602 -0.3422
 8254SOL    HW136224   2.625   3.504   6.981 -1.6829  1.4749 -0.7018
 8254SOL    HW236225   2.629   3.620   6.899 -2.3746 -0.9586  0.7171
 8255SOL     OW36226   2.224   4.244   8.258 -0.1186 -0.3805  0.4361
 8255SOL    HW136227   2.274   4.295   8.321 -1.0697  1.0004  0.0822
 8255SOL    HW236228   2.146   4.300   8.255 -0.1758 -0.4904 -0.0944
 8256SOL     OW36229   3.759   3.900   2.000  0.2677  0.1769 -0.4308
 8256SOL    HW136230   3.778   3.919   1.908  2.1280 -0.6008 -0.1965
 8256SOL    HW236231   3.693   3.830   1.992 -1.3005  1.1712  3.5915
 8257SOL     OW36232   1.736   1.028   5.959 -0.4361  0.4262 -0.0639
 8257SOL    HW136233   1.756   1.004   5.868 -0.8171  0.3604 -0.1272
 8257SOL    HW236234   1.645   1.057   5.951 -0.8144 -1.4164 -2.3282
 8258SOL     OW36235   0.972   4.404  14.380  0.6826  0.0079 -0.2677
 8258SOL    HW136236   0.991   4.366  14.466 -0.5823  0.2284  0.1031
 8258SOL    HW236237   0.999   4.334  14.320 -0.8016  0.8813 -1.9752
 8259SOL     OW36238   2.826   3.832  15.238  0.2191 -0.0212  0.5404
 8259SOL    HW136239   2.854   3.923  15.228  0.2064  0.0156  0.8294
 8259SOL    HW236240   2.819   3.818  15.333  1.5996 -0.9793  0.4882
 8260SOL     OW36241   4.243   0.907   7.237 -0.2661 -0.2550 -0.1348
 8260SOL    HW136242   4.238   0.909   7.141 -0.2981 -0.6094 -0.1380
 8260SOL    HW236243   4.319   0.851   7.248  0.7271  0.6150 -2.5125
 8261SOL     OW36244   0.859   0.606   1.403 -0.2569  0.3542  0.3902
 8261SOL    HW136245   0.810   0.685   1.425  1.2621  1.4038  0.0021
 8261SOL    HW236246   0.897   0.629   1.318  2.1845  0.2332  1.4423
 8262SOL     OW36247   2.316   1.709   0.551  0.6025 -0.1988  0.6706
 8262SOL    HW136248   2.300   1.617   0.573  2.3256 -0.5605  0.4477
 8262SOL    HW236249   2.284   1.742   0.635 -2.0383  0.5920 -0.6492
 8263SOL     OW36250   2.481   2.837   7.768  0.5951 -0.3276 -0.4244
 8263SOL    HW136251   2.569   2.833   7.807 -0.4893  1.7530  2.2331
 8263SOL    HW236252   2.507   2.848   7.676  1.2496 -0.0186 -0.2094
 8264SOL     OW36253   1.321   2.516   3.422  0.2561  0.0699 -0.3373
 8264SOL    HW136254   1.355   2.464   3.496  0.4480  0.6874  0.0094
 8264SOL    HW236255   1.386   2.585   3.415  0.6758 -0.1774  1.1129
 8265SOL     OW36256   0.487   1.693   9.589 -0.3357 -0.1604  0.4101
 8265SOL    HW136257   0.527   1.706   9.675 -0.4222  0.7462  0.3142
 8265SOL    HW236258   0.428   1.767   9.577  0.4475 -0.0639 -2.7545
 8266SOL     OW36259   3.713   4.540   4.647  0.0383  0.4292 -0.2176
 8266SOL    HW136260   3.686   4.566   4.559 -0.8689  0.0581 -0.0458
 8266SOL    HW236261   3.779   4.608   4.664  1.2022 -0.1964 -2.1888
 8267SOL     OW36262   1.031   4.326   2.346 -0.3902 -0.5681 -0.5835
 8267SOL    HW136263   1.057   4.235   2.360 -0.7246 -0.6953 -0.7862
 8267SOL    HW236264   0.942   4.321   2.380 -0.9800 -1.4677 -2.2430
 8268SOL     OW36265   4.158   0.246  13.776  0.2775 -0.2999  0.4901
 8268SOL    HW136266   4.157   0.260  13.870 -0.6879  0.8400  0.3128
 8268SOL    HW236267   4.244   0.284  13.761 -0.3882  1.1697  0.3947
 8269SOL     OW36268   3.175   4.358   7.466 -0.2537  0.1894  0.2945
 8269SOL    HW136269   3.240   4.341   7.535 -0.3443 -1.3811 -0.0023
 8269SOL    HW236270   3.207   4.439   7.427  1.0218 -0.4926 -0.0498
 8270SOL     OW36271   2.658   3.538   5.738 -0.2259  0.1663 -0.7707
 8270SOL    HW136272   2.676   3.582   5.655  1.9857  1.7147  0.5505
 8270SOL    HW236273   2.679   3.612   5.795  3.5064 -0.8799 -0.8135
 8271SOL     OW36274   3.426   0.563  16.461  0.3797 -0.5667  0.1769
 8271SOL    HW136275   3.338   0.581  16.496 -0.2225 -1.2374 -0.9912
 8271SOL    HW236276   3.484   0.612  16.519 -0.8747 -0.6520  1.5186
 8272SOL     OW36277   2.976   0.049  12.055  0.1097 -0.3080 -0.1243
 8272SOL    HW136278   3.066   0.076  12.034  0.1248  0.0799  0.4485
 8272SOL    HW236279   2.931   0.107  11.994  1.2007 -2.1194 -2.6353
 8273SOL     OW36280   4.643   2.634   5.759 -0.4593  0.1304  0.2403
 8273SOL    HW136281   0.012   2.652   5.770 -0.8190  1.2155  1.5076
 8273SOL    HW236282   4.634   2.613   5.666  0.4525  0.4602  0.0766
 8274SOL     OW36283   2.018   1.492   7.234 -0.2232 -0.1446  0.2733
 8274SOL    HW136284   1.978   1.556   7.177  0.7209  0.5538  0.3978
 8274SOL    HW236285   2.102   1.529   7.264 -0.4327  0.8952 -0.4390
 8275SOL     OW36286   0.552   0.619   5.235 -0.4345  0.2286  0.3737
 8275SOL    HW136287   0.586   0.639   5.148 -0.9111 -0.9157 -0.0698
 8275SOL    HW236288   0.637   0.635   5.275  0.1153 -1.1440 -0.2303
 8276SOL     OW36289   3.416   1.815  13.745 -0.0012  0.0452 -0.0674
 8276SOL    HW136290   3.387   1.733  13.706 -3.5825  1.6239 -0.6810
 8276SOL    HW236291   3.362   1.878  13.697 -0.6414  0.5419  1.3165
 8277SOL     OW36292   1.377   2.819   5.906 -0.0328  0.1685  0.1201
 8277SOL    HW136293   1.332   2.738   5.929 -0.5637 -0.1609 -2.0604
 8277SOL    HW236294   1.464   2.784   5.890 -0.2496 -0.5668  0.5531
 8278SOL     OW36295   4.450   4.709   2.641  0.5024 -0.5185 -0.7382
 8278SOL    HW136296   4.368   4.679   2.680 -0.4167  1.9876 -0.7317
 8278SOL    HW236297   4.466   4.660   2.561 -3.5368 -2.2488 -0.4636
 8279SOL     OW36298   4.718   4.719  15.067  0.2887  0.1565  0.4447
 8279SOL    HW136299   0.034   0.076  15.097  2.3763 -0.5983 -0.3104
 8279SOL    HW236300   4.687   0.010  14.978  2.0654  2.8244  0.3093
 8280SOL     OW36301   1.923   4.425  10.859 -0.0485  0.1196 -0.2740
 8280SOL    HW136302   1.858   4.494  10.864 -0.4823 -0.2462 -0.9162
 8280SOL    HW236303   1.886   4.378  10.784  1.1676 -0.2893 -0.6238
 8281SOL     OW36304   2.008   0.298   1.339  0.8333  0.0171 -0.1899
 8281SOL    HW136305   2.068   0.327   1.408 -0.8533 -0.0838  1.3301
 8281SOL    HW236306   1.995   0.382   1.294  0.9222  0.9516  1.5224
 8282SOL     OW36307   4.248   3.864   2.245 -0.2889 -0.1121 -0.4142
 8282SOL    HW136308   4.169   3.811   2.241  0.0836 -0.7501  0.6705
 8282SOL    HW236309   4.304   3.832   2.174  0.6155  1.2196 -0.3085
 8283SOL     OW36310   4.427   2.033   8.117 -0.2692  0.8042 -0.4161
 8283SOL    HW136311   4.462   1.949   8.087 -0.4582  0.7470 -0.4748
 8283SOL    HW236312   4.338   2.035   8.081  0.7953  2.1405 -2.9508
 8284SOL     OW36313   0.069   0.738   6.917 -0.3497  0.5868  0.8204
 8284SOL    HW136314   4.713   0.785   6.895 -0.9713 -0.3657  1.0575
 8284SOL    HW236315   0.042   0.653   6.883  1.4955  0.7121 -0.9761
 8285SOL     OW36316   0.858   3.637  15.336  0.3496 -0.7972 -0.1126
 8285SOL    HW136317   0.910   3.557  15.326  0.6251 -0.7788  1.2192
 8285SOL    HW236318   0.771   3.601  15.351 -0.3291  1.4302  1.2774
 8286SOL     OW36319   0.467   2.372   4.439 -0.3597 -0.4260 -0.0305
 8286SOL    HW136320   0.490   2.452   4.485  1.8503 -1.1277  0.0885
 8286SOL    HW236321   0.377   2.384   4.408  0.0162 -2.6147 -1.9856
 8287SOL     OW36322   2.418   1.392  16.328  0.1178 -0.6985  0.0645
 8287SOL    HW136323   2.500   1.395  16.279  0.6255 -0.7908  0.9054
 8287SOL    HW236324   2.410   1.298  16.344 -2.3613 -0.4510  0.3446
 8288SOL     OW36325   2.006   1.275   1.707  0.9644  0.0499  0.5449
 8288SOL    HW136326   2.035   1.243   1.622  3.1528  3.1235  0.1689
 8288SOL    HW236327   2.076   1.229   1.753 -1.1721 -1.5074  2.2741
 8289SOL     OW36328   1.254   4.129  15.161  0.2557  0.3037  0.7484
 8289SOL    HW136329   1.275   4.045  15.122  1.9939  1.3070 -0.4727
 8289SOL    HW236330   1.167   4.110  15.196 -0.5034 -1.8409 -2.2913
 8290SOL     OW36331   2.788   2.716   5.520 -0.3367 -0.1422 -0.7670
 8290SOL    HW136332   2.753   2.655   5.455 -2.3415 -2.1536  2.1861
 8290SOL    HW236333   2.856   2.762   5.472 -1.5640  1.2686 -1.1456
 8291SOL     OW36334   0.818   2.197   4.183 -0.1199  0.2469  0.1300
 8291SOL    HW136335   0.849   2.287   4.176 -0.0267  0.2059  0.0236
 8291SOL    HW236336   0.725   2.214   4.170 -0.3856 -0.1045  1.5796
 8292SOL     OW36337   0.539   1.420   0.088  0.2445  0.4556  0.2988
 8292SOL    HW136338   0.632   1.398   0.084  0.7023  2.1012  2.0062
 8292SOL    HW236339   0.505   1.332   0.074  2.4931 -0.4060  0.3050
 8293SOL     OW36340   3.323   3.491  11.468  0.1833 -0.4599  0.0203
 8293SOL    HW136341   3.342   3.398  11.485  0.7457 -0.6180 -1.4557
 8293SOL    HW236342   3.228   3.477  11.469 -0.0685  1.3161  0.3459
 8294SOL     OW36343   2.216   0.720   0.669  0.1882  0.2545  0.2722
 8294SOL    HW136344   2.165   0.649   0.709  2.9225 -0.7956  1.8620
 8294SOL    HW236345   2.247   0.775   0.741  1.1185 -1.1548  0.9237
 8295SOL     OW36346   4.706   4.583   7.872 -0.0556 -0.2396 -0.0297
 8295SOL    HW136347   4.640   4.564   7.806 -0.4449 -1.4981  0.7189
 8295SOL    HW236348   4.663   4.618   7.951 -0.7128  0.3823 -0.6634
 8296SOL     OW36349   2.539   0.201   5.410  0.3873 -0.3389 -0.1409
 8296SOL    HW136350   2.592   0.227   5.485 -0.1754  0.0559  0.1183
 8296SOL    HW236351   2.519   0.110   5.432 -0.9859  0.3459  1.4486
 8297SOL     OW36352   3.378   3.493   3.045  0.1755  0.2921  0.1475
 8297SOL    HW136353   3.357   3.586   3.037 -0.0757  0.0331 -2.2157
 8297SOL    HW236354   3.398   3.484   3.138 -0.2049  1.6201  0.3496
 8298SOL     OW36355   1.761   2.708   3.342 -0.7080 -0.1083 -0.4818
 8298SOL    HW136356   1.694   2.678   3.403 -2.2809  2.7414 -0.7864
 8298SOL    HW236357   1.741   2.802   3.337 -0.8764 -0.2019 -1.4756
 8299SOL     OW36358   1.183   2.252   4.575 -0.2297  0.3566 -0.3742
 8299SOL    HW136359   1.110   2.314   4.579  1.3372  2.2407 -0.8017
 8299SOL    HW236360   1.139   2.170   4.553  1.4112 -0.6576  0.1753
 8300SOL     OW36361   1.855   0.318   9.531 -0.3429 -0.1759 -0.1098
 8300SOL    HW136362   1.925   0.365   9.484  0.3721 -0.1325  1.0079
 8300SOL    HW236363   1.915   0.257   9.573  1.0736 -1.0863 -3.4280
 8301SOL     OW36364   1.826   0.146   5.049 -0.1420 -0.0452  0.1507
 8301SOL    HW136365   1.875   0.204   4.990  0.5576  1.9112  2.6492
 8301SOL    HW236366   1.851   0.062   5.010  1.6273 -0.3854  2.0281
 8302SOL     OW36367   4.212   3.107  10.698 -0.1205 -0.2300 -0.0457
 8302SOL    HW136368   4.183   3.016  10.700  0.4392 -0.4056  0.0741
 8302SOL    HW236369   4.206   3.128  10.792 -1.1230  1.4886 -0.4972
 8303SOL     OW36370   4.149   3.184   5.627 -0.5714 -0.2084  0.3249
 8303SOL    HW136371   4.221   3.228   5.582  0.5209 -0.9104  1.3535
 8303SOL    HW236372   4.157   3.089   5.618 -0.6689 -0.3362  1.5665
 8304SOL     OW36373   2.159   4.509   7.553  0.6013 -0.2301 -0.4114
 8304SOL    HW136374   2.100   4.532   7.625  0.7065 -0.8802 -0.1169
 8304SOL    HW236375   2.244   4.531   7.591  0.2246  0.5313  0.0006
 8305SOL     OW36376   1.509   1.388   7.264 -0.1680 -0.0165  0.2191
 8305SOL    HW136377   1.486   1.336   7.187 -0.2973  1.1115 -0.4892
 8305SOL    HW236378   1.422   1.390   7.304 -0.8024 -0.8443 -1.1380
 8306SOL     OW36379   2.459   1.351   6.109 -0.3807  0.3834  1.1599
 8306SOL    HW136380   2.375   1.317   6.079 -1.0460  1.2338  2.0760
 8306SOL    HW236381   2.495   1.262   6.111 -2.5405 -0.5308  0.3227
 8307SOL     OW36382   0.919   1.309  10.096 -0.6814  0.3614 -0.5732
 8307SOL    HW136383   0.961   1.225  10.115 -0.3474 -0.0993 -3.4099
 8307SOL    HW236384   0.901   1.303  10.002 -1.3864 -1.3403 -0.3243
 8308SOL     OW36385   2.509   2.336   7.815 -0.3277 -0.3744 -0.0449
 8308SOL    HW136386   2.581   2.285   7.853 -0.5168 -0.4732  0.1779
 8308SOL    HW236387   2.498   2.401   7.885  1.1674 -1.9638  1.6676
 8309SOL     OW36388   4.297   2.499  11.531 -1.0147  0.2657 -0.6516
 8309SOL    HW136389   4.295   2.511  11.626  1.2277 -3.8571 -0.0790
 8309SOL    HW236390   4.388   2.512  11.507 -0.2979 -1.6760  1.0366
 8310SOL     OW36391   4.442   4.027   7.748 -0.4086 -0.2091 -0.3739
 8310SOL    HW136392   4.470   4.035   7.657  0.5327 -2.5016 -0.2839
 8310SOL    HW236393   4.511   4.073   7.796  0.1748 -0.2839 -1.1564
 8311SOL     OW36394   3.691   3.559   8.720 -0.0011  0.5884 -0.5440
 8311SOL    HW136395   3.726   3.562   8.631 -1.9778  2.2524 -1.2541
 8311SOL    HW236396   3.762   3.505   8.756  0.9055  1.8740 -0.3836
 8312SOL     OW36397   1.843   0.338  17.485 -0.0801 -0.5139 -0.4512
 8312SOL    HW136398   1.938   0.344  17.470  0.0832  1.0529  1.1466
 8312SOL    HW236399   1.842   0.270  17.553  2.9909  1.1872  1.3277
 8313SOL     OW36400   0.229   0.297   8.640  0.3621 -0.2141 -0.3794
 8313SOL    HW136401   0.139   0.283   8.612 -0.2136 -0.4888  1.6476
 8313SOL    HW236402   0.217   0.373   8.698 -0.8943  0.7212 -1.8723
 8314SOL     OW36403   0.552   4.378   7.544  0.6653  0.3207 -0.5660
 8314SOL    HW136404   0.521   4.414   7.627  2.8540 -1.7218  1.1619
 8314SOL    HW236405   0.505   4.295   7.547  0.4939  0.4199 -0.4902
 8315SOL     OW36406   3.590   4.461   2.338 -0.2024  0.7387  0.0434
 8315SOL    HW136407   3.615   4.496   2.253  3.5853  0.3275  0.9966
 8315SOL    HW236408   3.597   4.369   2.312 -1.1106  0.8377 -0.5611
 8316SOL     OW36409   1.448   1.632  17.173  0.3353 -0.3018  0.0824
 8316SOL    HW136410   1.437   1.708  17.230 -1.8431 -2.4365  2.5228
 8316SOL    HW236411   1.362   1.617  17.133 -0.3156 -2.3035  2.2447
 8317SOL     OW36412   2.395   2.409  15.986 -0.1096  0.3192  0.2316
 8317SOL    HW136413   2.446   2.334  16.018  0.6954  1.7416  2.2833
 8317SOL    HW236414   2.356   2.367  15.909 -0.7566 -0.5684  1.0499
 8318SOL     OW36415   2.022   2.514  13.058 -0.0471 -0.5767 -0.3027
 8318SOL    HW136416   2.101   2.519  13.005  0.0169  0.3222 -0.1244
 8318SOL    HW236417   2.050   2.468  13.137  0.3453  1.9781  1.0453
 8319SOL     OW36418   1.406   0.437  13.097 -0.3204  0.2168 -0.2303
 8319SOL    HW136419   1.398   0.533  13.097  0.9991  0.3176  0.9427
 8319SOL    HW236420   1.342   0.418  13.028  0.1012 -0.8044 -0.3405
 8320SOL     OW36421   4.088   1.903   6.523  0.5472  0.1461  0.4150
 8320SOL    HW136422   4.100   1.909   6.428  0.1414  1.1288  0.4242
 8320SOL    HW236423   3.996   1.928   6.537  0.2274 -0.6802 -0.2336
 8321SOL     OW36424   0.161   4.024   5.340 -0.2866  0.0060 -0.6311
 8321SOL    HW136425   0.125   4.111   5.326 -0.2772 -0.0438 -0.9676
 8321SOL    HW236426   0.076   3.987   5.362 -1.0314  2.5230  0.7011
 8322SOL     OW36427   0.093   0.268   6.020  0.4716  0.0912  0.1176
 8322SOL    HW136428   0.119   0.251   6.110 -1.4134 -1.6452  0.3132
 8322SOL    HW236429   0.178   0.283   5.978  1.1629 -0.9133  1.1718
 8323SOL     OW36430   3.427   1.805   7.309  0.2050  0.0226 -0.6417
 8323SOL    HW136431   3.398   1.714   7.315 -2.2897  0.6681 -2.6281
 8323SOL    HW236432   3.493   1.792   7.241  0.9747 -1.4057  0.3730
 8324SOL     OW36433   2.045   3.075   8.201 -0.0276 -0.1126  0.6087
 8324SOL    HW136434   2.091   3.032   8.273  2.6498  2.5892  0.5020
 8324SOL    HW236435   2.106   3.053   8.130 -1.8718  0.0748 -1.0145
 8325SOL     OW36436   0.694   0.604  16.678  0.1818 -0.4958 -0.3307
 8325SOL    HW136437   0.728   0.530  16.627  0.3156 -1.2221  0.8222
 8325SOL    HW236438   0.616   0.626  16.628  0.8491 -0.5256 -1.4024
 8326SOL     OW36439   3.179   4.179  17.368 -0.0811 -0.7107  0.5487
 8326SOL    HW136440   3.101   4.224  17.401 -0.2251  1.0514 -2.1834
 8326SOL    HW236441   3.212   4.249  17.312 -1.0625 -1.7810 -1.3366
 8327SOL     OW36442   3.782   3.011   8.771 -0.0780  0.2839  0.5842
 8327SOL    HW136443   3.846   2.945   8.796 -2.1235 -2.0186 -0.2808
 8327SOL    HW236444   3.785   3.008   8.675  2.5630 -0.6931  0.7090
 8328SOL     OW36445   3.202   0.100  14.528  0.1220 -0.0133 -0.0880
 8328SOL    HW136446   3.271   0.082  14.592 -0.9301  0.5742  1.1927
 8328SOL    HW236447   3.122   0.069  14.571 -0.9825  1.2720 -1.2551
 8329SOL     OW36448   3.693   3.109  15.436  0.1833 -0.2272  0.0987
 8329SOL    HW136449   3.704   3.049  15.362 -1.3695 -2.4751  1.6997
 8329SOL    HW236450   3.667   3.042  15.499 -1.4695 -0.0210 -0.3765
 8330SOL     OW36451   2.742   3.932   7.007 -0.3011 -0.5113 -0.0206
 8330SOL    HW136452   2.708   3.897   7.089  0.7054 -1.1082  0.1468
 8330SOL    HW236453   2.801   3.859   6.987 -1.1495 -1.2476  0.1575
 8331SOL     OW36454   2.606   3.469   9.937 -0.1288 -0.3370  0.7761
 8331SOL    HW136455   2.653   3.416  10.002  2.1949  2.2152  1.1566
 8331SOL    HW236456   2.645   3.555   9.952  0.3097 -0.2810 -0.6300
 8332SOL     OW36457   3.665   3.842   7.089  0.3331 -0.0466 -0.2293
 8332SOL    HW136458   3.572   3.847   7.067  0.1628 -0.5017  0.3858
 8332SOL    HW236459   3.663   3.855   7.184  0.5749  1.3392 -0.4145
 8333SOL     OW36460   3.654   2.298   7.005 -0.1257 -0.1424  0.0226
 8333SOL    HW136461   3.704   2.251   7.072 -0.8846 -2.6352 -1.1642
 8333SOL    HW236462   3.721   2.350   6.960 -0.8663  0.8592  0.0786
 8334SOL     OW36463   2.826   3.996  11.983  0.4552  0.1204  0.0451
 8334SOL    HW136464   2.807   3.923  12.042  0.1148 -0.4415 -0.7510
 8334SOL    HW236465   2.917   3.971  11.968  0.4941  0.7644 -0.8162
 8335SOL     OW36466   2.520   2.016  12.826 -0.1986 -0.1104 -0.2756
 8335SOL    HW136467   2.534   1.936  12.876 -0.3327  0.6966  1.0425
 8335SOL    HW236468   2.541   2.084  12.890  1.3409  0.0712 -0.9774
 8336SOL     OW36469   2.677   3.706  10.301 -0.1858  0.1729 -0.4849
 8336SOL    HW136470   2.588   3.731  10.277 -1.0611 -2.0001  0.4484
 8336SOL    HW236471   2.668   3.748  10.386 -1.2794  0.8979 -0.9608
 8337SOL     OW36472   1.915   0.319   2.262 -0.3909 -0.2536  0.3624
 8337SOL    HW136473   1.837   0.266   2.243 -1.3537  0.2609  2.9800
 8337SOL    HW236474   1.883   0.375   2.332  2.1737 -1.1716  2.2732
 8338SOL     OW36475   0.912   3.064   5.542 -0.1122  0.1172  0.6041
 8338SOL    HW136476   0.892   2.978   5.579  2.4132 -1.0326 -0.7143
 8338SOL    HW236477   1.000   3.033   5.522  0.2645  1.3382  0.3829
 8339SOL     OW36478   3.827   0.666  12.451  0.5815 -0.2295 -0.5709
 8339SOL    HW136479   3.812   0.711  12.534  1.9871 -2.9509  1.1501
 8339SOL    HW236480   3.744   0.663  12.404  0.0030  2.0490  0.3338
 8340SOL     OW36481   3.681   1.405   9.583  0.2478 -0.2276  0.4939
 8340SOL    HW136482   3.753   1.386   9.643  1.2684 -1.6476 -1.1772
 8340SOL    HW236483   3.729   1.387   9.502 -0.7557  0.4981 -0.2634
 8341SOL     OW36484   2.195   2.441   4.982 -0.1370 -0.1298 -0.1026
 8341SOL    HW136485   2.136   2.396   5.043  0.3697 -1.1333 -0.3401
 8341SOL    HW236486   2.144   2.443   4.901 -0.8218  0.8084  0.3607
 8342SOL     OW36487   4.547   2.910  11.100 -0.1780  0.9345 -0.5856
 8342SOL    HW136488   4.596   2.904  11.181 -2.2025  0.1343  0.5738
 8342SOL    HW236489   4.479   2.843  11.100  1.0112 -0.2365  0.5633
 8343SOL     OW36490   4.085   0.700   3.945 -0.5032  0.8874 -0.0589
 8343SOL    HW136491   4.071   0.782   3.992 -3.6756  1.0647 -1.3417
 8343SOL    HW236492   4.180   0.704   3.931 -0.1236 -2.3220  1.4653
 8344SOL     OW36493   2.936   1.668  14.600 -0.3088  0.3247  0.0062
 8344SOL    HW136494   2.873   1.640  14.534  1.0224  0.4330 -1.3167
 8344SOL    HW236495   2.983   1.586  14.614 -1.7675 -0.5358 -0.1912
 8345SOL     OW36496   3.655   3.753  16.005  0.1036  0.1328 -0.0553
 8345SOL    HW136497   3.699   3.681  16.051  0.4461  1.4837  1.7354
 8345SOL    HW236498   3.726   3.795  15.958  0.6905  0.0826  0.7880
 8346SOL     OW36499   3.180   4.468  15.465  0.1758 -0.4035 -0.3370
 8346SOL    HW136500   3.232   4.509  15.534  0.6753 -1.9899  0.2178
 8346SOL    HW236501   3.236   4.392  15.453  0.9201 -0.6551  4.5953
 8347SOL     OW36502   3.563   4.714   3.358 -0.6992  0.2928  0.0978
 8347SOL    HW136503   3.547   4.622   3.336  1.4302  0.0170 -0.3084
 8347SOL    HW236504   3.553   4.713   3.453  0.4832 -1.4257  0.1924
 8348SOL     OW36505   0.466   1.932   3.545  0.6861 -0.1551 -0.1577
 8348SOL    HW136506   0.405   1.898   3.480 -0.6424  1.3443  0.3010
 8348SOL    HW236507   0.418   2.011   3.570  2.9214  0.3096  2.6686
 8349SOL     OW36508   0.481   3.682   7.403 -0.2211 -0.4773  0.2808
 8349SOL    HW136509   0.473   3.653   7.312  1.3934 -0.3601  0.1010
 8349SOL    HW236510   0.545   3.618   7.433  1.7050  1.8568  1.1794
 8350SOL     OW36511   2.177   3.604   2.769 -0.1609  0.0419  0.4311
 8350SOL    HW136512   2.257   3.594   2.717  0.4604  0.3696  1.3347
 8350SOL    HW236513   2.192   3.537   2.836  0.2930 -0.5526 -0.2687
 8351SOL     OW36514   3.370   3.978   6.680  0.3180  0.1693  0.0426
 8351SOL    HW136515   3.332   3.906   6.731 -1.7413  1.6646  0.6451
 8351SOL    HW236516   3.290   4.023   6.652  1.2923  1.0716 -1.2630
 8352SOL     OW36517   3.460   3.313   1.856  0.1773  0.1366 -0.3669
 8352SOL    HW136518   3.528   3.308   1.924  0.5690 -0.1817 -0.7807
 8352SOL    HW236519   3.487   3.369   1.784  2.7287  1.3516  1.5261
 8353SOL     OW36520   4.442   2.773   1.597 -0.5960  0.5237  0.2670
 8353SOL    HW136521   4.451   2.853   1.545 -2.0674  0.0757 -0.6681
 8353SOL    HW236522   4.416   2.703   1.538  1.8483  1.0087 -1.4169
 8354SOL     OW36523   0.102   1.172   6.849 -0.0385  0.3745  0.0744
 8354SOL    HW136524   0.014   1.176   6.811  0.4068  2.1962 -0.7686
 8354SOL    HW236525   0.147   1.255   6.835 -0.2227  0.5091  0.2785
 8355SOL     OW36526   3.535   2.588  11.815  0.1808 -0.8299  0.1461
 8355SOL    HW136527   3.459   2.632  11.776  0.3234  0.3968  1.2332
 8355SOL    HW236528   3.515   2.601  11.908 -1.1310 -3.0162  0.1870
 8356SOL     OW36529   4.559   3.345  12.138 -0.2740 -0.2102 -0.0505
 8356SOL    HW136530   4.540   3.343  12.045  1.0082 -1.5678 -0.2854
 8356SOL    HW236531   4.555   3.254  12.168 -4.3157  0.2578  0.9340
 8357SOL     OW36532   1.235   0.608  15.993 -0.8250 -0.3957 -0.1008
 8357SOL    HW136533   1.323   0.632  15.961 -0.5434 -0.3186  0.7417
 8357SOL    HW236534   1.175   0.667  15.946  1.1822  1.7913  0.0580
 8358SOL     OW36535   0.203   0.999   1.780  0.1465  0.3753 -0.1087
 8358SOL    HW136536   0.136   0.933   1.796  0.6613 -0.0790  0.1231
 8358SOL    HW236537   0.138   1.070   1.774 -0.3538  0.0095  0.8754
 8359SOL     OW36538   2.588   3.338  14.135 -0.0100  0.8689 -0.3858
 8359SOL    HW136539   2.552   3.322  14.048 -1.2646 -1.0079  0.4851
 8359SOL    HW236540   2.549   3.424  14.152  0.9896  0.9788  1.3604
 8360SOL     OW36541   3.338   3.143  13.320 -0.1564 -0.4376  0.4500
 8360SOL    HW136542   3.285   3.203  13.372 -0.4448 -0.1114 -0.2332
 8360SOL    HW236543   3.364   3.202  13.249 -0.3611 -1.8827 -0.8284
 8361SOL     OW36544   2.070   0.866  10.601  0.4365 -0.1944 -0.0812
 8361SOL    HW136545   2.007   0.837  10.534 -0.1180  0.4855  0.1431
 8361SOL    HW236546   2.151   0.847  10.553  0.7695  0.0601  0.3833
 8362SOL     OW36547   0.204   2.681   6.115 -0.5572  0.9929 -0.7028
 8362SOL    HW136548   0.177   2.772   6.125 -0.8396  1.0037 -1.5868
 8362SOL    HW236549   0.296   2.690   6.138 -0.7342 -0.4247  0.6310
 8363SOL     OW36550   2.197   3.348   8.094 -0.0110  0.1589  0.3437
 8363SOL    HW136551   2.173   3.441   8.085 -0.0763  0.1173  0.0972
 8363SOL    HW236552   2.113   3.307   8.114 -0.8207  0.7716 -1.7995
 8364SOL     OW36553   3.930   1.878   5.750 -0.9002 -0.1256 -0.0829
 8364SOL    HW136554   3.931   1.815   5.678 -3.4276  1.5541 -1.5879
 8364SOL    HW236555   3.995   1.942   5.720 -1.1563 -0.5070 -1.4202
 8365SOL     OW36556   1.245   4.138   5.567 -0.1828  0.2023  0.0130
 8365SOL    HW136557   1.222   4.217   5.617  0.0605 -0.6570  1.4568
 8365SOL    HW236558   1.300   4.186   5.504 -2.1486 -0.3367 -2.1332
 8366SOL     OW36559   3.937   0.722  11.850 -0.3389  0.9252  0.0389
 8366SOL    HW136560   3.922   0.728  11.756  1.2196  2.3657 -0.1074
 8366SOL    HW236561   3.966   0.631  11.858 -0.4580  0.9122  0.3150
 8367SOL     OW36562   3.960   3.846   6.109 -0.2484  0.4255 -0.7531
 8367SOL    HW136563   4.049   3.835   6.076  0.9496 -0.6458  2.8503
 8367SOL    HW236564   3.967   3.914   6.177 -0.8734 -1.1484  0.8768
 8368SOL     OW36565   0.028   0.225   2.857 -0.6243  0.0937  0.7874
 8368SOL    HW136566   4.684   0.195   2.797 -0.3233 -0.6213  0.7999
 8368SOL    HW236567   4.709   0.210   2.941  2.0380  1.0639  2.3442
 8369SOL     OW36568   3.440   2.625   7.771  1.0833  0.6419  0.3513
 8369SOL    HW136569   3.479   2.704   7.733  0.0366  1.1631  0.3707
 8369SOL    HW236570   3.447   2.569   7.693 -1.1458 -0.6991  1.1340
 8370SOL     OW36571   0.498   0.944  14.154 -0.2773 -0.5867  0.5982
 8370SOL    HW136572   0.481   0.854  14.183 -0.4029 -0.5931  0.5072
 8370SOL    HW236573   0.412   0.985  14.157  0.3494  0.8253 -1.0056
 8371SOL     OW36574   2.820   3.025   7.897 -0.0825 -0.2317 -0.2437
 8371SOL    HW136575   2.824   3.025   7.993 -0.5581  0.4755 -0.2242
 8371SOL    HW236576   2.904   2.983   7.876  0.1498 -0.3790  0.9915
 8372SOL     OW36577   3.449   1.063   8.963  0.0352 -0.0814 -0.0020
 8372SOL    HW136578   3.359   1.062   8.929  0.1628  0.7353 -0.3767
 8372SOL    HW236579   3.495   1.119   8.901  1.2451 -0.4394  0.5793
 8373SOL     OW36580   0.276   2.657   3.921 -0.0299 -0.5596  0.6927
 8373SOL    HW136581   0.261   2.671   3.827  2.7412 -0.4261  0.2686
 8373SOL    HW236582   0.262   2.563   3.921  0.2194 -0.5935  1.1039
 8374SOL     OW36583   1.871   3.283  11.675 -0.2826  0.2842  0.1519
 8374SOL    HW136584   1.931   3.341  11.629 -0.0738  0.5044  0.7048
 8374SOL    HW236585   1.895   3.306  11.764  2.4132  0.4424 -0.6084
 8375SOL     OW36586   0.711   3.403   6.809  0.4432 -0.3500 -0.2082
 8375SOL    HW136587   0.711   3.468   6.738 -1.8207  1.1705  1.1997
 8375SOL    HW236588   0.679   3.325   6.763  0.9942  0.2800 -1.6648
 8376SOL     OW36589   1.397   3.497   6.177 -0.5501  0.0627 -0.3376
 8376SOL    HW136590   1.406   3.433   6.107 -0.8033 -0.0104 -0.3022
 8376SOL    HW236591   1.474   3.472   6.229 -0.7390  0.9705  0.3791
 8377SOL     OW36592   1.183   4.587   6.537  0.1723 -0.9277  0.5790
 8377SOL    HW136593   1.266   4.610   6.580 -0.6884 -0.5606  2.0551
 8377SOL    HW236594   1.129   4.607   6.614 -3.7993 -0.3537 -2.3381
 8378SOL     OW36595   2.558   0.878  10.902  0.1177  0.1269 -0.1340
 8378SOL    HW136596   2.509   0.943  10.952  0.1669  0.8617 -1.0318
 8378SOL    HW236597   2.497   0.867  10.828  0.5844  0.1897 -0.5307
 8379SOL     OW36598   2.359   1.737   5.308  0.2082  0.2192 -0.5320
 8379SOL    HW136599   2.441   1.694   5.329  0.8029  0.2236 -2.8154
 8379SOL    HW236600   2.353   1.804   5.377 -2.5328 -0.8798  0.3171
 8380SOL     OW36601   2.190   3.989   8.956  0.5692 -0.2988 -0.3962
 8380SOL    HW136602   2.158   4.055   9.018 -2.2015 -1.0178 -1.0490
 8380SOL    HW236603   2.105   3.945   8.949  1.4516 -2.0196 -0.4738
 8381SOL     OW36604   2.996   4.721   6.086  0.1266 -0.3303  0.6792
 8381SOL    HW136605   3.032   4.687   6.005  0.7393 -0.5736  1.0535
 8381SOL    HW236606   2.904   0.017   6.072  0.5409  0.6477 -0.6203
 8382SOL     OW36607   1.975   2.005  15.276 -0.3712  0.6427 -0.2780
 8382SOL    HW136608   1.933   2.003  15.362 -0.7654 -2.5924 -0.5566
 8382SOL    HW236609   1.895   2.005  15.225 -0.0289  1.1976 -0.8192
 8383SOL     OW36610   3.287   4.489  10.101 -1.0025  0.2740  0.3252
 8383SOL    HW136611   3.311   4.581  10.095 -2.1820  0.5832  0.3445
 8383SOL    HW236612   3.361   4.448  10.056 -2.2164 -1.2392 -0.3154
 8384SOL     OW36613   2.150   3.823   6.063  0.0942  0.2360 -0.3969
 8384SOL    HW136614   2.231   3.793   6.023  1.1050 -0.2186  1.9991
 8384SOL    HW236615   2.188   3.878   6.132 -2.9653  0.4115  1.1955
 8385SOL     OW36616   4.662   4.392   3.070 -0.1421 -0.3948  0.5399
 8385SOL    HW136617   0.007   4.449   3.037  0.8918 -0.7632  2.0515
 8385SOL    HW236618   4.593   4.405   3.005  1.3043  0.9832 -0.7360
 8386SOL     OW36619   3.485   4.223  17.427  0.2254 -0.2899  0.2220
 8386SOL    HW136620   3.413   4.275  17.390  0.8694 -0.0067 -0.6281
 8386SOL    HW236621   3.487   4.146  17.370 -1.5717  0.1822 -0.4856
 8387SOL     OW36622   3.438   3.057  11.336 -0.4982 -0.3421 -0.1187
 8387SOL    HW136623   3.533   3.051  11.336 -0.4148  0.8724  0.2221
 8387SOL    HW236624   3.414   2.965  11.340 -0.8321 -0.2681 -0.4012
 8388SOL     OW36625   3.468   2.987  15.919  0.2245  0.1061  0.1233
 8388SOL    HW136626   3.490   3.079  15.912  1.4953 -0.2825 -1.0160
 8388SOL    HW236627   3.385   2.978  15.871  0.8110 -0.0191 -0.8598
 8389SOL     OW36628   3.246   3.829  11.800  0.7803  0.2584 -0.1026
 8389SOL    HW136629   3.181   3.846  11.867  2.3264 -1.1249  1.7227
 8389SOL    HW236630   3.289   3.915  11.805 -2.1844  1.8026 -0.7097
 8390SOL     OW36631   2.808   2.392  13.364  0.2028  0.2411 -0.2892
 8390SOL    HW136632   2.746   2.351  13.304  1.1841  0.1355 -1.2230
 8390SOL    HW236633   2.830   2.314  13.414 -1.5058 -0.5983 -0.8581
 8391SOL     OW36634   4.171   2.860  10.622  0.4207  0.4519 -0.3368
 8391SOL    HW136635   4.248   2.824  10.577 -0.4390  0.1539 -1.5739
 8391SOL    HW236636   4.108   2.836  10.554 -0.4404 -1.5733  1.1893
 8392SOL     OW36637   3.009   3.552   2.763  0.2698 -0.1072 -0.0856
 8392SOL    HW136638   2.977   3.557   2.853 -2.5818 -2.0497 -0.9861
 8392SOL    HW236639   2.929   3.535   2.713 -0.1029  0.1904  0.4117
 8393SOL     OW36640   3.264   1.363   9.664 -0.7597 -0.5088  0.1384
 8393SOL    HW136641   3.347   1.315   9.664 -0.3562  0.1618  1.9961
 8393SOL    HW236642   3.269   1.396   9.754 -0.5109 -1.6967  0.5635
 8394SOL     OW36643   0.712   0.034  13.617  0.3862  0.2514  0.2212
 8394SOL    HW136644   0.803   0.057  13.595  0.1990 -0.0964 -0.9548
 8394SOL    HW236645   0.678   0.118  13.646 -2.4188 -0.6509 -0.4674
 8395SOL     OW36646   3.029   0.664   4.000  0.3441  0.6821  0.3141
 8395SOL    HW136647   3.063   0.639   4.086 -0.6459  0.1543  0.5515
 8395SOL    HW236648   2.960   0.599   3.986  0.6269  0.8555 -1.8754
 8396SOL     OW36649   0.910   0.923  12.182 -0.1643 -0.3961  0.1455
 8396SOL    HW136650   0.926   1.000  12.128 -1.1703  0.6931  1.3814
 8396SOL    HW236651   0.835   0.966  12.224  0.0812  2.0941 -1.9640
 8397SOL     OW36652   4.495   1.398   7.192 -0.4714  0.6344 -0.6877
 8397SOL    HW136653   4.529   1.473   7.241  0.3889  1.6079 -2.7498
 8397SOL    HW236654   4.500   1.335   7.264 -0.6812 -1.2991 -2.3670
 8398SOL     OW36655   4.674   2.813   4.910  0.3928 -0.0780 -0.6340
 8398SOL    HW136656   4.631   2.734   4.942 -0.1053  0.9676  1.2713
 8398SOL    HW236657   0.024   2.762   4.878  0.2759 -0.9742  0.5008
 8399SOL     OW36658   2.434   2.916   4.569  0.5122  0.3346  0.3619
 8399SOL    HW136659   2.364   2.853   4.587 -0.3266  1.7428  2.0452
 8399SOL    HW236660   2.510   2.858   4.567  2.0761  2.3439  0.7794
 8400SOL     OW36661   0.382   3.442  13.255 -0.1565 -0.0335 -0.3498
 8400SOL    HW136662   0.311   3.487  13.209 -0.8343  0.7552  1.4716
 8400SOL    HW236663   0.441   3.431  13.180 -0.1302  1.9990 -0.6521
 8401SOL     OW36664   2.834   3.661   7.757 -0.0358  0.0809 -0.7866
 8401SOL    HW136665   2.850   3.714   7.835 -3.0972 -0.9447  0.5137
 8401SOL    HW236666   2.793   3.588   7.802 -0.1046  0.3739 -0.3764
 8402SOL     OW36667   2.211   0.819   4.796 -0.3865  0.7630 -0.0267
 8402SOL    HW136668   2.127   0.830   4.841  0.2149  1.2356  0.9805
 8402SOL    HW236669   2.208   0.873   4.717 -0.0746 -1.6566 -1.7114
 8403SOL     OW36670   2.717   1.151   8.151 -0.4615 -0.4431 -0.4954
 8403SOL    HW136671   2.663   1.113   8.082 -2.3712 -0.9551  1.2817
 8403SOL    HW236672   2.652   1.217   8.174  1.0640  0.0153  2.4920
 8404SOL     OW36673   0.301   1.349   7.949  0.0586  0.0457 -0.0330
 8404SOL    HW136674   0.360   1.399   7.893 -1.6263  0.1950 -1.6698
 8404SOL    HW236675   0.244   1.423   7.968 -0.3622 -0.4286  0.5258
 8405SOL     OW36676   1.303   2.779  15.159  0.4296  0.3824 -0.3599
 8405SOL    HW136677   1.381   2.787  15.214  0.4137  0.0793 -0.2922
 8405SOL    HW236678   1.239   2.748  15.224  1.4955  1.3975  1.1691
 8406SOL     OW36679   2.088   4.075   5.626  0.5401  0.0205  0.4098
 8406SOL    HW136680   2.075   3.981   5.641  0.2464 -0.0761 -0.4242
 8406SOL    HW236681   2.136   4.096   5.705  1.8756 -1.1337 -0.0913
 8407SOL     OW36682   4.241   4.233  16.086  0.2961 -0.1972  0.1560
 8407SOL    HW136683   4.231   4.315  16.135  1.6429 -0.6980  1.2988
 8407SOL    HW236684   4.164   4.231  16.030  0.6675 -0.0575 -0.3562
 8408SOL     OW36685   3.164   2.728   5.567 -0.0546  0.2191  0.1725
 8408SOL    HW136686   3.155   2.819   5.596 -0.8857  0.5309 -1.0642
 8408SOL    HW236687   3.259   2.715   5.578 -0.1554 -1.6307 -1.0541
 8409SOL     OW36688   3.362   1.029   1.627  0.2970  0.8284 -0.1834
 8409SOL    HW136689   3.269   1.025   1.605  0.3349 -0.3042 -0.1733
 8409SOL    HW236690   3.397   0.948   1.590  0.5697  1.1966 -0.7158
 8410SOL     OW36691   2.372   3.276   0.291  0.8986  0.4267  0.4056
 8410SOL    HW136692   2.420   3.213   0.345  0.1484  0.9013  1.6388
 8410SOL    HW236693   2.278   3.259   0.303  0.4930  1.0800 -1.8585
 8411SOL     OW36694   0.219   4.417  16.411 -0.5594  0.1215 -0.5068
 8411SOL    HW136695   0.167   4.491  16.379  0.4704  1.6902  1.3791
 8411SOL    HW236696   0.158   4.371  16.469 -1.2064  1.3580 -0.2029
 8412SOL     OW36697   2.112   0.469   9.795  0.1480  0.1629 -0.3728
 8412SOL    HW136698   2.095   0.387   9.749 -0.6861  1.9411 -3.2816
 8412SOL    HW236699   2.039   0.477   9.856  0.0565  1.8690 -0.6980
 8413SOL     OW36700   0.251   2.652   0.031  0.6167 -0.6614  0.4128
 8413SOL    HW136701   0.236   2.696  17.647 -0.6661 -0.2130  0.8726
 8413SOL    HW236702   0.340   2.679   0.055  0.5818 -0.7045  0.5914
 8414SOL     OW36703   2.053   0.994   7.116 -0.2435  0.4234  0.1816
 8414SOL    HW136704   2.145   1.010   7.097 -0.8004  0.7718 -2.2111
 8414SOL    HW236705   2.051   0.925   7.182  0.7778 -1.6279 -1.9198
 8415SOL     OW36706   0.612   3.175  12.867 -0.0445 -0.9805 -0.0030
 8415SOL    HW136707   0.613   3.086  12.902  0.9308 -0.3678  1.5529
 8415SOL    HW236708   0.698   3.181  12.825  0.4035  0.9270  1.1344
 8416SOL     OW36709   1.621   1.863   5.125  0.4029  0.1168 -0.3165
 8416SOL    HW136710   1.639   1.938   5.182  0.2514 -2.2777  2.9030
 8416SOL    HW236711   1.646   1.792   5.183  1.4936  2.5585  2.2191
 8417SOL     OW36712   1.053   0.321  17.322  0.5248 -0.0854  0.0855
 8417SOL    HW136713   1.090   0.357  17.402  1.2924 -0.7179  0.0176
 8417SOL    HW236714   1.109   0.367  17.260  1.1543 -2.4986 -1.1370
 8418SOL     OW36715   1.707   4.316   2.779  0.0811  0.0871  0.0640
 8418SOL    HW136716   1.719   4.378   2.707 -0.9593  1.7669  1.3279
 8418SOL    HW236717   1.790   4.271   2.789 -0.3415 -0.8262 -0.5352
 8419SOL     OW36718   0.489   4.483   2.970 -1.1482 -0.1842  0.6558
 8419SOL    HW136719   0.526   4.425   3.037 -1.4282 -0.1399  0.8491
 8419SOL    HW236720   0.453   4.545   3.033  0.2970  1.2466  0.0533
 8420SOL     OW36721   4.402   3.506  15.185  0.4931  0.0940  0.4438
 8420SOL    HW136722   4.365   3.491  15.271 -0.1070 -4.7161 -0.6570
 8420SOL    HW236723   4.446   3.589  15.203 -0.3409  0.5843  0.1598
 8421SOL     OW36724   1.425   2.248   8.410  0.1437  0.1291 -0.8630
 8421SOL    HW136725   1.493   2.207   8.463  0.8333  1.3038 -0.8261
 8421SOL    HW236726   1.473   2.244   8.327 -1.0684 -1.2310 -1.4964
 8422SOL     OW36727   1.771   0.695   5.891  0.2171  0.2243  0.3871
 8422SOL    HW136728   1.757   0.780   5.933  0.7134 -0.4914  1.9735
 8422SOL    HW236729   1.865   0.692   5.908  0.4332  1.8270 -0.5418
 8423SOL     OW36730   4.240   0.166   1.294 -0.3209  0.3551 -0.1628
 8423SOL    HW136731   4.318   0.160   1.349 -0.8560 -2.2957  0.3293
 8423SOL    HW236732   4.272   0.162   1.204  0.3901 -0.1477  0.1144
 8424SOL     OW36733   0.552   1.671   2.088  0.1179  0.5107  0.1173
 8424SOL    HW136734   0.595   1.620   2.157 -2.3441 -0.5568  0.8501
 8424SOL    HW236735   0.474   1.700   2.133 -1.0767 -0.9749 -1.0077
 8425SOL     OW36736   0.950   0.575   1.152 -0.7956  0.3368  0.2107
 8425SOL    HW136737   0.977   0.567   1.061  1.2052 -0.9558  0.9195
 8425SOL    HW236738   0.858   0.570   1.128 -0.8051 -1.2208  0.5784
 8426SOL     OW36739   3.543   3.676   7.738  0.3528 -0.0378 -0.2922
 8426SOL    HW136740   3.504   3.677   7.651 -1.5474 -0.1589  0.5620
 8426SOL    HW236741   3.466   3.646   7.786  0.5900 -0.2091 -0.0170
 8427SOL     OW36742   4.422   4.540  13.867 -0.4431  0.7828 -0.2208
 8427SOL    HW136743   4.401   4.620  13.818 -0.7859  1.2278  0.6473
 8427SOL    HW236744   4.332   4.513  13.885 -0.5719  0.1878 -1.7783
 8428SOL     OW36745   1.044   4.355   7.683  0.4113  0.2812  0.1269
 8428SOL    HW136746   0.949   4.354   7.681  0.4042  1.2473 -0.0349
 8428SOL    HW236747   1.067   4.362   7.591 -1.0508  2.7133 -0.0493
 8429SOL     OW36748   1.849   1.836   2.315  0.2618  0.3194 -0.2030
 8429SOL    HW136749   1.797   1.832   2.235  0.8826 -0.9235 -0.5442
 8429SOL    HW236750   1.791   1.877   2.379  0.0577 -0.6334  0.2204
 8430SOL     OW36751   4.174   4.300   3.695  0.0519  0.1040  0.2892
 8430SOL    HW136752   4.083   4.319   3.714  0.0218  1.3320 -1.0831
 8430SOL    HW236753   4.173   4.316   3.601 -0.1969  1.5767  0.5438
 8431SOL     OW36754   1.107   3.411   6.133 -0.6301 -0.0555 -0.0278
 8431SOL    HW136755   1.178   3.464   6.171 -0.1495 -1.1329  0.5701
 8431SOL    HW236756   1.077   3.368   6.212 -0.6117 -2.4192 -1.3056
 8432SOL     OW36757   0.467   0.751   2.174 -0.7247 -0.3564  0.3070
 8432SOL    HW136758   0.432   0.698   2.246 -0.2606 -0.7350  0.2600
 8432SOL    HW236759   0.562   0.761   2.186 -1.0710  2.1336  0.8746
 8433SOL     OW36760   0.683   2.690  10.881  0.4411 -0.3878  1.1015
 8433SOL    HW136761   0.716   2.600  10.877 -1.1102 -0.9903  1.8461
 8433SOL    HW236762   0.588   2.682  10.892  0.7018 -2.5510  1.6968
 8434SOL     OW36763   4.673   0.620   8.479  0.4760  0.0144  0.2435
 8434SOL    HW136764   4.586   0.630   8.439  0.7560  2.0141  0.1157
 8434SOL    HW236765   4.636   0.613   8.567  0.4527 -0.4174  0.1972
 8435SOL     OW36766   0.082   1.385   9.498 -0.6064 -0.5958  0.3037
 8435SOL    HW136767   0.165   1.396   9.544  1.5347  0.1136 -3.7569
 8435SOL    HW236768   0.107   1.335   9.420  0.2390  1.5953 -0.8410
 8436SOL     OW36769   2.442   0.816   3.282 -0.5357 -0.1714 -0.1913
 8436SOL    HW136770   2.443   0.833   3.188  0.6652  1.1363  0.0624
 8436SOL    HW236771   2.368   0.755   3.287  0.0423 -0.9756 -1.5097
 8437SOL     OW36772   1.185   4.254  17.626  0.1144  0.1518 -0.3950
 8437SOL    HW136773   1.268   4.292  17.597 -0.2561  0.7599 -0.6534
 8437SOL    HW236774   1.155   4.214  17.544 -0.2057  0.4900 -0.4472
 8438SOL     OW36775   3.160   1.502   8.477 -0.0956  0.0316  0.0756
 8438SOL    HW136776   3.112   1.438   8.424  2.7961 -1.1701 -1.1210
 8438SOL    HW236777   3.113   1.579   8.446  0.3458  1.2944  2.5967
 8439SOL     OW36778   0.165   3.264  17.686 -0.1450  0.0002  0.0808
 8439SOL    HW136779   0.216   3.286   0.064  1.1482 -0.9399 -0.5216
 8439SOL    HW236780   0.108   3.341  17.693  1.2851  0.7185  3.6593
 8440SOL     OW36781   2.310   3.204   9.601 -0.2040 -0.1638 -0.3750
 8440SOL    HW136782   2.378   3.262   9.635 -0.9451 -1.0355  2.6174
 8440SOL    HW236783   2.351   3.118   9.606 -0.7710 -0.4850 -1.2783
 8441SOL     OW36784   4.498   2.856  13.277 -0.0478  0.0643 -0.1127
 8441SOL    HW136785   4.412   2.887  13.305 -0.1710  0.9162 -1.4706
 8441SOL    HW236786   4.479   2.836  13.186  2.6898 -1.1007 -0.4491
 8442SOL     OW36787   1.767   0.363   1.463  0.3750 -0.4118  0.3476
 8442SOL    HW136788   1.839   0.339   1.404  1.7259  1.0916  1.3986
 8442SOL    HW236789   1.753   0.455   1.443  0.6110 -0.6878 -1.0858
 8443SOL     OW36790   1.286   1.926  12.981  0.2633  0.6265  0.1998
 8443SOL    HW136791   1.372   1.956  12.953  0.7512 -1.5079 -0.5836
 8443SOL    HW236792   1.306   1.902  13.072 -0.3273 -0.0545  0.1492
 8444SOL     OW36793   1.282   4.094   7.861  0.3729  0.2243 -0.1872
 8444SOL    HW136794   1.249   4.169   7.910  1.0362 -0.2438  0.9635
 8444SOL    HW236795   1.369   4.114   7.828  1.4029 -2.3602  0.9446
 8445SOL     OW36796   4.403   2.915   6.699  0.1106 -0.3526  0.1118
 8445SOL    HW136797   4.355   2.922   6.782 -0.1749 -1.7583  0.0636
 8445SOL    HW236798   4.486   2.881   6.731  0.2956 -2.1838 -2.3380
 8446SOL     OW36799   3.799   1.926   5.065  0.2696  0.4430 -0.7574
 8446SOL    HW136800   3.731   1.983   5.032  0.6383  1.1636 -0.2817
 8446SOL    HW236801   3.855   1.991   5.107  4.0349 -3.1625 -0.1656
 8447SOL     OW36802   4.707   3.209   8.362  0.3272 -0.0647 -0.3169
 8447SOL    HW136803   0.012   3.282   8.418 -1.5897 -0.0297  0.6555
 8447SOL    HW236804   0.043   3.189   8.291  1.2939  0.2116  0.4202
 8448SOL     OW36805   1.140   2.291   5.336 -0.1602 -0.0456  0.0688
 8448SOL    HW136806   1.105   2.215   5.383 -0.8176  0.5803  0.5924
 8448SOL    HW236807   1.150   2.257   5.248 -0.5838  1.7919 -0.6857
 8449SOL     OW36808   2.829   4.585   6.660 -1.0325  0.2206 -0.0308
 8449SOL    HW136809   2.891   4.658   6.658  0.7103 -1.2346  1.0020
 8449SOL    HW236810   2.757   4.621   6.711 -0.6010 -0.4501  1.0409
 8450SOL     OW36811   1.190   1.564   8.191  0.0120 -0.0704  0.0058
 8450SOL    HW136812   1.159   1.604   8.273 -1.7984  1.5271 -1.4685
 8450SOL    HW236813   1.243   1.637   8.159  1.2776  0.0293  2.2937
 8451SOL     OW36814   0.566   0.689   0.830  0.0393  0.6045 -0.1773
 8451SOL    HW136815   0.653   0.699   0.868 -0.4104  2.3777  0.3672
 8451SOL    HW236816   0.542   0.600   0.856 -1.5734  1.1979  0.3429
 8452SOL     OW36817   4.399   4.646  14.902  0.1373  0.4620 -0.0224
 8452SOL    HW136818   4.460   4.575  14.882  0.9979  1.4452 -0.8230
 8452SOL    HW236819   4.398   4.646  14.998 -0.3004 -0.5962 -0.0183
 8453SOL     OW36820   1.100   3.312   8.435  0.9566 -0.2480  0.4241
 8453SOL    HW136821   1.083   3.263   8.516  1.1973 -0.2757  0.4585
 8453SOL    HW236822   1.021   3.364   8.421 -0.9486 -3.9109 -2.5782
 8454SOL     OW36823   4.129   2.698   4.064  0.6201 -0.1494  0.3621
 8454SOL    HW136824   4.185   2.662   3.994  0.6043 -1.7183  1.1394
 8454SOL    HW236825   4.151   2.791   4.062  0.4596 -0.0890  1.6500
 8455SOL     OW36826   2.590   0.764   1.263 -0.3612  0.6487  0.2078
 8455SOL    HW136827   2.676   0.723   1.249 -1.5394 -1.5847 -0.4492
 8455SOL    HW236828   2.586   0.836   1.200 -0.6503  0.8016  0.4020
 8456SOL     OW36829   3.007   3.600   0.374  0.3737 -0.5066 -0.3500
 8456SOL    HW136830   2.967   3.680   0.407  0.6647  0.5457 -2.5297
 8456SOL    HW236831   2.941   3.531   0.378  1.4848 -1.4019  2.3192
 8457SOL     OW36832   2.156   4.523   2.183  0.0044 -0.3118  1.1390
 8457SOL    HW136833   2.081   4.465   2.169  1.5800 -1.8960 -0.7967
 8457SOL    HW236834   2.217   4.469   2.234 -0.5033 -1.1479  0.8675
 8458SOL     OW36835   1.292   0.988   7.116  0.0743  0.0002 -0.7717
 8458SOL    HW136836   1.206   1.029   7.115  0.0218 -0.1702 -2.3523
 8458SOL    HW236837   1.279   0.921   7.183 -0.6800  0.5285 -0.3825
 8459SOL     OW36838   1.327   1.073   5.635  0.2258  0.1332  0.1756
 8459SOL    HW136839   1.342   1.144   5.697 -1.2435 -0.3025  1.0265
 8459SOL    HW236840   1.233   1.060   5.648  0.3041  1.2125  1.8540
 8460SOL     OW36841   4.080   1.694  11.626 -0.1966 -0.0890  0.1568
 8460SOL    HW136842   4.042   1.767  11.674 -0.4212 -1.5300  2.1447
 8460SOL    HW236843   4.054   1.707  11.534 -2.2252  1.2620  0.9285
 8461SOL     OW36844   1.089   0.445   4.676  0.1452  0.5009 -0.2080
 8461SOL    HW136845   1.063   0.361   4.636 -1.0392  1.4358 -1.4234
 8461SOL    HW236846   1.158   0.417   4.736  1.1668  2.5043 -0.4307
 8462SOL     OW36847   3.911   3.399   4.039  0.0111  0.1433 -0.1006
 8462SOL    HW136848   3.917   3.458   4.114 -0.6756  1.8270 -1.3529
 8462SOL    HW236849   3.817   3.379   4.035 -0.6218  3.2615 -0.9163
 8463SOL     OW36850   0.859   4.627   9.767  0.4686  0.8094 -0.0333
 8463SOL    HW136851   0.830   4.684   9.695  1.3868  1.0750 -0.1983
 8463SOL    HW236852   0.774   4.594   9.797  2.0789 -0.1268  3.5378
 8464SOL     OW36853   3.227   4.400  17.199 -0.1993  0.1794  0.4897
 8464SOL    HW136854   3.175   4.481  17.192  2.2285  1.6689 -0.2417
 8464SOL    HW236855   3.203   4.356  17.118 -0.6386  1.3017  0.0095
 8465SOL     OW36856   4.285   3.684   3.518  0.7085  0.4240  0.8579
 8465SOL    HW136857   4.326   3.607   3.477 -1.6051 -0.9669  1.1492
 8465SOL    HW236858   4.340   3.698   3.595  0.6587 -0.9066  1.1373
 8466SOL     OW36859   0.069   0.049   1.718  0.2529  0.5899 -0.2650
 8466SOL    HW136860   0.107   0.070   1.804  1.5831 -2.0039 -0.2198
 8466SOL    HW236861   0.047   4.682   1.735  2.0552  0.1568 -0.3100
 8467SOL     OW36862   2.205   4.488   3.353  0.2549  0.0192  0.2273
 8467SOL    HW136863   2.164   4.562   3.397 -0.0174 -0.2676  0.4540
 8467SOL    HW236864   2.171   4.417   3.407  1.3159  1.0279  2.2122
 8468SOL     OW36865   1.570   1.841   2.184  0.1119  0.0303 -0.0357
 8468SOL    HW136866   1.479   1.857   2.161  0.7254  0.2089 -2.3532
 8468SOL    HW236867   1.557   1.748   2.202  0.2164 -0.2011 -1.1157
 8469SOL     OW36868   1.718   2.234   8.890  0.2351 -0.2747 -0.1274
 8469SOL    HW136869   1.747   2.298   8.956  2.6443 -1.0466 -0.4161
 8469SOL    HW236870   1.647   2.283   8.850  0.8484 -0.4306 -1.4045
 8470SOL     OW36871   0.053   1.336  12.077  0.0264  0.0577 -0.0404
 8470SOL    HW136872   4.724   1.338  11.997  0.5278 -3.5096 -0.4578
 8470SOL    HW236873   0.041   1.419  12.123  0.2128 -0.8238  1.6033
 8471SOL     OW36874   2.235   3.242  11.058 -0.2706 -0.3121 -0.3180
 8471SOL    HW136875   2.204   3.259  10.970  0.0705  0.1685 -0.3450
 8471SOL    HW236876   2.327   3.269  11.058  0.0138 -1.2713  0.9654
 8472SOL     OW36877   0.246   1.393   1.995 -0.2078 -0.0569  0.0548
 8472SOL    HW136878   0.174   1.440   2.038 -2.5241 -0.2955 -3.5332
 8472SOL    HW236879   0.274   1.455   1.928 -0.4999 -0.1803 -0.1847
 8473SOL     OW36880   4.422   0.134   6.561 -0.3379  0.3487 -0.3675
 8473SOL    HW136881   4.435   0.140   6.655 -2.0024  1.8492 -0.2417
 8473SOL    HW236882   4.394   0.224   6.542 -2.5563  0.3766  3.1028
 8474SOL     OW36883   4.545   1.007   8.513  0.0618  0.2737  0.0400
 8474SOL    HW136884   4.536   0.912   8.524  0.1625  0.4878  1.9616
 8474SOL    HW236885   4.452   1.031   8.512 -0.3890 -1.4958 -1.0519
 8475SOL     OW36886   0.894   2.461   6.637 -0.0815  0.2085 -0.4510
 8475SOL    HW136887   0.970   2.516   6.659 -1.5985  1.7761  0.8704
 8475SOL    HW236888   0.893   2.472   6.542 -3.2372 -2.2774 -0.7148
 8476SOL     OW36889   4.604   1.375   8.624 -0.1859  0.1961 -0.0289
 8476SOL    HW136890   4.584   1.467   8.640 -1.1635 -0.1921  0.9406
 8476SOL    HW236891   4.570   1.336   8.704  0.9117  0.4770  0.5807
 8477SOL     OW36892   1.808   1.207   8.691  0.9242 -0.3357 -0.1239
 8477SOL    HW136893   1.856   1.217   8.609 -0.8082  0.1414 -1.0790
 8477SOL    HW236894   1.876   1.193   8.757 -2.0420 -1.5968  2.6829
 8478SOL     OW36895   0.890   2.897  16.933  0.1542  0.1768  0.0865
 8478SOL    HW136896   0.951   2.967  16.958  1.2330 -0.9551  0.6047
 8478SOL    HW236897   0.947   2.821  16.924  0.3611  0.4895 -1.3053
 8479SOL     OW36898   1.875   2.660   3.966  0.2719 -0.0865 -0.2777
 8479SOL    HW136899   1.783   2.675   3.990  0.8784 -2.8168  3.7204
 8479SOL    HW236900   1.866   2.643   3.872  0.9470 -2.8539  0.1668
 8480SOL     OW36901   2.638   2.025   8.004 -0.0422  0.2246 -0.4454
 8480SOL    HW136902   2.688   2.096   8.046  1.5972  0.5886 -2.9659
 8480SOL    HW236903   2.549   2.045   8.030  0.2532  0.8390  0.1062
 8481SOL     OW36904   1.483   3.995   6.212 -0.4197  0.2143 -0.2179
 8481SOL    HW136905   1.473   3.908   6.173  2.4964  0.1265 -0.7548
 8481SOL    HW236906   1.559   4.020   6.161 -0.2507  0.4227  0.1355
 8482SOL     OW36907   4.279   4.287  10.375  0.4748 -0.2763  0.5342
 8482SOL    HW136908   4.215   4.353  10.403  0.4317  0.5814 -1.6299
 8482SOL    HW236909   4.357   4.343  10.379  0.5669 -0.2454 -2.3445
 8483SOL     OW36910   1.890   3.219   8.028 -0.0291  0.5523  0.3514
 8483SOL    HW136911   1.874   3.144   7.971 -0.6976  1.3052 -0.4474
 8483SOL    HW236912   1.941   3.172   8.094  0.7132  1.2697  0.2814
 8484SOL     OW36913   3.553   0.297   3.464 -0.5174 -0.7193  0.9672
 8484SOL    HW136914   3.498   0.367   3.427  0.8693  0.4501  1.1407
 8484SOL    HW236915   3.554   0.230   3.395 -0.8257  2.2271 -1.9243
 8485SOL     OW36916   4.724   0.816   3.795 -0.0448 -0.5668  0.3606
 8485SOL    HW136917   4.695   0.811   3.886 -0.1886 -0.9668  0.2920
 8485SOL    HW236918   0.088   0.852   3.796  0.5196 -1.9511  0.3825
 8486SOL     OW36919   3.319   2.775   5.818  0.6029 -1.1188  0.2431
 8486SOL    HW136920   3.361   2.833   5.881  0.1166  0.5171 -0.9462
 8486SOL    HW236921   3.227   2.794   5.839  0.8146  0.5231 -0.3227
 8487SOL     OW36922   3.556   3.450   6.325  0.2028 -0.7326 -0.2207
 8487SOL    HW136923   3.554   3.388   6.399  0.7495 -1.7417 -1.0513
 8487SOL    HW236924   3.481   3.422   6.273 -0.8630  1.5538  0.0900
 8488SOL     OW36925   1.013   3.783   6.777 -0.5379 -0.1349  0.8211
 8488SOL    HW136926   1.025   3.844   6.705  0.6423 -1.8240 -0.4141
 8488SOL    HW236927   1.013   3.852   6.843  1.5687  1.6445 -1.0191
 8489SOL     OW36928   1.004   3.211  10.322  0.5111 -0.0077  0.0459
 8489SOL    HW136929   0.945   3.226  10.248  0.5047 -0.3787 -0.0249
 8489SOL    HW236930   1.000   3.117  10.339  3.4774 -0.0698  0.4883
 8490SOL     OW36931   1.556   1.997   3.457  0.9837 -0.3397 -0.1103
 8490SOL    HW136932   1.644   1.961   3.447  1.3708  0.7033 -0.4734
 8490SOL    HW236933   1.560   2.045   3.540  1.1529  0.8653 -0.8127
 8491SOL     OW36934   4.226   1.434   5.739  0.0216  0.1321  0.3970
 8491SOL    HW136935   4.162   1.494   5.778 -0.4251 -0.3628  0.4210
 8491SOL    HW236936   4.179   1.357   5.771  0.2425 -0.0402  0.3052
 8492SOL     OW36937   1.434   0.167   7.403 -0.4920 -0.0362  0.2701
 8492SOL    HW136938   1.451   0.234   7.469  2.0472  0.2769 -0.6941
 8492SOL    HW236939   1.523   0.136   7.388  0.0941  1.3746  0.8150
 8493SOL     OW36940   1.650   2.805   7.696 -0.1739  0.0334 -0.3239
 8493SOL    HW136941   1.665   2.718   7.658 -2.9463 -0.2727 -0.6671
 8493SOL    HW236942   1.707   2.854   7.636 -0.6359  0.5085 -0.3651
 8494SOL     OW36943   0.368   4.161   8.606 -0.0268 -0.0685 -0.1924
 8494SOL    HW136944   0.352   4.178   8.513 -1.6557  1.7268  0.4061
 8494SOL    HW236945   0.448   4.109   8.598 -0.5856 -0.7088 -1.7648
 8495SOL     OW36946   4.566   3.793   4.375  0.3449  0.7528  0.6101
 8495SOL    HW136947   4.588   3.805   4.283  2.7350  1.5281  1.2784
 8495SOL    HW236948   4.472   3.774   4.373  0.6394 -0.3086 -2.4529
 8496SOL     OW36949   2.185   1.666   4.123 -0.5032 -0.2511  0.4339
 8496SOL    HW136950   2.220   1.661   4.212  0.2107 -0.1510  0.1622
 8496SOL    HW236951   2.233   1.601   4.071 -2.3372  0.0963 -1.7053
 8497SOL     OW36952   3.454   1.155   5.068 -0.0707  0.2072  0.1116
 8497SOL    HW136953   3.425   1.074   5.024  2.0090 -1.8156  2.4931
 8497SOL    HW236954   3.534   1.121   5.107 -1.2601  0.0528  2.4184
 8498SOL     OW36955   0.550   3.832   6.808 -0.1890  0.6991  0.7089
 8498SOL    HW136956   0.524   3.828   6.899  0.0828 -0.8463  0.7322
 8498SOL    HW236957   0.566   3.925   6.796  0.4212  0.4448 -0.4883
 8499SOL     OW36958   2.096   3.370   3.494  0.3347  0.0354  0.2251
 8499SOL    HW136959   2.062   3.345   3.407  0.2025  1.9480 -0.2675
 8499SOL    HW236960   2.046   3.451   3.501 -1.7554 -1.0471 -1.8958
 8500SOL     OW36961   1.912   0.980   7.803  0.1008  0.4905  0.4841
 8500SOL    HW136962   1.847   1.014   7.742 -2.4972  0.7505  3.3880
 8500SOL    HW236963   1.856   0.947   7.874  0.0563  3.6428  1.9335
 8501SOL     OW36964   0.372   1.723   3.763  0.4024  0.8651  0.2349
 8501SOL    HW136965   0.432   1.708   3.837 -1.9831  1.0004  2.2004
 8501SOL    HW236966   0.443   1.739   3.701  0.0185  1.4470 -0.0484
 8502SOL     OW36967   4.141   1.973   8.599 -0.1936 -0.3970 -0.3885
 8502SOL    HW136968   4.101   1.887   8.603  0.3376 -0.5814  1.0196
 8502SOL    HW236969   4.062   2.026   8.590  0.3490  0.4005 -0.4549
 8503SOL     OW36970   2.934   3.270   1.306  0.0665  0.4874  0.4466
 8503SOL    HW136971   2.985   3.209   1.252  1.8282  0.9743  1.5490
 8503SOL    HW236972   2.855   3.219   1.288 -0.2306  0.2885  2.3461
 8504SOL     OW36973   2.635   4.396   4.931 -0.2882 -0.4753 -0.3974
 8504SOL    HW136974   2.638   4.340   5.008  0.1947  0.0992  0.0012
 8504SOL    HW236975   2.554   4.437   4.962 -0.2648 -0.6818 -0.0637
 8505SOL     OW36976   2.557   1.609   5.537  0.5204 -0.2549 -0.2431
 8505SOL    HW136977   2.505   1.546   5.488 -1.1624  1.1065 -0.1963
 8505SOL    HW236978   2.576   1.560   5.617  2.4609  0.5264 -0.2137
 8506SOL     OW36979   3.117   0.038   8.132  0.2732 -0.1337  0.5274
 8506SOL    HW136980   3.025   0.046   8.158  0.0571  1.1773 -0.6651
 8506SOL    HW236981   3.154   0.027   8.220  1.4163  2.5169  0.3635
 8507SOL     OW36982   4.286   4.244   5.783 -0.6921  0.1873 -0.2536
 8507SOL    HW136983   4.270   4.274   5.872  1.7189 -2.4955  1.0749
 8507SOL    HW236984   4.201   4.276   5.752 -1.6506 -0.7100  1.4892
 8508SOL     OW36985   4.548   0.049  11.213  0.3919 -0.7698 -0.0852
 8508SOL    HW136986   4.487   0.021  11.281 -0.5226 -1.3495 -1.1408
 8508SOL    HW236987   4.571   4.688  11.179 -0.2371 -1.1759  0.5134
 8509SOL     OW36988   1.517   3.117   2.628  0.3047  0.1606 -0.5865
 8509SOL    HW136989   1.497   3.193   2.574  1.1588 -0.4965 -1.8335
 8509SOL    HW236990   1.430   3.079   2.640  0.0553  0.8154 -0.2901
 8510SOL     OW36991   2.261   0.339  14.377  0.3038 -0.2247  0.3685
 8510SOL    HW136992   2.194   0.308  14.438  0.5716  3.1130  2.3295
 8510SOL    HW236993   2.330   0.351  14.443  3.2260 -0.7044 -2.5813
 8511SOL     OW36994   2.985   4.409   4.293 -0.1273 -0.4462  0.7449
 8511SOL    HW136995   2.995   4.314   4.287 -0.0261 -0.2565 -2.0573
 8511SOL    HW236996   3.028   4.443   4.214  0.6488 -1.5275  0.7136
 8512SOL     OW36997   4.357   3.130  17.179  0.0787  0.1067  0.1323
 8512SOL    HW136998   4.311   3.125  17.263  1.3433 -0.7060  0.7716
 8512SOL    HW236999   4.334   3.051  17.129 -0.1522 -0.1244  0.5992
 8513SOL     OW37000   0.682   2.215   7.693 -0.4341  0.1252 -0.0203
 8513SOL    HW137001   0.601   2.188   7.737 -1.3034  0.5398 -1.3491
 8513SOL    HW237002   0.660   2.308   7.702  0.1812  0.1557  1.1286
 8514SOL     OW37003   3.952   3.989   8.052  0.0722  0.2905  0.2023
 8514SOL    HW137004   3.917   3.921   7.995 -1.5592  1.8623 -0.6945
 8514SOL    HW237005   4.042   3.985   8.022  0.1023  1.3827  0.1480
 8515SOL     OW37006   2.453   0.546   9.293 -0.2846 -0.2607  0.2038
 8515SOL    HW137007   2.506   0.525   9.215  1.4986  1.2087  1.0228
 8515SOL    HW237008   2.514   0.549   9.367 -0.8242 -0.7388  0.6651
 8516SOL     OW37009   0.550   0.051   7.489 -0.0533  0.2468 -0.0855
 8516SOL    HW137010   0.620   0.065   7.425 -0.2649  0.3868 -0.2879
 8516SOL    HW237011   0.485   0.015   7.429 -0.0535 -0.2660  0.2250
 8517SOL     OW37012   1.098   0.832   7.925 -0.4101 -0.2986 -0.2371
 8517SOL    HW137013   1.094   0.790   7.839 -0.4303  0.3315 -0.5425
 8517SOL    HW237014   1.151   0.908   7.899  0.9051 -0.4206  2.1470
 8518SOL     OW37015   0.284   1.167  17.619 -0.2801  0.1247 -0.0834
 8518SOL    HW137016   0.341   1.147  17.545 -0.5507 -0.8526 -0.0392
 8518SOL    HW237017   0.205   1.149  17.568  0.2100  1.2693 -1.2243
 8519SOL     OW37018   1.513   3.304   6.025  0.0706  0.1394 -0.2737
 8519SOL    HW137019   1.455   3.229   6.010 -0.1281  0.0936  0.7575
 8519SOL    HW237020   1.566   3.317   5.946  0.3414 -1.4795 -0.3496
 8520SOL     OW37021   3.256   4.444   8.789  0.3816  0.7068 -0.3958
 8520SOL    HW137022   3.291   4.528   8.820  0.3964  0.6137 -0.1624
 8520SOL    HW237023   3.170   4.475   8.760 -0.4022 -0.7042  0.4147
 8521SOL     OW37024   0.325   1.979   0.755 -0.2656 -0.3991  0.2693
 8521SOL    HW137025   0.365   2.059   0.789 -0.3656  0.0374 -0.6274
 8521SOL    HW237026   0.361   1.914   0.816 -0.3597 -1.4094 -0.7400
 8522SOL     OW37027   2.786   2.758   7.313 -0.0333  0.1620 -0.5741
 8522SOL    HW137028   2.851   2.721   7.373 -0.9982  1.2961  1.1954
 8522SOL    HW237029   2.790   2.852   7.328  2.0522 -0.0740  0.2930
 8523SOL     OW37030   1.093   4.356  10.993 -0.0266 -0.3796 -0.1712
 8523SOL    HW137031   1.091   4.261  10.981  3.9412 -0.7525  2.0736
 8523SOL    HW237032   1.147   4.367  11.072  0.1848  1.4164 -0.5647
 8524SOL     OW37033   3.002   2.572   7.735 -0.0262 -0.2762 -0.3887
 8524SOL    HW137034   3.067   2.563   7.805  1.7221 -1.4713 -2.1535
 8524SOL    HW237035   2.953   2.491   7.742 -1.0058  0.4113  0.7721
 8525SOL     OW37036   3.657   4.148  12.222  0.2979  0.1366 -0.1833
 8525SOL    HW137037   3.698   4.213  12.280  0.2518  0.3202 -0.3585
 8525SOL    HW237038   3.634   4.082  12.287 -2.2875 -0.2968 -1.5517
 8526SOL     OW37039   3.223   3.720   8.924 -0.0119 -0.5590 -0.3845
 8526SOL    HW137040   3.288   3.775   8.966  0.5267 -1.4676 -0.0241
 8526SOL    HW237041   3.248   3.642   8.974  1.3061  0.9689  1.3038
 8527SOL     OW37042   1.735   2.013  11.922 -0.5201  0.4721 -0.2366
 8527SOL    HW137043   1.639   2.020  11.924 -0.3143  3.1422 -0.2424
 8527SOL    HW237044   1.768   2.071  11.990  0.9000 -0.0996 -0.4452
 8528SOL     OW37045   4.246   0.284   4.619 -0.0473 -0.1591 -0.2596
 8528SOL    HW137046   4.214   0.247   4.701 -0.8749 -1.0274 -0.9654
 8528SOL    HW237047   4.325   0.324   4.656  0.4664 -0.8817 -0.5551
 8529SOL     OW37048   3.847   0.249   4.003 -0.6976  0.1324  0.4313
 8529SOL    HW137049   3.880   0.178   4.057  2.0958  0.6319 -0.5997
 8529SOL    HW237050   3.857   0.221   3.912  1.6643  0.8334  0.4707
 8530SOL     OW37051   1.980   1.824   0.739 -0.0027  0.6049  0.1301
 8530SOL    HW137052   1.926   1.855   0.811  0.6426 -0.5789  1.1257
 8530SOL    HW237053   2.067   1.820   0.779 -0.0033 -3.8897 -0.3047
 8531SOL     OW37054   3.825   4.548  14.036 -0.3351 -0.7078  0.0884
 8531SOL    HW137055   3.760   4.540  14.106  1.1275  0.3372  1.5798
 8531SOL    HW237056   3.765   4.517  13.968 -1.8081  0.7937  0.6835
 8532SOL     OW37057   0.887   0.973   7.488  0.2963 -0.3367  0.0252
 8532SOL    HW137058   0.827   1.002   7.419  0.3361 -0.6673 -0.1498
 8532SOL    HW237059   0.875   1.040   7.555  1.1332 -0.7018  0.5392
 8533SOL     OW37060   2.596   2.622   0.557 -0.0471  0.1456  0.3489
 8533SOL    HW137061   2.528   2.566   0.593  0.7100 -1.2760 -0.4148
 8533SOL    HW237062   2.665   2.571   0.599 -1.0312 -2.2205 -0.9335
 8534SOL     OW37063   4.721   0.619  14.575  0.0136 -0.5318  0.4268
 8534SOL    HW137064   0.034   0.650  14.658  0.0396 -3.6703  1.5908
 8534SOL    HW237065   0.047   0.538  14.568 -0.1751 -0.6748  0.6933
 8535SOL     OW37066   1.388   3.010  13.548 -0.2408  0.2224  0.2810
 8535SOL    HW137067   1.334   2.937  13.579  2.1451 -1.8442 -0.4744
 8535SOL    HW237068   1.433   2.953  13.486 -1.0508 -0.5633  0.4035
 8536SOL     OW37069   2.725   1.225   4.373  0.6943 -0.3739 -0.9554
 8536SOL    HW137070   2.782   1.298   4.351  1.4284 -0.5521  0.3353
 8536SOL    HW237071   2.739   1.164   4.301 -1.0330  1.5498 -2.8935
 8537SOL     OW37072   3.136   3.453   9.233  0.1778  0.3285 -0.1645
 8537SOL    HW137073   3.076   3.462   9.159  1.0031  1.6324 -0.6684
 8537SOL    HW237074   3.218   3.488   9.198  0.9814 -2.0402 -0.7021
 8538SOL     OW37075   1.345   2.801   3.039  0.8225 -0.4323  0.2151
 8538SOL    HW137076   1.255   2.779   3.063 -0.0536  4.3664  1.3138
 8538SOL    HW237077   1.385   2.714   3.035  1.5273 -0.0565 -0.9977
 8539SOL     OW37078   2.404   0.686   8.591 -0.1312 -0.3037 -0.2339
 8539SOL    HW137079   2.404   0.653   8.681 -1.0281 -2.1721 -0.9184
 8539SOL    HW237080   2.356   0.616   8.547 -2.5245  0.9957  0.2867
 8540SOL     OW37081   1.046   1.428   7.992 -0.1619 -0.2258  0.2770
 8540SOL    HW137082   0.994   1.498   8.033 -1.5848  0.0218 -1.9805
 8540SOL    HW237083   1.116   1.437   8.057  1.7104 -0.6312 -1.6865
 8541SOL     OW37084   3.826   2.294  13.516 -0.6579 -0.2831 -0.4524
 8541SOL    HW137085   3.745   2.314  13.469 -0.2324 -1.5133 -1.7052
 8541SOL    HW237086   3.849   2.378  13.555  1.0466 -1.1682  0.4583
 8542SOL     OW37087   2.662   0.890   6.728  0.2022 -0.2956  0.6663
 8542SOL    HW137088   2.659   0.808   6.679 -1.5813  0.2100 -0.0783
 8542SOL    HW237089   2.752   0.891   6.761  0.8489  3.0030 -1.1814
 8543SOL     OW37090   1.725   0.412   4.183  0.3819  0.3885  0.0571
 8543SOL    HW137091   1.764   0.325   4.174 -0.4280  0.0697 -0.3126
 8543SOL    HW237092   1.633   0.386   4.179 -0.0433  2.0524 -0.8792
 8544SOL     OW37093   3.548   3.727   2.924  0.0729  0.3709 -0.1870
 8544SOL    HW137094   3.568   3.820   2.926  1.2419  0.0881  1.5486
 8544SOL    HW237095   3.469   3.712   2.873  0.0887 -1.2130  0.2519
 8545SOL     OW37096   3.255   0.079  14.233  0.2385  0.4080 -0.3885
 8545SOL    HW137097   3.283   4.713  14.223 -2.4978 -0.3665 -0.8042
 8545SOL    HW237098   3.238   0.086  14.327 -0.7866  0.7043 -0.5946
 8546SOL     OW37099   2.434   0.012   4.127 -0.4824  0.3314  0.2492
 8546SOL    HW137100   2.482   0.046   4.052 -0.6777 -1.6207 -0.7529
 8546SOL    HW237101   2.488   0.042   4.200 -2.9966  1.8064  1.5071
 8547SOL     OW37102   4.447   2.073   1.598 -0.1832 -0.5633 -0.5990
 8547SOL    HW137103   4.536   2.041   1.581  0.5577  0.5186  1.2854
 8547SOL    HW237104   4.435   2.054   1.690 -1.6651  2.9981 -0.0579
 8548SOL     OW37105   1.912   0.392   6.271  0.0780 -0.5032 -0.0788
 8548SOL    HW137106   1.838   0.453   6.263  0.3200  0.0040  1.4674
 8548SOL    HW237107   1.875   0.324   6.216  0.4734  0.3327 -1.3904
 8549SOL     OW37108   2.092   2.167   4.345  0.1685 -0.0271 -0.0357
 8549SOL    HW137109   2.092   2.258   4.315 -1.2237  0.8851  2.6785
 8549SOL    HW237110   2.034   2.134   4.277  0.6304 -2.1481  0.6171
 8550SOL     OW37111   1.140   1.127   6.479 -0.0471 -0.3657  0.1116
 8550SOL    HW137112   1.056   1.144   6.522  0.1472  2.4730 -0.5794
 8550SOL    HW237113   1.203   1.183   6.523  0.3534  0.8881 -2.0414
 8551SOL     OW37114   2.904   2.885   4.718  0.2232 -0.1003 -0.3476
 8551SOL    HW137115   2.891   2.977   4.695  1.8251 -0.6410 -3.4108
 8551SOL    HW237116   2.973   2.858   4.657 -0.6591  0.1773 -1.4761
 8552SOL     OW37117   2.223   0.944   5.063  0.0553 -0.4315  0.3501
 8552SOL    HW137118   2.171   0.865   5.076 -0.5942 -0.0673  0.0095
 8552SOL    HW237119   2.272   0.931   4.982 -0.6463 -2.2905  0.2350
 8553SOL     OW37120   2.607   2.814   8.018 -0.3952  0.1023 -0.4424
 8553SOL    HW137121   2.683   2.782   7.968  0.2477 -0.3444  0.8155
 8553SOL    HW237122   2.634   2.786   8.105 -2.8002  1.9986  0.8963
 8554SOL     OW37123   2.827   3.246   2.394  0.3396  0.0283 -0.0676
 8554SOL    HW137124   2.767   3.221   2.324  0.2019  1.6209 -0.5142
 8554SOL    HW237125   2.893   3.193   2.349 -2.4148 -4.7342  1.4903
 8555SOL     OW37126   0.339   2.693   8.906  0.8977 -0.1495  0.5318
 8555SOL    HW137127   0.293   2.678   8.988  0.6908  0.9713  0.6261
 8555SOL    HW237128   0.394   2.615   8.905 -1.9696 -2.1803  3.0239
 8556SOL     OW37129   3.412   0.232   6.232  0.4529 -0.1579  0.2383
 8556SOL    HW137130   3.431   0.142   6.204 -2.9726 -0.9099  0.3553
 8556SOL    HW237131   3.415   0.230   6.328 -2.3612 -0.3205  0.3378
 8557SOL     OW37132   2.859   4.325   7.300  0.9572 -0.3152  0.0997
 8557SOL    HW137133   2.938   4.273   7.310  1.6480  0.4475 -1.5177
 8557SOL    HW237134   2.795   4.260   7.329  1.3340 -1.2707 -1.2246
 8558SOL     OW37135   3.363   4.372   1.604  0.5594  0.3664  0.3972
 8558SOL    HW137136   3.457   4.371   1.618  1.1389 -2.9257 -3.7191
 8558SOL    HW237137   3.357   4.307   1.534  2.4743  0.4109  0.1878
 8559SOL     OW37138   1.885   1.786  17.175 -0.2629  0.8989 -0.1872
 8559SOL    HW137139   1.844   1.794  17.261 -0.7446  0.2598 -0.3558
 8559SOL    HW237140   1.819   1.733  17.130 -0.4256  1.3895 -0.5245
 8560SOL     OW37141   0.949   1.859  10.669  0.1945  0.0089 -0.5797
 8560SOL    HW137142   0.903   1.777  10.651  0.3511 -0.3248  0.5250
 8560SOL    HW237143   0.970   1.853  10.762 -2.9059 -1.4610  0.0126
 8561SOL     OW37144   1.273   3.164   9.071  0.3686 -0.2392 -0.1079
 8561SOL    HW137145   1.278   3.197   9.160 -1.3969 -1.3581  0.3994
 8561SOL    HW237146   1.329   3.087   9.079  1.5015  0.5451 -0.4298
 8562SOL     OW37147   2.413   2.298   5.272 -0.2699  0.0529 -0.3909
 8562SOL    HW137148   2.494   2.288   5.322 -1.0201  1.3483  1.0579
 8562SOL    HW237149   2.363   2.363   5.321  1.4200  0.7967  0.3191
 8563SOL     OW37150   1.112   3.076   5.825  0.1684  0.6793  0.3418
 8563SOL    HW137151   1.117   2.985   5.854 -2.5076  0.3495 -0.1716
 8563SOL    HW237152   1.022   3.094   5.852 -0.7215 -1.2160 -1.3395
 8564SOL     OW37153   2.594   3.316   5.920  0.5329 -0.1477 -0.3556
 8564SOL    HW137154   2.673   3.263   5.910  1.1251  0.9559 -1.4660
 8564SOL    HW237155   2.606   3.376   5.847  0.7497 -1.6231 -1.5174
 8565SOL     OW37156   3.989   0.684  16.750  0.1400 -1.0030  0.3087
 8565SOL    HW137157   3.951   0.694  16.836  0.4054 -0.2271  0.3364
 8565SOL    HW237158   4.079   0.715  16.765 -0.2895 -0.0818  0.9490
 8566SOL     OW37159   2.453   3.542   5.396 -0.1191  0.1705  0.2528
 8566SOL    HW137160   2.453   3.483   5.471 -1.5049  0.1295  0.2104
 8566SOL    HW237161   2.492   3.489   5.327  0.5784 -1.5700  2.0123
 8567SOL     OW37162   4.646   2.677   3.904  0.1969  0.1381  0.3017
 8567SOL    HW137163   4.659   2.664   3.810 -1.6350 -1.5483  0.2607
 8567SOL    HW237164   4.550   2.672   3.900  0.1517  2.5888 -1.4613
 8568SOL     OW37165   3.321   0.819  15.638  0.2399 -0.2217 -0.1354
 8568SOL    HW137166   3.287   0.773  15.562 -0.4411  0.4480 -0.2295
 8568SOL    HW237167   3.408   0.842  15.605  1.7703 -2.5667  2.2319
 8569SOL     OW37168   2.980   2.305  11.004 -0.1196 -0.1757 -0.3465
 8569SOL    HW137169   2.946   2.216  11.009 -0.2798 -0.1664 -1.2232
 8569SOL    HW237170   2.926   2.343  10.934 -0.4187  0.9001  0.4773
 8570SOL     OW37171   2.396   1.529   3.487 -0.0993  0.0623  0.0387
 8570SOL    HW137172   2.427   1.509   3.576 -1.7954  1.5078  0.9655
 8570SOL    HW237173   2.374   1.622   3.495 -0.6488  0.1298 -2.3640
 8571SOL     OW37174   3.075   4.200   6.660  0.4271 -0.3320  0.6677
 8571SOL    HW137175   3.136   4.261   6.701  0.3552  0.4216 -0.3308
 8571SOL    HW237176   3.016   4.186   6.734 -1.4213 -0.0665 -0.7568
 8572SOL     OW37177   3.001   1.340   8.347 -0.6475  0.6742 -0.0657
 8572SOL    HW137178   2.907   1.360   8.348 -1.2873 -2.3045 -0.9993
 8572SOL    HW237179   3.015   1.303   8.260  1.0402  0.9332  0.1082
 8573SOL     OW37180   0.170   1.429   8.644 -0.0896 -0.1973 -0.2817
 8573SOL    HW137181   0.135   1.506   8.689 -2.2002 -0.2094 -1.8833
 8573SOL    HW237182   0.086   1.383   8.633 -1.4935  2.6399 -1.3937
 8574SOL     OW37183   0.286   2.134   2.882 -0.1624 -0.0405 -0.3310
 8574SOL    HW137184   0.244   2.072   2.942 -0.5943  1.3400  0.7974
 8574SOL    HW237185   0.246   2.215   2.913 -1.6345  0.1297 -2.7157
 8575SOL     OW37186   3.976   3.304   5.211 -0.1520  0.2359  1.1061
 8575SOL    HW137187   3.901   3.345   5.168 -0.6911  1.3887  3.1350
 8575SOL    HW237188   4.048   3.339   5.159  0.1186  0.6381  1.7569
 8576SOL     OW37189   2.428   1.334  10.475  0.3965 -0.1325 -0.0460
 8576SOL    HW137190   2.386   1.266  10.529  0.4896 -1.4241 -1.5942
 8576SOL    HW237191   2.354   1.349  10.416  0.6430  1.2508  0.0125
 8577SOL     OW37192   3.365   4.050  11.897  0.2634 -0.0624 -0.0473
 8577SOL    HW137193   3.437   4.095  11.942  0.6368 -0.6185 -0.0718
 8577SOL    HW237194   3.302   4.073  11.965  0.5045 -0.5656  0.3481
 8578SOL     OW37195   3.763   3.563   7.068 -0.5461 -0.0750 -0.5924
 8578SOL    HW137196   3.740   3.655   7.080 -1.7817 -0.5275  0.5053
 8578SOL    HW237197   3.859   3.562   7.075 -0.6116 -1.9331  0.1034
 8579SOL     OW37198   1.935   2.171   6.920  0.1183  0.4636  0.4160
 8579SOL    HW137199   2.024   2.160   6.953 -0.2861 -0.9129  1.0614
 8579SOL    HW237200   1.930   2.266   6.906 -1.8274  0.4156  0.7834
 8580SOL     OW37201   3.443   1.639   6.043 -0.0507 -0.2121 -0.7465
 8580SOL    HW137202   3.380   1.569   6.026 -0.2933 -0.3372  0.6280
 8580SOL    HW237203   3.517   1.594   6.084  1.3190  0.4766 -2.4934
 8581SOL     OW37204   3.675   3.288   4.017 -0.1696  0.4555 -0.1752
 8581SOL    HW137205   3.700   3.195   4.022 -2.6356 -0.1012  1.8472
 8581SOL    HW237206   3.588   3.272   3.980 -0.8919 -0.1619  1.7765
 8582SOL     OW37207   2.589   2.053   6.143 -0.6637 -0.0633  0.6582
 8582SOL    HW137208   2.666   1.996   6.137  0.1611  1.1850 -0.4768
 8582SOL    HW237209   2.612   2.135   6.187  0.7585 -0.5444  0.8320
 8583SOL     OW37210   4.370   0.409   3.730  0.7512 -0.3100  0.1488
 8583SOL    HW137211   4.342   0.494   3.766 -3.1552 -1.4528 -0.1447
 8583SOL    HW237212   4.288   0.361   3.717 -0.2948  1.3037  0.7856
 8584SOL     OW37213   2.452   4.245   5.696 -0.2966  0.3046 -0.2632
 8584SOL    HW137214   2.506   4.270   5.621 -0.4830 -2.3108 -1.2719
 8584SOL    HW237215   2.494   4.297   5.765 -0.1205 -0.3463  0.1240
 8585SOL     OW37216   0.695   2.349   8.499 -0.5895 -0.5871  0.1185
 8585SOL    HW137217   0.760   2.281   8.521  1.5920  1.2887 -0.5562
 8585SOL    HW237218   0.753   2.424   8.492 -1.1144 -0.3261 -1.3230
 8586SOL     OW37219   0.261   1.070   8.605  0.1966  0.0951  0.3249
 8586SOL    HW137220   0.186   1.106   8.652  1.7670  0.5672  2.4641
 8586SOL    HW237221   0.224   0.995   8.558 -0.7255  0.6751  0.1226
 8587SOL     OW37222   0.608   1.967   5.346  0.3027  0.4306  0.1156
 8587SOL    HW137223   0.645   1.906   5.411  2.2169  2.1499  0.6354
 8587SOL    HW237224   0.516   1.949   5.362  1.0836 -1.4620  2.5094
 8588SOL     OW37225   2.807   0.508   5.915  0.0711  0.7125  0.4176
 8588SOL    HW137226   2.747   0.435   5.930  0.6244  0.7338  2.6540
 8588SOL    HW237227   2.872   0.499   5.984 -0.4763  0.8144  0.9429
 8589SOL     OW37228   3.937   1.649  12.188  0.1084  0.7980 -0.1118
 8589SOL    HW137229   3.861   1.598  12.160 -1.6265  3.3803 -0.0952
 8589SOL    HW237230   3.896   1.685  12.267 -2.4703  0.3273 -1.2295
 8590SOL     OW37231   1.896   2.143   7.922  0.2650  0.0325 -0.8853
 8590SOL    HW137232   1.845   2.062   7.916 -2.8422  1.8331  1.4284
 8590SOL    HW237233   1.868   2.177   8.006  0.5509  2.1100 -1.6430
 8591SOL     OW37234   3.828   1.790   9.432 -0.4561  0.7673  0.2231
 8591SOL    HW137235   3.866   1.703   9.437  0.3867  1.0664 -1.0105
 8591SOL    HW237236   3.883   1.834   9.368  0.1491 -0.1296  0.1308
 8592SOL     OW37237   3.477   4.210   3.344  0.3669  0.5860  0.0065
 8592SOL    HW137238   3.509   4.125   3.374  0.2787  0.2612 -0.8181
 8592SOL    HW237239   3.395   4.188   3.300 -0.7897  0.5204  2.1837
 8593SOL     OW37240   3.231   2.182   4.653 -0.3208 -0.2115  0.0719
 8593SOL    HW137241   3.260   2.273   4.659  2.2767 -1.0123 -0.3137
 8593SOL    HW237242   3.247   2.142   4.738 -0.5051  0.6760  0.5163
 8594SOL     OW37243   1.022   3.537   6.903 -0.0915 -0.7315 -0.2167
 8594SOL    HW137244   1.019   3.609   6.840 -1.4021 -0.7389 -0.1610
 8594SOL    HW237245   0.977   3.586   6.973  0.4857 -1.3294  0.5773
 8595SOL     OW37246   3.849   3.908  15.906  0.3758 -0.3112  0.0923
 8595SOL    HW137247   3.918   3.871  15.850 -1.9975 -2.9513 -1.0940
 8595SOL    HW237248   3.894   3.914  15.991 -0.6375 -1.8455  0.7407
 8596SOL     OW37249   3.830   1.097  14.627  0.2077  0.2879  0.3871
 8596SOL    HW137250   3.859   1.017  14.581 -1.0146  0.1714 -0.1798
 8596SOL    HW237251   3.905   1.156  14.615 -0.3353  0.7501 -0.7855
 8597SOL     OW37252   0.601   0.419   2.862 -0.1408 -0.0247  0.2738
 8597SOL    HW137253   0.672   0.445   2.804 -0.4416  2.0491  0.8098
 8597SOL    HW237254   0.657   0.378   2.927 -0.5957 -0.0640  0.6414
 8598SOL     OW37255   0.038   1.511   3.942  0.2427  0.2985 -0.0939
 8598SOL    HW137256   0.014   1.425   3.976 -0.4433  1.2823  1.8891
 8598SOL    HW237257   0.124   1.497   3.902 -0.9617 -0.6775 -2.3356
 8599SOL     OW37258   3.783   1.905   2.991 -0.0830 -0.4730  0.3788
 8599SOL    HW137259   3.855   1.842   2.993 -0.3873 -0.7659  2.1466
 8599SOL    HW237260   3.723   1.847   3.039 -2.0546  1.7998  0.6476
 8600SOL     OW37261   4.317   1.652  12.310  0.3538  0.0958 -0.2828
 8600SOL    HW137262   4.307   1.746  12.295 -2.3397 -0.2092 -0.3978
 8600SOL    HW237263   4.397   1.636  12.261  0.1258  0.3977 -0.7437
 8601SOL     OW37264   1.349   4.050   7.473  0.7355  0.1964  0.2291
 8601SOL    HW137265   1.322   4.091   7.390  0.4027 -0.7558 -0.1340
 8601SOL    HW237266   1.358   4.124   7.532  2.3101 -0.1935  0.4738
 8602SOL     OW37267   4.122   3.017   4.684 -0.0686  0.1923  0.1239
 8602SOL    HW137268   4.182   2.990   4.615  1.4340 -0.7478  1.7851
 8602SOL    HW237269   4.076   2.936   4.705  1.5137 -1.4477 -2.8380
 8603SOL     OW37270   1.574   2.129  17.108  0.1037  0.4338 -0.2187
 8603SOL    HW137271   1.500   2.139  17.167  0.2307 -1.9230  0.3597
 8603SOL    HW237272   1.557   2.042  17.070  0.5893  0.7077 -1.0840
 8604SOL     OW37273   3.748   3.555   7.890  0.1171 -0.0603 -0.4879
 8604SOL    HW137274   3.784   3.486   7.834 -0.3132  0.3416 -1.2679
 8604SOL    HW237275   3.678   3.586   7.831 -0.5937  0.2365  0.5143
 8605SOL     OW37276   0.209   2.812   0.843 -0.2205 -0.0701 -0.2361
 8605SOL    HW137277   0.296   2.808   0.881  0.1203  1.7978 -0.8260
 8605SOL    HW237278   0.171   2.897   0.868 -1.0297 -1.2455  2.5521
 8606SOL     OW37279   2.351   3.277   6.562  0.1708  0.1108 -0.1915
 8606SOL    HW137280   2.334   3.321   6.479 -0.4894 -2.2779 -1.3525
 8606SOL    HW237281   2.363   3.186   6.534  2.6780  0.5975 -0.6941
 8607SOL     OW37282   1.520   0.965   8.445 -0.4149  0.5520 -0.0271
 8607SOL    HW137283   1.616   0.966   8.451 -0.1899 -1.8119 -3.0266
 8607SOL    HW237284   1.520   1.019   8.366  2.6251  1.2976  0.4828
 8608SOL     OW37285   3.227   0.402   4.421  0.2456  0.2397 -0.3115
 8608SOL    HW137286   3.198   0.417   4.331 -1.4268 -0.0209  0.1816
 8608SOL    HW237287   3.321   0.397   4.402  0.6355 -0.8973  1.9784
 8609SOL     OW37288   4.446   2.407   3.252 -0.3452 -0.6350  0.3335
 8609SOL    HW137289   4.383   2.343   3.285  0.6965 -1.3137  1.0007
 8609SOL    HW237290   4.526   2.356   3.239  0.1854 -0.1661  1.6957
 8610SOL     OW37291   1.633   0.461   7.598 -0.3109  0.3984  0.4361
 8610SOL    HW137292   1.629   0.431   7.688 -1.4472  2.0934  0.9408
 8610SOL    HW237293   1.690   0.535   7.619 -0.7268 -0.0534  3.1132
 8611SOL     OW37294   1.629   2.054   1.457 -0.4891  0.0783 -0.0598
 8611SOL    HW137295   1.551   1.999   1.453 -0.8650  0.7477 -1.6884
 8611SOL    HW237296   1.587   2.140   1.456 -0.3884  0.1436  1.4229
 8612SOL     OW37297   4.344   1.110   2.076 -0.6613 -0.1488  0.0394
 8612SOL    HW137298   4.306   1.198   2.068  0.4726  0.1805 -1.8803
 8612SOL    HW237299   4.424   1.118   2.127  0.0156 -0.6739 -0.9379
 8613SOL     OW37300   3.990   1.117   9.085 -0.4355  0.0537 -0.0158
 8613SOL    HW137301   3.995   1.023   9.070 -1.6893  0.4256 -2.7867
 8613SOL    HW237302   3.931   1.118   9.160 -0.3804  0.9778  0.0121
 8614SOL     OW37303   1.264   0.955   8.382  0.0094  0.2522 -0.1473
 8614SOL    HW137304   1.358   0.961   8.397 -0.1211  0.4645  0.5839
 8614SOL    HW237305   1.237   0.985   8.469 -2.0450 -0.6804 -0.4704
 8615SOL     OW37306   1.420   1.347  14.538 -0.0920 -0.4133 -0.6074
 8615SOL    HW137307   1.374   1.303  14.467 -3.0064 -3.1729  2.9465
 8615SOL    HW237308   1.447   1.271  14.590 -1.3230 -0.4005  0.0562
 8616SOL     OW37309   2.653   1.458   7.944 -0.0365  0.3243  0.2046
 8616SOL    HW137310   2.636   1.549   7.964  1.6353  0.8358 -0.6541
 8616SOL    HW237311   2.605   1.456   7.861 -2.6074  1.2267  1.6582
 8617SOL     OW37312   2.541   2.227  11.920  0.2508  0.8861 -0.1463
 8617SOL    HW137313   2.565   2.320  11.922 -0.2766  0.9491  2.3503
 8617SOL    HW237314   2.622   2.186  11.891 -0.8102 -2.0647  1.0879
 8618SOL     OW37315   3.031   3.486   0.791  0.0200  0.2151 -0.0141
 8618SOL    HW137316   2.950   3.527   0.759  0.0237  0.6608  0.5472
 8618SOL    HW237317   3.006   3.394   0.792  0.2246  0.1614  0.1003
 8619SOL     OW37318   0.277   0.856   4.221 -0.1640  0.0677  0.0340
 8619SOL    HW137319   0.205   0.906   4.185  0.1109  0.4493  0.0180
 8619SOL    HW237320   0.343   0.857   4.152  0.5932  2.2938  0.7792
 8620SOL     OW37321   3.651   4.618   4.385 -0.5462  0.1706  0.2763
 8620SOL    HW137322   3.556   4.620   4.392 -0.4870 -0.9283  1.4440
 8620SOL    HW237323   3.674   4.610   4.293 -1.5740 -0.5484  0.0931
 8621SOL     OW37324   3.904   1.485   8.575 -0.5728  0.0498 -0.7962
 8621SOL    HW137325   3.956   1.413   8.612 -0.5724  1.2733  1.5915
 8621SOL    HW237326   3.817   1.478   8.615 -0.3802  2.0047 -0.0239
 8622SOL     OW37327   1.091   0.171   2.242 -0.8278  0.1861  0.8257
 8622SOL    HW137328   1.141   0.170   2.324 -4.1105 -0.9785  2.8213
 8622SOL    HW237329   1.159   0.210   2.187 -0.8437  0.3489  0.9229
 8623SOL     OW37330   0.332   1.917   5.282 -0.1822 -0.5210 -0.5905
 8623SOL    HW137331   0.284   1.891   5.360 -0.2322  1.2090 -0.0502
 8623SOL    HW237332   0.330   1.840   5.225 -1.5070 -0.6505 -0.3642
 8624SOL     OW37333   2.190   2.083   6.752 -0.1020 -0.3879 -0.1402
 8624SOL    HW137334   2.119   2.026   6.723 -1.0653  0.5489  0.3830
 8624SOL    HW237335   2.226   2.115   6.669  1.9516  0.8973  1.2391
 8625SOL     OW37336   3.264   2.488   2.993 -0.2088  0.2644 -0.2227
 8625SOL    HW137337   3.317   2.529   2.925 -0.7667  0.0496 -0.7835
 8625SOL    HW237338   3.229   2.412   2.948  0.3569  0.4370 -0.9527
 8626SOL     OW37339   2.593   1.091   5.651 -0.6369  0.1460 -0.1155
 8626SOL    HW137340   2.625   1.178   5.674  1.4045  0.2956 -3.4167
 8626SOL    HW237341   2.554   1.097   5.563 -3.8288 -2.5070  1.1140
 8627SOL     OW37342   0.521   3.342   6.570 -0.5446 -0.3773 -0.0517
 8627SOL    HW137343   0.524   3.328   6.476 -0.8097  2.0560 -0.4159
 8627SOL    HW237344   0.546   3.434   6.571  0.7865 -0.7352  0.4315
 8628SOL     OW37345   1.318   1.852   3.473 -0.2580 -0.2135  0.2658
 8628SOL    HW137346   1.402   1.898   3.477 -0.9172  0.6452  3.7237
 8628SOL    HW237347   1.286   1.850   3.563  0.1299 -2.7118  0.3732
 8629SOL     OW37348   2.492   4.544  10.898  0.3347  0.4630  0.0734
 8629SOL    HW137349   2.580   4.514  10.922 -0.5824 -3.2240 -1.1361
 8629SOL    HW237350   2.473   4.480  10.829 -1.7303  1.3519 -0.1766
 8630SOL     OW37351   4.537   2.778  16.168  0.0448  0.4958  0.6713
 8630SOL    HW137352   4.607   2.803  16.227  1.1541 -0.7398 -0.1148
 8630SOL    HW237353   4.491   2.858  16.143 -3.0407 -0.8272  2.0548
 8631SOL     OW37354   4.309   1.636   3.708 -0.0800 -0.1074  0.2013
 8631SOL    HW137355   4.244   1.598   3.767 -0.2807 -0.9175 -0.5406
 8631SOL    HW237356   4.390   1.594   3.738  0.5302  2.5948  2.2433
 8632SOL     OW37357   3.193   2.919  15.944  0.0493 -0.0984  0.3417
 8632SOL    HW137358   3.132   2.931  16.016  0.2988  2.9246  0.0754
 8632SOL    HW237359   3.140   2.859  15.892  1.9527  0.5749 -2.4157
 8633SOL     OW37360   1.414   2.923   9.106  0.5602  0.0232  0.0955
 8633SOL    HW137361   1.480   2.880   9.160 -0.3763 -1.2446  0.2371
 8633SOL    HW237362   1.336   2.871   9.124  1.3678 -0.0016  3.5577
 8634SOL     OW37363   3.644   1.689   9.680 -0.0452 -0.6810 -0.1956
 8634SOL    HW137364   3.641   1.595   9.661  2.2643 -0.9080  0.4492
 8634SOL    HW237365   3.737   1.695   9.704  0.2421  1.3261 -1.8743
 8635SOL     OW37366   1.201   0.415   4.300  0.2396 -0.1273  0.2430
 8635SOL    HW137367   1.153   0.335   4.277  0.4518  0.0152 -0.6956
 8635SOL    HW237368   1.143   0.470   4.354  0.9650 -1.3161  2.2416
 8636SOL     OW37369   4.000   4.573  13.848 -0.0428  0.0034  0.2799
 8636SOL    HW137370   3.926   4.580  13.908  0.0888  2.4368  0.1602
 8636SOL    HW237371   4.074   4.542  13.899 -0.0672  0.0775  0.3594
 8637SOL     OW37372   0.455   3.385  10.266  0.2174  0.5969 -0.0929
 8637SOL    HW137373   0.370   3.392  10.309  0.8233 -0.3181  1.2642
 8637SOL    HW237374   0.491   3.468  10.296  1.4675  0.4730 -1.2651
 8638SOL     OW37375   0.268   3.700   1.402 -0.0009  0.2479 -0.1274
 8638SOL    HW137376   0.278   3.795   1.403 -2.2804  0.4669  0.2837
 8638SOL    HW237377   0.227   3.702   1.316  2.6418  0.6216 -1.3909
 8639SOL     OW37378   2.186   4.034  11.089  0.1645 -0.3637 -0.0496
 8639SOL    HW137379   2.231   3.994  11.015  0.4412  1.3344 -0.7933
 8639SOL    HW237380   2.218   4.124  11.083 -1.1044 -0.0475 -1.7733
 8640SOL     OW37381   3.691   4.598   2.116  0.1230  0.0459 -0.5359
 8640SOL    HW137382   3.756   4.664   2.092  2.2650 -1.5366  0.9523
 8640SOL    HW237383   3.643   4.605   2.034 -0.6905 -0.0201 -0.0711
 8641SOL     OW37384   4.429   4.550   7.114  0.7487  1.0282 -0.0510
 8641SOL    HW137385   4.501   4.575   7.055  0.4957  0.5990 -0.5469
 8641SOL    HW237386   4.389   4.482   7.060  1.5607  0.4647  0.0414
 8642SOL     OW37387   2.928   0.368   9.572  0.0127 -0.3636  0.2147
 8642SOL    HW137388   2.977   0.447   9.597 -1.3698  1.4058 -2.7062
 8642SOL    HW237389   2.986   0.298   9.602 -0.4541 -0.6630  0.4123
 8643SOL     OW37390   1.285   2.152  15.835  0.2285 -0.0585  0.5139
 8643SOL    HW137391   1.378   2.128  15.828  0.1741  0.1568 -0.8551
 8643SOL    HW237392   1.287   2.166  15.930  0.7133 -2.0457  0.8057
 8644SOL     OW37393   1.455   2.068  11.938  0.4832 -0.2001 -0.2571
 8644SOL    HW137394   1.448   2.070  11.842  0.2913  0.3494 -0.2305
 8644SOL    HW237395   1.367   2.097  11.961 -0.2241 -1.9658 -0.7843
 8645SOL     OW37396   2.147   1.609   5.888  0.2285 -0.0822  0.0221
 8645SOL    HW137397   2.175   1.654   5.967  2.0418 -0.9826 -0.1129
 8645SOL    HW237398   2.179   1.672   5.823 -2.1677  2.1271  1.0060
 8646SOL     OW37399   0.210   3.058   6.349  0.3851  0.0037  0.2775
 8646SOL    HW137400   0.291   3.015   6.378  0.8074  0.4516 -0.2365
 8646SOL    HW237401   0.207   3.034   6.256  0.4803  0.9491  0.0278
 8647SOL     OW37402   1.036   4.542   1.670 -0.7236  0.4214  0.0287
 8647SOL    HW137403   1.034   4.447   1.662 -0.4887  0.5575 -1.6564
 8647SOL    HW237404   0.944   4.551   1.694  0.4560  3.5564  3.3855
 8648SOL     OW37405   2.496   4.109   6.244  0.1753 -0.6272  0.3352
 8648SOL    HW137406   2.484   4.130   6.337 -2.9005 -1.3232  0.0948
 8648SOL    HW237407   2.565   4.175   6.237 -0.2667  0.0140  1.8124
 8649SOL     OW37408   1.393   2.026   6.324  0.0014  0.0495 -0.2571
 8649SOL    HW137409   1.421   2.088   6.257 -0.8003 -0.5637 -1.1621
 8649SOL    HW237410   1.481   2.001   6.354 -1.2242 -0.4268  2.9591
 8650SOL     OW37411   3.211   3.633  11.259 -0.7400  0.3163  0.1133
 8650SOL    HW137412   3.266   3.604  11.331 -0.1026 -0.8261 -0.8245
 8650SOL    HW237413   3.241   3.586  11.181 -0.1110  1.6175 -0.4282
 8651SOL     OW37414   0.121   3.105  13.648  0.5129  0.7938  0.4806
 8651SOL    HW137415   0.146   3.175  13.587 -0.4250 -0.0282 -0.8370
 8651SOL    HW237416   0.200   3.050  13.647 -0.7208 -0.9664  0.3048
 8652SOL     OW37417   0.957   1.018   1.454  0.2035  0.5600  0.5580
 8652SOL    HW137418   0.958   1.013   1.550 -0.4391  1.3053  0.6015
 8652SOL    HW237419   0.870   0.978   1.451  0.8062 -0.5378 -1.4912
 8653SOL     OW37420   1.819   0.106   3.461 -0.3714  0.2434  0.3245
 8653SOL    HW137421   1.753   0.045   3.493 -0.7519 -0.0140 -0.9783
 8653SOL    HW237422   1.876   0.042   3.420  0.1429  0.8092  0.1545
 8654SOL     OW37423   1.067   3.501   6.412 -0.3843  0.3917 -0.3992
 8654SOL    HW137424   0.993   3.562   6.406 -0.8116 -0.2768 -2.1033
 8654SOL    HW237425   1.065   3.474   6.503 -3.1164 -0.4242 -0.6985
 8655SOL     OW37426   1.624   0.761   3.703 -0.6740 -0.2030  0.0181
 8655SOL    HW137427   1.541   0.713   3.692 -0.2975 -0.7621 -0.3802
 8655SOL    HW237428   1.594   0.851   3.711 -1.4076 -0.3826 -0.7112
 8656SOL     OW37429   2.492   3.535  17.293  0.4870 -0.2933  0.4425
 8656SOL    HW137430   2.458   3.603  17.235 -0.6355 -0.9691  0.3040
 8656SOL    HW237431   2.410   3.509  17.336 -0.1370  1.0912  0.1046
 8657SOL     OW37432   3.297   0.380   3.827  0.2520 -0.1684  0.0542
 8657SOL    HW137433   3.249   0.361   3.747  0.1868  1.2446 -0.2542
 8657SOL    HW237434   3.292   0.476   3.834  0.2242 -0.0641 -1.4951
 8658SOL     OW37435   3.124   3.411   0.165 -0.1124  0.0423  0.0939
 8658SOL    HW137436   3.216   3.431   0.150  0.6075 -2.8902  0.5160
 8658SOL    HW237437   3.104   3.461   0.244 -1.3674  0.9323 -0.7901
 8659SOL     OW37438   3.834   3.187   7.967 -0.4511  0.4142 -0.5614
 8659SOL    HW137439   3.840   3.222   7.878  0.8143  1.5307 -0.0330
 8659SOL    HW237440   3.875   3.263   8.007  0.7022 -0.2355 -0.5110
 8660SOL     OW37441   2.604   4.100   4.663 -0.1079  0.3227  0.3956
 8660SOL    HW137442   2.515   4.068   4.681 -1.0442  1.9798 -1.2951
 8660SOL    HW237443   2.639   4.086   4.751  0.4234 -1.8206 -0.1506
 8661SOL     OW37444   2.211   3.648   8.147  0.3588  0.4488  0.6530
 8661SOL    HW137445   2.267   3.726   8.156  1.5809 -0.3438 -0.1800
 8661SOL    HW237446   2.168   3.657   8.232  1.2134  2.2984  0.9148
 8662SOL     OW37447   4.534   2.446   6.258  0.4080  0.5840 -0.2198
 8662SOL    HW137448   4.602   2.383   6.236  0.8369  0.7381  0.6723
 8662SOL    HW237449   4.586   2.502   6.315  0.4747 -0.2996  0.5883
 8663SOL     OW37450   2.462   0.164   3.603 -0.1188  0.0409  1.0095
 8663SOL    HW137451   2.411   0.168   3.522  2.3180 -0.2833 -0.5415
 8663SOL    HW237452   2.401   0.193   3.671 -0.3201 -0.4530  1.0361
 8664SOL     OW37453   0.970   4.529  14.052  0.5266  0.1935  0.2769
 8664SOL    HW137454   0.904   4.497  13.991  2.0110 -1.0770 -0.6709
 8664SOL    HW237455   0.960   4.454  14.111  0.6413 -1.8745 -2.3511
 8665SOL     OW37456   0.887   4.672  11.040  0.6656 -0.0139  0.3300
 8665SOL    HW137457   0.836   4.626  11.106 -2.1262  2.3555 -0.2302
 8665SOL    HW237458   0.958   4.706  11.095 -0.7714  1.8525  1.0193
 8666SOL     OW37459   0.112   4.575  14.708  0.6601  0.4646  0.3768
 8666SOL    HW137460   0.180   4.556  14.773  0.9115  1.0416  0.2918
 8666SOL    HW237461   0.160   4.577  14.625 -0.8705  1.2522 -0.4784
 8667SOL     OW37462   1.586   1.906   8.455  0.6253  0.0192  0.1703
 8667SOL    HW137463   1.642   1.844   8.501  0.3599 -0.3762 -0.0371
 8667SOL    HW237464   1.601   1.979   8.514 -0.8982  0.8023 -0.3977
 8668SOL     OW37465   1.555   4.007  15.284 -0.8054 -0.2046 -0.2671
 8668SOL    HW137466   1.497   3.986  15.356 -0.6984 -1.1893 -0.4652
 8668SOL    HW237467   1.555   3.921  15.242 -1.7679 -1.5890  2.5705
 8669SOL     OW37468   2.241   3.308   1.082  0.4364  0.8193  1.1520
 8669SOL    HW137469   2.193   3.270   1.008  1.2026  1.3884  0.3567
 8669SOL    HW237470   2.313   3.352   1.035 -0.0927 -1.2452 -1.5649
 8670SOL     OW37471   2.064   1.956   1.273  0.1198 -0.1631  0.0479
 8670SOL    HW137472   2.129   1.925   1.337 -0.7448 -3.1740 -0.5143
 8670SOL    HW237473   1.999   1.995   1.331 -1.1848 -2.6898  0.2650
 8671SOL     OW37474   3.703   4.520   6.820  0.4281 -0.3788 -0.3466
 8671SOL    HW137475   3.758   4.536   6.744  1.6954 -0.6574  0.5116
 8671SOL    HW237476   3.632   4.474   6.774 -0.3277  1.1895 -0.7267
 8672SOL     OW37477   0.428   0.197  17.064 -0.3369  0.2044  0.0275
 8672SOL    HW137478   0.335   0.211  17.049 -0.8643 -2.0896  1.1655
 8672SOL    HW237479   0.419   0.222  17.156  0.7254  2.1184 -0.3872
 8673SOL     OW37480   2.684   3.817   3.739  0.1160  0.2802  0.0656
 8673SOL    HW137481   2.632   3.756   3.687  0.6136 -2.6664  3.0534
 8673SOL    HW237482   2.624   3.892   3.745 -2.0644 -1.5423  0.6787
 8674SOL     OW37483   0.273   4.698   6.071  0.1030  0.5861  0.2767
 8674SOL    HW137484   0.209   4.630   6.092 -0.9518  1.4382 -0.1284
 8674SOL    HW237485   0.249   0.036   6.139  2.0841  3.0859 -1.3349
 8675SOL     OW37486   2.869   1.923   2.774 -0.4547 -0.1659  0.2088
 8675SOL    HW137487   2.946   1.960   2.817 -1.1060  1.5867 -0.1352
 8675SOL    HW237488   2.817   1.901   2.852  1.2544 -1.5789  0.9310
 8676SOL     OW37489   4.293   3.529   1.733  0.4255  0.6520 -0.8466
 8676SOL    HW137490   4.229   3.471   1.692  2.6055 -0.9392 -1.9835
 8676SOL    HW237491   4.344   3.557   1.657  1.4312  1.2130  0.0324
 8677SOL     OW37492   1.078   2.703  15.375  0.4303  0.7077 -0.5630
 8677SOL    HW137493   1.139   2.742  15.438 -0.4930  2.3068 -0.6677
 8677SOL    HW237494   1.012   2.772  15.374 -0.4352 -0.0834  1.2927
 8678SOL     OW37495   1.737   3.863  11.870 -0.2503  0.1431 -0.0068
 8678SOL    HW137496   1.744   3.780  11.823  0.2123 -0.6643  1.5124
 8678SOL    HW237497   1.812   3.851  11.927 -0.8546 -0.6389  0.6112
 8679SOL     OW37498   0.286   3.418  16.414 -0.8356 -0.3916  0.1513
 8679SOL    HW137499   0.200   3.377  16.409  0.0936 -2.3583 -0.1103
 8679SOL    HW237500   0.268   3.511  16.399 -0.1242 -0.1634  0.7463
 8680SOL     OW37501   1.097   1.613   2.494  0.2803  0.2139  0.7215
 8680SOL    HW137502   1.189   1.599   2.516  0.6976  0.2617 -0.9345
 8680SOL    HW237503   1.051   1.536   2.528 -0.8246 -0.4981 -2.3643
 8681SOL     OW37504   1.336   2.776   6.875 -0.0716  1.1143  0.1973
 8681SOL    HW137505   1.301   2.722   6.804 -0.8765  1.7599  0.1065
 8681SOL    HW237506   1.336   2.708   6.943  1.2754 -0.8729 -1.7964
 8682SOL     OW37507   3.430   0.071  14.695 -0.4199  0.4793 -0.0968
 8682SOL    HW137508   3.455   0.160  14.673 -0.6354  0.2197 -1.4030
 8682SOL    HW237509   3.487   0.021  14.637 -0.3874  1.5564 -0.9876
 8683SOL     OW37510   3.387   4.595   1.979 -0.0417 -0.1567  0.5168
 8683SOL    HW137511   3.416   4.618   1.891 -0.6130  0.8105  0.5764
 8683SOL    HW237512   3.406   4.502   1.973 -0.5383 -0.3863  2.3417
 8684SOL     OW37513   3.444   2.310  11.912  0.3134  0.5226  0.4057
 8684SOL    HW137514   3.528   2.271  11.936 -0.0784 -0.3818  0.3231
 8684SOL    HW237515   3.465   2.403  11.917 -2.2618  1.1193  0.4076
 8685SOL     OW37516   4.715   3.784   2.157 -0.0315  0.4028 -0.1700
 8685SOL    HW137517   4.648   3.738   2.107 -1.3495  1.9328  0.1855
 8685SOL    HW237518   4.722   3.859   2.097 -1.4417  0.7112  0.0489
 8686SOL     OW37519   2.130   0.205  10.101  0.2682  0.0792  0.2709
 8686SOL    HW137520   2.216   0.171  10.127  0.3313  0.1852  0.2018
 8686SOL    HW237521   2.074   0.164  10.166  1.9433 -0.8148  1.1545
 8687SOL     OW37522   3.871   1.905   4.337 -0.0839 -0.4710  0.0631
 8687SOL    HW137523   3.783   1.943   4.335 -0.0136 -0.3402 -0.4130
 8687SOL    HW237524   3.910   1.956   4.267  0.5618 -3.3123 -1.6222
 8688SOL     OW37525   0.720   1.190  16.508  0.1474  0.1205  0.3782
 8688SOL    HW137526   0.780   1.246  16.558  0.7957  0.6242 -0.9506
 8688SOL    HW237527   0.642   1.201  16.563  0.5047  0.3411  0.8467
 8689SOL     OW37528   1.953   0.500  15.168  0.4090 -0.2800 -0.3842
 8689SOL    HW137529   2.018   0.430  15.170  3.3242  2.4055 -2.7780
 8689SOL    HW237530   2.003   0.581  15.172  2.0620 -1.2830 -1.1561
 8690SOL     OW37531   1.190   1.156   2.454 -0.0066  0.0694  0.3809
 8690SOL    HW137532   1.137   1.090   2.498  0.3335 -0.9077 -0.6745
 8690SOL    HW237533   1.209   1.103   2.377  0.1110 -0.5387  0.8287
 8691SOL     OW37534   0.228   3.653   8.277 -0.2003  0.5172 -0.0255
 8691SOL    HW137535   0.218   3.746   8.254 -0.4499  0.6379  0.5800
 8691SOL    HW237536   0.304   3.650   8.336 -2.1491 -1.4846  2.3646
 8692SOL     OW37537   4.150   0.347   9.861  0.1314  0.4402  0.1110
 8692SOL    HW137538   4.150   0.427   9.808  1.4550 -0.4924 -1.2934
 8692SOL    HW237539   4.137   0.375   9.951  1.3884  1.8489 -0.1495
 8693SOL     OW37540   4.627   4.132   3.139  0.0402 -0.5265  0.1291
 8693SOL    HW137541   4.532   4.126   3.140 -0.0222  0.3614 -0.7853
 8693SOL    HW237542   4.643   4.223   3.112 -4.5777  0.2173 -0.1066
 8694SOL     OW37543   2.425   4.021   5.972  0.2617 -0.2732 -0.0528
 8694SOL    HW137544   2.396   4.039   6.061 -3.0468 -0.1739 -1.1638
 8694SOL    HW237545   2.502   4.077   5.981 -1.0598  1.3722  0.8838
 8695SOL     OW37546   1.273   3.777  17.683  0.0631 -0.6603  0.1529
 8695SOL    HW137547   1.219   3.705   0.017 -1.7571  2.2090  3.2406
 8695SOL    HW237548   1.334   3.793   0.055  0.0691  1.0020 -0.2362
 8696SOL     OW37549   0.339   1.775   4.665 -0.2933 -0.2580  0.1351
 8696SOL    HW137550   0.417   1.805   4.619 -0.5070 -1.5304 -1.0389
 8696SOL    HW237551   0.267   1.804   4.609 -0.5702  0.6802  0.9771
 8697SOL     OW37552   3.199   3.214  15.993 -0.2450  0.0648  0.2124
 8697SOL    HW137553   3.272   3.268  15.964 -0.2232  0.3347  0.7877
 8697SOL    HW237554   3.212   3.144  15.929 -0.7341  1.0287 -0.9431
 8698SOL     OW37555   0.075   1.276  16.045  0.2482  0.0002  0.3829
 8698SOL    HW137556   0.074   1.367  16.016 -1.0036 -0.0368  0.2997
 8698SOL    HW237557   4.709   1.250  16.065  0.1328  0.0303 -0.0797
 8699SOL     OW37558   1.594   2.922   8.861 -0.0527  0.0526  0.5989
 8699SOL    HW137559   1.554   2.874   8.933  0.0681 -0.7178  0.1508
 8699SOL    HW237560   1.519   2.965   8.819  1.1328 -0.5028 -2.0832
 8700SOL     OW37561   2.563   3.315   2.786 -0.0620  0.3409 -0.8082
 8700SOL    HW137562   2.501   3.274   2.726 -2.1184  0.0921  1.4763
 8700SOL    HW237563   2.632   3.356   2.734  1.3050 -0.7159  0.1770
 8701SOL     OW37564   3.291   4.156  15.166  0.0679 -0.4542  0.0507
 8701SOL    HW137565   3.200   4.181  15.152  0.5922  1.6160  0.3300
 8701SOL    HW237566   3.314   4.224  15.230  1.1798 -1.8047  1.0851
 8702SOL     OW37567   1.975   0.667   7.606 -0.1100 -0.3273 -0.4709
 8702SOL    HW137568   1.903   0.725   7.631 -0.0695 -0.4852  0.0115
 8702SOL    HW237569   1.940   0.621   7.529  1.2763  1.6284 -2.2802
 8703SOL     OW37570   3.569   3.393   9.612  0.1763 -0.1355 -0.0956
 8703SOL    HW137571   3.618   3.318   9.577  0.1602 -0.9414  1.5930
 8703SOL    HW237572   3.635   3.442   9.660 -1.2112  0.6924  0.9548
 8704SOL     OW37573   1.741   0.414   9.052 -0.4396 -0.1472 -0.8741
 8704SOL    HW137574   1.725   0.407   9.146  0.6415  1.1205 -0.5945
 8704SOL    HW237575   1.754   0.508   9.043  0.8912 -0.3130 -0.6269
 8705SOL     OW37576   0.688   0.070  15.644 -0.4012  0.1144 -0.5222
 8705SOL    HW137577   0.641   4.719  15.607 -0.7218  0.2573 -0.4017
 8705SOL    HW237578   0.622   0.080  15.713  0.1189  1.0121 -0.1641
 8706SOL     OW37579   4.617   4.692   8.089  0.2054  0.6875  0.2566
 8706SOL    HW137580   4.666   0.035   8.136  1.5446 -0.1742  0.0926
 8706SOL    HW237581   4.541   4.686   8.147  0.8648  2.8405  1.3600
 8707SOL     OW37582   4.635   4.627  14.443 -0.1281 -0.3209 -0.3787
 8707SOL    HW137583   4.600   4.556  14.497  1.7169 -1.4415 -0.6286
 8707SOL    HW237584   4.598   4.601  14.358 -2.5015 -1.6156  1.0626
 8708SOL     OW37585   4.136   3.523  12.592  0.0862  0.3508 -0.2230
 8708SOL    HW137586   4.063   3.544  12.534  1.4470  0.3024 -1.9377
 8708SOL    HW237587   4.202   3.585  12.563  1.6237 -1.2911 -0.1690
 8709SOL     OW37588   3.666   2.992   2.778 -0.2759 -0.5268 -0.6625
 8709SOL    HW137589   3.617   2.968   2.857 -0.2987 -0.0544 -0.5299
 8709SOL    HW237590   3.609   3.055   2.735 -0.6622 -0.4457 -0.0254
 8710SOL     OW37591   3.092   4.601   2.926 -0.2666  0.9876  0.0970
 8710SOL    HW137592   3.004   4.575   2.900 -0.4791  0.2524  1.5444
 8710SOL    HW237593   3.141   4.577   2.848 -0.9318  1.9040 -0.5960
 8711SOL     OW37594   1.738   1.921   7.913 -0.0565 -0.1521 -0.4230
 8711SOL    HW137595   1.705   1.877   7.991 -0.7766 -0.0042 -0.6498
 8711SOL    HW237596   1.735   1.851   7.848  0.4377 -0.7907  0.2300
 8712SOL     OW37597   4.360   0.970  12.532 -0.2741  0.4532 -0.1530
 8712SOL    HW137598   4.296   1.040  12.514  0.2690  1.1097  0.4428
 8712SOL    HW237599   4.317   0.929  12.606  1.5267 -1.3662 -0.1283
 8713SOL     OW37600   0.776   3.795   8.686  0.0528  0.1598 -0.1087
 8713SOL    HW137601   0.758   3.748   8.767  0.3854 -0.1546 -0.2153
 8713SOL    HW237602   0.868   3.771   8.675 -0.0564 -0.0413 -0.6099
 8714SOL     OW37603   3.921   2.372   9.562 -0.0663 -0.0287 -0.0711
 8714SOL    HW137604   3.848   2.433   9.556 -1.3414 -1.8572 -2.8052
 8714SOL    HW237605   3.906   2.353   9.655 -2.7051  1.2810 -0.2336
 8715SOL     OW37606   1.651   4.569   5.585 -0.7920  0.1996  0.1279
 8715SOL    HW137607   1.600   4.501   5.629  1.2232 -2.0625 -1.0921
 8715SOL    HW237608   1.651   4.644   5.644 -2.1331 -0.8769  1.5194
 8716SOL     OW37609   0.170   3.150   5.861 -0.3685  0.1592  0.0770
 8716SOL    HW137610   0.189   3.231   5.813  0.6518  0.1028  0.3919
 8716SOL    HW237611   0.189   3.083   5.797  0.3143  0.0498  0.3945
 8717SOL     OW37612   2.908   1.402   5.867  0.1728 -0.0643 -0.4161
 8717SOL    HW137613   2.895   1.341   5.795  0.6214 -0.4833 -0.1462
 8717SOL    HW237614   2.952   1.335   5.919  1.0216  0.8216  0.0219
 8718SOL     OW37615   4.710   0.134  11.436  0.1074 -0.2983  0.0487
 8718SOL    HW137616   4.662   0.135  11.519 -0.4007  0.0748 -0.2508
 8718SOL    HW237617   0.071   0.109  11.472  1.4607  0.8270 -2.4043
 8719SOL     OW37618   4.129   2.665   9.022  0.0307 -0.6802 -0.2130
 8719SOL    HW137619   4.216   2.662   8.982 -0.8420  0.7610 -2.2484
 8719SOL    HW237620   4.106   2.574   9.003 -2.5899 -0.1318  0.3017
 8720SOL     OW37621   3.691   0.134   5.246  0.2263  0.0041  0.2318
 8720SOL    HW137622   3.725   0.080   5.175  0.2974 -2.0739  1.8400
 8720SOL    HW237623   3.739   0.217   5.243  0.6864 -0.3169 -1.2338
 8721SOL     OW37624   1.808   3.504   6.979 -0.2564  0.6595  0.1116
 8721SOL    HW137625   1.714   3.512   6.965 -0.4361 -0.6850  0.4908
 8721SOL    HW237626   1.822   3.413   6.952 -0.8674  0.7058 -0.3489
 8722SOL     OW37627   4.286   1.597  10.564 -0.1311 -0.7473  0.3000
 8722SOL    HW137628   4.277   1.692  10.551  0.1347 -0.4911  2.0372
 8722SOL    HW237629   4.290   1.552  10.479 -1.7943 -0.8612  0.2855
 8723SOL     OW37630   0.656   0.776   7.304  0.2811  0.0375  0.0911
 8723SOL    HW137631   0.672   0.864   7.338 -0.3121  0.0835  0.2410
 8723SOL    HW237632   0.656   0.712   7.375 -1.2438  0.3089  0.3172
 8724SOL     OW37633   0.455   2.258   8.637 -0.1984 -0.5190  0.2218
 8724SOL    HW137634   0.468   2.214   8.721 -0.3860 -2.1656 -0.6084
 8724SOL    HW237635   0.536   2.298   8.605 -0.8438  1.4913  1.1014
 8725SOL     OW37636   1.926   3.473   3.020 -0.0512  0.2063  0.3535
 8725SOL    HW137637   1.915   3.567   3.005 -0.3333 -0.2755 -2.4070
 8725SOL    HW237638   1.869   3.435   2.954  0.6215 -0.3874  0.1170
 8726SOL     OW37639   0.091   4.549   0.486  0.4451 -0.1795  0.4345
 8726SOL    HW137640   0.136   4.522   0.406  1.1292  0.2861  0.6624
 8726SOL    HW237641   0.160   4.542   0.552  0.4954 -1.9704  0.1860
 8727SOL     OW37642   3.399   3.857  16.335 -0.4304  0.0633 -0.3993
 8727SOL    HW137643   3.393   3.796  16.408  5.3649 -0.3752 -0.2524
 8727SOL    HW237644   3.363   3.936  16.375  0.6499  0.2860  0.1498
 8728SOL     OW37645   4.562   3.637  15.471 -0.6059 -0.2611  0.3054
 8728SOL    HW137646   4.481   3.638  15.522  0.2730  0.8116  1.6619
 8728SOL    HW237647   4.570   3.547  15.441  1.6852  0.6812 -1.9086
 8729SOL     OW37648   1.691   1.710   3.092 -0.8776  0.4748 -0.5415
 8729SOL    HW137649   1.709   1.688   3.184 -0.8004 -0.7799 -0.8463
 8729SOL    HW237650   1.620   1.654   3.061 -0.5099 -1.0839  1.4168
 8730SOL     OW37651   3.588   3.939   3.137 -0.2113  0.1355 -0.3761
 8730SOL    HW137652   3.660   3.895   3.092 -0.5402 -0.6286 -0.1566
 8730SOL    HW237653   3.627   3.930   3.224  0.7557  1.7578 -0.6461
 8731SOL     OW37654   3.696   1.176  15.663 -1.1675 -0.3259  0.2672
 8731SOL    HW137655   3.634   1.135  15.723 -1.4099 -0.1846  0.1147
 8731SOL    HW237656   3.634   1.234  15.618 -3.0555 -1.9534  0.7465
 8732SOL     OW37657   4.468   4.118   5.270  0.3631 -0.3759 -0.3884
 8732SOL    HW137658   4.402   4.054   5.297 -0.0351  0.0789 -0.2704
 8732SOL    HW237659   4.433   4.165   5.194  0.1353  1.1864  0.6790
 8733SOL     OW37660   2.679   0.536   2.294  0.2952 -0.3228 -0.2311
 8733SOL    HW137661   2.608   0.501   2.240 -0.6114  2.0549 -0.6017
 8733SOL    HW237662   2.641   0.615   2.333  0.4353 -1.3002  1.8692
 8734SOL     OW37663   4.160   3.601   0.977  0.2805 -0.3230  0.4591
 8734SOL    HW137664   4.122   3.680   0.939 -0.3666 -0.4315  0.8770
 8734SOL    HW237665   4.237   3.591   0.921 -1.2283  2.0720 -2.0212
 8735SOL     OW37666   0.768   0.659   6.419  0.3304 -0.1504 -0.0966
 8735SOL    HW137667   0.764   0.634   6.326 -0.3030 -1.0480  0.1696
 8735SOL    HW237668   0.794   0.577   6.462  0.8677  0.1308  0.1103
 8736SOL     OW37669   2.330   1.165  12.195 -0.3678  0.2275 -0.0770
 8736SOL    HW137670   2.312   1.182  12.103 -0.5857 -0.3825 -0.1531
 8736SOL    HW237671   2.407   1.109  12.183 -1.5026 -1.8135  2.0176
 8737SOL     OW37672   0.269   3.613   3.341 -0.6972  0.0901 -0.5523
 8737SOL    HW137673   0.193   3.642   3.391 -0.9487 -0.6463 -0.5025
 8737SOL    HW237674   0.240   3.531   3.302  0.5057  0.5518 -2.4699
 8738SOL     OW37675   4.167   3.373   7.645  0.1038 -0.0678  0.1351
 8738SOL    HW137676   4.236   3.311   7.621 -0.5216 -1.3612  1.6172
 8738SOL    HW237677   4.169   3.366   7.740 -0.3023  0.4489  0.1825
 8739SOL     OW37678   0.968   1.166   6.903 -0.6311  0.4678  0.2946
 8739SOL    HW137679   1.023   1.241   6.926  1.4267  0.1259 -3.5477
 8739SOL    HW237680   0.945   1.189   6.813 -3.3515  1.1767  1.1827
 8740SOL     OW37681   0.541   3.149   4.191  0.6465 -0.1491  0.0098
 8740SOL    HW137682   0.611   3.129   4.253  0.0383  0.1380  0.7918
 8740SOL    HW237683   0.585   3.196   4.121  0.3335  2.2301  1.4225
 8741SOL     OW37684   4.055   3.206   3.896 -0.1611  0.2257  0.0748
 8741SOL    HW137685   3.989   3.272   3.917  0.1878  0.3127  0.8915
 8741SOL    HW237686   4.127   3.266   3.913  0.9695 -1.4125  1.0676
 8742SOL     OW37687   2.384   3.685   6.021  0.1862 -0.3839 -0.0064
 8742SOL    HW137688   2.433   3.723   6.094 -0.0863 -0.1088  0.0348
 8742SOL    HW237689   2.437   3.723   5.951 -0.1640 -2.8238 -1.5951
 8743SOL     OW37690   0.183   0.188  14.796  0.8459 -0.1176  0.0316
 8743SOL    HW137691   0.145   0.101  14.784  1.4235 -0.2786 -0.6018
 8743SOL    HW237692   0.188   0.214  14.888  2.7741  2.4426 -0.7773
 8744SOL     OW37693   0.473   0.269  13.953 -0.8271  0.0014 -0.1972
 8744SOL    HW137694   0.408   0.206  13.923 -0.4548 -0.7095  0.4846
 8744SOL    HW237695   0.501   0.308  13.870  0.8223  1.1161  0.8603
 8745SOL     OW37696   0.814   1.720   6.318  0.6318  0.4801  0.1084
 8745SOL    HW137697   0.828   1.814   6.306  1.4350  0.2968 -0.3867
 8745SOL    HW237698   0.898   1.699   6.277 -0.4782 -0.6362 -1.5495
 8746SOL     OW37699   4.084   3.441  10.126  0.1701 -0.3923 -0.5018
 8746SOL    HW137700   4.053   3.373  10.067 -0.2152  0.6733 -1.5437
 8746SOL    HW237701   4.025   3.514  10.107 -0.8116 -1.3941 -1.3141
 8747SOL     OW37702   2.514   3.760   9.789  0.0519  0.4653  0.5325
 8747SOL    HW137703   2.576   3.761   9.716  0.5113  1.7676  0.9456
 8747SOL    HW237704   2.552   3.814   9.858  1.3713  1.4977 -0.9838
 8748SOL     OW37705   2.878   3.700   6.864 -0.0018  0.1344 -0.1987
 8748SOL    HW137706   2.830   3.620   6.889  0.9267 -0.2646  0.3011
 8748SOL    HW237707   2.971   3.679   6.867 -0.4246 -1.4966  1.8228
 8749SOL     OW37708   0.159   2.173   5.066  0.5525 -0.1154 -0.1560
 8749SOL    HW137709   0.119   2.260   5.075 -0.2677 -0.5694  0.5333
 8749SOL    HW237710   0.220   2.187   5.138 -0.7976  1.6703  0.6328
 8750SOL     OW37711   3.356   3.908   7.061 -0.3223 -0.2714  0.0612
 8750SOL    HW137712   3.273   3.955   7.051 -0.3842 -0.2875  0.5002
 8750SOL    HW237713   3.360   3.851   6.984 -0.8763 -0.5763  0.2607
 8751SOL     OW37714   0.921   1.323   8.376  0.3002 -0.3441  0.1412
 8751SOL    HW137715   0.913   1.229   8.358  3.1882 -0.2232 -1.8000
 8751SOL    HW237716   0.864   1.362   8.309  2.0326  1.1349 -0.4786
 8752SOL     OW37717   4.149   3.847  15.450  0.3950 -0.2466 -0.6728
 8752SOL    HW137718   4.213   3.793  15.495  0.6009 -0.4243 -1.1783
 8752SOL    HW237719   4.205   3.900  15.394  0.6849  2.7090  2.4296
 8753SOL     OW37720   2.112   1.972   2.397  0.5454  0.0463 -1.0225
 8753SOL    HW137721   2.039   1.924   2.356 -0.1670  0.2012  0.0774
 8753SOL    HW237722   2.074   2.059   2.406 -0.3144 -0.2856 -1.3706
 8754SOL     OW37723   3.117   3.677   1.986  0.0947  0.1956  0.1150
 8754SOL    HW137724   3.083   3.735   2.055 -1.8371 -0.0490 -0.6365
 8754SOL    HW237725   3.196   3.728   1.969  1.3810 -2.2162 -1.1515
 8755SOL     OW37726   2.773   1.909  15.873 -0.0618 -0.0038  0.1872
 8755SOL    HW137727   2.856   1.947  15.902 -1.3443  0.6139  3.0442
 8755SOL    HW237728   2.804   1.828  15.834 -0.6524  0.2771 -0.8742
 8756SOL     OW37729   0.939   1.667   1.926 -0.5206 -0.0235 -0.0211
 8756SOL    HW137730   0.934   1.578   1.891  2.7529 -0.5988  0.9375
 8756SOL    HW237731   1.029   1.666   1.960 -0.5003  1.1097 -0.0659
 8757SOL     OW37732   2.994   1.401   7.377 -0.0638 -0.4012 -0.0071
 8757SOL    HW137733   3.074   1.354   7.400 -0.3382 -0.3725  0.9988
 8757SOL    HW237734   2.956   1.425   7.462  0.7583 -1.5005  0.6696
 8758SOL     OW37735   4.438   3.440   8.014 -0.0911  0.1504  0.1593
 8758SOL    HW137736   4.432   3.447   8.109 -1.2877  0.5637  0.0459
 8758SOL    HW237737   4.518   3.393   7.989 -1.5733 -1.4133 -1.6835
 8759SOL     OW37738   0.200   1.795   5.826 -0.4098  0.3401 -0.5880
 8759SOL    HW137739   0.125   1.761   5.875  1.1925 -1.4026  0.6165
 8759SOL    HW237740   0.183   1.741   5.749  0.4355  1.5445 -1.6087
 8760SOL     OW37741   0.555   3.818   5.589  0.4596 -0.3374 -0.0867
 8760SOL    HW137742   0.555   3.839   5.682 -1.9761 -2.0050  0.2582
 8760SOL    HW237743   0.473   3.852   5.554  0.8177  0.4085 -0.2086
 8761SOL     OW37744   3.034   2.123   4.280  0.3320  0.1317  0.1510
 8761SOL    HW137745   3.001   2.033   4.284  1.3355 -0.2441 -0.2317
 8761SOL    HW237746   3.104   2.121   4.216  2.3107  2.4124  2.2325
 8762SOL     OW37747   2.191   1.419   8.313  0.0543 -0.1066  0.1322
 8762SOL    HW137748   2.217   1.330   8.338 -0.7526 -0.7863 -1.4626
 8762SOL    HW237749   2.097   1.424   8.328  0.3641  0.2144  1.9621
 8763SOL     OW37750   0.761   3.918   8.169  0.2555 -0.2061  0.1864
 8763SOL    HW137751   0.727   3.832   8.194  0.6903 -0.0706  1.2132
 8763SOL    HW237752   0.683   3.974   8.162  0.7049  0.7451  2.9875
 8764SOL     OW37753   2.228   0.863   1.174 -0.0666 -0.0700 -0.4202
 8764SOL    HW137754   2.148   0.833   1.218 -0.4594 -0.7064 -1.5642
 8764SOL    HW237755   2.198   0.952   1.155 -0.2287  0.1907  1.0145
 8765SOL     OW37756   3.528   0.279   1.640 -0.3922 -0.5113 -0.9140
 8765SOL    HW137757   3.503   0.371   1.636  0.5825 -0.2052 -0.0005
 8765SOL    HW237758   3.521   0.266   1.735  1.8525  2.3484 -0.3380
 8766SOL     OW37759   0.231   2.194   8.464  0.5631 -0.0852 -0.5797
 8766SOL    HW137760   0.163   2.193   8.531 -0.2144  0.8379 -1.3558
 8766SOL    HW237761   0.303   2.236   8.511 -0.4590 -1.4251  2.1591
 8767SOL     OW37762   0.239   1.378  13.108  0.2248  0.1887  0.1098
 8767SOL    HW137763   0.195   1.454  13.143 -0.3561 -0.6185  1.1286
 8767SOL    HW237764   0.206   1.310  13.167 -2.5675 -1.3320 -3.2448
 8768SOL     OW37765   4.054   1.912  16.645 -0.1412  0.4212  0.8917
 8768SOL    HW137766   4.020   1.851  16.580  0.8136  0.1064  0.6870
 8768SOL    HW237767   4.023   1.989  16.597  0.2945 -0.4012 -0.6839
 8769SOL     OW37768   0.676   2.948   0.598  0.3191 -0.2298  0.0749
 8769SOL    HW137769   0.667   3.027   0.651  1.6045  0.0443 -0.1214
 8769SOL    HW237770   0.585   2.921   0.592  0.0639  0.7027 -0.2589
 8770SOL     OW37771   1.618   3.266   5.014  0.0810  0.2595  0.2835
 8770SOL    HW137772   1.712   3.279   5.012  0.2426 -1.0330 -0.4485
 8770SOL    HW237773   1.603   3.280   5.107  2.7527  0.8011  0.6037
 8771SOL     OW37774   4.485   2.981   1.418 -0.5052 -0.4964  0.0844
 8771SOL    HW137775   4.520   2.933   1.343 -0.4821  0.8192 -0.7469
 8771SOL    HW237776   4.554   3.047   1.416 -0.7251 -0.3643 -3.0537
 8772SOL     OW37777   4.352   3.624   3.961  0.3873 -0.0283 -1.2811
 8772SOL    HW137778   4.272   3.601   3.914 -1.1030 -1.4386  1.8927
 8772SOL    HW237779   4.354   3.550   4.022 -0.5126 -0.7856 -2.1792
 8773SOL     OW37780   1.235   1.640   5.369  0.2627  0.0095 -0.2411
 8773SOL    HW137781   1.291   1.696   5.424  1.1877 -0.7066 -0.4513
 8773SOL    HW237782   1.173   1.613   5.437  0.4496 -0.3648 -0.2217
 8774SOL     OW37783   2.591   1.823  11.161 -0.5492 -0.0227  0.4903
 8774SOL    HW137784   2.544   1.767  11.222  1.1993  0.8238  2.5989
 8774SOL    HW237785   2.546   1.907  11.168  2.1421  1.4034  0.7445
 8775SOL     OW37786   1.602   0.146   6.449  0.4251 -0.3586 -0.4081
 8775SOL    HW137787   1.592   0.237   6.421 -2.8542 -0.0728  1.6641
 8775SOL    HW237788   1.597   0.089   6.372  0.7521 -0.1346 -0.5947
 8776SOL     OW37789   0.342   4.542   3.752 -0.3694  0.5824  0.3748
 8776SOL    HW137790   0.283   4.535   3.677 -0.7093  1.4601  0.5550
 8776SOL    HW237791   0.352   4.635   3.773  1.2072  0.1586  1.4977
 8777SOL     OW37792   3.889   3.580   8.132  0.2358  0.2854 -0.1598
 8777SOL    HW137793   3.831   3.588   8.057 -1.2244  0.6492  1.0020
 8777SOL    HW237794   3.969   3.573   8.080  0.5705 -1.4211  0.5704
 8778SOL     OW37795   1.193   1.510   1.746  0.1876 -0.0891 -0.2728
 8778SOL    HW137796   1.107   1.481   1.775 -0.0668 -0.0963 -1.0196
 8778SOL    HW237797   1.192   1.482   1.654 -1.0881  3.2226 -1.2335
 8779SOL     OW37798   2.710   0.475  11.386  0.1697 -0.2021 -0.6425
 8779SOL    HW137799   2.644   0.455  11.318  0.0424 -0.1693 -0.5291
 8779SOL    HW237800   2.787   0.517  11.348  0.0100  1.5153  0.9451
 8780SOL     OW37801   2.202   3.175   6.207 -0.2111  0.0485  0.3125
 8780SOL    HW137802   2.233   3.251   6.256 -0.4645 -0.2246  0.9115
 8780SOL    HW237803   2.258   3.164   6.131  2.1361 -1.6559  2.2980
 8781SOL     OW37804   0.211   0.422  13.424 -0.2622  0.2858 -0.1437
 8781SOL    HW137805   0.130   0.392  13.382  0.2117 -1.7432  0.3674
 8781SOL    HW237806   0.179   0.501  13.467  1.2415  0.5816  0.4118
 8782SOL     OW37807   3.671   0.816   4.237 -0.1975  0.4986  0.2443
 8782SOL    HW137808   3.752   0.814   4.289  0.4792  0.3710 -0.8078
 8782SOL    HW237809   3.678   0.740   4.178  0.0682  0.2520  0.5929
 8783SOL     OW37810   3.829   1.157   7.646 -0.2295 -0.1630 -0.9092
 8783SOL    HW137811   3.901   1.158   7.710  1.0263 -2.1168 -2.2818
 8783SOL    HW237812   3.763   1.193   7.706  2.6761  0.2335  2.0735
 8784SOL     OW37813   0.888   3.711   3.955 -0.5476 -0.1155  0.6025
 8784SOL    HW137814   0.921   3.799   3.973  1.3713 -0.1649 -2.7379
 8784SOL    HW237815   0.972   3.670   3.933 -0.2475  0.1585  1.2164
 8785SOL     OW37816   1.056   2.488   8.530 -0.4372  0.1907  0.0225
 8785SOL    HW137817   1.048   2.498   8.625  1.0240  1.1277  0.0312
 8785SOL    HW237818   0.984   2.544   8.500 -0.9066  0.8917  2.4311
 8786SOL     OW37819   1.964   1.406   4.739 -0.0991 -0.5574 -0.0057
 8786SOL    HW137820   2.059   1.407   4.727  0.1596  0.6546  2.0214
 8786SOL    HW237821   1.954   1.336   4.804 -0.6067  0.9278  1.5175
 8787SOL     OW37822   3.955   3.448   1.032 -0.3570 -0.6377  0.4254
 8787SOL    HW137823   4.041   3.480   1.005 -1.3375  0.7457 -1.1060
 8787SOL    HW237824   3.900   3.518   0.995  0.3876 -0.7311 -0.8620
 8788SOL     OW37825   2.122   4.026   1.968  0.1848  0.0619 -0.9761
 8788SOL    HW137826   2.127   3.943   1.921  0.7740 -0.8332  0.6535
 8788SOL    HW237827   2.085   3.990   2.049 -0.9519  1.6729 -0.7815
 8789SOL     OW37828   1.065   2.440   3.482 -0.3650  0.4422 -0.2557
 8789SOL    HW137829   1.097   2.426   3.571  2.1374  1.5235 -0.9882
 8789SOL    HW237830   1.148   2.470   3.446  0.7849 -0.5975  1.5551
 8790SOL     OW37831   3.772   2.940   2.533  0.4952  0.3678 -0.5365
 8790SOL    HW137832   3.731   2.961   2.618  1.8276  0.7469  0.0063
 8790SOL    HW237833   3.840   2.878   2.559  0.9043 -0.1293 -2.8023
 8791SOL     OW37834   1.423   4.486   2.516 -0.0509  0.0662  0.1490
 8791SOL    HW137835   1.352   4.472   2.580 -1.1959  0.8626 -0.9423
 8791SOL    HW237836   1.407   4.419   2.449  0.0388  0.3260 -0.1317
 8792SOL     OW37837   2.743   0.239   5.897  0.1088  0.2981  0.6164
 8792SOL    HW137838   2.720   0.221   5.806  1.4019 -0.3277  0.4150
 8792SOL    HW237839   2.727   0.156   5.942  0.3338 -1.0914 -1.8799
 8793SOL     OW37840   0.145   2.893   3.548  0.0262 -0.2675  0.5523
 8793SOL    HW137841   0.190   2.951   3.609  0.9199 -0.0096 -0.3440
 8793SOL    HW237842   0.192   2.895   3.464 -0.8704  1.6905  0.1153
 8794SOL     OW37843   0.885   1.189   3.646  0.4842  0.5195 -0.5400
 8794SOL    HW137844   0.796   1.204   3.616 -0.2090 -0.4548  1.0208
 8794SOL    HW237845   0.898   1.098   3.619 -0.2728  0.3550 -0.3551
 8795SOL     OW37846   3.290   0.253  14.012 -0.1314 -0.1523 -0.0801
 8795SOL    HW137847   3.202   0.232  13.982 -1.3448  1.4844  2.3000
 8795SOL    HW237848   3.272   0.230  14.103  0.9581 -2.1338 -0.3630
 8796SOL     OW37849   1.486   4.045  10.202  1.1758 -0.0354  0.0129
 8796SOL    HW137850   1.533   3.976  10.155  0.4950  0.6989 -1.7317
 8796SOL    HW237851   1.546   4.119  10.200  1.9823 -0.6380  2.0898
 8797SOL     OW37852   2.829   1.059   3.828 -0.0562  0.6624 -0.1003
 8797SOL    HW137853   2.917   1.035   3.800 -0.0328  0.7339 -0.0869
 8797SOL    HW237854   2.806   0.976   3.871 -2.6775  0.6504 -1.5288
 8798SOL     OW37855   4.275   4.058  13.071  0.1960 -0.3111  0.8820
 8798SOL    HW137856   4.300   3.998  13.141  2.6119 -0.0540  0.2345
 8798SOL    HW237857   4.277   4.134  13.130 -0.0067  0.5733 -0.2518
 8799SOL     OW37858   1.510   4.229  17.303  0.0317 -0.2360 -0.1023
 8799SOL    HW137859   1.454   4.158  17.271  0.0089 -0.0295 -0.5265
 8799SOL    HW237860   1.460   4.238  17.383  1.3783 -0.5801  0.7886
 8800SOL     OW37861   4.547   1.255  11.879  0.0600  0.0717 -0.7305
 8800SOL    HW137862   4.527   1.331  11.933  0.8299  0.6631 -1.2778
 8800SOL    HW237863   4.459   1.220  11.870 -1.1193  3.0281 -0.7324
 8801SOL     OW37864   4.275   2.187   7.386 -0.1742  0.0806 -0.5187
 8801SOL    HW137865   4.341   2.146   7.329 -0.7476  1.7995 -2.4281
 8801SOL    HW237866   4.220   2.234   7.323 -0.6095 -0.0241 -0.2130
 8802SOL     OW37867   0.247   2.048   9.185  0.2923 -0.8330  0.6441
 8802SOL    HW137868   0.290   1.972   9.223 -1.6260 -1.2988  1.8871
 8802SOL    HW237869   0.176   2.055   9.250 -2.3826 -0.6904 -2.2679
 8803SOL     OW37870   1.542   3.742   5.800 -0.3415  0.4560  0.2861
 8803SOL    HW137871   1.509   3.670   5.746 -0.4616 -0.1823  1.2139
 8803SOL    HW237872   1.549   3.818   5.741 -0.5434 -1.4829 -2.2393
 8804SOL     OW37873   0.818   3.910   4.696 -0.4199  0.6811 -0.3648
 8804SOL    HW137874   0.865   3.925   4.614  2.3940  2.1714  1.5333
 8804SOL    HW237875   0.739   3.869   4.659 -1.4403  0.1744  2.4108
 8805SOL     OW37876   3.342   3.452   2.532  0.3263 -0.1269  0.0983
 8805SOL    HW137877   3.409   3.520   2.526  1.2521 -0.8696  1.8175
 8805SOL    HW237878   3.261   3.502   2.522 -0.9138 -2.4516 -1.4868
 8806SOL     OW37879   3.633   1.280  12.297  0.6879  0.0834  0.0067
 8806SOL    HW137880   3.669   1.299  12.384 -0.6901 -0.8652  0.7809
 8806SOL    HW237881   3.631   1.366  12.254 -2.5997  0.2815  0.6050
 8807SOL     OW37882   2.456   2.682   6.286  0.3687 -0.0424  1.1193
 8807SOL    HW137883   2.422   2.771   6.275 -2.2702 -1.6787 -3.7739
 8807SOL    HW237884   2.380   2.634   6.317 -0.2010  0.3611  0.3167
 8808SOL     OW37885   3.971   3.315   9.897  0.5571  0.5301 -0.0220
 8808SOL    HW137886   3.974   3.221   9.879 -0.1719  0.5889 -0.4299
 8808SOL    HW237887   3.893   3.326   9.950  1.0655  1.5853  0.5113
 8809SOL     OW37888   3.308   0.771   8.394 -0.2558  0.1002 -0.1126
 8809SOL    HW137889   3.392   0.814   8.411 -1.0418  1.1969  0.9953
 8809SOL    HW237890   3.271   0.819   8.320 -0.8936 -0.9651 -0.4727
 8810SOL     OW37891   3.651   2.731  10.309 -0.5107  0.3741  0.4373
 8810SOL    HW137892   3.632   2.638  10.299 -0.0542  0.5383 -1.9905
 8810SOL    HW237893   3.610   2.750  10.394  2.3766 -1.0099  2.1373
 8811SOL     OW37894   2.191   2.847   9.561 -0.6657 -0.1260 -1.0651
 8811SOL    HW137895   2.262   2.864   9.623 -2.2357 -2.5771  1.3956
 8811SOL    HW237896   2.172   2.754   9.552 -1.6309 -0.0361  0.0599
 8812SOL     OW37897   1.709   0.253   1.112 -0.1677 -0.4889 -0.3949
 8812SOL    HW137898   1.715   0.183   1.046 -2.9523  1.7313 -3.0082
 8812SOL    HW237899   1.772   0.224   1.178  1.4311  0.4025 -1.5285
 8813SOL     OW37900   4.520   2.249   5.010 -0.5260  0.0111 -0.2777
 8813SOL    HW137901   4.489   2.210   4.928  0.4390 -0.3891 -0.4441
 8813SOL    HW237902   4.509   2.178   5.074  3.0615  0.6953  1.0922
 8814SOL     OW37903   2.283   0.178   3.379  0.0300 -0.3953 -0.0833
 8814SOL    HW137904   2.254   0.139   3.297  1.9755 -0.9294 -0.5003
 8814SOL    HW237905   2.323   0.258   3.345 -1.7582  0.2303 -0.7013
 8815SOL     OW37906   3.993   2.763  10.460  0.1150  0.8138  0.1318
 8815SOL    HW137907   3.980   2.780  10.367 -1.5224 -2.2604 -0.1991
 8815SOL    HW237908   3.980   2.668  10.468  1.2876  0.5992 -0.4506
 8816SOL     OW37909   2.484   1.409   8.553 -0.4751 -0.2473 -0.1585
 8816SOL    HW137910   2.564   1.403   8.501  0.0851  0.1938  0.6455
 8816SOL    HW237911   2.425   1.372   8.488  0.5030  0.2433 -1.3199
 8817SOL     OW37912   0.641   0.443   6.897 -0.3495  0.1152  0.1077
 8817SOL    HW137913   0.644   0.449   6.992 -1.6309  2.1157  0.0117
 8817SOL    HW237914   0.730   0.409   6.887 -1.4265 -3.0646  1.1970
 8818SOL     OW37915   1.970   3.036   3.382 -0.1262 -0.0965 -0.2223
 8818SOL    HW137916   1.877   3.050   3.363 -0.0713 -0.8117 -1.0045
 8818SOL    HW237917   2.009   3.098   3.321 -0.2788  0.4649  0.2503
 8819SOL     OW37918   0.849   2.391   9.451  0.4551  0.3282  0.3413
 8819SOL    HW137919   0.885   2.321   9.397  0.3976  2.2443 -2.1894
 8819SOL    HW237920   0.791   2.437   9.389 -0.3264  0.2509  1.0035
 8820SOL     OW37921   3.968   4.301  11.929  0.0158 -0.2803 -0.1383
 8820SOL    HW137922   4.029   4.372  11.946 -1.8529  1.0305  1.0918
 8820SOL    HW237923   3.908   4.347  11.870  1.2479  3.0020  1.1888
 8821SOL     OW37924   4.566   3.331   9.349  0.0325 -0.4448 -0.0866
 8821SOL    HW137925   4.549   3.310   9.441  1.8502 -0.9374  0.1447
 8821SOL    HW237926   4.659   3.309   9.338  0.7902  2.3653  0.7222
 8822SOL     OW37927   2.032   1.369  11.761  0.3060  0.3494  0.0674
 8822SOL    HW137928   2.032   1.462  11.740 -0.3075  0.5211  0.8434
 8822SOL    HW237929   1.968   1.338  11.697  0.4963 -4.3090  2.1037
 8823SOL     OW37930   3.227   4.329   6.243  0.0846 -0.1350  0.1455
 8823SOL    HW137931   3.197   4.247   6.281  1.0332 -0.2802  0.5864
 8823SOL    HW237932   3.314   4.301   6.212  0.6892  1.9532 -0.0083
 8824SOL     OW37933   3.287   1.287   7.865  0.1011 -0.5764  0.7988
 8824SOL    HW137934   3.228   1.236   7.920 -1.2973  1.0543  0.8123
 8824SOL    HW237935   3.339   1.326   7.936 -0.1184  1.5553 -0.1946
 8825SOL     OW37936   2.551   1.238   1.525 -0.4279  0.8679 -0.6760
 8825SOL    HW137937   2.515   1.150   1.533  0.4955  0.5777  0.2323
 8825SOL    HW237938   2.471   1.291   1.520 -1.5493 -0.7754 -0.2866
 8826SOL     OW37939   0.341   0.052   4.721 -0.2427  0.1600 -0.6468
 8826SOL    HW137940   0.340   4.688   4.683  0.7324  0.5573 -1.5902
 8826SOL    HW237941   0.297   0.029   4.803 -0.7748 -1.1473 -1.3040
 8827SOL     OW37942   3.185   4.408  15.049 -0.0428 -0.6712  0.3177
 8827SOL    HW137943   3.236   4.413  14.968  0.4303 -0.7980  0.6044
 8827SOL    HW237944   3.146   4.496  15.043  0.1029 -0.6566 -0.3932
 8828SOL     OW37945   1.571   2.817  15.266  0.0673 -0.3105 -0.0724
 8828SOL    HW137946   1.571   2.912  15.277  2.8358 -0.1162 -2.0202
 8828SOL    HW237947   1.663   2.793  15.272  0.8181  1.7280 -3.6898
 8829SOL     OW37948   2.085   4.038  13.507  0.7291  0.2790  0.5645
 8829SOL    HW137949   2.091   4.075  13.596  1.5763 -1.2683  1.1439
 8829SOL    HW237950   2.096   3.947  13.535  1.4220  0.5825  1.2807
 8830SOL     OW37951   3.558   0.026   5.781  0.5863  0.6779 -0.3952
 8830SOL    HW137952   3.513   0.008   5.699  1.3519  1.1322 -0.9217
 8830SOL    HW237953   3.607   4.674   5.810  2.1192  1.3894 -1.1013
 8831SOL     OW37954   3.156   2.480   2.451 -0.5972 -0.3314  0.0339
 8831SOL    HW137955   3.208   2.443   2.380  0.2767 -3.3607  2.2224
 8831SOL    HW237956   3.229   2.536   2.478 -0.4837 -0.6821  0.4577
 8832SOL     OW37957   1.814   2.958   6.843  0.0613 -0.2303  0.0494
 8832SOL    HW137958   1.776   3.037   6.805 -0.5076 -0.0283  1.0257
 8832SOL    HW237959   1.906   2.972   6.822  0.0534 -1.7280 -0.9514
 8833SOL     OW37960   2.689   3.971   8.745 -0.3100  0.0109  0.2331
 8833SOL    HW137961   2.608   4.019   8.731 -2.5092 -3.4702  0.7911
 8833SOL    HW237962   2.751   4.009   8.684 -1.8298  0.7916 -0.8201
 8834SOL     OW37963   3.505   1.064   3.873 -0.3357 -0.5189 -0.4645
 8834SOL    HW137964   3.545   1.067   3.959 -0.6445 -0.3362 -0.3274
 8834SOL    HW237965   3.578   1.100   3.822 -0.0928 -1.2011 -0.5983
 8835SOL     OW37966   3.723   2.897   5.388 -0.6328  0.5842  0.2418
 8835SOL    HW137967   3.765   2.821   5.429 -0.9605  0.4502  0.3241
 8835SOL    HW237968   3.795   2.947   5.350 -0.0628 -0.7482 -0.4409
 8836SOL     OW37969   2.649   2.986  13.966 -0.2474  0.5029 -0.1468
 8836SOL    HW137970   2.556   2.999  13.980 -0.0032  0.9270  1.0829
 8836SOL    HW237971   2.635   2.918  13.900 -0.0777 -0.0047  0.3340
 8837SOL     OW37972   3.597   2.912   4.690 -0.4508 -0.3330  0.4783
 8837SOL    HW137973   3.652   2.983   4.724 -0.3013 -1.1584  1.9690
 8837SOL    HW237974   3.559   2.953   4.612 -0.6712 -0.6166  0.4401
 8838SOL     OW37975   4.447   0.129   3.566 -0.2805 -0.0227  0.6056
 8838SOL    HW137976   4.382   0.082   3.619 -0.1550  1.3726  2.0075
 8838SOL    HW237977   4.393   0.196   3.525 -1.8358 -0.8067  1.3346
 8839SOL     OW37978   2.990   3.965   2.511  1.0310  0.0542 -0.7419
 8839SOL    HW137979   2.980   3.927   2.599  0.1929 -0.0986 -0.9042
 8839SOL    HW237980   3.040   3.894   2.471  0.1413 -0.1590 -1.4727
 8840SOL     OW37981   2.817   0.503   3.948 -0.6644  0.3887  0.5092
 8840SOL    HW137982   2.808   0.419   3.993 -0.4859 -1.8432 -3.6176
 8840SOL    HW237983   2.752   0.499   3.878  1.5027  2.0405 -1.6316
 8841SOL     OW37984   2.616   1.872  13.922 -0.2775 -0.3442  0.3175
 8841SOL    HW137985   2.548   1.869  13.989 -2.2664 -0.5652 -1.7032
 8841SOL    HW237986   2.626   1.965  13.901 -1.7778 -0.0666  0.8429
 8842SOL     OW37987   3.178   1.445   1.944 -0.0026  0.5181 -0.3570
 8842SOL    HW137988   3.257   1.399   1.919  0.7806  2.3976 -1.3854
 8842SOL    HW237989   3.124   1.455   1.865  0.6765 -0.3301 -0.9202
 8843SOL     OW37990   1.549   1.384  16.929  0.7919 -1.1208 -0.4730
 8843SOL    HW137991   1.594   1.330  16.865  0.5217 -3.0915  1.0016
 8843SOL    HW237992   1.506   1.452  16.876 -0.8971 -0.9359  1.1213
 8844SOL     OW37993   0.352   0.448   2.101  0.3931 -0.0197 -0.2219
 8844SOL    HW137994   0.442   0.462   2.070  0.4323  1.0503  0.3714
 8844SOL    HW237995   0.307   0.440   2.016  2.1310  1.2059 -1.2655
 8845SOL     OW37996   4.248   1.836   6.288 -0.2149  0.3437  0.3548
 8845SOL    HW137997   4.222   1.878   6.207 -2.6634 -0.0317  0.9281
 8845SOL    HW237998   4.331   1.876   6.313  0.4628 -0.2307 -1.0071
 8846SOL     OW37999   2.336   1.276  17.665 -0.2860 -0.0028 -0.2253
 8846SOL    HW138000   2.428   1.278  17.638 -0.9485 -0.4422 -2.5258
 8846SOL    HW238001   2.327   1.366  17.696 -1.2430 -0.5385  1.0461
 8847SOL     OW38002   0.532   2.471   0.881  0.3050 -0.0102 -0.1807
 8847SOL    HW138003   0.538   2.509   0.968 -0.1284 -0.7923  0.1833
 8847SOL    HW238004   0.612   2.510   0.844  0.8940 -0.6640  0.4131
 8848SOL     OW38005   0.371   4.377   5.734 -0.6895  0.1739  0.3079
 8848SOL    HW138006   0.344   4.306   5.675 -0.9725 -0.0265  0.6813
 8848SOL    HW238007   0.385   4.447   5.671 -0.0347 -0.8439 -0.6838
 8849SOL     OW38008   0.550   2.245   2.996 -0.4402  0.0636  0.1972
 8849SOL    HW138009   0.566   2.203   3.081  0.7645 -0.5190 -0.3092
 8849SOL    HW238010   0.456   2.250   2.981 -0.5200  0.8410  0.9483
 8850SOL     OW38011   3.106   1.133   9.815 -0.5178 -0.2153 -0.4492
 8850SOL    HW138012   3.166   1.108   9.744 -0.4358 -0.5223 -0.2733
 8850SOL    HW238013   3.171   1.144   9.884 -3.6158  0.9313  2.2679
 8851SOL     OW38014   0.117   0.238   3.537 -0.3816 -0.3180  0.2633
 8851SOL    HW138015   0.197   0.225   3.486  1.4680 -0.1186  3.0752
 8851SOL    HW238016   0.140   0.302   3.605  0.2905  0.8974 -1.1257
 8852SOL     OW38017   0.509   3.789   4.364  0.2638  0.1485  0.6729
 8852SOL    HW138018   0.553   3.785   4.280 -1.1243  0.2487 -0.0575
 8852SOL    HW238019   0.453   3.865   4.348  0.8217  0.7554  1.6216
 8853SOL     OW38020   0.388   4.318  16.190 -0.0534 -0.1542 -0.1495
 8853SOL    HW138021   0.332   4.267  16.132 -0.5278 -1.6322  1.6143
 8853SOL    HW238022   0.327   4.325  16.264  1.4329 -1.9346  1.2645
 8854SOL     OW38023   4.402   0.919   4.062  0.3213 -0.1017  0.2831
 8854SOL    HW138024   4.379   0.841   4.011  0.4614  0.7929 -1.1202
 8854SOL    HW238025   4.320   0.966   4.069  0.7676  1.0237 -2.4094
 8855SOL     OW38026   0.367   4.129   5.587  0.7612 -0.8577  0.1254
 8855SOL    HW138027   0.450   4.115   5.632  0.3062  1.2212  1.6399
 8855SOL    HW238028   0.386   4.095   5.500  0.9505  0.2763 -0.2794
 8856SOL     OW38029   0.861   1.068   6.426 -0.2601 -0.1095 -0.4114
 8856SOL    HW138030   0.909   1.005   6.480  0.2726 -1.2358 -2.2272
 8856SOL    HW238031   0.779   1.020   6.418  0.0629 -0.3947 -1.8618
 8857SOL     OW38032   3.745   2.486   5.825 -0.1440 -0.0211  0.1707
 8857SOL    HW138033   3.759   2.500   5.918 -2.8919 -1.9138  0.8892
 8857SOL    HW238034   3.655   2.518   5.823 -0.4228 -0.9231 -1.6288
 8858SOL     OW38035   0.192   0.986   3.132 -0.1263  0.1009 -0.3216
 8858SOL    HW138036   0.111   0.935   3.133 -0.1317  0.0911 -1.9264
 8858SOL    HW238037   0.234   0.950   3.054 -0.9965 -0.6044 -0.4565
 8859SOL     OW38038   2.488   0.425   8.241 -0.0184 -0.7802 -0.2118
 8859SOL    HW138039   2.449   0.394   8.160  2.4308 -1.6345 -1.0764
 8859SOL    HW238040   2.462   0.352   8.296 -0.2514 -1.1664 -0.8432
 8860SOL     OW38041   4.469   0.424   4.676 -0.3177  0.9653  0.4263
 8860SOL    HW138042   4.545   0.415   4.619 -0.5623 -1.2499  0.4825
 8860SOL    HW238043   4.489   0.489   4.744 -2.2943 -0.1533  2.0500
 8861SOL     OW38044   3.498   1.351   2.891 -0.1994  0.0118 -0.2542
 8861SOL    HW138045   3.415   1.384   2.926  2.0722  2.0192  3.2651
 8861SOL    HW238046   3.512   1.406   2.813 -1.8451 -1.1876 -1.4041
 8862SOL     OW38047   1.319   3.971  10.969 -0.2728 -0.4527  0.2828
 8862SOL    HW138048   1.318   3.885  10.928  3.0502  0.6702 -2.1740
 8862SOL    HW238049   1.403   4.010  10.946 -0.2662 -1.4613 -1.3579
 8863SOL     OW38050   0.005   2.676   6.415  0.0927 -0.1416  0.0480
 8863SOL    HW138051   0.091   2.705   6.446  0.3367 -0.7174 -0.0870
 8863SOL    HW238052   4.684   2.655   6.497  2.2150  1.0775  1.5369
 8864SOL     OW38053   4.171   1.160  13.966  0.1521 -0.3217 -0.0667
 8864SOL    HW138054   4.149   1.249  13.937  0.4889 -1.3938 -3.5080
 8864SOL    HW238055   4.104   1.113  13.917  0.0251 -1.9698  1.6769
 8865SOL     OW38056   2.350   2.050   2.244  0.1194 -0.2421  0.4333
 8865SOL    HW138057   2.408   2.064   2.320  2.1917 -0.8378 -1.0208
 8865SOL    HW238058   2.270   2.025   2.290  0.2386  1.1241  1.3832
 8866SOL     OW38059   4.354   2.958   4.522 -0.2664 -0.0660  0.1008
 8866SOL    HW138060   4.378   2.867   4.501 -0.6437 -0.7270  2.5154
 8866SOL    HW238061   4.415   2.977   4.593 -2.0738 -2.2732  2.2469
 8867SOL     OW38062   1.454   3.868   5.345  0.1325  0.4877  0.1510
 8867SOL    HW138063   1.517   3.904   5.281 -0.9465  2.7490  0.3793
 8867SOL    HW238064   1.389   3.839   5.282  1.2768 -0.3998 -0.6319
 8868SOL     OW38065   3.527   0.345  11.635  0.0710  0.1277 -0.3510
 8868SOL    HW138066   3.573   0.274  11.680 -0.6233  0.6678  1.2143
 8868SOL    HW238067   3.581   0.422  11.654  0.0746 -0.4194  1.7837
 8869SOL     OW38068   1.794   2.548  16.875 -0.1736 -0.2038 -0.1800
 8869SOL    HW138069   1.852   2.501  16.816  1.7686  2.8243 -0.6850
 8869SOL    HW238070   1.711   2.504  16.855  0.7443 -1.1860 -1.7846
 8870SOL     OW38071   4.189   2.953   7.835  0.3719 -0.1310 -0.2401
 8870SOL    HW138072   4.253   3.023   7.852  1.6479 -1.4163  0.2217
 8870SOL    HW238073   4.201   2.946   7.740 -0.2679 -1.9760 -0.1768
 8871SOL     OW38074   0.443   0.897  12.114  0.4694 -0.9058 -0.1474
 8871SOL    HW138075   0.431   0.815  12.065 -2.0715 -1.1872  0.9376
 8871SOL    HW238076   0.370   0.895  12.176 -0.7294  2.2845 -1.4581
 8872SOL     OW38077   3.035   1.561  11.757  0.1174 -0.3619  0.0765
 8872SOL    HW138078   3.080   1.476  11.751 -1.0517 -1.0495  0.9964
 8872SOL    HW238079   2.956   1.542  11.806  0.3754 -0.8544  0.3069
 8873SOL     OW38080   4.520   0.425   5.061  0.6623 -0.0213 -0.3771
 8873SOL    HW138081   4.453   0.470   5.113 -0.2170 -1.5552 -0.1837
 8873SOL    HW238082   4.572   0.498   5.027 -0.1484  0.1045 -1.3411
 8874SOL     OW38083   4.235   1.117  13.360  0.0134 -0.1534 -0.4723
 8874SOL    HW138084   4.216   1.204  13.397 -0.2361  0.1452 -1.2873
 8874SOL    HW238085   4.166   1.066  13.403 -1.0235  0.0734 -1.8573
 8875SOL     OW38086   0.432   3.663   7.743  0.2933 -0.0577  0.1030
 8875SOL    HW138087   0.505   3.713   7.706 -0.1761 -0.0639 -0.8166
 8875SOL    HW238088   0.441   3.654   7.838  0.2557  2.5807  0.3702
 8876SOL     OW38089   4.118   2.115  12.498  0.0657 -0.7340 -0.1064
 8876SOL    HW138090   4.175   2.105  12.421  0.3815 -0.3285  0.0753
 8876SOL    HW238091   4.133   2.209  12.505 -1.4072 -0.7233  2.6419
 8877SOL     OW38092   1.490   0.872   9.633 -0.2454 -0.3819 -0.3639
 8877SOL    HW138093   1.577   0.833   9.642  0.0912  0.5025  0.2170
 8877SOL    HW238094   1.501   0.956   9.678  1.2496 -1.3418  1.0382
 8878SOL     OW38095   1.228   2.464   9.400 -0.1952  0.2050  0.7917
 8878SOL    HW138096   1.146   2.469   9.350  0.7610 -1.0945 -0.9165
 8878SOL    HW238097   1.238   2.558   9.411  1.6437  0.2701 -1.4544
 8879SOL     OW38098   3.386   1.634   5.151 -0.1818  0.2753  0.2403
 8879SOL    HW138099   3.367   1.541   5.165  0.5647 -0.1806 -1.7757
 8879SOL    HW238100   3.307   1.667   5.108 -0.8153  0.9591  1.8912
 8880SOL     OW38101   1.253   4.267   8.855  0.1831 -0.1482 -0.3282
 8880SOL    HW138102   1.160   4.258   8.832  0.5466 -2.1837 -0.9710
 8880SOL    HW238103   1.263   4.176   8.828  0.8426 -0.3281  0.5119
 8881SOL     OW38104   4.404   1.892   8.370 -0.0544  0.5833  0.0843
 8881SOL    HW138105   4.358   1.921   8.291 -2.3557  0.8652  1.5350
 8881SOL    HW238106   4.333   1.897   8.433  0.9057 -1.3068  1.3242
 8882SOL     OW38107   1.351   3.997  17.488  0.1831  0.1571 -0.1396
 8882SOL    HW138108   1.292   3.941  17.538  1.3262 -2.4248 -1.6907
 8882SOL    HW238109   1.294   4.031  17.418 -1.5017 -0.1321  1.0863
 8883SOL     OW38110   1.197   4.317   4.467 -0.2465 -0.4383  0.2581
 8883SOL    HW138111   1.162   4.359   4.545  0.9294  1.4949 -0.2593
 8883SOL    HW238112   1.177   4.386   4.403 -0.6300  0.4743  1.3717
 8884SOL     OW38113   4.018   1.231   2.384  0.1919  0.1713  0.2607
 8884SOL    HW138114   4.044   1.142   2.405  0.7410  0.2214 -0.2045
 8884SOL    HW238115   4.102   1.277   2.387  0.5388 -0.5590  1.4415
 8885SOL     OW38116   2.984   1.855   2.480 -1.0679 -0.0534 -0.2376
 8885SOL    HW138117   2.955   1.934   2.433  1.0354  1.6731  1.3898
 8885SOL    HW238118   2.933   1.788   2.435  0.8998 -0.0918 -2.4463
 8886SOL     OW38119   3.852   1.654   7.554 -0.4775 -0.2862  0.2005
 8886SOL    HW138120   3.921   1.607   7.508 -0.9977  1.0851 -1.9805
 8886SOL    HW238121   3.782   1.589   7.548  1.3575 -2.1608 -1.1366
 8887SOL     OW38122   3.929   4.694   4.458  0.5385 -0.3307  0.0056
 8887SOL    HW138123   3.843   4.654   4.468  0.2645  0.1870 -0.2974
 8887SOL    HW238124   3.988   4.636   4.507  1.9710 -0.9472 -2.4543
 8888SOL     OW38125   2.989   2.416   1.173 -0.0885  0.7682  0.4000
 8888SOL    HW138126   3.041   2.373   1.241 -0.5083  1.6972  1.3071
 8888SOL    HW238127   2.897   2.403   1.195  0.4919 -2.4638  0.9409
 8889SOL     OW38128   4.279   3.929  12.466  0.3262 -0.4530  0.0606
 8889SOL    HW138129   4.308   4.001  12.522  0.8482 -0.3475 -0.3366
 8889SOL    HW238130   4.187   3.946  12.450  1.1242  3.2579 -0.4967
 8890SOL     OW38131   3.291   1.061   2.059  0.0833 -0.1662 -0.2658
 8890SOL    HW138132   3.277   0.975   2.099  2.6669 -0.8707 -0.8311
 8890SOL    HW238133   3.338   1.040   1.978 -0.8922  0.9896 -1.1183
 8891SOL     OW38134   4.105   2.308   5.887  0.3991  0.7514  0.2055
 8891SOL    HW138135   4.033   2.254   5.919 -1.0653  2.2480 -0.5755
 8891SOL    HW238136   4.175   2.243   5.893  0.3989  0.4408 -3.2753
 8892SOL     OW38137   4.516   0.016  16.344  0.1858 -0.5537 -0.3914
 8892SOL    HW138138   4.563   0.074  16.285 -2.1696 -0.2998 -2.0405
 8892SOL    HW238139   4.527   4.661  16.293 -0.6771 -1.8390  1.4157
 8893SOL     OW38140   0.343   4.098   2.869  0.2369  0.6443 -0.2205
 8893SOL    HW138141   0.282   4.170   2.856 -0.8341  0.0485  1.4440
 8893SOL    HW238142   0.377   4.085   2.780  1.2767 -0.0363  0.2682
 8894SOL     OW38143   2.112   3.233   0.330 -0.0602  0.0244  0.2188
 8894SOL    HW138144   2.094   3.211   0.422 -0.4813 -1.2737 -0.1740
 8894SOL    HW238145   2.070   3.318   0.319  1.0268  0.6116  0.6600
 8895SOL     OW38146   0.247   1.728   8.151  0.0448 -0.1847  0.1699
 8895SOL    HW138147   0.283   1.804   8.197  1.4658 -0.4434 -0.4941
 8895SOL    HW238148   0.279   1.652   8.199 -1.6637 -1.1391 -0.2197
 8896SOL     OW38149   2.454   2.672   6.750  0.5069  0.2804  0.8148
 8896SOL    HW138150   2.545   2.701   6.752  0.0878  1.8029 -2.2101
 8896SOL    HW238151   2.418   2.698   6.834 -2.6444  0.4717 -0.6001
 8897SOL     OW38152   1.645   0.861   2.398 -0.0068 -0.4867 -0.1597
 8897SOL    HW138153   1.647   0.956   2.388  1.5739 -0.7020 -1.9573
 8897SOL    HW238154   1.660   0.850   2.492 -0.0924  0.1395 -0.0697
 8898SOL     OW38155   1.751   0.716   5.620 -0.2047  0.2528 -0.4570
 8898SOL    HW138156   1.768   0.703   5.713 -0.8441 -1.5797 -0.6075
 8898SOL    HW238157   1.796   0.639   5.585  1.3905  1.3420 -0.8370
 8899SOL     OW38158   0.539   4.120   4.146  0.3085 -0.3952 -0.2366
 8899SOL    HW138159   0.454   4.110   4.188  0.0716  0.5097 -0.4860
 8899SOL    HW238160   0.562   4.198   4.197  1.3145 -0.0645 -1.2056
 8900SOL     OW38161   4.162   0.352   6.005 -0.0992  0.5304  0.0090
 8900SOL    HW138162   4.181   0.278   5.948 -3.3227 -1.5011  1.5920
 8900SOL    HW238163   4.239   0.408   5.992 -1.1853  1.8036 -1.0499
 8901SOL     OW38164   2.506   4.270  11.024  0.7036  0.2765 -1.0687
 8901SOL    HW138165   2.578   4.220  11.063 -0.6716 -0.6301  0.2902
 8901SOL    HW238166   2.493   4.333  11.095 -0.2492 -2.7419  1.4381
 8902SOL     OW38167   0.432   2.607   6.938 -0.2744  0.5592  0.2678
 8902SOL    HW138168   0.449   2.534   6.998  1.9650  1.9073  1.2723
 8902SOL    HW238169   0.502   2.592   6.875  0.3083 -2.4976  1.6118
 8903SOL     OW38170   1.964   3.813   0.704  0.0070 -0.3553  0.4314
 8903SOL    HW138171   2.055   3.832   0.731 -0.9394  0.0833  3.3502
 8903SOL    HW238172   1.961   3.840   0.613  1.7357 -1.6128 -0.0076
 8904SOL     OW38173   2.392   4.091   9.431  0.0515 -0.3450  0.8900
 8904SOL    HW138174   2.483   4.071   9.453  0.6673 -2.9807 -3.8535
 8904SOL    HW238175   2.385   4.043   9.348 -1.9030 -0.8487  1.3360
 8905SOL     OW38176   4.528   1.958   6.791 -0.6265  0.1372 -0.4273
 8905SOL    HW138177   4.458   1.897   6.815  0.9801 -0.8300  1.8136
 8905SOL    HW238178   4.601   1.908   6.826 -0.5525  0.2302 -0.4509
 8906SOL     OW38179   2.788   3.321   6.202 -0.2583  0.0957  0.3145
 8906SOL    HW138180   2.767   3.230   6.180  3.1383 -0.7535  0.5364
 8906SOL    HW238181   2.821   3.358   6.120  1.0446  0.1563  0.8763
 8907SOL     OW38182   2.130   1.859   6.994 -0.5010  0.1643  0.0134
 8907SOL    HW138183   2.131   1.765   6.980 -2.5946  0.0182  0.7459
 8907SOL    HW238184   2.115   1.901   6.909 -1.6863 -0.4663 -0.0958
 8908SOL     OW38185   1.125   4.131   5.955 -0.4319  0.2579  0.3406
 8908SOL    HW138186   1.163   4.070   5.892 -1.2985  0.6305 -0.5486
 8908SOL    HW238187   1.105   4.197   5.889  2.1616 -0.2208 -0.9161
 8909SOL     OW38188   3.567   4.373   6.423 -0.3746  0.1376 -0.5935
 8909SOL    HW138189   3.527   4.340   6.343 -1.9244 -1.3121  0.7832
 8909SOL    HW238190   3.607   4.293   6.457 -0.1826 -0.1280 -1.4508
 8910SOL     OW38191   1.083   2.087   2.109  0.1205  0.0837  0.2154
 8910SOL    HW138192   1.135   2.167   2.113 -0.2382  0.3164  0.1929
 8910SOL    HW238193   1.011   2.113   2.052 -0.3082 -0.9004  0.3000
 8911SOL     OW38194   2.751   4.564  11.196 -0.5347  0.0349 -0.0581
 8911SOL    HW138195   2.723   4.643  11.241  0.2808  0.5104 -0.3837
 8911SOL    HW238196   2.673   4.514  11.219  0.2460 -1.0178  0.3520
 8912SOL     OW38197   0.698   4.148   8.568  0.4888  0.1305  0.2505
 8912SOL    HW138198   0.791   4.169   8.563  1.1573 -2.9476 -0.0908
 8912SOL    HW238199   0.675   4.216   8.504 -2.2019  1.0631  2.1854
 8913SOL     OW38200   0.613   0.596   7.559 -0.0352 -0.3646  0.2486
 8913SOL    HW138201   0.542   0.655   7.583 -1.0998 -0.6418 -2.2238
 8913SOL    HW238202   0.622   0.553   7.644  2.4677 -1.0976 -0.3825
 8914SOL     OW38203   3.061   1.147   6.582 -0.2556  0.1088 -0.0134
 8914SOL    HW138204   3.017   1.189   6.508 -0.7443 -0.7144 -0.1952
 8914SOL    HW238205   2.999   1.077   6.603 -0.3431  1.0094  2.6629
 8915SOL     OW38206   0.776   1.340   4.804  0.2393  0.3982 -0.0597
 8915SOL    HW138207   0.828   1.411   4.765  1.4109 -0.1337  0.5350
 8915SOL    HW238208   0.822   1.270   4.757 -0.6880 -1.1856  1.4136
 8916SOL     OW38209   1.045   0.059   0.392 -0.3187  0.1349 -0.0186
 8916SOL    HW138210   1.072   0.138   0.345  2.4375 -0.3374  0.7745
 8916SOL    HW238211   1.002   0.012   0.321 -0.6461 -0.8388  0.8238
 8917SOL     OW38212   4.340   2.980   2.434 -0.2288  0.3904  0.0493
 8917SOL    HW138213   4.415   3.029   2.467  0.7290 -0.7396 -0.4443
 8917SOL    HW238214   4.379   2.916   2.375  0.3597  1.6996 -0.9912
 8918SOL     OW38215   1.021   2.992   6.928 -0.1147 -0.0959  0.3689
 8918SOL    HW138216   0.969   3.061   6.970 -2.2034 -0.7177 -1.2437
 8918SOL    HW238217   0.964   2.973   6.855  0.6440  0.1562 -0.2930
 8919SOL     OW38218   3.142   0.618   0.246  0.2022  0.3463  0.1761
 8919SOL    HW138219   3.066   0.609   0.189  1.6431  3.5723 -2.2576
 8919SOL    HW238220   3.174   0.528   0.253 -1.2932 -0.1004  1.0719
 8920SOL     OW38221   2.744   2.063  11.862 -0.0209  0.3574 -0.7143
 8920SOL    HW138222   2.830   2.086  11.897 -0.2375 -1.0264  0.7169
 8920SOL    HW238223   2.732   1.975  11.896 -1.3779  0.8869  0.2282
 8921SOL     OW38224   1.420   3.551   5.611  0.2559 -0.5757 -0.1170
 8921SOL    HW138225   1.368   3.605   5.551  0.7847 -1.6471 -1.5371
 8921SOL    HW238226   1.359   3.481   5.634 -0.0350 -0.9792 -2.1279
 8922SOL     OW38227   2.383   0.875  15.222  0.7653 -0.1341  0.1865
 8922SOL    HW138228   2.303   0.832  15.253  0.3735 -0.6618 -1.5563
 8922SOL    HW238229   2.374   0.957  15.271 -2.0990  0.2113 -0.9060
 8923SOL     OW38230   3.105   0.650   2.039  0.6825 -0.1794  0.2604
 8923SOL    HW138231   3.183   0.692   2.074  0.0412  2.8168 -1.8823
 8923SOL    HW238232   3.146   0.574   1.997  2.5177  1.1142 -0.2879
 8924SOL     OW38233   2.216   4.013   5.091 -0.4295  0.2991  0.3090
 8924SOL    HW138234   2.257   4.060   5.164 -0.7345  3.5456 -1.5886
 8924SOL    HW238235   2.143   3.962   5.127 -0.7988  1.1591  0.7824
 8925SOL     OW38236   2.913   3.633   5.073 -0.1809  0.1161  0.5567
 8925SOL    HW138237   2.931   3.539   5.076 -2.3683 -0.2095  3.2271
 8925SOL    HW238238   3.002   3.667   5.068 -1.4381  3.3537  0.2341
 8926SOL     OW38239   4.488   2.380   1.709  0.0808  0.1247  0.1983
 8926SOL    HW138240   4.542   2.349   1.637  0.7002 -1.0076  1.1589
 8926SOL    HW238241   4.405   2.344   1.678  0.8700  0.0900 -1.8389
 8927SOL     OW38242   1.118   1.213   1.831  0.4610 -0.3188 -0.2780
 8927SOL    HW138243   1.138   1.260   1.751 -1.3176 -1.6742 -1.5211
 8927SOL    HW238244   1.044   1.268   1.859  1.5301  1.5807 -1.2310
 8928SOL     OW38245   2.040   0.381   6.857 -0.9647 -0.1970  0.0497
 8928SOL    HW138246   1.986   0.356   6.932 -1.0646 -2.8990 -0.9483
 8928SOL    HW238247   2.044   0.298   6.810  0.5036  0.0840 -0.3076
 8929SOL     OW38248   3.081   2.427   8.922 -0.1619  0.5067  0.0884
 8929SOL    HW138249   3.137   2.452   8.995 -1.5240 -4.0730  2.6760
 8929SOL    HW238250   3.039   2.348   8.956  0.3932  0.0223 -0.3368
 8930SOL     OW38251   3.976   4.475   4.171  0.1121  0.1734  0.1952
 8930SOL    HW138252   4.006   4.391   4.208  1.6354  0.5445 -0.1685
 8930SOL    HW238253   3.915   4.441   4.106  0.4734  1.7324 -0.9646
 8931SOL     OW38254   1.607   1.211   7.852 -0.6380 -0.2616 -0.0020
 8931SOL    HW138255   1.544   1.247   7.915  1.2554  2.5099  0.2936
 8931SOL    HW238256   1.574   1.237   7.766 -0.1429 -1.4539 -0.5478
 8932SOL     OW38257   0.445   2.198   7.859 -0.0376 -0.2075  0.1472
 8932SOL    HW138258   0.443   2.292   7.839  0.6312 -0.3174 -0.4289
 8932SOL    HW238259   0.395   2.155   7.791 -0.2036 -1.9501  1.3864
 8933SOL     OW38260   2.762   3.922   1.813  0.1985 -0.7591 -0.5590
 8933SOL    HW138261   2.713   3.913   1.894  1.7416 -0.7969  0.3574
 8933SOL    HW238262   2.698   3.888   1.750 -2.4029  0.2099  1.5686
 8934SOL     OW38263   0.461   0.952   7.576 -0.1991 -0.1604 -0.7359
 8934SOL    HW138264   0.412   0.870   7.565  0.2042 -0.9027  2.7299
 8934SOL    HW238265   0.534   0.926   7.632  0.1728  0.9781 -0.7095
 8935SOL     OW38266   3.344   1.575   4.765 -0.0274 -0.5289 -0.6150
 8935SOL    HW138267   3.339   1.507   4.833 -3.6746 -1.2627 -1.6330
 8935SOL    HW238268   3.345   1.658   4.813  2.5014 -1.1310  0.3493
 8936SOL     OW38269   1.648   0.418   3.443  1.3216 -0.2705  0.1277
 8936SOL    HW138270   1.733   0.381   3.468  1.8728  0.6950 -0.3390
 8936SOL    HW238271   1.595   0.433   3.521  2.0515  4.6809 -0.3423
 8937SOL     OW38272   3.242   3.591   4.487  0.6153  0.5822  0.2093
 8937SOL    HW138273   3.330   3.622   4.509  1.8423 -1.2900 -2.0079
 8937SOL    HW238274   3.265   3.516   4.431  0.1159  0.9266 -0.4501
 8938SOL     OW38275   3.771   4.297   7.675  0.7834  0.0169 -0.2238
 8938SOL    HW138276   3.760   4.291   7.770 -1.1193 -2.7157 -0.6231
 8938SOL    HW238277   3.704   4.359   7.647  1.6637  1.5295  0.9736
 8939SOL     OW38278   2.354   4.448   1.856  0.1357 -0.1596 -0.0502
 8939SOL    HW138279   2.415   4.510   1.815 -0.0696 -0.9356 -1.5483
 8939SOL    HW238280   2.287   4.440   1.788 -1.0730  1.5818  0.9185
 8940SOL     OW38281   3.090   3.911  11.212 -0.2870  0.7247  0.3849
 8940SOL    HW138282   2.998   3.930  11.230 -0.1151 -0.3948  2.4497
 8940SOL    HW238283   3.121   3.869  11.292  1.2693  3.0397  0.9803
 8941SOL     OW38284   1.482   2.986   5.016 -0.2021 -0.5351 -0.3307
 8941SOL    HW138285   1.474   3.077   4.986 -0.2943  0.1825  1.8869
 8941SOL    HW238286   1.575   2.962   5.016 -0.5527 -1.8741  0.1505
 8942SOL     OW38287   2.606   4.641   3.648 -0.3169 -0.0718 -0.3386
 8942SOL    HW138288   2.557   4.717   3.617 -0.6560  0.1314  0.6734
 8942SOL    HW238289   2.686   4.683   3.680  0.5041 -1.5151 -0.4911
 8943SOL     OW38290   3.537   2.192   3.937 -0.3185 -0.5743  0.2657
 8943SOL    HW138291   3.463   2.175   3.878  0.5123 -0.3837 -0.8440
 8943SOL    HW238292   3.541   2.288   3.939  0.1211 -0.5567 -1.2301
 8944SOL     OW38293   0.012   3.617   5.299 -0.3901  0.6130  0.0452
 8944SOL    HW138294   4.718   3.709   5.320 -0.8684  0.2450  1.2251
 8944SOL    HW238295   0.101   3.610   5.334 -0.8688  1.9601  1.5624
 8945SOL     OW38296   2.189   2.136   2.699  0.2237 -0.3395 -0.3414
 8945SOL    HW138297   2.216   2.181   2.780  0.6497  2.0323 -1.8178
 8945SOL    HW238298   2.181   2.209   2.638  1.0550 -0.7270 -0.9101
 8946SOL     OW38299   3.197   0.230  10.810  0.0391  0.3762 -0.3080
 8946SOL    HW138300   3.260   0.168  10.773  2.3523  0.8521  2.8165
 8946SOL    HW238301   3.118   0.177  10.819 -0.3909  1.0604 -0.0604
 8947SOL     OW38302   0.531   4.114   2.575 -0.5916  0.4404  0.2468
 8947SOL    HW138303   0.513   4.182   2.511  1.6560  1.2075  0.4375
 8947SOL    HW238304   0.578   4.164   2.642  1.4892 -0.4153 -0.5440
 8948SOL     OW38305   2.541   1.473   7.692 -0.8840  0.1334  0.2338
 8948SOL    HW138306   2.621   1.465   7.641 -0.7452  0.3861  0.4145
 8948SOL    HW238307   2.524   1.560   7.656  2.1845  1.0613  1.0383
 8949SOL     OW38308   1.421   2.972   9.435 -0.2893  0.4624  0.0927
 8949SOL    HW138309   1.429   2.988   9.530  0.0030 -1.6173  0.4202
 8949SOL    HW238310   1.361   3.041   9.406  1.2096  1.2489 -1.1274
 8950SOL     OW38311   2.726   2.070   3.289  0.8074 -0.3156  0.1354
 8950SOL    HW138312   2.679   2.002   3.240  0.4462 -0.1509  0.2559
 8950SOL    HW238313   2.654   2.100   3.344  1.4710  0.6689  0.4654
 8951SOL     OW38314   4.333   1.886  10.059  0.4633  0.3812 -0.3439
 8951SOL    HW138315   4.328   1.874   9.965 -1.0163 -0.5191 -0.1495
 8951SOL    HW238316   4.362   1.802  10.095 -1.5334  0.7412  2.1576
 8952SOL     OW38317   1.202   1.273   4.605  0.1999  0.5395  0.1954
 8952SOL    HW138318   1.154   1.234   4.679 -0.0659  1.7283  0.6579
 8952SOL    HW238319   1.220   1.198   4.548  1.9999 -0.1575  1.7145
 8953SOL     OW38320   4.179   1.093  14.215 -0.4553  0.0168 -0.3425
 8953SOL    HW138321   4.112   1.035  14.180 -1.6281  1.8437 -1.1186
 8953SOL    HW238322   4.211   1.139  14.138 -1.0454 -0.7692 -1.0518
 8954SOL     OW38323   4.110   4.310   5.586 -0.4582 -0.1486  0.6434
 8954SOL    HW138324   4.165   4.373   5.539 -1.0412  0.1348  0.3411
 8954SOL    HW238325   4.033   4.360   5.613 -1.7400 -1.1106 -1.2232
 8955SOL     OW38326   1.771   0.790   2.640 -0.0268 -0.0352 -0.0121
 8955SOL    HW138327   1.848   0.736   2.623  1.1045  1.4833  0.2501
 8955SOL    HW238328   1.801   0.829   2.722  2.7388 -0.1530 -0.9513
 8956SOL     OW38329   3.619   4.428   5.219  0.7436  0.1659 -0.9018
 8956SOL    HW138330   3.627   4.505   5.163  0.6319  0.0586 -1.0623
 8956SOL    HW238331   3.554   4.377   5.171  0.8955 -0.6986 -0.1937
 8957SOL     OW38332   1.717   4.183   5.801 -0.2369  0.5731  0.2303
 8957SOL    HW138333   1.648   4.190   5.867  0.5210  1.9696  0.8740
 8957SOL    HW238334   1.793   4.234   5.828  0.0881  1.1624 -1.8127
 8958SOL     OW38335   3.296   2.528   6.754  0.2263 -0.3635  0.4914
 8958SOL    HW138336   3.215   2.488   6.724  0.5763  1.2906 -2.6200
 8958SOL    HW238337   3.334   2.469   6.820  1.0495 -0.4160 -0.0329
 8959SOL     OW38338   3.643   4.060   8.045 -0.2211 -0.5913  0.6053
 8959SOL    HW138339   3.668   4.071   7.953 -0.2760 -0.4864  0.6034
 8959SOL    HW238340   3.549   4.081   8.041  1.0663  5.1421  0.6746
 8960SOL     OW38341   2.510   4.484   8.278 -0.2747  0.0971  0.2488
 8960SOL    HW138342   2.557   4.427   8.217 -2.4236 -0.5047 -0.8269
 8960SOL    HW238343   2.459   4.426   8.335  0.8587  0.0588  1.2565
 8961SOL     OW38344   3.036   1.332   2.142  0.0849  0.5971  0.3721
 8961SOL    HW138345   3.114   1.289   2.176 -0.7121 -1.6674 -0.6724
 8961SOL    HW238346   3.064   1.391   2.072  2.3054  1.0424  1.6232
 8962SOL     OW38347   3.588   2.683   9.121  0.1897 -0.2646  0.2007
 8962SOL    HW138348   3.570   2.697   9.028  2.9390  1.7257 -0.0302
 8962SOL    HW238349   3.562   2.592   9.134  0.7515 -0.2140  1.5959
 8963SOL     OW38350   4.706   3.894   4.592  0.5288  0.0660  0.4583
 8963SOL    HW138351   4.653   3.858   4.521  0.2406 -1.7385  1.5811
 8963SOL    HW238352   4.634   3.925   4.648  0.1558  0.5149 -0.2759
 8964SOL     OW38353   1.925   2.429   6.904 -0.3131 -0.5768 -0.5847
 8964SOL    HW138354   1.954   2.425   6.812  0.3457  2.7362 -0.5322
 8964SOL    HW238355   1.906   2.523   6.907 -0.4349 -0.6265  0.0728
 8965SOL     OW38356   0.126   3.013   5.251 -0.2982 -0.4903 -0.3519
 8965SOL    HW138357   0.204   2.959   5.263  0.1750  0.5648  1.2792
 8965SOL    HW238358   0.153   3.094   5.295 -3.2223  0.2897  0.0122
 8966SOL     OW38359   3.199   2.183  13.737  0.3173 -0.0642  0.1138
 8966SOL    HW138360   3.230   2.106  13.690 -3.4825 -1.1712 -0.5046
 8966SOL    HW238361   3.218   2.153  13.826 -1.5486  1.1283  0.8974
 8967SOL     OW38362   3.141   2.007   8.537  0.4121 -0.2627 -0.0458
 8967SOL    HW138363   3.125   2.099   8.559 -0.4187 -0.7126  1.2589
 8967SOL    HW238364   3.053   1.986   8.505 -0.6423  0.9032  2.0407
 8968SOL     OW38365   2.332   0.115   2.501 -0.0684  0.5665 -0.4423
 8968SOL    HW138366   2.366   0.072   2.423  1.9757  0.1257  0.7022
 8968SOL    HW238367   2.242   0.137   2.473 -0.1788  0.7655  0.0752
 8969SOL     OW38368   0.382   0.707   9.998  0.2575  0.4438  0.2968
 8969SOL    HW138369   0.332   0.628  10.020  0.2941  0.4789  0.5124
 8969SOL    HW238370   0.474   0.680  10.006  0.1046  0.2571  1.4875
 8970SOL     OW38371   3.688   1.514   4.853  0.1663  0.2832 -0.2547
 8970SOL    HW138372   3.710   1.607   4.855 -0.2388  0.3245  1.8670
 8970SOL    HW238373   3.604   1.500   4.897 -0.0290 -1.4969 -1.1984
 8971SOL     OW38374   2.903   0.388   6.544 -0.1113 -0.1842  0.0960
 8971SOL    HW138375   2.814   0.354   6.536  0.1573 -0.3316 -2.2174
 8971SOL    HW238376   2.914   0.385   6.639  3.5525  0.4395 -0.2893
 8972SOL     OW38377   1.096   1.144   6.110  0.3366 -0.6831  0.0765
 8972SOL    HW138378   1.082   1.054   6.079 -1.8283  0.2033 -1.5154
 8972SOL    HW238379   1.184   1.143   6.147  1.1498  0.6179 -1.8321
 8973SOL     OW38380   1.192   2.205  15.313 -0.1731 -0.1287  0.3565
 8973SOL    HW138381   1.248   2.255  15.372 -1.2405 -1.0960  2.2038
 8973SOL    HW238382   1.182   2.117  15.351  1.8044  0.1627  1.5552
 8974SOL     OW38383   2.540   4.234  10.526  0.0457  0.1731  0.0334
 8974SOL    HW138384   2.447   4.223  10.542 -0.0854  0.6607 -0.4010
 8974SOL    HW238385   2.555   4.329  10.529  2.3626 -0.1625 -0.5797
 8975SOL     OW38386   0.352   1.194   2.476 -0.1300 -0.0163 -0.5406
 8975SOL    HW138387   0.282   1.137   2.508  0.4271 -0.8259 -0.7786
 8975SOL    HW238388   0.333   1.271   2.529  0.2735  0.5944 -1.2854
 8976SOL     OW38389   3.449   3.635   0.586  0.1590 -0.4251  0.2922
 8976SOL    HW138390   3.392   3.643   0.510 -1.7804 -1.2938  1.6589
 8976SOL    HW238391   3.388   3.641   0.659  0.1022  0.0916  0.1996
 8977SOL     OW38392   1.899   1.671   8.142  0.6975  0.8080 -0.0784
 8977SOL    HW138393   1.933   1.593   8.098  3.7922  2.2653 -0.3095
 8977SOL    HW238394   1.961   1.738   8.112  2.1674 -1.2671 -1.6874
 8978SOL     OW38395   4.127   2.183   3.962  0.2795 -0.5468 -0.0628
 8978SOL    HW138396   4.173   2.245   3.905  1.3311 -0.6995  0.6074
 8978SOL    HW238397   4.155   2.210   4.049  2.9361 -3.7471  0.0792
 8979SOL     OW38398   2.544   3.090  13.419 -0.0044 -0.0889 -0.3747
 8979SOL    HW138399   2.626   3.094  13.468 -0.4846  0.6037  0.3751
 8979SOL    HW238400   2.528   3.180  13.391  0.0128  0.3231  0.9110
 8980SOL     OW38401   1.873   1.560  15.294 -0.0254 -0.4135  0.0488
 8980SOL    HW138402   1.940   1.605  15.242  0.2115 -1.1396 -0.2823
 8980SOL    HW238403   1.887   1.594  15.383  0.2455  1.2920 -0.6546
 8981SOL     OW38404   2.631   0.341   6.491 -0.8484 -0.0490  0.4019
 8981SOL    HW138405   2.555   0.357   6.547 -1.7239  1.8513 -1.3245
 8981SOL    HW238406   2.604   0.262   6.444 -0.8932 -0.2324  0.7350
 8982SOL     OW38407   1.355   1.053   0.613 -0.3698  0.4710  0.4197
 8982SOL    HW138408   1.268   1.038   0.650  0.1392 -0.2971  1.2780
 8982SOL    HW238409   1.407   0.974   0.626 -1.3250 -0.1335  0.5696
 8983SOL     OW38410   3.075   1.862   5.413  0.7366 -0.1707  0.1629
 8983SOL    HW138411   3.156   1.912   5.421  1.1052 -0.5615 -1.0706
 8983SOL    HW238412   3.107   1.772   5.423  2.1514  0.3834  0.6200
 8984SOL     OW38413   1.748   1.679   3.345 -0.2903 -0.3079 -0.0069
 8984SOL    HW138414   1.836   1.716   3.338 -0.0314 -0.8695  0.3174
 8984SOL    HW238415   1.735   1.681   3.440  0.4913 -0.2045  0.0962
 8985SOL     OW38416   2.770   0.310   2.001  0.0181 -0.0536 -0.4485
 8985SOL    HW138417   2.700   0.376   2.005 -1.6320 -1.7035 -1.8369
 8985SOL    HW238418   2.809   0.338   1.918  2.3701 -0.0636  0.6703
 8986SOL     OW38419   1.805   1.403   7.784 -0.4346 -0.1060  0.2094
 8986SOL    HW138420   1.743   1.332   7.801 -1.7146  1.1100  0.5669
 8986SOL    HW238421   1.788   1.430   7.694 -1.0445  0.3418  0.4684
 8987SOL     OW38422   2.339   3.215   2.361 -0.5289 -0.2174  0.2502
 8987SOL    HW138423   2.411   3.167   2.402  0.8854  1.5609 -0.1792
 8987SOL    HW238424   2.371   3.302   2.380  2.0128 -0.8259 -1.2323
 8988SOL     OW38425   0.780   3.976   0.135  0.5479 -0.3852  0.4277
 8988SOL    HW138426   0.838   3.904   0.108 -0.1636 -0.1994 -1.5861
 8988SOL    HW238427   0.778   4.033   0.058  2.3216  0.2953  0.8719
 8989SOL     OW38428   2.055   2.450   6.101 -0.3586  0.8032  0.7093
 8989SOL    HW138429   1.972   2.453   6.148 -0.6869  2.3276  0.0259
 8989SOL    HW238430   2.077   2.540   6.124 -0.6492  0.6828  1.4656
 8990SOL     OW38431   2.643   1.527   4.785  0.1262 -0.2498  0.3875
 8990SOL    HW138432   2.597   1.607   4.760 -1.3142 -1.0131  0.5905
 8990SOL    HW238433   2.696   1.510   4.707 -0.4626  1.6285 -0.4097
 8991SOL     OW38434   1.818   1.148  11.976 -0.1138  0.8278 -0.4195
 8991SOL    HW138435   1.903   1.142  12.021 -1.4366 -0.5632  1.9563
 8991SOL    HW238436   1.805   1.239  11.953 -0.3125  0.7711 -0.5289
 8992SOL     OW38437   4.069   0.246   5.122  0.1289  0.6121 -0.3014
 8992SOL    HW138438   4.120   0.296   5.186 -1.1083  1.1907  0.2223
 8992SOL    HW238439   4.068   0.158   5.160 -0.1546 -0.1523 -2.0542
 8993SOL     OW38440   0.917   1.416   1.783  0.6479  0.3038 -0.1560
 8993SOL    HW138441   0.842   1.359   1.799  0.0559  1.5335  1.3771
 8993SOL    HW238442   0.925   1.406   1.688  0.6025 -1.1417 -0.0045
 8994SOL     OW38443   0.793   4.036   4.131  0.7767 -0.2145 -0.0826
 8994SOL    HW138444   0.809   4.081   4.049 -1.4012  1.8832  0.6169
 8994SOL    HW238445   0.701   4.063   4.132  0.2693 -2.0263  0.9846
 8995SOL     OW38446   3.886   4.689   2.936  0.5767 -0.4711 -0.5409
 8995SOL    HW138447   3.901   4.660   2.846  1.6245  1.8168 -1.1059
 8995SOL    HW238448   3.912   0.056   2.926 -0.7974  0.0514  0.7242
 8996SOL     OW38449   2.892   3.422   1.566 -0.2931 -0.1165  0.3145
 8996SOL    HW138450   2.922   3.378   1.487 -2.2859  1.6332 -1.4145
 8996SOL    HW238451   2.977   3.463   1.581 -0.5503  0.0623  1.3401
 8997SOL     OW38452   1.360   0.440   2.218  0.2717  0.7762 -0.4085
 8997SOL    HW138453   1.349   0.403   2.306 -0.2013  0.0435 -0.7718
 8997SOL    HW238454   1.391   0.529   2.232 -0.9042  1.2389 -0.7412
 8998SOL     OW38455   3.259   3.024   6.033 -0.1944 -0.6312  0.0863
 8998SOL    HW138456   3.200   2.975   5.976 -0.6434 -1.5517  1.3420
 8998SOL    HW238457   3.232   3.115   6.017  0.3297  0.0902  3.3255
 8999SOL     OW38458   2.660   4.371   7.596  0.1159 -0.4283  0.1690
 8999SOL    HW138459   2.729   4.390   7.660  0.4447  2.7264 -1.1304
 8999SOL    HW238460   2.658   4.275   7.597 -2.3174 -0.3574  1.1199
 9000SOL     OW38461   4.708   3.029   9.316  0.5512 -0.2565  0.3430
 9000SOL    HW138462   4.625   3.039   9.269  0.3903  0.8728  0.8466
 9000SOL    HW238463   0.035   3.110   9.304 -0.0579 -0.1267 -1.3186
 9001SOL     OW38464   4.565   3.289  10.608  0.3556 -0.0437  0.3023
 9001SOL    HW138465   4.612   3.242  10.677  0.0518  0.2595  0.7134
 9001SOL    HW238466   4.559   3.216  10.546 -0.6139  0.5336 -0.2703
 9002SOL     OW38467   1.207   0.821   7.636 -0.2852 -0.1065  0.1821
 9002SOL    HW138468   1.221   0.727   7.643  2.6754  0.1821 -1.4734
 9002SOL    HW238469   1.283   0.849   7.585 -0.6409  5.0363  2.4897
 9003SOL     OW38470   1.661   2.241  14.784  0.0380  0.3894  0.1154
 9003SOL    HW138471   1.619   2.163  14.821  3.2293 -0.7360  1.3151
 9003SOL    HW238472   1.630   2.256  14.694  0.1772 -2.7469 -0.4497
 9004SOL     OW38473   0.927   1.382   2.105  0.4083  0.1832 -0.6599
 9004SOL    HW138474   0.899   1.395   2.014  0.0895  0.0985 -0.5719
 9004SOL    HW238475   0.972   1.465   2.122 -1.2437  0.4020  2.5386
 9005SOL     OW38476   4.320   2.425   0.641  0.6591 -0.4507 -0.0699
 9005SOL    HW138477   4.351   2.347   0.596 -0.2115 -0.7516 -0.1513
 9005SOL    HW238478   4.297   2.488   0.573  1.9938 -1.6513 -1.6286
 9006SOL     OW38479   0.081   3.723   7.828 -0.5678 -0.0541 -0.1494
 9006SOL    HW138480   4.711   3.730   7.839 -0.4723  0.7682  0.1827
 9006SOL    HW238481   0.114   3.779   7.898 -1.1541 -0.2493  0.2763
 9007SOL     OW38482   0.164   1.068  11.654  0.4726  0.1172 -0.0478
 9007SOL    HW138483   0.223   1.143  11.657 -0.0675  0.5377  0.1113
 9007SOL    HW238484   0.175   1.022  11.737  0.6727  0.0650 -0.1031
 9008SOL     OW38485   1.535   3.255  11.095 -0.3875  0.6756  0.4368
 9008SOL    HW138486   1.462   3.239  11.034  0.3238  0.3369 -0.3159
 9008SOL    HW238487   1.523   3.180  11.154  1.3514 -0.5951 -0.8439
 9009SOL     OW38488   1.179   4.334   6.776  0.0593  0.1580 -0.3817
 9009SOL    HW138489   1.218   4.397   6.715  0.7361  0.2039  0.1033
 9009SOL    HW238490   1.098   4.307   6.731 -0.9611  0.1149  1.4686
 9010SOL     OW38491   0.059   4.236   5.131  0.4684  0.2545 -0.5831
 9010SOL    HW138492   4.718   4.206   5.068  1.6743 -3.0752 -0.2894
 9010SOL    HW238493   0.070   4.328   5.106 -0.4417  0.4418 -0.2802
 9011SOL     OW38494   2.244   0.611   7.633 -0.5610 -0.6911  0.5338
 9011SOL    HW138495   2.159   0.655   7.632  0.1186  0.5147 -3.3499
 9011SOL    HW238496   2.213   0.521   7.648 -0.1428 -0.9787 -0.3525
 9012SOL     OW38497   3.093   2.928  11.132 -0.1768 -0.1978 -0.2054
 9012SOL    HW138498   3.163   2.949  11.070  0.1354 -0.3350  0.0995
 9012SOL    HW238499   3.105   3.007  11.185 -2.5303 -0.7961  1.2404
 9013SOL     OW38500   4.120   4.391   5.195  0.5779  0.1295  0.1345
 9013SOL    HW138501   4.148   4.393   5.286 -1.2957 -0.4236  0.7129
 9013SOL    HW238502   4.147   4.305   5.164 -0.9356  0.0627 -0.9979
 9014SOL     OW38503   1.789   3.382   2.797  0.7814  0.1089  0.1175
 9014SOL    HW138504   1.854   3.325   2.755  0.8894  1.2407 -1.2570
 9014SOL    HW238505   1.721   3.392   2.731  0.0888 -0.5814  0.7347
 9015SOL     OW38506   3.358   2.074   2.658 -0.4716 -0.3049  0.4936
 9015SOL    HW138507   3.428   2.130   2.693  0.0277 -0.5066 -0.2006
 9015SOL    HW238508   3.376   2.072   2.564 -0.8189  2.9338  0.3310
 9016SOL     OW38509   1.926   3.902  16.566  0.3915 -0.2024 -0.3379
 9016SOL    HW138510   1.900   3.994  16.562  4.3369  0.8885 -1.0846
 9016SOL    HW238511   1.964   3.900  16.478  1.9204  0.8164  0.2897
 9017SOL     OW38512   3.496   0.954   6.460  0.3640 -0.5446 -0.1376
 9017SOL    HW138513   3.515   1.043   6.489  0.2241 -0.5645  0.0151
 9017SOL    HW238514   3.400   0.959   6.462  0.4611  1.2656 -0.1108
 9018SOL     OW38515   1.468   0.358   1.723 -0.4025 -0.1555  0.2666
 9018SOL    HW138516   1.508   0.432   1.677  0.5340  1.2501  3.3361
 9018SOL    HW238517   1.442   0.402   1.804 -1.6871  0.3601 -0.4385
 9019SOL     OW38518   0.321   0.497   2.817 -0.3614  0.0445 -0.6232
 9019SOL    HW138519   0.407   0.471   2.851 -1.8426 -1.8028  1.7211
 9019SOL    HW238520   0.315   0.424   2.755  2.3882 -0.2940 -0.5104
 9020SOL     OW38521   3.150   0.721  13.262 -0.4717 -0.1154 -0.0180
 9020SOL    HW138522   3.220   0.741  13.325 -0.0322 -1.2071 -0.1548
 9020SOL    HW238523   3.165   0.792  13.201 -0.5218  1.0417  1.3170
 9021SOL     OW38524   0.211   0.483   7.082  0.8260  0.0531 -0.3704
 9021SOL    HW138525   0.221   0.461   6.990  2.5927 -1.2026  0.1198
 9021SOL    HW238526   0.166   0.567   7.072  4.1708  1.8212 -0.4740
 9022SOL     OW38527   2.981   2.254   1.626  0.3610 -0.8071  0.1882
 9022SOL    HW138528   2.907   2.226   1.573 -0.5191 -0.9786  1.5078
 9022SOL    HW238529   3.022   2.174   1.656  0.8420 -1.4359 -2.1948
 9023SOL     OW38530   1.491   1.934   6.863 -0.0589  0.0049 -0.0602
 9023SOL    HW138531   1.559   1.940   6.931 -0.3922 -0.1939  0.2847
 9023SOL    HW238532   1.453   2.022   6.867 -2.1782 -0.8879 -1.2330
 9024SOL     OW38533   3.909   4.047   5.171  0.7826 -0.0423 -0.8878
 9024SOL    HW138534   3.945   3.975   5.120 -2.1429 -0.8176 -1.8499
 9024SOL    HW238535   3.982   4.077   5.225  0.7873 -1.0176 -0.3666
 9025SOL     OW38536   2.615   1.715  16.671  0.8308  0.3394 -0.6671
 9025SOL    HW138537   2.645   1.735  16.760  0.3001 -3.9997  0.4752
 9025SOL    HW238538   2.628   1.802  16.634  1.9203  1.6533  2.7720
 9026SOL     OW38539   2.090   4.085   3.149  0.3961 -0.6143  0.0956
 9026SOL    HW138540   2.133   4.158   3.194  0.0145 -0.6489  0.5243
 9026SOL    HW238541   2.131   4.111   3.067  0.0094 -0.6206 -0.0998
 9027SOL     OW38542   1.887   3.632   7.208  0.4533 -0.4176 -0.2441
 9027SOL    HW138543   1.852   3.591   7.128 -1.7717  1.0361 -0.0223
 9027SOL    HW238544   1.821   3.601   7.270 -0.3042  0.9373 -0.3721
 9028SOL     OW38545   0.542   3.315   6.266 -0.0245  0.1320  0.5868
 9028SOL    HW138546   0.603   3.389   6.272  0.6220 -0.3183 -0.4303
 9028SOL    HW238547   0.469   3.354   6.219  0.0733  1.8467  1.8527
 9029SOL     OW38548   0.184   0.167   6.260  0.4279 -0.1328 -0.0249
 9029SOL    HW138549   0.159   0.124   6.342 -0.8596  1.5680  0.4698
 9029SOL    HW238550   0.254   0.225   6.290 -0.4228  0.9431 -0.1367
 9030SOL     OW38551   2.649   3.079   3.345  0.2468 -0.1352  0.1402
 9030SOL    HW138552   2.683   3.122   3.424 -0.0920  0.5757 -0.0956
 9030SOL    HW238553   2.554   3.091   3.353 -0.0690 -1.2408 -1.8668
 9031SOL     OW38554   2.738   3.892   0.778  0.6362  0.0922 -0.2120
 9031SOL    HW138555   2.809   3.904   0.840  1.6695 -1.8162 -1.0497
 9031SOL    HW238556   2.707   3.982   0.763 -2.1846 -0.9613 -0.8467
 9032SOL     OW38557   3.293   0.600   4.949  0.0751  0.5534  0.0156
 9032SOL    HW138558   3.377   0.561   4.973 -0.7653 -1.3373 -0.1309
 9032SOL    HW238559   3.269   0.656   5.024  1.1542 -1.0691  1.5590
 9033SOL     OW38560   3.885   1.225   2.700 -0.1262  0.6047 -0.1462
 9033SOL    HW138561   3.844   1.242   2.785  1.7988  0.3849  0.8053
 9033SOL    HW238562   3.963   1.172   2.716 -0.2863  0.1758 -0.7910
 9034SOL     OW38563   0.734   3.576   4.124  0.3629  0.1607  1.0209
 9034SOL    HW138564   0.755   3.485   4.146 -0.3291 -0.1764  0.2920
 9034SOL    HW238565   0.807   3.623   4.083 -0.1973  1.2078  1.2266
 9035SOL     OW38566   1.309   2.805   2.780  0.4789 -0.2721 -0.2288
 9035SOL    HW138567   1.319   2.710   2.770 -0.3042 -0.1238 -2.4815
 9035SOL    HW238568   1.311   2.801   2.876 -1.5791 -0.3308 -0.2080
 9036SOL     OW38569   1.726   3.588   1.048 -0.1711  0.1459 -0.1865
 9036SOL    HW138570   1.767   3.667   1.084  0.4175  0.0101 -0.5532
 9036SOL    HW238571   1.791   3.560   0.984 -1.2188 -1.8736 -0.3675
 9037SOL     OW38572   1.266   3.691  15.363  0.7614 -0.5770 -0.5663
 9037SOL    HW138573   1.321   3.768  15.381  1.5236 -0.7368 -2.2171
 9037SOL    HW238574   1.191   3.742  15.332 -0.0538 -0.8003  1.0973
 9038SOL     OW38575   4.664   0.815  12.400 -1.1296 -0.1857 -0.0345
 9038SOL    HW138576   4.623   0.866  12.330 -1.4192  0.4943  0.6269
 9038SOL    HW238577   4.678   0.740  12.342  1.0894  0.6283 -0.5328
 9039SOL     OW38578   4.118   3.355  11.878 -0.3718  0.0851 -0.8068
 9039SOL    HW138579   4.202   3.341  11.921  0.5659  3.4887 -1.4922
 9039SOL    HW238580   4.057   3.315  11.940  1.0536 -1.1653 -0.2239
 9040SOL     OW38581   2.090   2.255   9.344  0.1828  0.0513  0.4759
 9040SOL    HW138582   2.003   2.231   9.313  1.1604 -0.8517 -1.5652
 9040SOL    HW238583   2.134   2.227   9.263 -0.6810  4.8370 -1.6500
 9041SOL     OW38584   3.990   0.055  11.901  0.4046 -0.1198  0.2395
 9041SOL    HW138585   4.042   4.708  11.940 -0.6595 -0.4878  0.9672
 9041SOL    HW238586   3.951   0.006  11.829 -0.0048 -0.0735  0.4330
 9042SOL     OW38587   0.577   0.622   8.322  0.5155  0.3703 -0.0467
 9042SOL    HW138588   0.521   0.663   8.256  1.0039  0.9470 -0.1066
 9042SOL    HW238589   0.652   0.590   8.272  0.2500 -2.0582  1.1352
 9043SOL     OW38590   1.044   2.244   9.344  0.4069 -0.2586 -0.2182
 9043SOL    HW138591   0.991   2.211   9.271  2.6699  0.9575 -2.3791
 9043SOL    HW238592   1.127   2.199   9.333  0.2920 -0.7411  0.8805
 9044SOL     OW38593   4.651   1.093   1.763  0.5687 -0.0480 -0.1942
 9044SOL    HW138594   4.592   1.167   1.776  0.2721 -0.2567 -0.3603
 9044SOL    HW238595   4.624   1.071   1.674 -0.5444  1.0586 -0.1242
 9045SOL     OW38596   1.225   3.049   7.936  0.1454 -0.2206  0.7163
 9045SOL    HW138597   1.193   3.108   8.004 -1.9245  0.8510 -1.1812
 9045SOL    HW238598   1.320   3.058   7.945  0.1290  1.0225 -0.3721
 9046SOL     OW38599   2.706   3.546   9.309  0.2100  0.1854 -0.2486
 9046SOL    HW138600   2.696   3.497   9.391  2.0840  0.9582  0.4399
 9046SOL    HW238601   2.757   3.495   9.246 -1.5213  0.2683 -1.7431
 9047SOL     OW38602   0.947   1.810   9.413  0.2284  0.2790 -0.2792
 9047SOL    HW138603   0.955   1.722   9.377 -0.8460  0.1100 -0.0905
 9047SOL    HW238604   0.902   1.806   9.497 -0.0213  1.1510 -0.3666
 9048SOL     OW38605   3.502   4.346   4.423  0.2270 -0.0513 -0.1250
 9048SOL    HW138606   3.460   4.366   4.339 -1.5666  1.7717  1.2223
 9048SOL    HW238607   3.573   4.300   4.377 -0.7361 -2.1685  0.5439
 9049SOL     OW38608   2.710   3.968   3.307 -0.2683  0.4467 -0.2240
 9049SOL    HW138609   2.645   4.034   3.283  0.5478  0.4222 -2.5220
 9049SOL    HW238610   2.757   3.999   3.385 -0.7530 -1.2828  0.7625
 9050SOL     OW38611   2.949   1.496   7.060  0.8013 -0.2766 -0.4276
 9050SOL    HW138612   2.931   1.565   7.124  0.1207 -0.4855 -0.4016
 9050SOL    HW238613   2.867   1.499   7.013 -0.5388 -2.1052  1.7705
 9051SOL     OW38614   3.075   0.225   2.576  0.2960  0.2071 -0.0085
 9051SOL    HW138615   3.009   0.210   2.644 -1.1883 -1.1348 -1.7926
 9051SOL    HW238616   3.030   0.297   2.533  1.8253  2.4885  2.1642
 9052SOL     OW38617   0.548   2.306   8.279 -0.0340 -0.0110  0.2669
 9052SOL    HW138618   0.455   2.311   8.302 -0.0622  0.0071  0.1495
 9052SOL    HW238619   0.584   2.318   8.366  1.9794 -0.6928 -0.4752
 9053SOL     OW38620   3.838   0.536   1.488 -0.3908  0.4600  0.1944
 9053SOL    HW138621   3.786   0.465   1.450  1.3053 -0.6317 -0.0581
 9053SOL    HW238622   3.918   0.509   1.442  0.2609  0.7211  1.1752
 9054SOL     OW38623   3.267   3.563  10.992 -0.8604 -0.2696  0.0898
 9054SOL    HW138624   3.174   3.552  10.971 -0.7080  0.7609 -1.0830
 9054SOL    HW238625   3.290   3.637  10.935  2.9945 -0.9896  0.6856
 9055SOL     OW38626   1.880   2.330   1.553  0.4378  0.5474 -0.0902
 9055SOL    HW138627   1.934   2.370   1.621  2.2618 -0.9355 -0.6569
 9055SOL    HW238628   1.788   2.348   1.575  0.2798 -1.2803  0.7787
 9056SOL     OW38629   2.849   2.515   3.075  0.7101  0.3624 -0.7174
 9056SOL    HW138630   2.825   2.585   3.016 -1.7640  1.0772  1.1436
 9056SOL    HW238631   2.821   2.444   3.018 -1.6123  0.8414 -0.1785
 9057SOL     OW38632   2.273   3.593  16.931  0.5583  0.5650 -0.5598
 9057SOL    HW138633   2.270   3.498  16.914 -0.0897  0.4052  0.3929
 9057SOL    HW238634   2.197   3.603  16.989  0.5803 -1.1444 -0.2347
 9058SOL     OW38635   1.217   3.439  11.735  0.1854  0.1821 -0.3253
 9058SOL    HW138636   1.237   3.530  11.754 -0.5186  1.0715 -3.7150
 9058SOL    HW238637   1.307   3.409  11.722  0.4324  1.0675 -0.6737
 9059SOL     OW38638   1.793   4.673  10.376  0.0799 -0.4613 -0.5895
 9059SOL    HW138639   1.767   4.668  10.468 -0.0909 -0.8273 -0.6573
 9059SOL    HW238640   1.765   4.588  10.341  0.0014  0.3807 -2.5744
 9060SOL     OW38641   2.980   3.206   5.367  0.2858  0.0956 -0.4221
 9060SOL    HW138642   2.928   3.245   5.297 -1.1088  1.0123  1.1559
 9060SOL    HW238643   3.057   3.263   5.362 -0.7945  1.4313 -1.7002
 9061SOL     OW38644   2.058   2.361   4.780 -0.4677  0.7629  0.7903
 9061SOL    HW138645   2.056   2.267   4.764  2.2301  0.5316  1.8468
 9061SOL    HW238646   1.972   2.382   4.745 -0.3197 -0.8267 -0.5463
 9062SOL     OW38647   3.032   2.833   9.527 -0.5167 -0.4065  0.3704
 9062SOL    HW138648   3.124   2.860   9.526 -0.2795 -1.1960  0.6319
 9062SOL    HW238649   3.017   2.802   9.616  0.2304 -0.7213  0.3857
 9063SOL     OW38650   0.735   0.220   9.993 -0.0604 -0.3220  0.3202
 9063SOL    HW138651   0.796   0.195  10.062 -1.8018 -1.1230  1.5495
 9063SOL    HW238652   0.785   0.209   9.911  0.5585  1.7390  0.4121
 9064SOL     OW38653   3.404   0.021   7.131  0.5515  0.6998  0.2426
 9064SOL    HW138654   3.368   0.063   7.053 -1.1681 -1.8648 -0.3334
 9064SOL    HW238655   3.494   0.001   7.107  0.1890 -0.2237 -0.3303
 9065SOL     OW38656   4.078   3.547   6.279 -0.0189 -0.1876  0.0401
 9065SOL    HW138657   4.100   3.621   6.223  0.5247 -0.9791 -0.8079
 9065SOL    HW238658   4.002   3.570   6.332 -0.2325  2.0158 -1.2269
 9066SOL     OW38659   3.926   1.359   5.552  0.1021 -0.0689 -0.1260
 9066SOL    HW138660   3.853   1.327   5.604 -1.1463 -0.2549 -2.0102
 9066SOL    HW238661   3.949   1.433   5.609  1.2737 -2.3281  2.3299
 9067SOL     OW38662   3.576   3.513   5.623  0.6201  0.1939  0.0625
 9067SOL    HW138663   3.647   3.577   5.620  1.4784 -0.7873 -0.6344
 9067SOL    HW238664   3.631   3.440   5.592  1.4889  0.8102  0.1427
 9068SOL     OW38665   4.522   0.197   5.437 -0.0102 -0.8320  0.3725
 9068SOL    HW138666   4.454   0.144   5.397 -0.1722 -0.9811  0.8383
 9068SOL    HW238667   4.594   0.159   5.388  0.2340 -1.8764  1.5481
 9069SOL     OW38668   0.765   3.307  12.086 -0.1293  0.5988  0.0630
 9069SOL    HW138669   0.734   3.299  11.996 -1.6911  0.4637  0.6244
 9069SOL    HW238670   0.828   3.379  12.076  0.2777  0.2847  0.3677
 9070SOL     OW38671   3.728   2.704   4.354  0.1543 -0.7387 -0.1589
 9070SOL    HW138672   3.750   2.613   4.334 -1.8958 -0.7888 -2.1786
 9070SOL    HW238673   3.635   2.699   4.378  0.1845 -0.9531 -0.0875
 9071SOL     OW38674   2.034   1.643  15.512  0.1937 -0.4834 -0.0228
 9071SOL    HW138675   2.068   1.554  15.499  1.5311  0.2595 -1.7533
 9071SOL    HW238676   2.067   1.691  15.435  1.2603  0.7574  1.1940
 9072SOL     OW38677   4.344   1.210   2.629  0.0807 -0.3542 -0.4052
 9072SOL    HW138678   4.391   1.193   2.710 -1.5644  0.2313  0.6769
 9072SOL    HW238679   4.265   1.158   2.645 -0.5085  0.3159 -1.1482
 9073SOL     OW38680   4.348   3.916   2.733  0.0237  0.2446  0.5976
 9073SOL    HW138681   4.335   3.825   2.759 -0.1593  0.4379  1.1891
 9073SOL    HW238682   4.443   3.918   2.729  0.0728 -2.9474  0.2527
 9074SOL     OW38683   0.352   2.362   3.975  0.2256 -0.2914  0.2688
 9074SOL    HW138684   0.312   2.278   3.952 -0.6971  0.6655 -1.6203
 9074SOL    HW238685   0.427   2.364   3.916  0.6541  0.2909  0.8427
 9075SOL     OW38686   0.361   0.130  14.596 -0.3263  0.1185 -0.9359
 9075SOL    HW138687   0.307   0.143  14.674  0.3253 -0.3354 -0.4016
 9075SOL    HW238688   0.438   0.083  14.630  0.0227  1.6455  0.4007
 9076SOL     OW38689   1.034   0.201   0.630  0.1109  0.1321  0.4569
 9076SOL    HW138690   1.116   0.248   0.616 -0.9473  1.4987 -1.1686
 9076SOL    HW238691   1.027   0.156   0.546  1.9661 -0.2535  0.5062
 9077SOL     OW38692   3.350   0.171   8.763  0.1238 -0.6085  0.8168
 9077SOL    HW138693   3.402   0.223   8.825  0.3156 -1.3913  1.3212
 9077SOL    HW238694   3.276   0.226   8.737 -1.1313 -1.7905  1.8378
 9078SOL     OW38695   1.871   1.527  12.808  0.2715 -0.5235  0.2287
 9078SOL    HW138696   1.953   1.537  12.759 -0.8562  4.8489 -0.6356
 9078SOL    HW238697   1.803   1.494  12.749 -0.2639 -0.9282  1.0917
 9079SOL     OW38698   2.714   0.236   5.606  0.4965 -0.2715 -0.6683
 9079SOL    HW138699   2.792   0.181   5.601  0.8665  0.3332 -1.6028
 9079SOL    HW238700   2.756   0.322   5.602  0.8286 -0.5373 -2.7421
 9080SOL     OW38701   3.125   3.067   3.204  0.0860 -0.1287 -0.2541
 9080SOL    HW138702   3.095   3.125   3.134 -0.5093 -0.6266 -0.4169
 9080SOL    HW238703   3.190   3.126   3.241 -0.2255 -0.0932  0.2282
 9081SOL     OW38704   1.586   3.964   6.573  0.5838 -0.1821  0.0023
 9081SOL    HW138705   1.640   4.042   6.583 -0.8917  0.5912  1.9151
 9081SOL    HW238706   1.529   3.979   6.649  0.9191 -0.1842  0.2509
 9082SOL     OW38707   1.450   1.521   8.629 -0.8322  0.2877 -0.6316
 9082SOL    HW138708   1.475   1.553   8.716  0.6545 -2.2784 -0.1152
 9082SOL    HW238709   1.389   1.587   8.597 -1.2572  0.2713  0.1536
 9083SOL     OW38710   0.963   2.690   3.892 -0.1607  0.0035  0.0642
 9083SOL    HW138711   1.017   2.767   3.873  1.0603 -0.9429 -0.3165
 9083SOL    HW238712   0.891   2.685   3.830 -2.8191  2.9262  2.9456
 9084SOL     OW38713   4.210   3.592  10.911  0.6520 -0.2256 -0.5243
 9084SOL    HW138714   4.140   3.650  10.883 -0.1791 -0.6215  0.7567
 9084SOL    HW238715   4.174   3.555  10.991  0.4370 -0.3075 -0.6600
 9085SOL     OW38716   3.161   1.378   6.316  0.3308 -0.0466 -0.1220
 9085SOL    HW138717   3.190   1.427   6.393 -2.8332  0.1558  0.9671
 9085SOL    HW238718   3.095   1.436   6.277 -0.8026 -1.9194 -0.9810
 9086SOL     OW38719   2.654   3.384   0.033  0.5789  0.1963 -0.3522
 9086SOL    HW138720   2.694   3.297   0.026 -1.9508 -1.1488  1.8221
 9086SOL    HW238721   2.657   3.413  17.641 -2.8863  0.3775 -0.4033
 9087SOL     OW38722   0.110   2.652   0.309 -0.2052 -0.2416 -0.3746
 9087SOL    HW138723   0.124   2.744   0.334 -0.2902 -0.6358  1.1283
 9087SOL    HW238724   0.115   2.664   0.214 -0.6534  0.6867 -0.2782
 9088SOL     OW38725   2.146   1.994   5.932 -0.3988 -0.0702 -0.2876
 9088SOL    HW138726   2.236   1.970   5.954 -0.9416 -0.1757  1.8662
 9088SOL    HW238727   2.108   1.958   6.012  0.8238  0.2208  0.4253
 9089SOL     OW38728   0.972   1.623   9.853  0.5291 -0.2486  0.1484
 9089SOL    HW138729   0.996   1.713   9.877 -1.8030  0.2050  0.7935
 9089SOL    HW238730   0.980   1.570   9.933 -0.6559 -1.3335 -0.4537
 9090SOL     OW38731   0.479   0.247   3.129  0.4828 -0.1002  0.3367
 9090SOL    HW138732   0.494   0.321   3.188  2.6306 -0.5256  0.3175
 9090SOL    HW238733   0.568   0.245   3.095 -0.1106  1.1472 -1.3227
 9091SOL     OW38734   3.671   1.148  11.201  0.4830 -0.0650  0.5752
 9091SOL    HW138735   3.587   1.167  11.243 -0.2284  0.4069 -1.0587
 9091SOL    HW238736   3.638   1.083  11.139  0.3814  1.2949 -0.8184
 9092SOL     OW38737   1.338   0.298  13.331  0.1047 -0.7691  0.0364
 9092SOL    HW138738   1.429   0.267  13.329  0.3267  0.0508 -2.4168
 9092SOL    HW238739   1.324   0.345  13.249  0.1956 -3.0620 -1.3182
 9093SOL     OW38740   1.701   1.616   9.480 -0.1354 -0.2238  0.7079
 9093SOL    HW138741   1.705   1.706   9.448 -0.9901 -0.8774 -1.2435
 9093SOL    HW238742   1.709   1.616   9.576  2.3293 -1.4824  0.5129
 9094SOL     OW38743   0.575   2.905   4.665 -0.2554  0.1397 -0.5608
 9094SOL    HW138744   0.598   2.905   4.758  0.8425 -0.1679 -0.8249
 9094SOL    HW238745   0.540   2.994   4.663  1.6057  0.9278  1.8839
 9095SOL     OW38746   4.249   0.808   2.665 -0.2843 -0.1359 -0.8695
 9095SOL    HW138747   4.322   0.799   2.604  0.6195  2.2624 -0.1509
 9095SOL    HW238748   4.279   0.742   2.727 -2.5471  2.1896  2.6585
 9096SOL     OW38749   4.705   3.981   1.923  0.1954 -0.0605 -0.2098
 9096SOL    HW138750   0.071   3.987   1.894  0.3111 -1.3600 -0.1135
 9096SOL    HW238751   4.661   3.923   1.861  0.4312  0.4257 -0.8194
 9097SOL     OW38752   4.014   3.250   2.032  0.1172 -0.2475  0.0444
 9097SOL    HW138753   4.060   3.297   2.102 -1.6023 -1.0598  1.7108
 9097SOL    HW238754   4.064   3.170   2.016 -0.9030 -1.1626  1.4472
 9098SOL     OW38755   1.004   2.855   9.649 -0.7366 -0.3726 -0.6038
 9098SOL    HW138756   0.927   2.811   9.612 -1.2169  0.6764 -0.8600
 9098SOL    HW238757   1.068   2.843   9.579  0.0598  0.6652 -0.0440
 9099SOL     OW38758   4.042   2.172   7.541  0.2478 -0.3236  0.2391
 9099SOL    HW138759   4.129   2.173   7.501  0.0879 -0.4937 -0.1092
 9099SOL    HW238760   4.002   2.099   7.494  0.3560  0.7268 -1.4973
 9100SOL     OW38761   0.221   1.128   2.836  0.3688  0.2219 -0.2535
 9100SOL    HW138762   0.160   1.077   2.783 -0.3679  2.2134 -1.3357
 9100SOL    HW238763   0.297   1.072   2.846  0.4523  0.6175  1.4729
 9101SOL     OW38764   1.786   3.334   8.863  0.2607  0.0584 -0.4969
 9101SOL    HW138765   1.751   3.410   8.910  0.7101  1.0718 -1.7724
 9101SOL    HW238766   1.772   3.264   8.927  1.0419 -0.5426 -0.9834
 9102SOL     OW38767   3.464   1.632  10.397 -0.1253 -0.1704 -0.8784
 9102SOL    HW138768   3.493   1.608  10.485 -1.2751  1.6679 -0.0153
 9102SOL    HW238769   3.417   1.552  10.373 -0.7310 -0.2892  0.7719
 9103SOL     OW38770   3.469   1.240   8.771 -0.1068  0.4794  0.0057
 9103SOL    HW138771   3.433   1.326   8.747 -0.4381  0.5999  0.9279
 9103SOL    HW238772   3.414   1.177   8.724  0.1780 -0.0977  0.4538
 9104SOL     OW38773   0.281   1.298   6.464  0.4997  0.5298  0.1662
 9104SOL    HW138774   0.217   1.299   6.393  2.6239 -2.4336 -1.7980
 9104SOL    HW238775   0.326   1.214   6.456 -1.1347  0.0049 -3.2814
 9105SOL     OW38776   1.960   3.139   6.321 -0.2411  0.6806 -0.2451
 9105SOL    HW138777   2.031   3.154   6.259  1.1389  1.7289  1.5764
 9105SOL    HW238778   1.895   3.091   6.270  1.0868 -0.6560 -0.6366
 9106SOL     OW38779   1.429   1.088   2.046 -0.5096 -0.5202  0.0179
 9106SOL    HW138780   1.431   1.131   1.961  0.9162  0.8888  0.7739
 9106SOL    HW238781   1.512   1.041   2.040  1.0463  2.4154 -1.3904
 9107SOL     OW38782   3.303   1.555   9.448 -0.2849  0.0696 -0.0309
 9107SOL    HW138783   3.226   1.611   9.452 -1.1950 -1.2552  1.3675
 9107SOL    HW238784   3.268   1.480   9.498  1.4979  0.9869  2.5828
 9108SOL     OW38785   0.113   2.401   8.310  0.5706 -0.5931 -0.0275
 9108SOL    HW138786   0.147   2.333   8.367  0.6274 -0.1725  0.4447
 9108SOL    HW238787   0.051   2.430   8.377 -0.6626 -2.4003 -0.3890
 9109SOL     OW38788   1.203   1.160   1.557  0.0000 -0.3652 -0.2941
 9109SOL    HW138789   1.201   1.236   1.500 -0.5306  0.4003  0.7482
 9109SOL    HW238790   1.121   1.115   1.537 -0.0512 -0.5361  0.2943
 9110SOL     OW38791   3.972   3.790   5.090 -0.0152  0.5227  0.0887
 9110SOL    HW138792   3.920   3.709   5.080  0.8355 -0.2971  2.2157
 9110SOL    HW238793   4.039   3.762   5.028 -0.4369  1.0806 -0.6177
 9111SOL     OW38794   1.602   1.543  16.192  0.4077 -0.7253  0.0229
 9111SOL    HW138795   1.679   1.570  16.142 -1.7788  2.8173 -1.4441
 9111SOL    HW238796   1.558   1.626  16.211  1.7432  0.6641 -2.9156
 9112SOL     OW38797   2.928   0.597  10.332  0.4802 -0.3155  0.6298
 9112SOL    HW138798   2.939   0.585  10.426 -0.6606  2.2884  1.1037
 9112SOL    HW238799   2.979   0.525  10.295  0.7249  1.0601 -1.7693
 9113SOL     OW38800   3.921   2.935  11.859  1.2022 -0.0669  0.5493
 9113SOL    HW138801   3.884   2.847  11.866 -1.4695  1.0781  0.8641
 9113SOL    HW238802   3.915   2.953  11.765 -1.9497 -1.2805  0.4991
 9114SOL     OW38803   0.762   1.024   7.094  0.3214 -0.1037 -0.0563
 9114SOL    HW138804   0.690   1.002   7.154 -0.1921 -0.1242 -0.6741
 9114SOL    HW238805   0.729   1.026   7.004 -0.3366  0.3794  0.1955
 9115SOL     OW38806   2.597   0.475  11.138 -0.1918  0.1262 -0.8492
 9115SOL    HW138807   2.585   0.499  11.047 -1.6618  2.4797 -0.0397
 9115SOL    HW238808   2.506   0.485  11.166  0.0760  0.3842 -0.0677
 9116SOL     OW38809   4.598   4.149   6.408 -0.5554  0.0299  0.7427
 9116SOL    HW138810   4.665   4.085   6.432 -0.2212 -0.6471 -1.9764
 9116SOL    HW238811   4.523   4.101   6.445  1.1614 -1.9357  1.6751
 9117SOL     OW38812   4.421   3.066   9.250 -0.6748  0.1584  0.4303
 9117SOL    HW138813   4.368   3.055   9.170 -1.8379  0.2146  1.1865
 9117SOL    HW238814   4.441   3.160   9.253 -1.4935  0.4326 -2.0947
 9118SOL     OW38815   0.247   2.529  17.408  0.2457  0.6376  0.1993
 9118SOL    HW138816   0.239   2.621  17.433  0.6233  0.7065  0.0625
 9118SOL    HW238817   0.337   2.515  17.438 -0.2061 -2.0646  0.3232
 9119SOL     OW38818   4.053   0.149  15.212  0.2297  0.3072 -0.0911
 9119SOL    HW138819   4.102   0.105  15.281 -0.3265  0.4161  0.3764
 9119SOL    HW238820   4.093   0.236  15.209  0.4477  0.2346  0.7659
 9120SOL     OW38821   3.200   2.843   0.393  0.3963  0.1499 -0.0684
 9120SOL    HW138822   3.156   2.905   0.336 -1.1711 -1.5092 -0.6867
 9120SOL    HW238823   3.135   2.829   0.461  1.2076 -2.5894  0.1439
 9121SOL     OW38824   1.697   2.582   1.783 -0.4651  0.4142 -0.2860
 9121SOL    HW138825   1.791   2.563   1.780 -0.5115 -0.1639  1.8384
 9121SOL    HW238826   1.693   2.661   1.835 -1.4311  0.3874 -0.3341
 9122SOL     OW38827   2.027   1.990  17.102 -0.0508  0.2505 -0.2437
 9122SOL    HW138828   1.973   1.912  17.112  0.4485 -0.3081 -1.8846
 9122SOL    HW238829   1.960   2.053  17.125  1.5129  1.2396  1.6335
 9123SOL     OW38830   0.049   3.502  11.507 -0.2467 -0.5762 -0.0981
 9123SOL    HW138831   0.120   3.482  11.447 -0.7855  0.7604 -1.1792
 9123SOL    HW238832   0.099   3.496  11.589 -1.2340  0.7465  0.6104
 9124SOL     OW38833   4.706   4.024  15.322  0.2892 -0.3704  0.0681
 9124SOL    HW138834   0.058   3.969  15.310 -0.5345 -1.3863 -0.5237
 9124SOL    HW238835   0.014   4.100  15.371 -1.5590 -0.8394  1.9876
 9125SOL     OW38836   3.950   0.029  12.381 -0.3556 -0.0209 -0.4772
 9125SOL    HW138837   4.026   0.005  12.434 -0.9707 -1.1305 -0.0822
 9125SOL    HW238838   3.906   4.670  12.363 -0.6170 -0.1956  0.9174
 9126SOL     OW38839   1.002   0.679   3.148 -0.3078  0.5909 -0.1888
 9126SOL    HW138840   0.988   0.752   3.088 -2.7151  1.4036  1.3367
 9126SOL    HW238841   1.072   0.623   3.115  1.0376  2.3411 -0.2748
 9127SOL     OW38842   1.810   3.364   1.197  0.0144 -0.2302  0.7550
 9127SOL    HW138843   1.741   3.419   1.161  0.6174 -0.6013 -0.9535
 9127SOL    HW238844   1.884   3.415   1.165 -0.6188 -0.5293 -1.2133
 9128SOL     OW38845   2.736   2.091   6.482 -0.0110 -0.7962  0.6807
 9128SOL    HW138846   2.656   2.048   6.451  0.9748 -1.9384 -0.2681
 9128SOL    HW238847   2.755   2.030   6.553 -0.3404 -1.0200  0.5798
 9129SOL     OW38848   2.909   4.383   5.258 -0.1127 -0.9749  0.1887
 9129SOL    HW138849   2.958   4.301   5.255  1.8256  0.2050 -0.6697
 9129SOL    HW238850   2.910   4.414   5.167 -0.2941  0.4550  0.6624
 9130SOL     OW38851   3.579   1.989   0.430 -0.9825 -0.1215  0.2479
 9130SOL    HW138852   3.544   1.914   0.478 -0.5581 -0.8378 -0.5640
 9130SOL    HW238853   3.544   2.056   0.490  1.9227  0.1885  1.5695
 9131SOL     OW38854   0.097   2.458   6.247  0.0578 -0.1702  0.3521
 9131SOL    HW138855   0.141   2.529   6.200 -1.2335  0.4895  0.1551
 9131SOL    HW238856   0.080   2.504   6.329  2.5705  0.7759  0.3621
 9132SOL     OW38857   1.442   4.418  14.992  0.2042  0.2677 -0.1706
 9132SOL    HW138858   1.505   4.472  14.944  1.8814 -2.2701 -0.8244
 9132SOL    HW238859   1.385   4.481  15.036 -2.9343 -1.2540 -2.0478
 9133SOL     OW38860   3.019   4.273   8.134  0.1131  0.0649 -0.0731
 9133SOL    HW138861   3.025   4.363   8.101  1.6977  0.7498  2.0608
 9133SOL    HW238862   3.075   4.277   8.211  0.5367 -1.0936 -0.3332
 9134SOL     OW38863   0.077   3.031   0.928 -0.0860  0.0291 -0.7601
 9134SOL    HW138864   0.047   3.033   1.019  1.3080 -0.5421 -0.2798
 9134SOL    HW238865   4.722   3.044   0.876 -0.2949  3.2199  0.3597
 9135SOL     OW38866   2.245   1.460   4.715  0.1847 -0.3499 -0.1087
 9135SOL    HW138867   2.235   1.542   4.763  0.2423  0.7553 -1.9764
 9135SOL    HW238868   2.297   1.493   4.642  0.5618 -0.4099  0.1314
 9136SOL     OW38869   0.586   2.878   3.311 -0.5171 -0.1861  0.2306
 9136SOL    HW138870   0.573   2.972   3.323  0.6422 -0.3786  3.0040
 9136SOL    HW238871   0.559   2.872   3.219 -1.5687 -0.1909  0.5331
 9137SOL     OW38872   0.291   2.502   7.438  0.0829 -0.6899  0.0141
 9137SOL    HW138873   0.196   2.501   7.446  0.0739 -0.9589 -0.1187
 9137SOL    HW238874   0.301   2.595   7.417 -0.3504 -1.2266 -2.5314
 9138SOL     OW38875   4.281   0.305   4.354 -0.1590 -0.2141  0.0640
 9138SOL    HW138876   4.260   0.288   4.446  0.2178  2.4783  0.6539
 9138SOL    HW238877   4.207   0.363   4.335  0.2992 -0.5547 -2.7487
 9139SOL     OW38878   1.728   2.076  13.849  0.1541  0.0623 -0.5368
 9139SOL    HW138879   1.677   2.116  13.779 -0.2278  1.1990  0.3818
 9139SOL    HW238880   1.670   2.091  13.924 -0.1834 -1.8761 -0.4336
 9140SOL     OW38881   1.909   0.611   9.427  0.1021 -0.6912  0.5092
 9140SOL    HW138882   1.948   0.699   9.428 -0.8109 -0.2709 -1.1202
 9140SOL    HW238883   1.986   0.554   9.421 -0.4753 -1.3941 -0.1229
 9141SOL     OW38884   2.473   2.508   9.262  0.1641  0.0046 -0.1901
 9141SOL    HW138885   2.528   2.546   9.194  0.7535 -1.6800 -0.6460
 9141SOL    HW238886   2.524   2.434   9.295  2.1180  1.2156 -0.4925
 9142SOL     OW38887   1.867   0.805   2.066  0.0219 -0.0836  0.1914
 9142SOL    HW138888   1.860   0.718   2.029 -2.7521  1.4677 -2.9337
 9142SOL    HW238889   1.887   0.791   2.159  0.4180 -0.5355  0.0344
 9143SOL     OW38890   2.881   0.082  16.658 -0.5535 -0.3176 -0.2508
 9143SOL    HW138891   2.822   0.150  16.626  0.5914  0.0751 -1.5414
 9143SOL    HW238892   2.947   0.136  16.702 -1.3203 -0.6401  1.2736
 9144SOL     OW38893   1.738   0.319  16.818 -0.3146  0.4253  0.0233
 9144SOL    HW138894   1.733   0.413  16.800  1.5181  0.7012  0.9079
 9144SOL    HW238895   1.756   0.280  16.733 -1.2005  2.0635 -0.9263
 9145SOL     OW38896   3.097   4.007   7.018  0.3289  0.2047  0.1137
 9145SOL    HW138897   3.068   4.034   7.105  0.4552 -0.7669  0.4592
 9145SOL    HW238898   3.048   4.070   6.964  1.3233  0.5984 -0.3487
 9146SOL     OW38899   0.053   3.266   6.375 -0.0051  0.5641  0.0568
 9146SOL    HW138900   0.120   3.198   6.378 -0.8524 -0.2411  0.9118
 9146SOL    HW238901   0.038   3.270   6.280 -2.8038  0.1483  0.4628
 9147SOL     OW38902   2.907   1.598   9.609 -0.2456  0.5085 -0.3955
 9147SOL    HW138903   2.942   1.524   9.658  3.0512  1.7904 -0.7944
 9147SOL    HW238904   2.907   1.667   9.676  1.1017  0.8310 -0.7320
 9148SOL     OW38905   2.131   0.504   6.160 -0.3319  0.3597  0.0659
 9148SOL    HW138906   2.081   0.555   6.097 -1.5288  0.0922  0.7882
 9148SOL    HW238907   2.058   0.462   6.206 -0.0306 -0.3410 -0.0906
 9149SOL     OW38908   2.605   0.108   3.936 -0.1321 -0.4319  0.0958
 9149SOL    HW138909   2.671   0.165   3.974 -0.4617 -1.6145  2.4314
 9149SOL    HW238910   2.654   0.083   3.858  0.7080 -0.6453  0.7008
 9150SOL     OW38911   1.981   4.262   6.564 -0.3737  0.1627 -0.0171
 9150SOL    HW138912   1.970   4.201   6.491 -0.9397  0.5713 -0.2671
 9150SOL    HW238913   2.029   4.204   6.623 -2.8153 -0.5435  1.2764
 9151SOL     OW38914   2.643   3.699   2.378 -0.6393  0.9361  0.4341
 9151SOL    HW138915   2.632   3.754   2.455  0.0670  1.3827  0.2128
 9151SOL    HW238916   2.569   3.735   2.328  0.7024 -1.3949 -3.2811
 9152SOL     OW38917   1.832   3.863   0.441  0.4208 -0.2447 -0.0936
 9152SOL    HW138918   1.762   3.909   0.487 -1.6672 -1.8093 -1.7355
 9152SOL    HW238919   1.842   3.918   0.363  0.3462  0.2210  0.2218
 9153SOL     OW38920   0.251   4.495  17.382  0.2834 -0.3625 -0.7134
 9153SOL    HW138921   0.340   4.472  17.408 -0.1908 -0.1437  1.1007
 9153SOL    HW238922   0.282   4.571  17.334 -1.4455  0.2949 -0.7897
 9154SOL     OW38923   0.924   0.881   6.621 -0.1133  0.0960  0.3147
 9154SOL    HW138924   0.833   0.855   6.630 -0.3673  1.0551  0.5537
 9154SOL    HW238925   0.955   0.836   6.699  0.2354 -0.1981  0.0073
 9155SOL     OW38926   4.369   2.633   3.883  0.1866 -0.1491 -0.9006
 9155SOL    HW138927   4.329   2.717   3.863  2.4514  1.2551  0.5079
 9155SOL    HW238928   4.383   2.635   3.978  1.8917 -0.8894 -1.1364
 9156SOL     OW38929   4.059   2.375   9.034 -0.1061 -0.3266  0.0980
 9156SOL    HW138930   3.974   2.367   9.077  0.5461 -1.2044  1.2449
 9156SOL    HW238931   4.118   2.306   9.064 -2.1268 -1.2498  1.9328
 9157SOL     OW38932   1.133   3.477   9.160  0.2871  0.0361  0.3771
 9157SOL    HW138933   1.084   3.468   9.242 -0.1973  1.7317  0.2768
 9157SOL    HW238934   1.223   3.475   9.193  0.1259 -0.9949  0.7599
 9158SOL     OW38935   0.295   3.748  11.837 -0.3056 -0.5124 -0.1833
 9158SOL    HW138936   0.266   3.803  11.764  1.0122  0.2366 -0.1334
 9158SOL    HW238937   0.363   3.700  11.790  0.2426  0.8067 -0.7382
 9159SOL     OW38938   0.651   4.661   1.012 -0.5957  0.5070 -0.0314
 9159SOL    HW138939   0.640   4.679   1.105 -0.0606 -2.5065  0.6032
 9159SOL    HW238940   0.735   4.615   1.005 -0.2759  1.1729 -0.5960
 9160SOL     OW38941   1.116   0.981  17.556 -0.1887  0.3987 -0.0097
 9160SOL    HW138942   1.196   0.952  17.600 -0.9472 -1.6855  0.0277
 9160SOL    HW238943   1.082   0.897  17.524  1.0097  0.1598 -0.6508
 9161SOL     OW38944   0.925   1.888   2.268 -0.4345  0.6854  0.1198
 9161SOL    HW138945   0.973   1.941   2.205 -0.0310  0.0017 -0.1396
 9161SOL    HW238946   0.839   1.930   2.266 -0.8514 -0.2441 -1.1555
 9162SOL     OW38947   2.717   4.079  15.664  0.4997  0.0393  0.0818
 9162SOL    HW138948   2.628   4.116  15.671  0.1929 -0.9250  1.2438
 9162SOL    HW238949   2.758   4.113  15.744 -0.6207  0.0977  0.6400
 9163SOL     OW38950   3.913   2.769   0.802 -0.0365 -0.2628  0.0500
 9163SOL    HW138951   3.881   2.810   0.882  0.5548 -2.9950  1.6889
 9163SOL    HW238952   3.823   2.774   0.768  0.0944 -1.7166 -0.4935
 9164SOL     OW38953   3.025   0.638   6.579  0.1381  0.0217 -0.1844
 9164SOL    HW138954   3.000   0.547   6.560  0.2617  0.0890 -0.6446
 9164SOL    HW238955   2.996   0.682   6.500  1.3018 -1.4575 -1.4474
 9165SOL     OW38956   2.841   0.288   7.993  0.2301 -0.0088 -0.5096
 9165SOL    HW138957   2.873   0.364   8.042 -0.5719 -0.9853  1.5199
 9165SOL    HW238958   2.838   0.225   8.064  0.5527  0.1599 -0.3460
 9166SOL     OW38959   4.205   1.177   3.681 -0.2689  0.1555 -0.0816
 9166SOL    HW138960   4.229   1.099   3.631 -0.9978  1.0147 -1.7750
 9166SOL    HW238961   4.287   1.226   3.673 -0.6187  0.9689  1.3615
 9167SOL     OW38962   0.794   3.095   8.309 -0.0819  0.4330 -0.5263
 9167SOL    HW138963   0.808   3.024   8.246  1.3065  0.8465 -0.6753
 9167SOL    HW238964   0.800   3.046   8.391  2.4127  0.6736 -0.5609
 9168SOL     OW38965   3.900   4.329   3.709 -0.7235  0.0604  0.5065
 9168SOL    HW138966   3.812   4.310   3.740 -1.0947  2.0990  0.6543
 9168SOL    HW238967   3.898   4.284   3.625 -2.1011  1.3809 -0.1489
 9169SOL     OW38968   3.451   2.656   7.421 -0.1769 -0.2864  0.4755
 9169SOL    HW138969   3.452   2.605   7.341 -0.4371  0.7531 -0.1857
 9169SOL    HW238970   3.500   2.588   7.468 -0.0519 -1.5188 -1.4398
 9170SOL     OW38971   0.834   1.689   4.315  0.2365  0.0347 -0.3188
 9170SOL    HW138972   0.751   1.734   4.301  0.4619  0.8247  0.9163
 9170SOL    HW238973   0.818   1.617   4.254  0.8706  0.2987 -0.7933
 9171SOL     OW38974   3.700   3.134  14.694  0.0228  0.2971  0.4844
 9171SOL    HW138975   3.674   3.078  14.621  0.3602 -0.4403  0.9236
 9171SOL    HW238976   3.745   3.204  14.647  0.2082 -0.4517 -0.4442
 9172SOL     OW38977   1.975   3.354   7.431  0.8153  1.1784 -0.5442
 9172SOL    HW138978   1.929   3.271   7.448 -2.3318  2.9408 -0.3510
 9172SOL    HW238979   1.901   3.413   7.449 -0.0987 -0.2939  0.4761
 9173SOL     OW38980   0.510   3.033   2.826 -0.0381  0.1144  0.8780
 9173SOL    HW138981   0.557   3.020   2.744  1.6798  2.5488  1.4775
 9173SOL    HW238982   0.576   3.071   2.883 -0.5922  1.2678  0.7582
 9174SOL     OW38983   0.801   2.716   0.526 -0.3009  0.0233 -0.0362
 9174SOL    HW138984   0.855   2.735   0.449  1.2018 -1.4492  0.6496
 9174SOL    HW238985   0.756   2.799   0.540  0.2496  0.6118 -1.8343
 9175SOL     OW38986   4.680   3.718   7.499  0.0807 -0.4419  0.3071
 9175SOL    HW138987   4.644   3.705   7.587 -0.7186  2.1350  0.3663
 9175SOL    HW238988   0.027   3.655   7.491  0.5747  0.4563 -2.4237
 9176SOL     OW38989   1.659   0.575   1.733 -0.1097 -0.4812 -0.3740
 9176SOL    HW138990   1.607   0.591   1.654 -1.5211 -2.1018  0.2238
 9176SOL    HW238991   1.707   0.494   1.717 -0.9593 -0.7119 -1.7177
 9177SOL     OW38992   2.585   1.882   9.229  0.3364  0.3680 -0.1360
 9177SOL    HW138993   2.673   1.884   9.268  0.4728  0.7620 -0.4613
 9177SOL    HW238994   2.600   1.812   9.165 -2.4121  0.2816 -0.6585
 9178SOL     OW38995   0.038   0.096   1.066 -0.3739 -0.4237 -0.0594
 9178SOL    HW138996   4.699   0.122   0.999  0.5604  0.9132 -0.4288
 9178SOL    HW238997   0.011   0.149   1.141 -1.3657  0.1676 -0.8313
 9179SOL     OW38998   0.737   1.071   4.280  0.4874  0.6739  0.5984
 9179SOL    HW138999   0.797   1.143   4.299  1.7679 -0.2826  0.1708
 9179SOL    HW239000   0.702   1.040   4.363 -1.4835  1.1567 -0.0528
 9180SOL     OW39001   1.520   4.247   6.971 -0.2858  0.2856 -0.2150
 9180SOL    HW139002   1.544   4.340   6.972 -1.3022  0.5515  0.8725
 9180SOL    HW239003   1.583   4.212   7.034 -1.3275  2.6535  2.1750
 9181SOL     OW39004   0.433   1.602   5.558  0.0957  0.5290  0.4528
 9181SOL    HW139005   0.409   1.532   5.498  2.1332  0.5669 -0.4240
 9181SOL    HW239006   0.357   1.594   5.615 -1.1421  1.9557 -0.9899
 9182SOL     OW39007   1.813   3.850   4.788 -0.3978  0.2564 -0.3373
 9182SOL    HW139008   1.843   3.929   4.743  2.2193 -0.3226  0.3644
 9182SOL    HW239009   1.847   3.787   4.723 -1.3758 -0.7703  0.1530
 9183SOL     OW39010   1.212   3.240  13.460 -0.2562 -0.0568 -0.1416
 9183SOL    HW139011   1.229   3.150  13.432  0.3411  0.4726 -1.5120
 9183SOL    HW239012   1.272   3.237  13.535 -1.3007 -0.9745  0.6614
 9184SOL     OW39013   0.684   0.967   4.973  0.1442  0.0398 -0.1050
 9184SOL    HW139014   0.737   0.987   5.050 -1.6922  2.0158  0.6523
 9184SOL    HW239015   0.655   0.883   5.008  0.6358  0.0100  0.2242
 9185SOL     OW39016   3.311   2.713   6.505 -0.2076 -0.6923 -0.1195
 9185SOL    HW139017   3.340   2.629   6.470 -3.3713 -2.8346  2.3551
 9185SOL    HW239018   3.257   2.680   6.577 -0.2210 -2.3894 -0.9017
 9186SOL     OW39019   3.941   0.498   3.047  0.2713  0.2771  0.0806
 9186SOL    HW139020   4.002   0.521   3.117 -0.0575  1.0040  0.1276
 9186SOL    HW239021   3.998   0.476   2.973  0.9746  2.9422 -0.1470
 9187SOL     OW39022   1.099   3.399   6.685  0.0268 -0.1195 -0.3705
 9187SOL    HW139023   1.049   3.425   6.763  1.2215 -0.2047  0.4260
 9187SOL    HW239024   1.191   3.416   6.706 -0.6633 -0.5048  2.9830
 9188SOL     OW39025   0.973   1.156   7.948 -0.1193 -0.1801 -0.0482
 9188SOL    HW139026   1.038   1.105   7.996  0.7858  1.1278  0.0974
 9188SOL    HW239027   0.997   1.246   7.970  0.6483 -0.2974 -0.4192
 9189SOL     OW39028   1.896   1.135   1.347  0.0579  0.4668 -0.3057
 9189SOL    HW139029   1.974   1.163   1.298  0.3275  0.0747 -0.0929
 9189SOL    HW239030   1.927   1.052   1.382  4.1184  2.4894  0.9572
 9190SOL     OW39031   3.397   0.410  16.701  0.0493  0.3190  0.1034
 9190SOL    HW139032   3.472   0.464  16.674  1.6958 -0.6042  2.7748
 9190SOL    HW239033   3.403   0.336  16.640  1.7959  0.9873 -0.5306
 9191SOL     OW39034   2.572   4.331   9.320  0.3340  0.1310  0.8021
 9191SOL    HW139035   2.617   4.311   9.402  0.3743  1.9193  1.2194
 9191SOL    HW239036   2.541   4.244   9.294  0.7431 -0.6275  2.7831
 9192SOL     OW39037   0.229   2.750   6.510 -0.7456  0.5830  0.4045
 9192SOL    HW139038   0.247   2.812   6.581 -0.1150  2.9583 -1.8407
 9192SOL    HW239039   0.312   2.763   6.465 -0.1014 -1.4152  1.0099
 9193SOL     OW39040   2.322   0.969   8.836  0.0732 -0.3410  0.7353
 9193SOL    HW139041   2.281   0.926   8.911 -1.7808 -0.8309 -0.5615
 9193SOL    HW239042   2.365   1.042   8.881  0.6458 -0.6626  0.7057
 9194SOL     OW39043   1.465   2.036   7.940 -0.0806 -0.0774 -0.0842
 9194SOL    HW139044   1.530   1.991   7.994 -0.1912  2.0529  1.8404
 9194SOL    HW239045   1.500   2.025   7.852 -1.3827  0.3464 -0.6547
 9195SOL     OW39046   3.320   3.004   4.625  0.7501  0.1095 -0.0967
 9195SOL    HW139047   3.354   3.015   4.536  2.0075  0.1199  0.3849
 9195SOL    HW239048   3.338   3.090   4.663  0.2611 -0.2965  1.0313
 9196SOL     OW39049   2.410   2.153   9.626 -0.0087  0.1070 -0.2196
 9196SOL    HW139050   2.377   2.078   9.576 -1.3617  1.1566 -0.8698
 9196SOL    HW239051   2.490   2.171   9.576  0.2423  0.5535  0.3533
 9197SOL     OW39052   2.156   2.310  10.020 -0.2117  0.5069 -0.3388
 9197SOL    HW139053   2.135   2.286  10.110  0.8058  0.7570 -0.0426
 9197SOL    HW239054   2.194   2.233   9.977 -2.4121  0.6268 -2.4915
 9198SOL     OW39055   0.330   3.965   1.439 -0.3376  0.0208  0.1346
 9198SOL    HW139056   0.389   3.988   1.368 -0.8721  1.7999  0.2724
 9198SOL    HW239057   0.384   3.980   1.517  1.5453 -1.9604 -0.8009
 9199SOL     OW39058   3.183   1.715   0.570  0.6228  0.2639 -0.3193
 9199SOL    HW139059   3.135   1.725   0.653 -1.8667 -0.9286 -1.6157
 9199SOL    HW239060   3.275   1.735   0.586  0.2034  0.5573  1.7105
 9200SOL     OW39061   3.024   3.805  13.657  0.3841 -0.1419  0.7362
 9200SOL    HW139062   3.019   3.823  13.751  1.7950  0.8384  0.6232
 9200SOL    HW239063   2.930   3.812  13.641  0.4483 -0.7088  0.1092
 9201SOL     OW39064   0.248   2.750   4.539 -0.0997 -0.0283 -0.1386
 9201SOL    HW139065   0.161   2.784   4.558 -1.2685 -2.0073 -1.8613
 9201SOL    HW239066   0.279   2.734   4.628  1.5710 -2.2711 -1.1073
 9202SOL     OW39067   2.444   3.117  13.028 -0.4213  0.6318 -0.0972
 9202SOL    HW139068   2.522   3.100  12.974 -0.9813 -1.4554 -0.2569
 9202SOL    HW239069   2.383   3.057  12.985  0.3535 -2.1864  2.7085
 9203SOL     OW39070   2.383   3.469   2.437 -0.0707  0.0147  0.0167
 9203SOL    HW139071   2.321   3.512   2.379 -2.3022  0.5041  2.8382
 9203SOL    HW239072   2.403   3.528   2.509  0.6367 -0.2355  0.0258
 9204SOL     OW39073   3.480   2.963   3.011  0.1952 -0.0307 -0.0513
 9204SOL    HW139074   3.547   2.917   3.062  1.2639 -1.8089 -3.0748
 9204SOL    HW239075   3.496   3.055   3.031 -1.4647  0.1593  0.3984
 9205SOL     OW39076   3.089   4.089  10.147 -0.0649 -0.2732 -0.4843
 9205SOL    HW139077   3.053   4.173  10.117  0.2937 -0.7987 -2.4325
 9205SOL    HW239078   3.057   4.088  10.237  1.2115  1.4655 -0.0096
 9206SOL     OW39079   3.604   2.469  16.644 -0.6229 -0.3776  0.4767
 9206SOL    HW139080   3.568   2.431  16.563  0.0775  2.0998 -1.0077
 9206SOL    HW239081   3.596   2.561  16.618 -2.9944 -0.9617 -0.8839
 9207SOL     OW39082   1.648   0.754   4.363 -0.6724  0.6515 -0.2051
 9207SOL    HW139083   1.692   0.674   4.391 -0.7770  1.4257  2.1356
 9207SOL    HW239084   1.561   0.714   4.360 -0.2453 -0.4290  2.1564
 9208SOL     OW39085   2.239   2.746  11.510 -0.4180  0.1007 -0.4058
 9208SOL    HW139086   2.264   2.814  11.572 -2.3137  1.3931 -1.0756
 9208SOL    HW239087   2.303   2.678  11.531 -0.7783  0.2735  1.2588
 9209SOL     OW39088   1.811   2.062  16.814 -0.2243 -0.7710  0.3545
 9209SOL    HW139089   1.789   2.030  16.726 -0.2828 -1.3708  0.5892
 9209SOL    HW239090   1.767   1.998  16.870 -0.5688  0.9622  2.0548
 9210SOL     OW39091   3.581   0.988   7.374  0.0575 -0.5309  0.3288
 9210SOL    HW139092   3.598   0.955   7.286 -0.6709  1.2603 -0.4624
 9210SOL    HW239093   3.665   0.966   7.414  0.5197 -1.1984 -1.0105
 9211SOL     OW39094   4.039   0.957  13.512 -0.0812  0.3494  0.3784
 9211SOL    HW139095   3.983   0.957  13.435  3.0593  0.3816 -1.9345
 9211SOL    HW239096   4.044   0.862  13.524 -2.3104  0.2009  0.0796
 9212SOL     OW39097   4.202   3.239  16.942  0.5113 -0.3244  0.1531
 9212SOL    HW139098   4.122   3.186  16.951  0.1127  0.6452  2.4126
 9212SOL    HW239099   4.263   3.184  16.990 -0.5476 -1.0414  0.6847
 9213SOL     OW39100   4.064   2.458  14.145  0.3501 -0.1903 -0.4753
 9213SOL    HW139101   4.105   2.416  14.069 -0.2617 -1.2925 -0.1983
 9213SOL    HW239102   3.982   2.481  14.103  0.3427 -1.7283 -1.3299
 9214SOL     OW39103   1.935   2.747   2.944 -0.1300 -0.0590 -0.6304
 9214SOL    HW139104   1.908   2.663   2.981  0.5028  0.0281  0.0180
 9214SOL    HW239105   1.975   2.792   3.018 -1.7848 -0.3034  0.4406
 9215SOL     OW39106   3.661   4.139  11.936 -1.0077 -0.2439 -0.0380
 9215SOL    HW139107   3.691   4.051  11.959  0.4753 -0.0953 -1.5051
 9215SOL    HW239108   3.650   4.171  12.026  1.0193  0.5857 -0.1063
 9216SOL     OW39109   4.356   3.357   5.201 -0.1374 -0.3394  0.0199
 9216SOL    HW139110   4.450   3.367   5.185  0.2819 -2.9545  0.9335
 9216SOL    HW239111   4.370   3.282   5.259 -2.7876 -1.1314 -0.3751
 9217SOL     OW39112   0.872   1.511   5.079  0.2513 -0.1217 -0.1687
 9217SOL    HW139113   0.900   1.602   5.077 -2.1051  0.5776 -0.2518
 9217SOL    HW239114   0.912   1.471   5.002 -0.4896 -1.6676  0.2367
 9218SOL     OW39115   4.563   2.905   2.736 -0.3138 -0.2807 -0.1916
 9218SOL    HW139116   4.621   2.882   2.664  2.6634  1.5496  1.6526
 9218SOL    HW239117   4.623   2.948   2.796  0.1422  0.0175 -0.8632
 9219SOL     OW39118   2.613   4.216   5.928  0.0353 -0.4195  0.5759
 9219SOL    HW139119   2.600   4.149   5.862 -2.2121 -1.1824  1.7907
 9219SOL    HW239120   2.673   4.276   5.884 -0.8625 -0.5415 -0.8101
 9220SOL     OW39121   0.343   4.182   3.134  0.4678 -0.5132 -0.3813
 9220SOL    HW139122   0.416   4.244   3.127  0.3911 -0.5794 -1.7910
 9220SOL    HW239123   0.352   4.141   3.048  1.6502  0.5313 -0.7624
 9221SOL     OW39124   1.218   1.797  10.596  0.2430  0.1035  0.0073
 9221SOL    HW139125   1.132   1.837  10.584  0.0281 -0.8223 -1.5173
 9221SOL    HW239126   1.211   1.725  10.533 -2.3056 -0.9025  1.4086
 9222SOL     OW39127   0.138   1.171   9.340  0.5749 -0.3754  0.6130
 9222SOL    HW139128   0.122   1.082   9.310 -1.3617  0.2297 -0.1439
 9222SOL    HW239129   0.232   1.188   9.335  0.6907 -1.4033 -0.5901
 9223SOL     OW39130   3.512   0.784   6.038  0.0767  0.1422  0.7533
 9223SOL    HW139131   3.460   0.767   5.960  0.7549 -0.3217  0.3979
 9223SOL    HW239132   3.440   0.816   6.092  1.2302  0.6983  1.9683
 9224SOL     OW39133   2.059   3.291   0.595  0.5218 -0.1701 -0.5799
 9224SOL    HW139134   2.062   3.289   0.691  2.5847 -1.2378 -0.6766
 9224SOL    HW239135   1.969   3.321   0.581  0.0692 -0.9935  0.5659
 9225SOL     OW39136   1.910   3.969  14.411 -0.3813  0.3202 -0.1258
 9225SOL    HW139137   1.853   3.977  14.488 -1.6990 -0.7618 -0.9760
 9225SOL    HW239138   1.872   4.045  14.366  0.1941 -0.5439 -2.0811
 9226SOL     OW39139   1.868   0.995   5.253 -0.7819 -0.2124 -0.1995
 9226SOL    HW139140   1.921   1.065   5.290 -2.3955  0.9876 -0.1877
 9226SOL    HW239141   1.891   0.921   5.310  1.4342 -0.0605 -0.9008
 9227SOL     OW39142   0.631   2.965  15.270  0.3775 -0.2285  0.0973
 9227SOL    HW139143   0.545   2.987  15.235  0.0521 -0.1998  0.8973
 9227SOL    HW239144   0.623   2.875  15.304 -0.8217  0.3336  1.2969
 9228SOL     OW39145   1.549   1.527  17.400  0.7060  0.2302 -0.3460
 9228SOL    HW139146   1.595   1.448  17.374  0.6769 -0.1130  0.6386
 9228SOL    HW239147   1.486   1.529  17.328 -1.1948 -0.4436  1.2676
 9229SOL     OW39148   3.293   4.110  16.398 -0.0394  0.3373  0.0605
 9229SOL    HW139149   3.304   4.133  16.490  0.3764 -0.6379  0.2549
 9229SOL    HW239150   3.309   4.191  16.350 -0.6917  1.6900  2.1277
 9230SOL     OW39151   1.459   3.228   3.406  0.8451 -0.1920  0.7160
 9230SOL    HW139152   1.458   3.166   3.332 -0.0593  0.9417 -0.2221
 9230SOL    HW239153   1.522   3.288   3.365 -1.7816  2.7660  1.0338
 9231SOL     OW39154   2.386   3.051   8.777  0.9765  0.2618  0.3902
 9231SOL    HW139155   2.365   3.134   8.733 -1.0662 -0.4053  0.1280
 9231SOL    HW239156   2.475   3.025   8.752  0.8708  2.5202 -2.2875
 9232SOL     OW39157   1.726   1.156   7.328  0.4795  0.3362  0.0761
 9232SOL    HW139158   1.795   1.219   7.353  0.1643  1.0095 -0.7528
 9232SOL    HW239159   1.654   1.219   7.318 -2.0897 -2.4750  1.1696
 9233SOL     OW39160   2.248   4.588   4.909 -0.0203 -0.1200  0.2890
 9233SOL    HW139161   2.331   4.578   4.956 -0.6522 -0.5094  1.3251
 9233SOL    HW239162   2.260   4.676   4.872 -0.5490 -1.0023 -1.9893
 9234SOL     OW39163   1.327   2.887   7.217 -0.3408 -0.0785  0.0519
 9234SOL    HW139164   1.416   2.890   7.182  0.1248 -0.2093  1.2176
 9234SOL    HW239165   1.309   2.981   7.223 -3.9968 -0.6456 -1.7367
 9235SOL     OW39166   0.972   0.651   4.501 -0.0986 -0.0354 -0.0494
 9235SOL    HW139167   1.044   0.712   4.483 -1.1122  1.2540  0.2425
 9235SOL    HW239168   1.018   0.569   4.517  0.8766 -0.0304 -2.7074
 9236SOL     OW39169   4.336   2.260   1.398  0.3417 -0.1275 -0.2525
 9236SOL    HW139170   4.381   2.233   1.319  2.4807 -0.9324  1.2587
 9236SOL    HW239171   4.344   2.183   1.453  1.8598  1.6866  2.0908
 9237SOL     OW39172   1.238   3.124   6.179 -0.2117 -0.3289  0.2473
 9237SOL    HW139173   1.191   3.170   6.110 -0.9341 -1.6478 -0.1295
 9237SOL    HW239174   1.172   3.132   6.248  0.4063 -0.5586  0.8695
 9238SOL     OW39175   1.958   1.015   0.613  0.6928  0.2169  0.3322
 9238SOL    HW139176   2.029   0.969   0.568 -0.4934 -1.0436 -0.2222
 9238SOL    HW239177   1.938   0.957   0.686  0.8779 -0.3918 -0.1028
 9239SOL     OW39178   0.541   0.133   4.527 -0.9346 -0.1649  0.3300
 9239SOL    HW139179   0.478   0.151   4.596 -0.6512  1.1591  0.2485
 9239SOL    HW239180   0.490   0.112   4.448 -2.0783  0.4028  0.9099
 9240SOL     OW39181   1.244   4.059  12.734 -0.0912 -0.3112  0.4338
 9240SOL    HW139182   1.174   4.115  12.768 -0.7604 -0.7716 -0.2187
 9240SOL    HW239183   1.262   4.102  12.650  2.5735 -0.9044  0.6829
 9241SOL     OW39184   2.420   4.431   6.690 -0.2159  0.3124  0.4652
 9241SOL    HW139185   2.347   4.466   6.741 -0.8147  1.1117 -0.9419
 9241SOL    HW239186   2.455   4.504   6.639  1.2666  0.3350  1.5212
 9242SOL     OW39187   2.526   3.306   9.716 -0.2950 -0.2948 -0.0249
 9242SOL    HW139188   2.498   3.250   9.788 -2.6784  0.8600 -0.0230
 9242SOL    HW239189   2.589   3.365   9.756 -0.0660 -0.5396 -0.0233
 9243SOL     OW39190   0.718   3.582   2.046  0.3379  0.5779 -0.6006
 9243SOL    HW139191   0.703   3.507   1.988 -0.8742  0.3874 -0.0296
 9243SOL    HW239192   0.652   3.566   2.113  0.5029  1.0062 -0.3312
 9244SOL     OW39193   4.463   2.026   6.214 -0.6578  0.2804  0.1920
 9244SOL    HW139194   4.398   2.094   6.231  0.5783  1.8417 -1.2921
 9244SOL    HW239195   4.535   2.050   6.271  0.0074 -0.3459 -0.3733
 9245SOL     OW39196   0.217   2.773   7.473  0.5384  0.4818 -0.4639
 9245SOL    HW139197   0.285   2.833   7.444 -1.4519  2.4400 -1.0176
 9245SOL    HW239198   0.229   2.756   7.566  0.5279 -0.9018 -0.7099
 9246SOL     OW39199   3.306   0.299   5.134  0.2829 -0.1566 -0.1351
 9246SOL    HW139200   3.390   0.307   5.089  0.8262 -0.8914  0.7685
 9246SOL    HW239201   3.248   0.263   5.067 -1.0066  0.1372  0.8279
 9247SOL     OW39202   4.583   1.015  12.689  0.6884  0.0258 -0.3854
 9247SOL    HW139203   4.550   0.932  12.725  1.0208 -0.1106 -0.3979
 9247SOL    HW239204   4.524   1.027  12.614 -3.0746 -1.6158  2.2917
 9248SOL     OW39205   2.318   0.510  11.651  0.3281 -0.2843  0.1343
 9248SOL    HW139206   2.336   0.552  11.735  0.0442 -0.4449  0.2754
 9248SOL    HW239207   2.400   0.461  11.647 -0.5513 -1.7529  0.1310
 9249SOL     OW39208   1.271   4.316   9.134  0.5622  0.3753 -0.0062
 9249SOL    HW139209   1.205   4.383   9.117  0.7427  0.7501  0.7849
 9249SOL    HW239210   1.245   4.262   9.059  1.2683 -1.1214  0.8068
 9250SOL     OW39211   2.327   3.484   6.987 -0.2590  0.4617  0.6166
 9250SOL    HW139212   2.302   3.576   6.985 -1.7486  0.0405 -0.5196
 9250SOL    HW239213   2.386   3.468   6.913 -0.7416  1.6851 -0.0370
 9251SOL     OW39214   1.576   3.018   4.053 -0.1693  0.6620  0.0391
 9251SOL    HW139215   1.601   3.101   4.013 -0.8555  1.5612  1.4794
 9251SOL    HW239216   1.489   3.001   4.017  1.0516  0.5733 -2.8890
 9252SOL     OW39217   1.020   2.664   8.000  0.3225 -0.9474 -0.4520
 9252SOL    HW139218   0.986   2.627   8.082  2.7778 -1.9305  0.1025
 9252SOL    HW239219   1.089   2.719   8.035 -0.2576  0.4544 -1.5186
 9253SOL     OW39220   0.821   4.565   6.684 -0.1029  0.7740 -0.5483
 9253SOL    HW139221   0.899   4.512   6.667  0.0708  0.9428 -0.2650
 9253SOL    HW239222   0.803   4.589   6.593 -0.9781  1.0450 -0.3121
 9254SOL     OW39223   2.663   0.613   2.613  0.3593  0.0360 -0.4990
 9254SOL    HW139224   2.673   0.518   2.621 -1.6172 -0.1475 -0.3967
 9254SOL    HW239225   2.611   0.623   2.693 -0.3730  1.4431 -1.1541
 9255SOL     OW39226   4.702   2.134   1.307  0.2234 -0.6947 -0.6756
 9255SOL    HW139227   4.617   2.097   1.286 -0.3080 -0.0546  0.3659
 9255SOL    HW239228   4.671   2.222   1.284  1.0066 -0.7307 -1.8743
 9256SOL     OW39229   2.012   1.650  12.277 -0.1630  0.0112  0.0447
 9256SOL    HW139230   2.011   1.576  12.338 -2.0641 -0.0420 -0.0657
 9256SOL    HW239231   2.063   1.605  12.209 -1.7312  1.4847 -2.1199
 9257SOL     OW39232   1.753   3.888   6.056 -0.1845 -0.5624 -0.1551
 9257SOL    HW139233   1.773   3.812   6.111 -1.0163  0.9060  2.1669
 9257SOL    HW239234   1.698   3.848   5.989  0.0865  2.1582 -2.0034
 9258SOL     OW39235   2.194   4.054  11.376 -0.0229 -0.4966 -0.5419
 9258SOL    HW139236   2.249   4.016  11.308  0.5824 -2.2831  0.9547
 9258SOL    HW239237   2.150   4.126  11.330 -0.0653  1.6146  2.7876
 9259SOL     OW39238   2.902   1.091   3.190  0.5732 -0.0566 -0.3322
 9259SOL    HW139239   2.870   1.073   3.278  1.0490 -1.6180 -0.4897
 9259SOL    HW239240   2.821   1.121   3.147  1.8278  4.1029  0.1422
 9260SOL     OW39241   1.937   0.061   4.701 -0.1023 -0.2795 -0.1259
 9260SOL    HW139242   2.011   0.071   4.641 -0.9366 -0.6443 -1.2296
 9260SOL    HW239243   1.950   0.139   4.755 -2.0640 -0.7917  1.1024
 9261SOL     OW39244   0.590   2.762  14.026 -0.4201 -0.1540  0.1375
 9261SOL    HW139245   0.578   2.758  13.931 -0.1882  0.5916  0.0790
 9261SOL    HW239246   0.563   2.852  14.045 -0.9358 -0.6890  1.9611
 9262SOL     OW39247   4.205   4.613   1.473 -0.3625 -0.0320 -0.4769
 9262SOL    HW139248   4.273   4.572   1.419 -0.1964 -1.3278  0.7283
 9262SOL    HW239249   4.218   4.705   1.450 -0.7372 -0.1788 -1.2841
 9263SOL     OW39250   3.404   1.028  17.203  0.0963  0.4914 -0.2076
 9263SOL    HW139251   3.419   1.039  17.109  3.0315  1.2921  0.3518
 9263SOL    HW239252   3.353   0.947  17.210 -0.2644  0.8660  1.6607
 9264SOL     OW39253   1.267   3.040  17.533 -0.0819 -0.4723  0.4472
 9264SOL    HW139254   1.249   2.955  17.573 -1.9447 -0.9507 -1.3616
 9264SOL    HW239255   1.205   3.026  17.461  1.5467 -1.7870 -0.7165
 9265SOL     OW39256   0.251   3.393  11.350  0.0953 -0.2330 -0.4416
 9265SOL    HW139257   0.340   3.387  11.384 -1.0211  1.5291  2.8183
 9265SOL    HW239258   0.264   3.436  11.265 -0.8216 -1.2689 -1.0956
 9266SOL     OW39259   2.826   4.544   5.034 -0.1428  0.4964 -0.4044
 9266SOL    HW139260   2.811   4.599   4.957 -1.2541 -0.1041 -0.6088
 9266SOL    HW239261   2.747   4.491   5.022 -0.1725  0.4248  0.1120
 9267SOL     OW39262   2.623   0.115   6.734 -0.1188  0.1527  0.1399
 9267SOL    HW139263   2.595   0.053   6.802  1.3120 -1.3685 -0.6728
 9267SOL    HW239264   2.681   0.172   6.785 -2.4107  2.0039  0.6791
 9268SOL     OW39265   2.505   3.242   3.758 -1.1779  0.2561  0.0475
 9268SOL    HW139266   2.494   3.282   3.844  1.1842  3.0459 -0.9383
 9268SOL    HW239267   2.458   3.302   3.700 -2.4092 -0.2805  0.5050
 9269SOL     OW39268   2.893   4.135   6.888  0.0489 -0.6231 -0.1209
 9269SOL    HW139269   2.836   4.082   6.943  2.1656 -1.4176  1.2897
 9269SOL    HW239270   2.831   4.137   6.814  0.1596  3.5645 -0.1311
 9270SOL     OW39271   1.148   3.183   4.538  0.1606 -0.1327  0.4358
 9270SOL    HW139272   1.130   3.188   4.631 -2.5502  0.8861 -0.1454
 9270SOL    HW239273   1.080   3.130   4.496 -0.0383  0.1640  0.3817
 9271SOL     OW39274   1.523   0.213  15.510 -0.0203 -0.7866  0.1703
 9271SOL    HW139275   1.616   0.190  15.506  0.3760  0.5833  1.6848
 9271SOL    HW239276   1.519   0.300  15.549 -0.1910  0.2585 -2.2478
 9272SOL     OW39277   4.702   0.546   2.259 -0.3451  0.0815 -0.1096
 9272SOL    HW139278   4.654   0.463   2.254 -3.2930  1.8228 -0.4010
 9272SOL    HW239279   0.038   0.514   2.326 -0.0502  0.2039 -0.3180
 9273SOL     OW39280   2.699   2.672   8.569 -0.2652 -0.0279  0.4391
 9273SOL    HW139281   2.614   2.676   8.612 -1.1817  3.0728 -1.6449
 9273SOL    HW239282   2.759   2.700   8.638 -2.6014  1.9631  1.6368
 9274SOL     OW39283   0.275   2.476   6.534 -0.4591 -0.0293 -0.0760
 9274SOL    HW139284   0.274   2.571   6.529 -1.0870  0.0856  2.0572
 9274SOL    HW239285   0.360   2.457   6.493 -1.4846 -0.5421 -1.9139
 9275SOL     OW39286   0.905   2.691   1.538  1.2920  0.2078  0.1019
 9275SOL    HW139287   0.933   2.605   1.571 -0.5383  0.4251  2.2708
 9275SOL    HW239288   0.981   2.745   1.557  0.3726  0.8947  1.8451
 9276SOL     OW39289   0.320   1.887   9.883  0.1648 -0.1810  0.2720
 9276SOL    HW139290   0.316   1.881   9.787  0.7438  2.2925  0.0843
 9276SOL    HW239291   0.405   1.843   9.892  0.3792 -0.0222 -0.9346
 9277SOL     OW39292   2.951   2.477   2.268  0.3240  0.2097 -0.4442
 9277SOL    HW139293   2.998   2.412   2.215  1.8339  2.6434 -2.0529
 9277SOL    HW239294   3.016   2.490   2.337  0.0642 -1.9793  0.2175
 9278SOL     OW39295   3.759   1.111   6.560 -0.0992 -0.1650 -0.1248
 9278SOL    HW139296   3.750   1.092   6.466  0.9000 -2.0057  0.1495
 9278SOL    HW239297   3.670   1.141   6.575 -1.3525 -2.9682 -1.8785
 9279SOL     OW39298   3.369   2.353   9.569 -0.2598 -1.1613  0.1585
 9279SOL    HW139299   3.455   2.395   9.570 -0.0074 -1.6770  0.5874
 9279SOL    HW239300   3.353   2.320   9.658  0.6649 -0.9850  0.3929
 9280SOL     OW39301   2.968   0.175  14.852 -0.2032 -0.1025  0.0318
 9280SOL    HW139302   2.942   0.261  14.885 -0.1564  0.9963 -2.7425
 9280SOL    HW239303   3.063   0.177  14.857 -0.1387 -2.0464 -0.3029
 9281SOL     OW39304   3.576   2.325   5.186  0.3606 -0.0907 -0.6326
 9281SOL    HW139305   3.521   2.341   5.110 -0.3120 -1.0812 -0.3565
 9281SOL    HW239306   3.530   2.357   5.263  0.0451 -3.0089  0.4016
 9282SOL     OW39307   0.031   3.337   7.159 -0.3856 -0.2406  0.5695
 9282SOL    HW139308   0.044   3.412   7.100  0.0547 -0.2027  0.7151
 9282SOL    HW239309   4.690   3.367   7.221 -1.2475  0.5619 -0.7340
 9283SOL     OW39310   2.634   3.797  16.751  0.4226 -0.3144 -0.0676
 9283SOL    HW139311   2.595   3.885  16.753 -0.3296 -0.6639  0.5597
 9283SOL    HW239312   2.584   3.765  16.826  2.1257  1.4242  1.8078
 9284SOL     OW39313   4.696   2.377   5.416  0.4635  0.1569 -0.5943
 9284SOL    HW139314   4.667   2.286   5.408 -2.3188  1.1957 -2.2600
 9284SOL    HW239315   4.615   2.427   5.429 -0.6001 -1.5719 -0.4878
 9285SOL     OW39316   1.890   2.563   3.607  0.6787 -0.0940 -0.0495
 9285SOL    HW139317   1.930   2.648   3.589  1.8009 -0.7274 -0.5489
 9285SOL    HW239318   1.805   2.579   3.567  1.4351  1.4607 -1.0055
 9286SOL     OW39319   2.095   2.586   9.709  0.0629  0.4574  0.4980
 9286SOL    HW139320   2.155   2.602   9.782 -0.6342 -0.1478  1.1975
 9286SOL    HW239321   2.148   2.519   9.667 -0.1262  0.4859  0.2139
 9287SOL     OW39322   2.577   2.471   9.564 -0.1523  0.4722 -0.3882
 9287SOL    HW139323   2.614   2.433   9.484  0.1171 -0.6282  0.2738
 9287SOL    HW239324   2.553   2.562   9.544  3.1616  1.7723  1.4712
 9288SOL     OW39325   0.036   3.718  17.624  0.6337 -0.2086  0.7231
 9288SOL    HW139326   4.684   3.732  17.568  0.0874 -0.2983  1.4506
 9288SOL    HW239327   0.020   3.767   0.005  0.0224 -0.6864  0.8879
 9289SOL     OW39328   1.669   2.133   7.242  0.4262  0.0536 -0.2879
 9289SOL    HW139329   1.580   2.102   7.231  1.0432 -1.3918 -1.1940
 9289SOL    HW239330   1.705   2.045   7.247  2.4164  0.9165  0.9490
 9290SOL     OW39331   1.798   2.438   4.661  0.0501 -0.4637  0.3485
 9290SOL    HW139332   1.761   2.475   4.741  0.3340  2.5663 -0.8907
 9290SOL    HW239333   1.763   2.349   4.662  0.8328 -0.7621  1.1494
 9291SOL     OW39334   0.855   0.810   4.731 -0.3427  0.2116 -0.0640
 9291SOL    HW139335   0.914   0.836   4.660 -1.0410  0.5731 -0.5175
 9291SOL    HW239336   0.862   0.891   4.782 -0.4309 -1.4529  2.5806
 9292SOL     OW39337   3.985   1.264   6.612  0.0781 -0.0820  0.3463
 9292SOL    HW139338   3.911   1.206   6.593  1.6561 -1.4814 -1.5514
 9292SOL    HW239339   3.934   1.340   6.639 -2.1396 -1.2335 -0.6189
 9293SOL     OW39340   0.683   1.719   8.312 -0.0886  0.3826  0.5264
 9293SOL    HW139341   0.642   1.794   8.355  2.0411  1.7387  0.1484
 9293SOL    HW239342   0.682   1.667   8.393 -0.9221  0.7418  0.7436
 9294SOL     OW39343   1.099   1.104  10.162  0.0136  0.0083 -0.2452
 9294SOL    HW139344   1.130   1.052  10.088 -0.7913 -1.2694  0.3086
 9294SOL    HW239345   1.162   1.175  10.172  0.5760 -0.2394 -2.0007
 9295SOL     OW39346   0.703   3.711   8.950 -0.0543  0.2638 -0.7341
 9295SOL    HW139347   0.782   3.728   9.001 -0.7832 -0.0371  0.4835
 9295SOL    HW239348   0.645   3.777   8.988 -1.1284 -0.2748 -1.4336
 9296SOL     OW39349   3.802   0.321   3.276  0.0399 -0.3851  0.4597
 9296SOL    HW139350   3.783   0.228   3.264  1.0737 -0.7616  1.7078
 9296SOL    HW239351   3.829   0.319   3.368 -2.0499  2.6368  1.1295
 9297SOL     OW39352   3.672   2.404   4.405  0.3799 -0.1068 -0.0349
 9297SOL    HW139353   3.735   2.352   4.356 -0.6683 -1.6857  0.3001
 9297SOL    HW239354   3.606   2.421   4.338 -1.5493 -1.4728  1.5406
 9298SOL     OW39355   2.565   4.605   1.803 -0.2242  0.0281  0.3067
 9298SOL    HW139356   2.649   4.575   1.768  0.8434  1.4530  1.6559
 9298SOL    HW239357   2.601   4.676   1.856  0.4333  0.8249 -1.2137
 9299SOL     OW39358   4.243   2.997   4.115 -0.1309 -0.1083  0.4014
 9299SOL    HW139359   4.328   3.032   4.139 -0.2339  2.6563 -3.1623
 9299SOL    HW239360   4.206   3.080   4.083 -0.8538 -0.3502  0.5957
 9300SOL     OW39361   3.679   2.996   6.824 -0.4037  0.4701  0.0392
 9300SOL    HW139362   3.745   2.944   6.870 -0.8583  0.7101  0.9617
 9300SOL    HW239363   3.619   2.934   6.784 -0.6859 -0.1020  1.3458
 9301SOL     OW39364   3.163   1.373   1.501  0.2494  0.0254 -0.0197
 9301SOL    HW139365   3.227   1.313   1.461  3.2678  1.8694  1.9845
 9301SOL    HW239366   3.090   1.314   1.520  1.6521 -1.7059  0.0579
 9302SOL     OW39367   4.101   3.721   8.944  0.7936  0.4488 -0.5335
 9302SOL    HW139368   4.051   3.780   8.999 -0.3936  0.9108 -2.0917
 9302SOL    HW239369   4.183   3.708   8.991  1.2886 -2.6382 -2.2205
 9303SOL     OW39370   1.820   1.325  14.880  0.4866  0.2887  0.1600
 9303SOL    HW139371   1.859   1.258  14.937  0.3676 -0.0748 -0.1780
 9303SOL    HW239372   1.774   1.368  14.952 -0.0227  1.6563 -0.9826
 9304SOL     OW39373   2.231   2.574   9.398  0.7605 -0.3907  0.2062
 9304SOL    HW139374   2.321   2.555   9.372  0.9522  1.8883 -0.7885
 9304SOL    HW239375   2.220   2.491   9.445 -0.2901 -0.6630 -0.5076
 9305SOL     OW39376   2.118   3.603  17.148 -0.3506  0.1928  0.0690
 9305SOL    HW139377   2.097   3.696  17.156 -0.7366  0.2247 -1.4164
 9305SOL    HW239378   2.153   3.589  17.236 -1.3431  1.0026  0.5860
 9306SOL     OW39379   4.281   0.696  16.769  0.1906  0.3432 -0.3009
 9306SOL    HW139380   4.364   0.731  16.738  0.0652  1.0537  0.1740
 9306SOL    HW239381   4.267   0.642  16.691 -0.3099 -1.9087  1.3333
 9307SOL     OW39382   0.668   2.932   7.750  0.4410 -0.4206 -0.3249
 9307SOL    HW139383   0.753   2.909   7.789  1.2702  0.9410 -1.3052
 9307SOL    HW239384   0.639   2.990   7.820 -0.0817  0.0370 -0.9316
 9308SOL     OW39385   3.168   0.384   5.743  0.3114  0.5513  0.0496
 9308SOL    HW139386   3.263   0.377   5.731  0.3807 -0.3229  1.2193
 9308SOL    HW239387   3.165   0.435   5.824  1.0630 -0.4558  0.7078
 9309SOL     OW39388   4.545   1.275   1.544  0.7038  0.0407  0.3601
 9309SOL    HW139389   4.616   1.228   1.500  0.1152  2.1427 -2.8031
 9309SOL    HW239390   4.522   1.331   1.470 -1.3089 -3.2708 -1.4771
 9310SOL     OW39391   4.043   1.554   2.008 -0.2765 -0.5708  0.5781
 9310SOL    HW139392   3.957   1.590   2.031  0.9399  1.4577  1.9640
 9310SOL    HW239393   4.033   1.533   1.915 -0.6632 -2.6257  1.0811
 9311SOL     OW39394   1.786   1.570   2.614 -0.5114 -0.0531  0.5866
 9311SOL    HW139395   1.784   1.660   2.648 -1.4783 -0.6622  2.1285
 9311SOL    HW239396   1.880   1.555   2.619 -0.7908 -1.0035  2.9194
 9312SOL     OW39397   1.720   3.300  11.281 -0.1589 -0.1961 -0.5156
 9312SOL    HW139398   1.653   3.293  11.349  1.2288  3.2487  1.2012
 9312SOL    HW239399   1.667   3.294  11.202 -0.3205 -0.3058 -0.4001
 9313SOL     OW39400   0.652   4.155   4.463  0.0497  0.4086 -0.5911
 9313SOL    HW139401   0.652   4.196   4.550  0.0555  1.3046 -1.0149
 9313SOL    HW239402   0.635   4.234   4.412  0.7023  1.6377  1.1052
 9314SOL     OW39403   2.228   0.391   4.961 -0.1428  0.1355  0.1700
 9314SOL    HW139404   2.283   0.453   4.912  1.7220  0.0891  2.2070
 9314SOL    HW239405   2.233   0.426   5.050  2.7893  2.2102 -0.8127
 9315SOL     OW39406   0.991   4.362   8.829  0.1391  0.1124  0.6831
 9315SOL    HW139407   1.051   4.437   8.833 -1.1943  1.3123 -1.6228
 9315SOL    HW239408   0.910   4.404   8.858 -0.5875  0.9348 -2.5693
 9316SOL     OW39409   2.899   0.564   4.904 -0.2154  0.0432  0.2119
 9316SOL    HW139410   2.963   0.496   4.885 -2.3751 -1.6078 -1.1312
 9316SOL    HW239411   2.899   0.613   4.822  0.1273 -1.1246 -0.4852
 9317SOL     OW39412   1.297   2.099  10.339 -0.1774  0.4550  0.3068
 9317SOL    HW139413   1.256   2.122  10.422 -1.9997  1.6351 -0.9269
 9317SOL    HW239414   1.345   2.180  10.326  0.0369  0.1550 -0.7369
 9318SOL     OW39415   2.157   3.763   5.566  0.2436  0.3347 -0.2699
 9318SOL    HW139416   2.077   3.751   5.514 -0.4116 -0.6537  0.9474
 9318SOL    HW239417   2.168   3.671   5.591 -0.9457  0.0513 -0.7588
 9319SOL     OW39418   3.166   4.012   0.825 -0.1383 -0.3475  0.2708
 9319SOL    HW139419   3.095   3.992   0.886 -0.2145 -0.1051  0.2624
 9319SOL    HW239420   3.140   3.972   0.743 -1.7762  1.2462  0.0161
 9320SOL     OW39421   3.559   3.712   6.435  0.6163 -0.0416 -0.5537
 9320SOL    HW139422   3.583   3.623   6.408 -1.5903 -0.8911  0.2307
 9320SOL    HW239423   3.464   3.701   6.444  0.7963 -1.3850 -0.3208
 9321SOL     OW39424   1.842   3.496   6.654  0.0072 -0.3716  0.0959
 9321SOL    HW139425   1.780   3.569   6.655 -1.6546 -1.7633 -1.7042
 9321SOL    HW239426   1.917   3.527   6.603 -0.5784  0.0765 -0.4923
 9322SOL     OW39427   1.050   1.063   5.635 -0.1781 -0.1644  0.1682
 9322SOL    HW139428   0.971   1.079   5.687  0.3680 -1.4369  1.4060
 9322SOL    HW239429   1.052   1.141   5.581  0.8851 -0.4152 -0.1420
 9323SOL     OW39430   4.029   1.542   9.298  0.5339 -0.0272  0.4983
 9323SOL    HW139431   4.065   1.495   9.223 -1.4190  0.1327 -0.5296
 9323SOL    HW239432   4.115   1.556   9.339  1.9867 -0.3964 -2.4169
 9324SOL     OW39433   1.259   1.488   4.013  0.2961  0.6015  0.6105
 9324SOL    HW139434   1.273   1.510   4.105  0.6601  0.6074  0.5514
 9324SOL    HW239435   1.174   1.526   3.991  0.3256  0.8188  0.8649
 9325SOL     OW39436   1.810   4.647   8.401  0.3576 -0.3189  0.0776
 9325SOL    HW139437   1.758   4.723   8.429 -0.0900  0.2344 -2.2166
 9325SOL    HW239438   1.892   4.668   8.447 -1.6308 -0.2458  3.5794
 9326SOL     OW39439   1.877   2.707   6.937  0.5953  0.0366  0.5507
 9326SOL    HW139440   1.848   2.790   6.899 -1.6248 -1.3671 -0.8982
 9326SOL    HW239441   1.958   2.730   6.982  1.0504  1.0281 -0.7747
 9327SOL     OW39442   1.360   1.638   2.603 -0.5903  0.8325  0.0093
 9327SOL    HW139443   1.432   1.581   2.630  0.4236  0.1680 -4.1169
 9327SOL    HW239444   1.336   1.674   2.688 -4.4826 -0.1195 -0.6922
 9328SOL     OW39445   2.003   4.224   4.461  0.1498  0.7096  0.2784
 9328SOL    HW139446   1.937   4.284   4.427 -0.6713 -0.8253 -0.8736
 9328SOL    HW239447   2.084   4.275   4.452 -0.1307  1.3388  1.4613
 9329SOL     OW39448   3.342   3.473   7.297  0.3408 -0.1583 -0.3537
 9329SOL    HW139449   3.352   3.556   7.251 -2.4090 -0.3833 -1.3810
 9329SOL    HW239450   3.429   3.437   7.280  0.9700  0.7811  0.8487
 9330SOL     OW39451   3.219   4.647   2.180 -0.3719 -0.8648 -0.5243
 9330SOL    HW139452   3.257   4.603   2.256  1.7210  0.8330 -0.5801
 9330SOL    HW239453   3.271   4.609   2.109  0.0753  0.4303 -0.8923
 9331SOL     OW39454   3.008   3.416   8.286  0.2950 -0.2078  0.3286
 9331SOL    HW139455   2.999   3.377   8.373  1.7310 -1.8393 -0.2587
 9331SOL    HW239456   3.036   3.335   8.244 -2.7257 -1.0820  0.0178
 9332SOL     OW39457   3.465   1.495   6.863  0.0766  0.1267  0.2475
 9332SOL    HW139458   3.500   1.406   6.871 -1.4895 -0.4559  0.4963
 9332SOL    HW239459   3.544   1.548   6.851 -1.1669  2.5299  2.5894
 9333SOL     OW39460   1.350   1.675  16.344 -0.1208 -0.0115 -0.2927
 9333SOL    HW139461   1.348   1.695  16.250 -0.2178  2.0968  0.1598
 9333SOL    HW239462   1.286   1.604  16.343  1.7672 -1.7238  1.4119
 9334SOL     OW39463   1.369   1.843   4.789 -0.2426 -0.1762  0.6264
 9334SOL    HW139464   1.403   1.753   4.783  1.2154  0.3620  0.7519
 9334SOL    HW239465   1.428   1.882   4.724  0.7012 -0.0444  1.5572
 9335SOL     OW39466   3.021   2.064   7.879  0.4654  0.1250  0.2324
 9335SOL    HW139467   2.935   2.094   7.851  1.2445  1.2877 -0.9433
 9335SOL    HW239468   3.008   2.084   7.971  1.0048  2.0351 -0.0985
 9336SOL     OW39469   0.880   0.026   2.913  0.0099 -0.3109  0.0873
 9336SOL    HW139470   0.785   0.016   2.910 -0.1902  1.5279  0.0388
 9336SOL    HW239471   0.917   4.710   2.834 -1.9312 -1.2888 -0.3191
 9337SOL     OW39472   1.197   0.302  15.287 -0.0049 -0.2633  0.0161
 9337SOL    HW139473   1.293   0.298  15.292  0.1836  2.1985 -1.7803
 9337SOL    HW239474   1.189   0.281  15.194 -0.0049 -0.1479 -0.0098
 9338SOL     OW39475   1.168   3.499  14.991 -0.0593 -0.2964  0.2799
 9338SOL    HW139476   1.183   3.514  15.085 -0.1814  0.4578  0.1844
 9338SOL    HW239477   1.151   3.588  14.960  0.6813  0.3670  1.7823
 9339SOL     OW39478   1.796   1.854   4.466  0.2623  0.5180  0.3532
 9339SOL    HW139479   1.744   1.788   4.420 -0.6723  0.6419  1.2463
 9339SOL    HW239480   1.823   1.807   4.545  1.5762  2.4570  1.0417
 9340SOL     OW39481   3.445   3.598   1.499 -0.1656 -0.1347 -0.0770
 9340SOL    HW139482   3.523   3.544   1.508 -0.5964 -0.5204  1.3829
 9340SOL    HW239483   3.473   3.673   1.551 -2.2066  1.0889 -0.7095
 9341SOL     OW39484   0.824   1.182   8.833 -0.7304  0.1938  0.0702
 9341SOL    HW139485   0.797   1.165   8.923 -0.6258 -0.7270 -0.0697
 9341SOL    HW239486   0.830   1.093   8.798  0.8744  0.8494 -1.3546
 9342SOL     OW39487   0.515   1.394   2.920  0.1522  0.3204  0.3728
 9342SOL    HW139488   0.470   1.358   2.996 -1.9826  1.5219 -0.3403
 9342SOL    HW239489   0.504   1.326   2.853  0.6910  0.2288  0.3744
 9343SOL     OW39490   1.439   1.732   7.781  0.1345 -0.1471  0.4079
 9343SOL    HW139491   1.417   1.700   7.693 -0.3819  0.1631  0.4208
 9343SOL    HW239492   1.372   1.800   7.784 -0.3918 -0.7450  2.3310
 9344SOL     OW39493   2.326   4.639   3.809  0.2860 -0.3137  0.4271
 9344SOL    HW139494   2.348   4.584   3.733 -0.6223 -0.5979  0.3752
 9344SOL    HW239495   2.411   4.654   3.850  0.1606  2.5727 -0.3634
 9345SOL     OW39496   4.089   0.136   6.623 -0.1398 -0.4013  0.4949
 9345SOL    HW139497   4.153   0.174   6.563  0.5433 -0.3480  1.2519
 9345SOL    HW239498   4.038   0.214   6.648 -0.5358 -0.7333  0.7174
 9346SOL     OW39499   3.056   4.351  10.102  0.3215  0.5937 -0.0934
 9346SOL    HW139500   3.116   4.426  10.096  1.6723 -0.3569  1.7086
 9346SOL    HW239501   3.013   4.371  10.185 -0.8939 -0.0419 -0.5694
 9347SOL     OW39502   0.383   1.443   5.005  0.1725  0.1574 -0.2593
 9347SOL    HW139503   0.345   1.373   5.058 -1.6021  0.1347 -1.5609
 9347SOL    HW239504   0.415   1.392   4.931 -1.2638  0.5238 -1.1484
 9348SOL     OW39505   0.178   2.730   6.887  0.5563 -0.4045  0.2956
 9348SOL    HW139506   0.146   2.704   6.973  1.1424 -2.5675 -0.1545
 9348SOL    HW239507   0.265   2.691   6.887 -0.3482 -2.3585 -1.4697
 9349SOL     OW39508   1.263   3.073  14.031 -0.1381 -0.0603  0.2722
 9349SOL    HW139509   1.357   3.086  14.034 -0.4693  1.7533  2.4811
 9349SOL    HW239510   1.251   2.987  14.071  0.4106 -0.3269 -0.1442
 9350SOL     OW39511   0.937   3.108  12.221  0.1948  0.5342 -0.0960
 9350SOL    HW139512   0.874   3.156  12.166 -0.7454 -1.2553 -0.6077
 9350SOL    HW239513   0.930   3.026  12.172 -1.6844  1.1235 -0.8347
 9351SOL     OW39514   1.790   3.943  10.048  0.3675 -0.1834  0.0858
 9351SOL    HW139515   1.820   3.982   9.966 -1.4533 -1.1947 -1.0554
 9351SOL    HW239516   1.746   3.863  10.019 -0.0493 -0.7465  2.2605
 9352SOL     OW39517   4.302   2.688   0.426 -0.2922 -0.6305  0.1764
 9352SOL    HW139518   4.231   2.724   0.480  0.6539 -0.2631  1.1835
 9352SOL    HW239519   4.316   2.765   0.371  3.2589 -1.7874 -0.5602
 9353SOL     OW39520   0.775   3.588   5.798 -0.4262 -0.3557 -0.3987
 9353SOL    HW139521   0.854   3.561   5.845  1.2935  0.3623 -2.8772
 9353SOL    HW239522   0.803   3.678   5.781  1.2028 -1.2717 -2.5834
 9354SOL     OW39523   3.026   0.007   7.306  0.2075 -0.3329 -0.0464
 9354SOL    HW139524   3.012   4.664   7.372 -0.2736 -0.9434 -0.7643
 9354SOL    HW239525   3.062   4.677   7.236  0.3216 -0.4306  0.0883
 9355SOL     OW39526   1.165   2.846   3.784 -0.1855 -0.1707  0.1390
 9355SOL    HW139527   1.112   2.851   3.704  1.0576  0.0136 -0.6593
 9355SOL    HW239528   1.173   2.938   3.807 -1.8639  0.0984 -0.3319
 9356SOL     OW39529   2.917   1.280   4.959 -0.0165  0.6424 -0.4835
 9356SOL    HW139530   3.005   1.250   4.935 -0.1913  0.1818 -0.5385
 9356SOL    HW239531   2.878   1.207   5.006 -0.2761 -0.4524 -2.3971
 9357SOL     OW39532   3.628   1.077   0.424  0.3489  0.3572  0.2767
 9357SOL    HW139533   3.711   1.104   0.384  1.4419  0.3672  2.5431
 9357SOL    HW239534   3.603   1.007   0.364 -1.3205  1.4627 -0.3103
 9358SOL     OW39535   0.678   0.735  12.312  0.5530  0.1122  0.1230
 9358SOL    HW139536   0.740   0.663  12.324  1.9763  1.6885  2.3620
 9358SOL    HW239537   0.601   0.693  12.276  0.2020 -1.5842  2.8199
 9359SOL     OW39538   0.572   3.274   5.877 -0.5813  0.2615  0.2434
 9359SOL    HW139539   0.617   3.358   5.888 -1.5913  0.7236  0.9146
 9359SOL    HW239540   0.612   3.244   5.795 -2.4941  0.8746 -0.9418
 9360SOL     OW39541   1.112   2.377   2.904 -0.4754  0.9937  0.0585
 9360SOL    HW139542   1.049   2.441   2.937 -0.9968  0.2412  0.5185
 9360SOL    HW239543   1.117   2.392   2.809 -1.5744 -2.8005 -0.5914
 9361SOL     OW39544   4.015   0.467   6.199 -0.2702 -0.0933  0.5048
 9361SOL    HW139545   4.061   0.401   6.147 -0.1657 -0.0775  0.5756
 9361SOL    HW239546   3.925   0.435   6.208 -0.5092 -0.2398 -2.7387
 9362SOL     OW39547   3.423   4.373   7.578  0.5491 -0.0540  0.0487
 9362SOL    HW139548   3.467   4.415   7.505 -0.0974  2.9656  1.3820
 9362SOL    HW239549   3.443   4.432   7.651 -1.4991 -0.5885  1.0472
 9363SOL     OW39550   1.779   3.012   6.193 -0.1137  0.1242 -0.3854
 9363SOL    HW139551   1.750   2.933   6.148 -3.1518  0.7225  0.4871
 9363SOL    HW239552   1.693   3.048   6.216 -0.7426 -0.2051 -2.2636
 9364SOL     OW39553   3.064   3.490   2.466 -0.1184  0.2317  0.2380
 9364SOL    HW139554   3.079   3.413   2.412 -1.3614 -0.1660  0.4655
 9364SOL    HW239555   2.991   3.529   2.418  2.1828  0.7157 -2.8511
 9365SOL     OW39556   3.987   3.149  12.017  0.4924 -0.0005 -0.3468
 9365SOL    HW139557   4.041   3.102  12.082  0.1121 -0.2394 -0.2047
 9365SOL    HW239558   3.945   3.076  11.971  1.2979  0.4715 -1.8442
 9366SOL     OW39559   2.408   1.589   8.247 -0.5808  0.4599  0.1873
 9366SOL    HW139560   2.335   1.528   8.261 -0.9934  0.6192 -1.2819
 9366SOL    HW239561   2.372   1.674   8.271 -1.4821 -0.2051  1.2119
 9367SOL     OW39562   4.248   4.145   2.849 -0.2069 -0.1865  0.2946
 9367SOL    HW139563   4.300   4.083   2.797 -1.0826 -1.4604  0.9593
 9367SOL    HW239564   4.214   4.097   2.925  0.7363 -1.5119 -0.1242
 9368SOL     OW39565   1.928   3.556   0.885  0.2543 -0.4228 -0.2483
 9368SOL    HW139566   2.023   3.568   0.899  0.0821  0.7877 -0.0680
 9368SOL    HW239567   1.910   3.597   0.801 -1.5660 -0.3845  0.1691
 9369SOL     OW39568   2.784   1.784  10.996  0.4400 -0.5950  0.0512
 9369SOL    HW139569   2.739   1.755  10.917  0.9125 -0.4153 -0.2829
 9369SOL    HW239570   2.712   1.809  11.054  1.4913  1.2740  0.5505
 9370SOL     OW39571   4.289   0.232  16.353  0.2060  0.5454  0.3744
 9370SOL    HW139572   4.252   0.165  16.297  0.1382  0.6571  0.2850
 9370SOL    HW239573   4.355   0.180  16.398  0.2404  2.0081  2.0019
 9371SOL     OW39574   2.040   4.392   0.553 -0.1869  0.4717  0.1626
 9371SOL    HW139575   2.039   4.402   0.648  0.8069  1.2297  0.0819
 9371SOL    HW239576   2.002   4.477   0.529  1.1571  1.2237  0.7316
 9372SOL     OW39577   3.546   2.460   3.926  0.4474 -0.1447  0.2013
 9372SOL    HW139578   3.495   2.540   3.932  0.1818 -0.2220 -1.0833
 9372SOL    HW239579   3.624   2.495   3.883 -1.0058 -1.1529 -3.2393
 9373SOL     OW39580   2.734   3.596   7.348  0.1706 -0.1538 -0.4940
 9373SOL    HW139581   2.667   3.623   7.411  0.6944 -1.2650  0.5341
 9373SOL    HW239582   2.687   3.557   7.275 -1.0180 -0.0194  0.2071
 9374SOL     OW39583   1.278   3.009  10.447 -0.4215 -0.2362  0.3928
 9374SOL    HW139584   1.271   2.933  10.390  1.0451 -3.0808  4.0135
 9374SOL    HW239585   1.195   3.014  10.494  0.7618  0.6591  2.4143
 9375SOL     OW39586   4.062   4.286   1.945  0.7119  0.2430 -0.2930
 9375SOL    HW139587   4.128   4.333   1.894  1.7280 -0.0475  0.7656
 9375SOL    HW239588   4.121   4.214   1.967 -0.1239 -0.5805 -0.7438
 9376SOL     OW39589   0.415   1.170   4.096 -0.1444  0.2841 -0.4236
 9376SOL    HW139590   0.404   1.237   4.164 -0.2102  0.3378 -0.4874
 9376SOL    HW239591   0.425   1.223   4.017 -0.0467 -2.0484 -1.9759
 9377SOL     OW39592   0.560   2.001   8.057  0.4067  0.1159 -0.4328
 9377SOL    HW139593   0.635   2.057   8.077  1.8058 -1.5209 -1.0575
 9377SOL    HW239594   0.509   2.070   8.015  0.3731  0.5373  0.3005
 9378SOL     OW39595   4.170   3.524   1.487 -1.0571 -0.2458  0.0777
 9378SOL    HW139596   4.088   3.555   1.525 -0.9504 -1.0102  0.9271
 9378SOL    HW239597   4.145   3.495   1.399  3.4251 -1.5331 -0.7778
 9379SOL     OW39598   4.355   0.259   2.315 -0.3028  0.0731 -0.6310
 9379SOL    HW139599   4.323   0.342   2.349  0.0859 -0.3378  0.7743
 9379SOL    HW239600   4.431   0.284   2.264 -1.5283  2.9444 -1.0171
 9380SOL     OW39601   3.695   4.186   3.796 -0.0257 -0.2333 -0.4193
 9380SOL    HW139602   3.752   4.112   3.775  0.5999  0.4606 -1.1305
 9380SOL    HW239603   3.632   4.149   3.859 -1.9581 -0.7053 -2.6343
 9381SOL     OW39604   0.251   0.178   1.411  0.3889  0.2061 -0.2885
 9381SOL    HW139605   0.250   0.113   1.341 -0.7891  1.0930 -1.1047
 9381SOL    HW239606   0.291   0.247   1.358  0.5680  0.4693  0.1920
 9382SOL     OW39607   1.574   4.027   4.754  0.1261  0.0729 -0.1101
 9382SOL    HW139608   1.620   3.993   4.831  0.6295 -1.4465 -1.0926
 9382SOL    HW239609   1.595   3.953   4.697 -1.7851 -1.6043  1.3471
 9383SOL     OW39610   0.462   2.681   6.263 -0.3657 -0.5546  0.1588
 9383SOL    HW139611   0.533   2.682   6.198  1.3561 -0.0809  2.0183
 9383SOL    HW239612   0.473   2.608   6.324 -2.5516 -1.5187 -0.6023
 9384SOL     OW39613   4.596   3.920   3.579  0.2868  0.3789  0.0933
 9384SOL    HW139614   4.620   3.852   3.515 -2.1204 -0.6656  0.3119
 9384SOL    HW239615   4.556   3.863   3.644  1.6297  1.5425  1.9306
 9385SOL     OW39616   0.166   2.363   0.587  0.0893 -0.1893 -0.1472
 9385SOL    HW139617   0.150   2.331   0.676  1.5925 -0.5832 -0.0232
 9385SOL    HW239618   0.245   2.412   0.607  0.7019 -0.8924 -0.8717
 9386SOL     OW39619   3.878   1.719   3.178  0.3158  0.2590 -0.3924
 9386SOL    HW139620   3.972   1.730   3.193  0.3258 -0.8989  0.3866
 9386SOL    HW239621   3.855   1.782   3.247  0.2685 -0.3905  0.1906
 9387SOL     OW39622   2.806   1.219   7.258 -0.2823 -0.4442  0.3494
 9387SOL    HW139623   2.863   1.286   7.297 -0.8387 -0.1371  0.6365
 9387SOL    HW239624   2.855   1.143   7.288 -0.2818 -1.2085 -1.5799
 9388SOL     OW39625   0.493   2.144   9.125 -0.0584 -0.1417  0.0252
 9388SOL    HW139626   0.546   2.118   9.201  0.1388 -1.4223 -0.5544
 9388SOL    HW239627   0.405   2.124   9.155  0.1711 -0.2834  0.6095
 9389SOL     OW39628   1.995   3.694   9.495  0.0253 -0.5056  0.3564
 9389SOL    HW139629   1.982   3.708   9.401  2.9455 -2.0567 -0.3054
 9389SOL    HW239630   2.011   3.779   9.535  1.5445 -0.4800 -0.3006
 9390SOL     OW39631   2.217   4.160   2.895  0.1731 -0.8153 -0.1569
 9390SOL    HW139632   2.273   4.133   2.823 -0.5521 -1.0018 -0.6477
 9390SOL    HW239633   2.153   4.210   2.844  2.1532  1.9631  0.0436
 9391SOL     OW39634   2.229   1.355   2.730 -0.1385  0.2791  0.6920
 9391SOL    HW139635   2.325   1.358   2.726 -0.1333 -1.1510 -0.1134
 9391SOL    HW239636   2.215   1.269   2.692  1.0728  1.1071 -1.6589
 9392SOL     OW39637   4.081   1.335   8.941 -0.1391  0.0690  0.5366
 9392SOL    HW139638   4.042   1.255   8.977  0.4127  0.4419  1.9327
 9392SOL    HW239639   4.134   1.368   9.013  0.3686 -0.7735  0.5476
 9393SOL     OW39640   4.580   1.517   9.581  0.2838 -0.1870 -0.1134
 9393SOL    HW139641   4.649   1.451   9.569  1.1334  0.2552  2.3011
 9393SOL    HW239642   4.601   1.552   9.668  0.6928 -1.8378  0.4669
 9394SOL     OW39643   4.447   1.840   4.046 -0.7342  0.0899  0.1596
 9394SOL    HW139644   4.539   1.827   4.024 -0.9389 -0.5506 -0.3186
 9394SOL    HW239645   4.441   1.935   4.056  2.3320  0.4410 -1.2509
 9395SOL     OW39646   2.264   1.928   9.022 -0.0319  0.2844  0.0476
 9395SOL    HW139647   2.266   1.846   8.972  3.0258  0.4228 -0.0192
 9395SOL    HW239648   2.209   1.886   9.088 -0.5368 -0.9605 -1.1491
 9396SOL     OW39649   2.588   0.210   7.074  0.6938  0.2141 -0.3083
 9396SOL    HW139650   2.536   0.135   7.046  0.4664  1.0079 -2.0005
 9396SOL    HW239651   2.527   0.246   7.139  0.9726  0.4264 -0.1663
 9397SOL     OW39652   2.983   3.215   9.512  0.1646 -0.3017 -0.1028
 9397SOL    HW139653   2.888   3.213   9.500  0.0256 -0.5380  1.0511
 9397SOL    HW239654   2.994   3.276   9.586  1.7066  2.3180 -2.4663
 9398SOL     OW39655   3.923   4.698   4.787 -0.0097 -0.3622  0.2127
 9398SOL    HW139656   4.013   4.692   4.755  0.7320 -0.4218  2.3238
 9398SOL    HW239657   3.897   0.046   4.730  0.8212 -0.6080 -0.4923
 9399SOL     OW39658   0.891   3.911  10.774  0.2210  0.2529 -0.1097
 9399SOL    HW139659   0.970   3.928  10.724 -0.1564  1.2656 -0.3589
 9399SOL    HW239660   0.826   3.974  10.743  1.4737  1.0113 -1.1775
 9400SOL     OW39661   2.682   2.356  13.660 -0.1646 -0.4147 -0.1451
 9400SOL    HW139662   2.717   2.439  13.693  0.9623 -0.3941 -1.3940
 9400SOL    HW239663   2.666   2.376  13.568  0.1704  1.0776  0.1153
 9401SOL     OW39664   2.235   2.359   9.573 -0.2113 -0.7756 -0.4188
 9401SOL    HW139665   2.178   2.318   9.508 -0.8493  0.7325 -0.8018
 9401SOL    HW239666   2.293   2.289   9.603  1.8556  0.5951 -1.2182
 9402SOL     OW39667   3.860   2.225   4.874  0.1341  0.0173 -0.6722
 9402SOL    HW139668   3.826   2.226   4.784 -1.2791 -2.5532 -0.1623
 9402SOL    HW239669   3.786   2.180   4.915  2.0733 -2.4786  0.0628
 9403SOL     OW39670   3.374   0.585  15.454  0.2050 -0.0373  0.2927
 9403SOL    HW139671   3.464   0.603  15.479 -0.2634  1.4651  0.9067
 9403SOL    HW239672   3.365   0.641  15.376  1.3546  2.2608  1.7986
 9404SOL     OW39673   1.378   0.288   4.547  0.0518 -0.1524 -0.2538
 9404SOL    HW139674   1.457   0.331   4.580 -1.2927  1.2057  1.2358
 9404SOL    HW239675   1.326   0.277   4.626  2.2656  0.5440  1.3099
 9405SOL     OW39676   0.945   3.464   3.260 -0.1869 -0.4975  0.2447
 9405SOL    HW139677   1.008   3.453   3.332  0.1809 -0.5466 -0.0852
 9405SOL    HW239678   0.965   3.388   3.206  0.0546 -0.3870  0.1759
 9406SOL     OW39679   3.321   3.691   6.504  0.4407 -0.0627 -0.5027
 9406SOL    HW139680   3.280   3.681   6.589 -0.9489  3.1815 -0.7640
 9406SOL    HW239681   3.278   3.620   6.457  0.6214 -0.8093  0.4788
 9407SOL     OW39682   0.968   1.022   5.118  0.3084  0.3571 -0.5422
 9407SOL    HW139683   1.064   1.021   5.122  0.2941 -1.6508 -1.1714
 9407SOL    HW239684   0.944   1.102   5.166 -2.1529  0.3948 -1.8797
 9408SOL     OW39685   3.711   2.097   6.279  0.3928 -0.3265  0.2575
 9408SOL    HW139686   3.734   2.005   6.266  0.9564 -0.2945  1.0327
 9408SOL    HW239687   3.777   2.122   6.344  1.2546  3.0635 -1.9200
 9409SOL     OW39688   4.020   0.853   8.266 -0.0012  0.4525  1.0142
 9409SOL    HW139689   4.047   0.867   8.175 -2.8853 -0.4466  0.0217
 9409SOL    HW239690   3.925   0.848   8.257  0.2320 -2.9247  0.5614
 9410SOL     OW39691   4.259   2.817   1.051  0.1099  0.3052 -0.5244
 9410SOL    HW139692   4.351   2.793   1.047  0.4487  1.2074  1.5537
 9410SOL    HW239693   4.252   2.873   1.128 -3.1988 -1.7389  0.6746
 9411SOL     OW39694   4.218   2.439   8.510 -0.0751  0.4832  0.4039
 9411SOL    HW139695   4.217   2.469   8.419 -0.6818  1.5514  0.7647
 9411SOL    HW239696   4.296   2.384   8.515  0.3227  0.8914 -1.4731
 9412SOL     OW39697   1.975   0.480  11.532 -0.3776 -0.6177  0.5871
 9412SOL    HW139698   1.955   0.484  11.625  1.0855 -0.7832  0.9097
 9412SOL    HW239699   1.905   0.535  11.496 -0.1900 -0.3927  0.5620
 9413SOL     OW39700   0.618   1.782   5.578 -0.5812 -0.5016  0.2322
 9413SOL    HW139701   0.556   1.711   5.562 -1.5898  0.7298 -1.3320
 9413SOL    HW239702   0.586   1.819   5.660 -2.6875 -1.7977 -0.0202
 9414SOL     OW39703   3.402   1.064   2.429 -0.0298  0.4541  0.1750
 9414SOL    HW139704   3.463   1.102   2.493 -1.0581 -1.3795  2.2424
 9414SOL    HW239705   3.410   0.971   2.449  1.8721 -0.0706 -3.0000
 9415SOL     OW39706   0.317   1.603   6.854  0.3655  0.6635  0.2601
 9415SOL    HW139707   0.308   1.509   6.837  0.0744  0.6645  0.4003
 9415SOL    HW239708   0.384   1.619   6.788 -0.5546  0.5829 -0.7028
 9416SOL     OW39709   2.102   1.239  15.950  0.2279  0.1860  0.2102
 9416SOL    HW139710   2.071   1.217  15.862 -0.0477 -0.9266  0.5981
 9416SOL    HW239711   2.035   1.290  15.995 -1.6210 -0.5626 -1.7127
 9417SOL     OW39712   3.241   1.351   5.729  0.6766 -0.2759  0.2027
 9417SOL    HW139713   3.243   1.360   5.633  0.1969  0.2633  0.2400
 9417SOL    HW239714   3.314   1.291   5.741  0.7913 -0.4309 -1.2545
 9418SOL     OW39715   2.979   0.308   2.810 -0.9036  0.2632 -0.2681
 9418SOL    HW139716   3.070   0.317   2.837 -1.5979  1.4693  1.6860
 9418SOL    HW239717   2.930   0.294   2.891  1.0400 -0.1223  0.8173
 9419SOL     OW39718   3.574   2.914   7.160 -0.4552  0.3416  0.1625
 9419SOL    HW139719   3.576   2.830   7.113  0.4663 -1.8342  4.0508
 9419SOL    HW239720   3.646   2.911   7.223  0.1278 -0.0165 -0.5238
 9420SOL     OW39721   4.235   3.081   1.554 -0.9239 -0.1800 -0.1189
 9420SOL    HW139722   4.156   3.075   1.500 -1.2287 -0.9955  0.4073
 9420SOL    HW239723   4.304   3.049   1.496 -0.4839  2.2149 -0.8886
 9421SOL     OW39724   2.110   2.054  16.741 -0.3436  0.5661  0.3667
 9421SOL    HW139725   2.070   1.970  16.762  2.1550 -1.0293 -1.3864
 9421SOL    HW239726   2.049   2.088  16.676  0.6729  0.7681 -0.4805
 9422SOL     OW39727   1.280   3.675   8.511  0.2390  0.1484  0.4301
 9422SOL    HW139728   1.317   3.742   8.453 -1.0468  1.2392  0.8604
 9422SOL    HW239729   1.353   3.626   8.550 -0.1140 -0.9646 -0.2995
 9423SOL     OW39730   2.750   3.076   7.305 -0.2536 -0.2968  0.3158
 9423SOL    HW139731   2.796   3.142   7.253 -0.0174 -0.7755 -0.0899
 9423SOL    HW239732   2.810   3.059   7.377  1.4815  0.6767 -0.8745
 9424SOL     OW39733   2.267   2.691   0.261 -0.7393 -0.0465 -0.0553
 9424SOL    HW139734   2.234   2.776   0.231  0.2343 -0.5857 -2.6968
 9424SOL    HW239735   2.204   2.626   0.229 -2.0968 -0.1659  2.8974
 9425SOL     OW39736   1.460   1.047   9.859 -0.1899 -0.0186 -0.5602
 9425SOL    HW139737   1.503   1.049   9.944 -0.7987 -0.9789 -0.2223
 9425SOL    HW239738   1.423   1.135   9.862 -1.8206 -0.6776 -1.4589
 9426SOL     OW39739   0.273   0.396   1.224  0.0755 -0.2957  0.7916
 9426SOL    HW139740   0.289   0.339   1.149 -1.3811 -0.8897  0.9429
 9426SOL    HW239741   0.191   0.438   1.197 -0.6180 -1.4618  1.0982
 9427SOL     OW39742   3.216   0.367  15.320  0.0398 -0.0265  0.0690
 9427SOL    HW139743   3.186   0.311  15.391 -1.1392 -0.5869 -0.8818
 9427SOL    HW239744   3.131   0.387  15.280 -0.0317 -0.3627  0.0530
 9428SOL     OW39745   2.999   1.062  14.518  0.2543  0.2184 -0.4044
 9428SOL    HW139746   3.078   1.016  14.546 -0.8353 -0.7832  0.9901
 9428SOL    HW239747   2.983   0.995  14.452  1.2881 -0.7702  0.3746
 9429SOL     OW39748   2.100   3.260   4.559 -0.6919 -0.5297 -0.4919
 9429SOL    HW139749   2.164   3.307   4.613  3.0636 -3.4296 -2.4377
 9429SOL    HW239750   2.133   3.270   4.469 -1.2899  0.2142 -0.6246
 9430SOL     OW39751   3.746   0.176   2.652 -0.0820 -0.2819 -0.9061
 9430SOL    HW139752   3.831   0.175   2.697 -0.0224  0.7926 -0.9995
 9430SOL    HW239753   3.686   0.189   2.726  0.5639  0.8158 -0.5784
 9431SOL     OW39754   2.919   0.919   6.820  0.2528  0.1070  0.2102
 9431SOL    HW139755   2.935   1.002   6.865  0.8751 -0.0542  0.2949
 9431SOL    HW239756   3.006   0.878   6.814 -0.5184 -1.3396 -1.0103
 9432SOL     OW39757   0.448   0.521   4.527 -0.2533 -0.7342  0.0558
 9432SOL    HW139758   0.475   0.518   4.435  0.6917  3.4783  0.2037
 9432SOL    HW239759   0.374   0.461   4.528  0.1983 -1.2832  0.0868
 9433SOL     OW39760   3.497   1.791  10.144  0.0692 -0.2654 -0.5777
 9433SOL    HW139761   3.546   1.820  10.221  0.0914 -1.5325 -0.1065
 9433SOL    HW239762   3.453   1.718  10.188  0.8554 -0.2734  0.1942
 9434SOL     OW39763   2.200   1.376  12.616  0.5105 -0.0612  0.3709
 9434SOL    HW139764   2.208   1.455  12.669 -3.3463 -0.4717  1.5482
 9434SOL    HW239765   2.153   1.399  12.536 -0.1458  0.2023  0.8307
 9435SOL     OW39766   3.289   1.269  12.558  0.3351  0.1144  0.1558
 9435SOL    HW139767   3.291   1.240  12.467  0.5398 -2.3579  0.9329
 9435SOL    HW239768   3.350   1.204  12.593  0.3574  0.1860  0.2473
 9436SOL     OW39769   0.671   2.500   6.790 -0.1405  0.1697  0.2657
 9436SOL    HW139770   0.605   2.434   6.772 -0.5593  1.0830 -1.5930
 9436SOL    HW239771   0.737   2.485   6.722 -0.1761 -0.7126  0.4303
 9437SOL     OW39772   3.104   0.271  17.259  0.2825 -0.9220 -0.3119
 9437SOL    HW139773   3.029   0.212  17.260 -0.0382 -0.5177 -0.6158
 9437SOL    HW239774   3.155   0.247  17.337  0.3953  1.1816  0.2468
 9438SOL     OW39775   2.205   4.433  11.089  0.0887  0.3746  0.0042
 9438SOL    HW139776   2.173   4.377  11.159  0.5780  0.2928  0.1655
 9438SOL    HW239777   2.301   4.430  11.084  0.0777  0.7955 -0.5364
 9439SOL     OW39778   2.177   2.094   1.600  0.5010  0.2929 -0.3576
 9439SOL    HW139779   2.215   2.107   1.687  1.2967 -0.9507 -0.5012
 9439SOL    HW239780   2.091   2.059   1.621  0.7147  0.7238  1.2029
 9440SOL     OW39781   1.265   0.335   4.838 -0.4272 -0.1692 -0.2716
 9440SOL    HW139782   1.257   0.268   4.907  3.3250 -0.7568 -0.3915
 9440SOL    HW239783   1.333   0.383   4.885 -3.0492  1.9583  1.3356
 9441SOL     OW39784   3.766   2.256   4.617  0.2037 -0.3225  0.6092
 9441SOL    HW139785   3.710   2.181   4.596 -2.0691  1.7960 -0.7762
 9441SOL    HW239786   3.730   2.321   4.557  2.0837  0.3007  0.1586
 9442SOL     OW39787   3.704   3.439   1.432  0.1900  0.1243  0.4834
 9442SOL    HW139788   3.765   3.397   1.370 -0.7934  1.2531 -1.2506
 9442SOL    HW239789   3.626   3.404   1.391  0.5440 -2.8287  2.3108
 9443SOL     OW39790   2.126   1.377  15.437  0.8445 -0.0706  0.0872
 9443SOL    HW139791   2.220   1.383  15.422  1.1443 -0.1205  1.9710
 9443SOL    HW239792   2.129   1.284  15.459 -1.0327 -0.1439  0.0696
 9444SOL     OW39793   0.607   0.471   1.995 -0.1159 -0.1168 -0.0495
 9444SOL    HW139794   0.620   0.391   1.944  0.5507 -0.0617  0.0255
 9444SOL    HW239795   0.666   0.534   1.953 -0.3943  0.4915  0.4730
 9445SOL     OW39796   1.964   3.001   9.098  0.0409  0.4451 -0.2870
 9445SOL    HW139797   1.979   2.981   9.190 -0.2741  1.7575  0.0494
 9445SOL    HW239798   2.022   3.075   9.081 -0.0429  0.2525 -1.4376
 9446SOL     OW39799   0.080   1.692   5.063  0.1014 -0.0779  0.3454
 9446SOL    HW139800   0.076   1.670   4.970 -3.0039  3.3997 -0.3651
 9446SOL    HW239801   0.042   1.779   5.078 -2.7993 -1.8253  3.0958
 9447SOL     OW39802   2.699   4.121   7.375 -0.6281 -0.0440 -0.6734
 9447SOL    HW139803   2.655   4.068   7.442  2.8800 -0.9911  0.8956
 9447SOL    HW239804   2.706   4.049   7.312  1.2276 -0.9848  0.6207
 9448SOL     OW39805   3.938   1.137  11.067 -0.0762 -0.1840 -0.1295
 9448SOL    HW139806   3.941   1.042  11.058 -1.3157 -0.1611 -0.9301
 9448SOL    HW239807   3.847   1.151  11.094 -0.4090 -1.0451 -0.7904
 9449SOL     OW39808   2.643   1.711   4.290  0.2342  0.3987  0.2484
 9449SOL    HW139809   2.614   1.802   4.301  1.0185  0.9046 -1.9099
 9449SOL    HW239810   2.737   1.718   4.274  0.6438 -0.7159  2.1679
 9450SOL     OW39811   1.999   4.281   2.171 -0.3790 -0.1188 -0.1031
 9450SOL    HW139812   2.071   4.241   2.124 -0.0373  1.4496 -0.9309
 9450SOL    HW239813   1.921   4.244   2.129  0.3471  0.4136 -1.9485
 9451SOL     OW39814   3.079   3.923   4.695  0.5233  0.4818  0.1088
 9451SOL    HW139815   3.022   3.877   4.757  0.0332 -0.8681 -1.3428
 9451SOL    HW239816   3.056   4.013   4.719  1.2634  1.2782 -2.1072
 9452SOL     OW39817   4.621   3.299   7.864  0.2128  0.0879  0.2249
 9452SOL    HW139818   4.653   3.360   7.797  1.7367  0.7600  1.5642
 9452SOL    HW239819   4.702   3.304   7.915 -0.7895  2.5328  1.6022
 9453SOL     OW39820   1.859   0.104  11.663  0.3902  0.5722 -0.1790
 9453SOL    HW139821   1.944   0.145  11.649  0.5701  0.3930  0.4395
 9453SOL    HW239822   1.816   0.182  11.698  1.1395  0.4323  1.0457
 9454SOL     OW39823   4.451   1.192   7.436 -0.2787 -0.2183  0.4615
 9454SOL    HW139824   4.510   1.167   7.507 -2.5947  0.6128  2.6644
 9454SOL    HW239825   4.494   1.146   7.363 -2.3939  0.3979 -1.1766
 9455SOL     OW39826   1.908   2.091   2.696 -0.1327 -0.2742 -0.2994
 9455SOL    HW139827   1.898   2.082   2.602  0.4994 -1.8989 -0.2126
 9455SOL    HW239828   1.999   2.123   2.697 -0.0309 -0.5582 -0.7427
 9456SOL     OW39829   3.319   2.022   6.445 -0.2400 -0.4883 -0.4281
 9456SOL    HW139830   3.358   1.940   6.413  1.8845  0.7808 -1.0669
 9456SOL    HW239831   3.225   2.004   6.440 -0.0260 -1.4744 -1.0099
 9457SOL     OW39832   0.202   2.626   3.108  0.6183  0.5215  0.3656
 9457SOL    HW139833   0.165   2.662   3.027 -0.4075 -1.4987 -0.0748
 9457SOL    HW239834   0.122   2.621   3.161 -1.1711 -1.3148 -2.4453
 9458SOL     OW39835   0.116   2.537   4.924  0.0397 -0.1927 -0.1292
 9458SOL    HW139836   0.087   2.490   5.003  0.3065 -1.0458 -0.5513
 9458SOL    HW239837   0.153   2.477   4.860  1.9043  0.7496  0.0774
 9459SOL     OW39838   4.059   0.969   2.789  0.1330  0.1446 -0.1059
 9459SOL    HW139839   4.134   0.929   2.745 -0.2587 -0.6871 -0.0216
 9459SOL    HW239840   4.086   0.964   2.881 -0.5694  1.5362  0.1751
 9460SOL     OW39841   3.856   2.396   6.879  0.0708 -0.1917 -0.1731
 9460SOL    HW139842   3.932   2.343   6.902  0.5246  0.3866 -0.3578
 9460SOL    HW239843   3.889   2.462   6.819  0.3890  1.2661  1.6009
 9461SOL     OW39844   1.727   3.901   3.726 -0.2081 -0.3502 -0.0814
 9461SOL    HW139845   1.672   3.827   3.752 -0.7448 -0.4217 -1.4285
 9461SOL    HW239846   1.712   3.953   3.805 -1.0573  0.5037 -0.8058
 9462SOL     OW39847   1.503   3.095   4.314  0.0457 -0.6921 -0.0387
 9462SOL    HW139848   1.541   3.015   4.350  0.5330 -1.1110 -1.4827
 9462SOL    HW239849   1.512   3.086   4.219  0.5304  1.0948 -0.1626
 9463SOL     OW39850   0.433   3.811   7.052  0.2662 -0.0851 -0.1298
 9463SOL    HW139851   0.446   3.725   7.092 -1.6879  2.1169  5.1166
 9463SOL    HW239852   0.389   3.860   7.121 -0.2943  0.2214 -0.7009
 9464SOL     OW39853   3.149   3.785   5.089  0.4430  0.1090  0.3192
 9464SOL    HW139854   3.201   3.774   5.010 -0.9860 -0.2799 -0.5785
 9464SOL    HW239855   3.119   3.875   5.075  0.3361 -0.2706 -1.9071
 9465SOL     OW39856   2.425   2.919   1.033 -0.2155  0.4490  0.7514
 9465SOL    HW139857   2.511   2.885   1.008 -1.1564 -3.6091  2.9868
 9465SOL    HW239858   2.385   2.900   0.948 -0.4330 -1.0875  1.1847
 9466SOL     OW39859   4.081   1.058   4.304 -0.0597  0.5719 -0.3980
 9466SOL    HW139860   4.013   0.994   4.324 -1.1431  1.5494 -0.9931
 9466SOL    HW239861   4.033   1.132   4.342 -0.5514  1.0959 -2.0410
 9467SOL     OW39862   4.710   1.145   6.052 -0.2765  0.2146  0.1921
 9467SOL    HW139863   4.718   1.241   6.053  0.7603  0.1353 -0.3722
 9467SOL    HW239864   0.041   1.118   5.979  0.6170  0.8272  0.6327
 9468SOL     OW39865   2.914   0.722   4.685  0.1894 -0.1572 -0.1997
 9468SOL    HW139866   2.976   0.677   4.628  1.8101 -0.6193  1.9118
 9468SOL    HW239867   2.934   0.815   4.672 -1.7298 -0.1037 -2.8252
 9469SOL     OW39868   0.305   1.723   6.324 -0.6522  0.5316 -0.5159
 9469SOL    HW139869   0.352   1.648   6.361 -2.4906 -0.0740  0.5939
 9469SOL    HW239870   0.311   1.708   6.230 -0.6509 -0.7232 -0.3083
 9470SOL     OW39871   0.937   4.511  10.835 -0.2227  0.1385 -0.3281
 9470SOL    HW139872   0.932   4.577  10.904  1.2806  2.7476 -2.7166
 9470SOL    HW239873   0.981   4.443  10.886 -0.8019  0.7600  0.9960
 9471SOL     OW39874   3.191   4.433  12.271  0.3198  0.2585 -0.2031
 9471SOL    HW139875   3.241   4.428  12.352  1.4354 -1.1799 -0.9789
 9471SOL    HW239876   3.150   4.519  12.278 -0.7623 -0.0442 -2.8979
 9472SOL     OW39877   0.433   2.510  10.966  0.4328 -0.3433  0.4218
 9472SOL    HW139878   0.363   2.496  11.030 -1.2112  1.3250 -1.0257
 9472SOL    HW239879   0.502   2.446  10.987 -1.5303 -3.2134 -1.7887
 9473SOL     OW39880   2.144   1.098   9.331 -0.3245  0.2436  0.6776
 9473SOL    HW139881   2.190   1.124   9.252 -0.5883  0.9199  0.7475
 9473SOL    HW239882   2.166   1.170   9.389 -2.1484  1.1409  0.2460
 9474SOL     OW39883   0.619   4.285   3.136  0.4450 -0.4523 -0.8180
 9474SOL    HW139884   0.669   4.256   3.060  0.6348 -0.5415 -0.6601
 9474SOL    HW239885   0.654   4.235   3.210  0.3876  0.3116 -0.2728
 9475SOL     OW39886   2.116   0.473  17.470 -0.2805 -0.0934  0.0674
 9475SOL    HW139887   2.110   0.492  17.376  0.8588 -1.6665 -0.3202
 9475SOL    HW239888   2.147   0.561  17.492 -1.0080  0.0880  0.3540
 9476SOL     OW39889   1.924   4.655   4.029  0.0114  0.3237 -0.2290
 9476SOL    HW139890   1.861   4.586   4.045  0.9013 -0.5699 -0.5671
 9476SOL    HW239891   1.952   4.631   3.940  1.4153 -0.2035  0.3443
 9477SOL     OW39892   2.431   2.790   1.797 -0.0683 -0.2095  0.0727
 9477SOL    HW139893   2.525   2.782   1.782  0.1771 -0.5796  1.8237
 9477SOL    HW239894   2.408   2.739   1.875  2.7664 -1.7476 -0.1141
 9478SOL     OW39895   2.637   3.875   9.557 -0.4540 -0.4393  0.4607
 9478SOL    HW139896   2.677   3.960   9.570  1.1233 -1.1064 -0.0541
 9478SOL    HW239897   2.663   3.854   9.467  1.3294 -0.6873  1.0427
 9479SOL     OW39898   2.620   2.935   5.525  0.4389 -0.3106 -0.0705
 9479SOL    HW139899   2.659   2.874   5.588 -1.5750 -1.5311 -0.0229
 9479SOL    HW239900   2.583   2.995   5.590  1.1342  1.3102 -1.1543
 9480SOL     OW39901   2.849   0.983  12.036 -0.0705 -0.2565  0.1397
 9480SOL    HW139902   2.939   0.957  12.013  0.4373  0.6456  1.1046
 9480SOL    HW239903   2.862   1.043  12.109 -0.9828  0.0620  0.0332
 9481SOL     OW39904   2.849   2.837  13.580 -0.1314 -0.1728  0.2798
 9481SOL    HW139905   2.765   2.881  13.598 -0.4477 -0.7046  0.0984
 9481SOL    HW239906   2.910   2.909  13.596 -0.2363  0.0942 -0.5356
 9482SOL     OW39907   1.002   0.231  11.965  0.3882 -0.3104 -0.2541
 9482SOL    HW139908   1.002   0.314  11.918  0.1857 -1.5295 -2.4226
 9482SOL    HW239909   1.084   0.198  11.929  1.4977 -0.2886  2.2705
 9483SOL     OW39910   0.297   3.549   4.826 -0.1004 -0.1933 -0.0311
 9483SOL    HW139911   0.202   3.546   4.813 -0.2007 -1.6317  0.9475
 9483SOL    HW239912   0.306   3.644   4.821 -3.0583  0.2111  2.0777
 9484SOL     OW39913   4.038   4.073  16.435  0.6090  0.6089  0.0234
 9484SOL    HW139914   4.024   4.082  16.530 -0.5480 -0.1804 -0.0660
 9484SOL    HW239915   4.123   4.029  16.434  0.2283 -0.1563  0.4680
 9485SOL     OW39916   0.942   4.538   6.976  0.4545 -0.1732 -0.2037
 9485SOL    HW139917   0.870   4.600   6.967  0.3602 -0.4315 -1.3090
 9485SOL    HW239918   0.926   4.492   7.058  1.3847 -0.4387 -0.1671
 9486SOL     OW39919   0.056   0.728   7.396  0.2609 -0.0578  0.7302
 9486SOL    HW139920   0.141   0.716   7.354 -0.0866  1.0690 -0.2682
 9486SOL    HW239921   0.018   0.647   7.363  0.3706 -0.7463  2.2636
 9487SOL     OW39922   4.336   0.120   5.662 -0.3131 -0.4233 -0.2607
 9487SOL    HW139923   4.253   0.072   5.653  0.5302 -1.6258 -1.6234
 9487SOL    HW239924   4.384   0.085   5.586 -0.7391  0.6523 -1.0355
 9488SOL     OW39925   0.150   3.626  10.563 -0.6100 -0.4887  0.3796
 9488SOL    HW139926   0.154   3.697  10.500 -0.7971  1.3504  2.4431
 9488SOL    HW239927   0.058   3.634  10.589 -0.2332  0.2707  1.4405
 9489SOL     OW39928   4.626   0.080   5.955 -0.4209  0.6466 -0.3304
 9489SOL    HW139929   4.641   0.010   6.019  0.3974 -1.5744 -2.9530
 9489SOL    HW239930   4.690   0.144   5.986 -0.8950  1.0470 -0.1604
 9490SOL     OW39931   3.265   3.580   9.868  0.8914 -0.6393 -0.3906
 9490SOL    HW139932   3.204   3.631   9.921 -1.0086  0.2952 -3.4786
 9490SOL    HW239933   3.210   3.529   9.808  1.6361 -0.7263 -0.9930
 9491SOL     OW39934   0.270   3.105   0.689 -0.7265 -0.0491 -0.1463
 9491SOL    HW139935   0.276   3.079   0.781  0.3380 -1.3181 -0.5590
 9491SOL    HW239936   0.194   3.162   0.698 -0.8874  0.2743 -3.4902
 9492SOL     OW39937   1.340   1.553   4.264  0.2520 -0.4454  0.0247
 9492SOL    HW139938   1.392   1.562   4.343  0.0045  1.9446 -0.0634
 9492SOL    HW239939   1.335   1.641   4.226 -0.5507  0.0122  1.1755
 9493SOL     OW39940   0.351   3.610   2.728  0.4419 -0.1722  0.0927
 9493SOL    HW139941   0.366   3.525   2.768  1.2742 -1.2743 -2.5746
 9493SOL    HW239942   0.378   3.667   2.800  0.3390  1.8846 -1.4896
 9494SOL     OW39943   0.229   0.336   7.905  0.6302  0.3884  0.5330
 9494SOL    HW139944   0.246   0.244   7.929 -1.9441 -0.7651 -2.1393
 9494SOL    HW239945   0.257   0.386   7.982  1.5885 -0.2571  0.6103
 9495SOL     OW39946   4.338   0.695   3.882 -0.5333 -0.4018  0.0033
 9495SOL    HW139947   4.387   0.707   3.800 -0.5692  0.6898  0.1387
 9495SOL    HW239948   4.408   0.663   3.938 -0.7209 -1.0183 -0.1075
 9496SOL     OW39949   2.125   4.264   6.875  0.2780 -0.3723 -0.4957
 9496SOL    HW139950   2.048   4.245   6.927 -0.8636  1.5482 -1.4629
 9496SOL    HW239951   2.157   4.176   6.854  0.9730  0.1356 -1.5480
 9497SOL     OW39952   1.233   3.142   7.232 -0.1804 -0.1947 -0.3753
 9497SOL    HW139953   1.221   3.137   7.137  0.5504  0.0846 -0.4852
 9497SOL    HW239954   1.153   3.183   7.264 -0.4004 -0.6622 -0.3137
 9498SOL     OW39955   2.743   1.064   1.691 -0.5072 -1.1049  0.2497
 9498SOL    HW139956   2.775   1.148   1.724  1.5147 -1.5678 -0.5086
 9498SOL    HW239957   2.670   1.062   1.752 -1.7807 -0.1646 -1.2687
 9499SOL     OW39958   2.109   2.766  15.849 -0.2614  0.3102  0.2109
 9499SOL    HW139959   2.132   2.721  15.930 -1.6339  0.5598  0.7455
 9499SOL    HW239960   2.196   2.803  15.833 -0.0313  0.6462  2.3274
 9500SOL     OW39961   3.823   2.684  11.818 -0.3301 -0.1130 -0.9012
 9500SOL    HW139962   3.823   2.645  11.905 -1.4588  0.6658 -0.5572
 9500SOL    HW239963   3.734   2.660  11.792 -1.2250  0.2049  1.9048
 9501SOL     OW39964   4.674   2.893   7.748  0.4465  0.1796  0.3326
 9501SOL    HW139965   4.596   2.842   7.725  1.0876  0.3196 -2.1052
 9501SOL    HW239966   0.019   2.832   7.723  1.1362  0.4227  1.6581
 9502SOL     OW39967   4.220   2.710  15.914  0.2270 -0.0348 -0.5044
 9502SOL    HW139968   4.262   2.687  15.831  0.3729  0.8932 -0.6837
 9502SOL    HW239969   4.132   2.692  15.882  1.0288 -0.7325 -2.3595
 9503SOL     OW39970   2.499   3.617   1.148 -0.2818 -0.2202  0.5937
 9503SOL    HW139971   2.474   3.585   1.234 -1.7611 -1.2080 -0.1986
 9503SOL    HW239972   2.442   3.694   1.137 -1.0598 -0.9320 -0.4724
 9504SOL     OW39973   0.090   1.235   3.867 -0.0908 -0.0515 -0.8212
 9504SOL    HW139974   0.006   1.193   3.884 -0.8930  1.5439 -0.8502
 9504SOL    HW239975   0.081   1.256   3.774 -0.2427 -2.5767 -1.3695
 9505SOL     OW39976   4.340   3.801  16.909  0.9590 -0.3818 -0.6678
 9505SOL    HW139977   4.362   3.738  16.978  0.6097 -0.4308 -0.6009
 9505SOL    HW239978   4.263   3.762  16.868  0.9655 -0.6527 -0.4204
 9506SOL     OW39979   1.674   3.849   0.764 -0.2880  0.2229  0.3920
 9506SOL    HW139980   1.675   3.918   0.698  2.1107 -1.3454 -1.2612
 9506SOL    HW239981   1.769   3.835   0.772 -1.0130 -1.5370  5.6474
 9507SOL     OW39982   0.454   3.602   4.073 -0.4486  0.4764  0.4418
 9507SOL    HW139983   0.426   3.515   4.044  1.5010  0.3221 -0.9885
 9507SOL    HW239984   0.548   3.583   4.075 -0.6354 -0.4096  0.7969
 9508SOL     OW39985   2.384   2.616  14.801 -0.0645 -0.2948  0.3248
 9508SOL    HW139986   2.463   2.662  14.828 -1.7328  2.2180  0.9420
 9508SOL    HW239987   2.342   2.601  14.886 -0.8556 -2.3707 -0.4164
 9509SOL     OW39988   0.334   4.593   2.206 -0.5692 -0.0268  0.1895
 9509SOL    HW139989   0.376   4.659   2.260  0.9181 -1.3132  0.6028
 9509SOL    HW239990   0.355   4.616   2.115 -2.5159  2.0157  0.2431
 9510SOL     OW39991   1.931   2.920   2.413 -0.2998  0.2998  1.0263
 9510SOL    HW139992   1.895   2.837   2.446 -0.9380  0.8189  1.6238
 9510SOL    HW239993   1.887   2.977   2.475 -1.3528  1.1760 -0.5207
 9511SOL     OW39994   1.864   1.915   5.405 -0.0178 -0.6282  0.2909
 9511SOL    HW139995   1.931   1.924   5.473 -1.0793  1.7454  1.0239
 9511SOL    HW239996   1.905   1.868   5.333 -1.4150  0.3063 -1.0944
 9512SOL     OW39997   1.528   3.398   1.196 -0.1411  0.1521  0.6629
 9512SOL    HW139998   1.574   3.316   1.214  2.0396  1.5849  1.4452
 9512SOL    HW239999   1.477   3.413   1.276 -2.6436  2.5308 -1.3857
 9513SOL     OW40000   1.946   0.761   2.309 -0.3866  0.3802  0.7110
 9513SOL    HW140001   1.955   0.832   2.373  1.6295 -0.0741  0.9475
 9513SOL    HW240002   2.040   0.744   2.299 -0.4246  0.1449  0.7555
 9514SOL     OW40003   0.282   2.394   3.018 -0.2276  0.1234 -0.3103
 9514SOL    HW140004   0.188   2.377   3.007  0.0069 -1.3215 -0.0433
 9514SOL    HW240005   0.277   2.489   3.026 -1.7276  0.0509 -0.3591
 9515SOL     OW40006   2.281   1.515   3.921  0.5083  0.1838  0.0356
 9515SOL    HW140007   2.344   1.488   3.855 -1.2095 -0.5211 -1.2988
 9515SOL    HW240008   2.253   1.601   3.890 -2.3654 -1.3121 -1.4280
 9516SOL     OW40009   3.849   3.830   2.728 -0.2477  0.2861 -0.1920
 9516SOL    HW140010   3.844   3.750   2.781  0.3088 -0.2762 -0.9796
 9516SOL    HW240011   3.765   3.871   2.747  0.7832  1.3148  2.2623
 9517SOL     OW40012   4.698   0.182   4.001  0.0214  0.3273  0.0764
 9517SOL    HW140013   4.661   0.210   4.085  0.4902 -0.2197  0.4659
 9517SOL    HW240014   4.684   0.252   3.938  0.3428  1.3086  1.0928
 9518SOL     OW40015   2.239   3.556  17.413 -0.0395  0.1442 -0.3767
 9518SOL    HW140016   2.248   3.615  17.488 -2.1274  0.9178 -0.7264
 9518SOL    HW240017   2.177   3.491  17.445  0.0629  0.1596 -0.1493
 9519SOL     OW40018   1.850   3.570  16.918 -0.1770 -0.5751 -0.2674
 9519SOL    HW140019   1.817   3.582  17.007 -0.5974 -0.2146 -0.4709
 9519SOL    HW240020   1.887   3.654  16.890 -0.2540 -0.2775  0.5371
 9520SOL     OW40021   1.563   3.849   6.916  0.2878  0.1287  0.2857
 9520SOL    HW140022   1.497   3.801   6.966 -0.6233  1.0041 -0.0829
 9520SOL    HW240023   1.603   3.779   6.864 -0.7765  0.5741 -1.1366
 9521SOL     OW40024   2.498   4.313   2.750  0.1822  0.0714 -0.4520
 9521SOL    HW140025   2.563   4.334   2.683  1.1950 -2.3538 -0.2246
 9521SOL    HW240026   2.456   4.231   2.724 -1.4272  0.7266  0.0863
 9522SOL     OW40027   2.161   4.249   0.326 -0.1496 -0.7545  0.3853
 9522SOL    HW140028   2.110   4.301   0.388 -1.8922 -0.4819 -1.2759
 9522SOL    HW240029   2.157   4.301   0.246  0.4019 -0.5661  0.4793
 9523SOL     OW40030   2.023   1.181   8.214  0.4456  0.0300  0.1527
 9523SOL    HW140031   1.948   1.201   8.157 -0.8081 -2.9535  0.8118
 9523SOL    HW240032   2.074   1.114   8.169  0.0878  0.0897 -0.3373
 9524SOL     OW40033   1.320   2.477  15.293  0.1238  0.2039  0.2242
 9524SOL    HW140034   1.373   2.462  15.214  0.1466 -0.1934  0.3160
 9524SOL    HW240035   1.387   2.488  15.360 -1.2961  0.7208  1.5659
 9525SOL     OW40036   4.075   2.773  12.056  0.1973 -0.1441  0.2965
 9525SOL    HW140037   3.994   2.722  12.060  0.7452 -1.0714 -0.4774
 9525SOL    HW240038   4.076   2.810  11.968 -0.4047  0.2755  0.4699
 9526SOL     OW40039   0.694   0.990  10.251 -0.2810  0.2506  0.3127
 9526SOL    HW140040   0.628   1.026  10.192  1.2099 -2.4830 -3.0598
 9526SOL    HW240041   0.644   0.954  10.324 -0.1856 -0.7238 -0.0962
 9527SOL     OW40042   0.112   0.478   7.695 -0.0199 -0.8039 -0.0222
 9527SOL    HW140043   0.077   0.559   7.732 -0.4936 -1.0265  0.0041
 9527SOL    HW240044   0.162   0.435   7.764  0.6777  0.1010  0.0353
 9528SOL     OW40045   4.214   3.298   1.031 -0.7381  0.5942 -0.2977
 9528SOL    HW140046   4.257   3.331   0.952 -1.3609  1.4967 -0.2635
 9528SOL    HW240047   4.187   3.211   1.004  1.7749 -0.9906  2.2367
 9529SOL     OW40048   0.581   3.628   8.250  0.0674 -0.2114 -0.3122
 9529SOL    HW140049   0.612   3.543   8.281  0.7499 -0.1117 -0.7210
 9529SOL    HW240050   0.514   3.644   8.317  0.6202 -0.0742  0.2101
 9530SOL     OW40051   0.178   3.530   6.480  0.2487  0.2013 -0.0188
 9530SOL    HW140052   0.093   3.570   6.465  0.2068 -1.0553 -3.1804
 9530SOL    HW240053   0.174   3.458   6.417  0.1566  0.1471  0.0500
 9531SOL     OW40054   3.805   4.425   2.511  0.5329  0.1764 -0.0283
 9531SOL    HW140055   3.862   4.409   2.435 -0.1798 -0.5045 -0.4121
 9531SOL    HW240056   3.720   4.447   2.472  2.5925  1.6171 -3.7083
 9532SOL     OW40057   2.958   4.122   1.772  0.3299  0.0449  0.2940
 9532SOL    HW140058   2.889   4.185   1.754 -0.2555 -0.8114 -0.4516
 9532SOL    HW240059   2.898   4.050   1.789  1.3488 -0.4379  1.8102
 9533SOL     OW40060   1.034   0.023  15.772 -0.8112  0.0584  0.0739
 9533SOL    HW140061   1.075   0.058  15.851  2.1563  2.5705 -2.5618
 9533SOL    HW240062   1.031   4.654  15.792 -0.9484 -0.5351 -2.7280
 9534SOL     OW40063   4.393   0.561   4.236  0.2649  0.7933 -0.0004
 9534SOL    HW140064   4.369   0.478   4.277  2.6095 -0.2807 -0.7861
 9534SOL    HW240065   4.412   0.527   4.148  0.8507  0.9089  0.0841
 9535SOL     OW40066   2.390   0.236   8.412  0.2858 -0.0353  0.5706
 9535SOL    HW140067   2.453   0.170   8.442  0.8568 -0.3989 -1.4519
 9535SOL    HW240068   2.328   0.178   8.367  0.4559  0.6668 -0.5785
 9536SOL     OW40069   2.476   2.895   4.168  0.3661 -0.0802 -0.2228
 9536SOL    HW140070   2.433   2.889   4.083  0.2791  0.0389 -0.1863
 9536SOL    HW240071   2.492   2.805   4.199  0.7820  0.1905  0.3548
 9537SOL     OW40072   1.527   0.265   8.032 -0.2929 -0.0012 -0.3409
 9537SOL    HW140073   1.540   0.318   8.110 -2.2250  2.0187 -1.3565
 9537SOL    HW240074   1.581   0.314   7.969  2.5615 -0.0225  2.0766
 9538SOL     OW40075   0.517   4.094   1.239 -0.1316  0.6974 -0.0495
 9538SOL    HW140076   0.475   4.075   1.155  1.2412  1.9162 -1.0202
 9538SOL    HW240077   0.606   4.065   1.219 -0.7088  0.7087 -2.6307
 9539SOL     OW40078   4.493   2.567  11.140 -0.1797  0.2048 -0.1086
 9539SOL    HW140079   4.426   2.612  11.089 -1.4085 -0.0843  1.2583
 9539SOL    HW240080   4.449   2.488  11.172 -0.6230 -1.4308 -4.6918
 9540SOL     OW40081   2.652   1.437   0.473 -0.5040  0.1826  0.2575
 9540SOL    HW140082   2.598   1.383   0.416  2.2871 -0.9148 -1.3430
 9540SOL    HW240083   2.723   1.453   0.410 -0.5018 -2.2238 -0.3496
 9541SOL     OW40084   2.798   4.478   4.714  0.8043  0.6488  0.6018
 9541SOL    HW140085   2.819   4.388   4.688 -1.7189  0.2726 -0.1211
 9541SOL    HW240086   2.723   4.464   4.772 -0.8025 -0.9893 -1.8265
 9542SOL     OW40087   4.116   0.138   2.269 -0.3409 -0.2596  0.9721
 9542SOL    HW140088   4.153   0.050   2.258  0.2097 -0.0302  0.9576
 9542SOL    HW240089   4.185   0.197   2.237  1.4982 -2.1496  1.4139
 9543SOL     OW40090   2.777   1.622   1.729  0.0858 -0.2404  0.0358
 9543SOL    HW140091   2.803   1.658   1.645 -0.0205  1.3367  0.6762
 9543SOL    HW240092   2.715   1.682   1.771 -2.4346 -3.1182  0.4409
 9544SOL     OW40093   0.400   0.672   0.626 -0.0393  0.1569 -0.5611
 9544SOL    HW140094   0.464   0.713   0.683 -0.1834 -0.4633  0.0462
 9544SOL    HW240095   0.370   0.591   0.668 -0.1261  0.8514  0.6919
 9545SOL     OW40096   0.626   3.940   7.627  0.3943  0.3576 -0.5443
 9545SOL    HW140097   0.691   3.930   7.557 -0.5603 -0.5314 -1.3083
 9545SOL    HW240098   0.679   3.959   7.703  0.1193 -3.1882  0.4896
 9546SOL     OW40099   4.640   0.355   3.804 -0.5397  0.0493  0.7166
 9546SOL    HW140100   4.668   0.301   3.730 -4.1363 -0.5740 -0.2112
 9546SOL    HW240101   4.547   0.372   3.790 -0.1485  2.6969  1.4097
 9547SOL     OW40102   2.470   0.376   5.692  0.3424 -0.6328  0.0579
 9547SOL    HW140103   2.558   0.341   5.680  1.0359  1.3164 -0.6685
 9547SOL    HW240104   2.406   0.306   5.684  1.2501 -1.1220 -2.8034
 9548SOL     OW40105   0.421   4.374  12.840  0.2002 -0.2246  0.2917
 9548SOL    HW140106   0.469   4.295  12.863 -0.5474 -0.5759  0.6304
 9548SOL    HW240107   0.338   4.339  12.808 -0.5341  1.4880  0.3142
 9549SOL     OW40108   1.101   0.575  10.690 -0.0225  0.2171  0.0713
 9549SOL    HW140109   1.191   0.609  10.690  0.0775 -0.0477  0.5557
 9549SOL    HW240110   1.057   0.659  10.676 -0.1863  0.2762  0.9405
 9550SOL     OW40111   0.071   4.388   2.406  0.5507 -0.1521 -0.2799
 9550SOL    HW140112   4.708   4.349   2.415  0.9560 -0.8485  0.6785
 9550SOL    HW240113   0.117   4.316   2.363 -0.1024 -0.0310 -1.1687
 9551SOL     OW40114   1.014   1.586   3.936 -0.4035  0.0249  0.0768
 9551SOL    HW140115   1.030   1.519   3.870 -2.8940 -0.4928 -0.0051
 9551SOL    HW240116   0.946   1.644   3.903 -0.9169 -2.3739 -3.1150
 9552SOL     OW40117   2.511   1.013  12.030 -0.0149  0.0869 -0.0686
 9552SOL    HW140118   2.595   0.966  12.035  0.6472  1.5484  2.8451
 9552SOL    HW240119   2.474   0.943  11.976  1.5955 -0.6608 -0.2075
 9553SOL     OW40120   0.628   4.688   7.756 -0.0133 -0.2437  0.1894
 9553SOL    HW140121   0.721   4.710   7.760  0.2534 -1.6137  1.6640
 9553SOL    HW240122   0.612   4.710   7.664  0.6027 -0.5380  0.0152
 9554SOL     OW40123   2.271   2.940   7.333 -0.4630 -0.1243 -0.2139
 9554SOL    HW140124   2.274   2.940   7.428  4.5549  0.8500 -0.3494
 9554SOL    HW240125   2.184   2.970   7.309 -0.3588 -1.6680 -2.6032
 9555SOL     OW40126   4.596   0.358   4.236 -0.3861 -0.7988 -0.1642
 9555SOL    HW140127   4.562   0.417   4.169  0.1199  1.5440  1.6676
 9555SOL    HW240128   4.616   0.414   4.310 -1.7526  0.0257 -0.4251
 9556SOL     OW40129   0.486   4.202   7.022  0.0209  0.0477 -0.0432
 9556SOL    HW140130   0.531   4.220   7.105 -2.2769 -0.2728  1.2717
 9556SOL    HW240131   0.512   4.273   6.963  0.3930 -1.3092 -1.5019
 9557SOL     OW40132   3.031   3.748   4.484 -0.3011  0.3952 -0.1150
 9557SOL    HW140133   3.111   3.696   4.492  1.5679  3.3209  0.2245
 9557SOL    HW240134   3.023   3.789   4.570  0.7773 -2.0616  1.1414
 9558SOL     OW40135   3.180   1.568  10.178 -0.3409  0.1445 -0.5579
 9558SOL    HW140136   3.140   1.513  10.111  0.5078 -0.0354 -0.9097
 9558SOL    HW240137   3.197   1.512  10.254  0.0102 -1.3707 -1.7584
 9559SOL     OW40138   0.389   3.429  17.417 -0.0162 -0.1122 -0.5316
 9559SOL    HW140139   0.344   3.348  17.393  1.6559 -0.7655 -1.4795
 9559SOL    HW240140   0.316   3.487  17.395 -0.5792 -0.5692  0.1271
 9560SOL     OW40141   2.146   0.133  14.216 -0.0962  0.1936 -0.3203
 9560SOL    HW140142   2.118   0.203  14.157 -3.1491  0.3013  1.2695
 9560SOL    HW240143   2.198   0.191  14.272 -1.9542  1.4439  0.1084
 9561SOL     OW40144   2.075   1.049   4.187  0.5435 -0.0449 -0.1549
 9561SOL    HW140145   1.995   0.997   4.195 -2.1602  4.0286 -0.1662
 9561SOL    HW240146   2.062   1.101   4.107  0.7707  1.1249  0.5615
 9562SOL     OW40147   2.511   0.990  10.592  0.2043 -0.1539 -0.1250
 9562SOL    HW140148   2.565   1.068  10.599 -0.3705 -0.0643  3.1614
 9562SOL    HW240149   2.425   1.020  10.620  0.1232  0.3628 -0.9220
 9563SOL     OW40150   0.345   4.434   6.396 -0.4715  0.1142 -0.3707
 9563SOL    HW140151   0.266   4.488   6.395  0.3250  1.3317  2.5950
 9563SOL    HW240152   0.324   4.345   6.367 -2.1493  0.3701  0.0563
 9564SOL     OW40153   3.371   3.580   9.470 -0.6240 -0.0906  0.3519
 9564SOL    HW140154   3.433   3.588   9.398 -0.9581  1.3493  0.2179
 9564SOL    HW240155   3.401   3.495   9.502  0.0579  0.3421  0.8680
 9565SOL     OW40156   1.230   0.148  13.785  0.0111  0.2129  0.6782
 9565SOL    HW140157   1.244   0.241  13.770  0.0618  0.6153  3.1747
 9565SOL    HW240158   1.162   0.139  13.851 -0.5466 -1.5297 -0.1331
 9566SOL     OW40159   3.293   3.442  17.205 -0.2571 -0.0137  0.1737
 9566SOL    HW140160   3.225   3.449  17.272 -3.0422 -2.4636 -2.4169
 9566SOL    HW240161   3.246   3.456  17.123 -1.9599 -1.8806  0.8517
 9567SOL     OW40162   0.681   3.162   2.968  0.0195 -0.1501 -0.4735
 9567SOL    HW140163   0.648   3.231   3.026  0.0369 -0.5439  0.0074
 9567SOL    HW240164   0.776   3.162   2.981 -0.1055  2.4352  0.4884
 9568SOL     OW40165   0.722   4.485   7.365  0.1517 -0.1063 -0.9891
 9568SOL    HW140166   0.649   4.448   7.415 -1.0181  1.0144 -1.8772
 9568SOL    HW240167   0.769   4.528   7.437 -1.6693  1.8538 -0.9448
   4.72447   4.72447  17.69942
